<event>
 6    1  0.9434649E-006  0.6820415E+03  0.7818608E-02  0.9149444E-01
          2   -1    0    0  502    0  0.00000000000E+00  0.00000000000E+00  0.11960868244E+04  0.11960868244E+04  0.00000000000E+00 0.  1.
          4   -1    0    0  501    0 -0.00000000000E+00 -0.00000000000E+00 -0.37346144648E+03  0.37346144648E+03  0.00000000000E+00 0.  1.
        -13    1    1    2    0    0 -0.71300938090E+02  0.84738815287E+02 -0.30011534670E+03  0.31989642555E+03  0.10566000000E+00 0.  1.
         13    1    1    2    0    0  0.10994443410E+03 -0.13635107930E+02  0.25325652444E+03  0.27642824222E+03  0.10566000000E+00 0. -1.
          2    1    1    2  501    0 -0.59998755438E+02 -0.15581115191E+03  0.86998767380E+03  0.88586427757E+03  0.00000000000E+00 0.  1.
          4    1    1    2  502    0  0.21355259426E+02  0.84707444549E+02 -0.50347365150E+00  0.87359325506E+02  0.00000000000E+00 0.  1.
</event>
<event>
 6    1  0.3263299E-005  0.1365646E+03  0.7818608E-02  0.1115174E+00
         -4   -1    0    0    0  501 -0.00000000000E+00  0.00000000000E+00  0.32611350560E+02  0.32611350560E+02  0.00000000000E+00 0. -1.
          2   -1    0    0  501    0  0.00000000000E+00 -0.00000000000E+00 -0.76434738105E+03  0.76434738105E+03  0.00000000000E+00 0. -1.
        -13    1    1    2    0    0  0.25685078262E+02  0.21538425991E+01 -0.99801232895E+02  0.10307598913E+03  0.10566000000E+00 0.  1.
         13    1    1    2    0    0 -0.24007627215E+02 -0.38904069569E+01  0.24484049919E+02  0.34510596854E+02  0.10566000000E+00 0. -1.
          2    1    1    2  502    0 -0.14617005204E+02  0.76443746308E+01 -0.62078508878E+03  0.62100420269E+03  0.00000000000E+00 0. -1.
         -4    1    1    2    0  502  0.12939554157E+02 -0.59078102730E+01 -0.35633758731E+02  0.38367942938E+02  0.00000000000E+00 0. -1.
</event>
<event>
 7    1  0.9434649E-006  0.1143147E+04  0.7818608E-02  0.8825982E-01
          2   -1    0    0  501    0  0.00000000000E+00  0.00000000000E+00  0.15911434217E+04  0.15911434217E+04  0.00000000000E+00 0.  1.
         -4   -1    0    0    0  501 -0.00000000000E+00 -0.00000000000E+00 -0.22551393453E+04  0.22551393453E+04  0.00000000000E+00 0. -1.
   -9000010    2    1    2    0  502  0.39589238813E+03  0.37608948527E+03 -0.17096898199E+04  0.20586351342E+04  0.10083477830E+04 0.  0.
        -13    1    1    2    0    0 -0.48443031664E+03 -0.24392574617E+03 -0.16470990994E+03  0.56683495562E+03  0.10566000000E+00 0.  1.
         13    1    3    3    0    0  0.21785290795E+03  0.60426004152E+03 -0.16394919896E+04  0.17608305093E+04  0.10566000000E+00 0. -1.
          2    1    1    2  502    0  0.88537928509E+02 -0.13216373911E+03  0.12104038062E+04  0.12208126772E+04  0.00000000000E+00 0.  1.
         -4    1    3    3    0  502  0.17803948017E+03 -0.22817055624E+03 -0.70197830338E+02  0.29780462492E+03  0.00000000000E+00 0. -1.
</event>
<event>
 7    1  0.9434649E-006  0.1021201E+04  0.7818608E-02  0.9102280E-01
         -4   -1    0    0    0  501 -0.00000000000E+00  0.00000000000E+00  0.13876925622E+04  0.13876925622E+04  0.00000000000E+00 0. -1.
          2   -1    0    0  501    0  0.00000000000E+00 -0.00000000000E+00 -0.41019312836E+03  0.41019312836E+03  0.00000000000E+00 0. -1.
   -9000010    2    1    2    0  502  0.26094204522E+03  0.37256271144E+02  0.67077109417E+03  0.12257287949E+04  0.99146277648E+03 0.  0.
        -13    1    1    2    0    0 -0.24039160174E+03 -0.30877277571E+02  0.40476866105E+03  0.47178301007E+03  0.10566000000E+00 0.  1.
         13    1    3    3    0    0 -0.43855363399E+01 -0.31140938805E+03 -0.11010702612E+03  0.33033105858E+03  0.10566000000E+00 0. -1.
          2    1    1    2  502    0 -0.20550443477E+02 -0.63789935730E+01 -0.98040321400E+02  0.10037388558E+03  0.00000000000E+00 0. -1.
         -4    1    3    3    0  502  0.26532758156E+03  0.34866565920E+03  0.78087812029E+03  0.89539773631E+03  0.00000000000E+00 0. -1.
</event>
<event>
 7    1  0.9434649E-006  0.1122865E+04  0.7818608E-02  0.8828529E-01
          4   -1    0    0  501    0 -0.00000000000E+00  0.00000000000E+00  0.11511625106E+04  0.11511625106E+04  0.00000000000E+00 0.  1.
          2   -1    0    0  502    0  0.00000000000E+00 -0.00000000000E+00 -0.14479978751E+04  0.14479978751E+04  0.00000000000E+00 0.  1.
    9000010    2    1    2  502    0  0.43689869627E+03  0.40314454336E+03 -0.18236774521E+03  0.11673932403E+04  0.98799948855E+03 0.  0.
        -13    1    3    3    0    0 -0.20250829765E+03  0.25214320628E+03 -0.36285738848E+03  0.48605689238E+03  0.10566000000E+00 0.  1.
         13    1    1    2    0    0  0.12199406030E+03 -0.54879447699E+03  0.37409620586E+03  0.67528209744E+03  0.10566000000E+00 0. -1.
          2    1    1    2  501    0 -0.55889275657E+03  0.14564993363E+03 -0.48856382522E+03  0.75648504798E+03  0.00000000000E+00 0.  1.
          4    1    3    3  502    0  0.63940699392E+03  0.15100133708E+03  0.18048964327E+03  0.68133634792E+03  0.00000000000E+00 0.  1.
</event>
<event>
 7    1  0.9434649E-006  0.1042070E+04  0.7818608E-02  0.9003160E-01
          4   -1    0    0  501    0 -0.00000000000E+00  0.00000000000E+00  0.27265479561E+03  0.27265479561E+03  0.00000000000E+00 0.  1.
          2   -1    0    0  502    0  0.00000000000E+00 -0.00000000000E+00 -0.28911984248E+04  0.28911984248E+04  0.00000000000E+00 0. -1.
    9000010    2    1    2  502    0 -0.11391098000E+03 -0.31883748349E+03 -0.20616897711E+04  0.23095399771E+04  0.98426477201E+03 0.  0.
        -13    1    3    3    0    0  0.41228476258E+03 -0.79893406658E+02 -0.12055896599E+04  0.12766393857E+04  0.10566000000E+00 0.  1.
         13    1    1    2    0    0  0.12619578373E+03  0.31850574596E+03 -0.48732823333E+02  0.34604361759E+03  0.10566000000E+00 0. -1.
          2    1    1    2  501    0 -0.12284803724E+02  0.33173753294E+00 -0.50812103477E+03  0.50826962572E+03  0.00000000000E+00 0. -1.
          4    1    3    3  502    0 -0.52619574258E+03 -0.23894407684E+03 -0.85610011114E+03  0.10329005914E+04  0.00000000000E+00 0.  1.
</event>
<event>
 7    1  0.9434649E-006  0.1035349E+04  0.7818608E-02  0.9050476E-01
         -4   -1    0    0    0  501 -0.00000000000E+00  0.00000000000E+00  0.87581198758E+03  0.87581198758E+03  0.00000000000E+00 0. -1.
          2   -1    0    0  501    0  0.00000000000E+00 -0.00000000000E+00 -0.17845729880E+04  0.17845729880E+04  0.00000000000E+00 0. -1.
   -9000010    2    1    2    0  502  0.11688140582E+03  0.41261417285E+03  0.68561524022E+02  0.10850496235E+04  0.99434414782E+03 0.  0.
        -13    1    1    2    0    0  0.98181514569E+02 -0.26123138954E+03  0.21629970386E+03  0.35308217421E+03  0.10566000000E+00 0.  1.
         13    1    3    3    0    0 -0.13296757631E+03 -0.10995324205E+02  0.44573038288E+03  0.46527073720E+03  0.10566000000E+00 0. -1.
          2    1    1    2  502    0 -0.21506292039E+03 -0.15138278331E+03 -0.11936222283E+04  0.12222531778E+04  0.00000000000E+00 0. -1.
         -4    1    3    3    0  502  0.24984898213E+03  0.42360949706E+03 -0.37716885886E+03  0.61977888635E+03  0.00000000000E+00 0. -1.
</event>
<event>
 7    1  0.9434649E-006  0.1042710E+04  0.7818608E-02  0.9031037E-01
          2   -1    0    0  501    0  0.00000000000E+00  0.00000000000E+00  0.16506252647E+04  0.16506252647E+04  0.00000000000E+00 0. -1.
         -4   -1    0    0    0  501 -0.00000000000E+00 -0.00000000000E+00 -0.94513945437E+03  0.94513945437E+03  0.00000000000E+00 0. -1.
   -9000010    2    1    2    0  502 -0.29759024060E+03 -0.35232174581E+02 -0.47286180498E+03  0.11434280522E+04  0.99700961203E+03 0.  0.
        -13    1    1    2    0    0  0.30932459110E+03 -0.26244219266E+02  0.40842558746E+02  0.31311114237E+03  0.10566000000E+00 0.  1.
         13    1    3    3    0    0  0.15688533738E+03  0.11612836464E+03 -0.61381533912E+03  0.64410254452E+03  0.10566000000E+00 0. -1.
          2    1    1    2  502    0 -0.11734350505E+02  0.61476393847E+02  0.11375050565E+04  0.11392255245E+04  0.00000000000E+00 0. -1.
         -4    1    3    3    0  502 -0.45447557798E+03 -0.15136053922E+03  0.14095353414E+03  0.49932550766E+03  0.00000000000E+00 0. -1.
</event>
<event>
 7    1  0.9434649E-006  0.1013165E+04  0.7818608E-02  0.9020771E-01
          3   -1    0    0  501    0  0.00000000000E+00  0.00000000000E+00  0.59814552431E+03  0.59814552431E+03  0.00000000000E+00 0. -1.
         -4   -1    0    0    0  501 -0.00000000000E+00 -0.00000000000E+00 -0.12581844083E+04  0.12581844083E+04  0.00000000000E+00 0. -1.
   -9000010    2    1    2    0  502  0.35163500080E+03  0.17475574089E+02 -0.42136565130E+03  0.10989584898E+04  0.95194967346E+03 0.  0.
        -13    1    1    2    0    0 -0.34590658271E+03 -0.49621367523E+01 -0.43768039096E+03  0.55788898767E+03  0.10566000000E+00 0.  1.
         13    1    3    3    0    0 -0.42181487228E+02  0.43467115970E+03 -0.23383921293E+03  0.49537771812E+03  0.10566000000E+00 0. -1.
          3    1    1    2  502    0 -0.57284180874E+01 -0.12513437337E+02  0.19900715823E+03  0.19948245515E+03  0.00000000000E+00 0. -1.
         -4    1    3    3    0  502  0.39381648803E+03 -0.41719558561E+03 -0.18752643837E+03  0.60358077172E+03  0.00000000000E+00 0. -1.
</event>
<event>
 7    1  0.9434649E-006  0.1177667E+04  0.7818608E-02  0.8769411E-01
         -4   -1    0    0    0  501 -0.00000000000E+00  0.00000000000E+00  0.14142337812E+04  0.14142337812E+04  0.00000000000E+00 0. -1.
          2   -1    0    0  501    0  0.00000000000E+00 -0.00000000000E+00 -0.28679422732E+04  0.28679422732E+04  0.00000000000E+00 0.  1.
   -9000010    2    1    2    0  502  0.65888884771E+03 -0.42809151842E+03  0.71998386550E+03  0.14597603283E+04  0.99756031785E+03 0.  0.
        -13    1    1    2    0    0 -0.19240730416E+03  0.53517568402E+03  0.27903490110E+02  0.56939634648E+03  0.10566000000E+00 0.  1.
         13    1    3    3    0    0  0.70472494454E+03 -0.66240733490E+03  0.36879862712E+03  0.10351005571E+04  0.10566000000E+00 0. -1.
          2    1    1    2  502    0 -0.46648154354E+03 -0.10708416560E+03 -0.22015958476E+04  0.22530193796E+04  0.00000000000E+00 0.  1.
         -4    1    3    3    0  502 -0.45836096828E+02  0.23431581648E+03  0.35118523838E+03  0.42465977120E+03  0.00000000000E+00 0. -1.
</event>
<event>
 7    1  0.9434649E-006  0.1013667E+04  0.7818608E-02  0.9261506E-01
          2   -1    0    0  501    0  0.00000000000E+00  0.00000000000E+00  0.59372323790E+03  0.59372323790E+03  0.00000000000E+00 0. -1.
         -4   -1    0    0    0  501 -0.00000000000E+00 -0.00000000000E+00 -0.17860820896E+04  0.17860820896E+04  0.00000000000E+00 0. -1.
   -9000010    2    1    2    0  502  0.30430518554E+02  0.12090406691E+03 -0.15631957259E+04  0.18623939820E+04  0.10046823660E+04 0.  0.
        -13    1    1    2    0    0 -0.34296767493E+02 -0.13477594724E+03 -0.70502562342E+01  0.13924992456E+03  0.10566000000E+00 0.  1.
         13    1    3    3    0    0  0.13187241271E+02  0.29852613473E+03 -0.16408040559E+04  0.16677918687E+04  0.10566000000E+00 0. -1.
          2    1    1    2  502    0  0.38662489387E+01  0.13871880328E+02  0.37788713047E+03  0.37816142098E+03  0.00000000000E+00 0. -1.
         -4    1    3    3    0  502  0.17243277283E+02 -0.17762206782E+03  0.77608329949E+02  0.19460211321E+03  0.00000000000E+00 0. -1.
</event>
<event>
 7    1  0.9434649E-006  0.1037988E+04  0.7818608E-02  0.9102785E-01
         -4   -1    0    0    0  501 -0.00000000000E+00  0.00000000000E+00  0.28854710355E+04  0.28854710355E+04  0.00000000000E+00 0. -1.
          1   -1    0    0  501    0  0.00000000000E+00 -0.00000000000E+00 -0.25285794069E+03  0.25285794069E+03  0.00000000000E+00 0.  1.
   -9000010    2    1    2    0  502  0.22365098551E+03 -0.90829252992E+02  0.20780466545E+04  0.23237697637E+04  0.10116117338E+04 0.  0.
        -13    1    1    2    0    0 -0.22184478624E+03  0.65299183497E+02  0.66350700680E+03  0.70265258257E+03  0.10566000000E+00 0.  1.
         13    1    3    3    0    0  0.39872510965E+03  0.36453402747E+03  0.12658537200E+04  0.13763184304E+04  0.10566000000E+00 0. -1.
          1    1    1    2  502    0 -0.18061992643E+01  0.25530069495E+02 -0.10894056646E+03  0.11190662994E+03  0.00000000000E+00 0.  1.
         -4    1    3    3    0  502 -0.17507412414E+03 -0.45536328046E+03  0.81219293446E+03  0.94745133327E+03  0.00000000000E+00 0. -1.
</event>
<event>
 6    1  0.9434649E-006  0.1896332E+03  0.7818608E-02  0.1067485E+00
         -4   -1    0    0    0  501 -0.00000000000E+00  0.00000000000E+00  0.26028208962E+03  0.26028208962E+03  0.00000000000E+00 0. -1.
          2   -1    0    0  501    0  0.00000000000E+00 -0.00000000000E+00 -0.99506445614E+03  0.99506445614E+03  0.00000000000E+00 0.  1.
        -13    1    1    2    0    0 -0.94976051752E+01  0.31654430876E+02  0.42247017687E+02  0.53637945203E+02  0.10566000000E+00 0.  1.
         13    1    1    2    0    0 -0.15337722923E+02 -0.27209437770E+02 -0.17666240937E+02  0.35884627364E+02  0.10566000000E+00 0. -1.
          2    1    1    2  502    0 -0.16127593298E+02 -0.79922610683E+01 -0.96042878111E+03  0.96059742822E+03  0.00000000000E+00 0.  1.
         -4    1    1    2    0  502  0.40962921396E+02  0.35472679622E+01  0.20106563785E+03  0.20522654497E+03  0.00000000000E+00 0. -1.
</event>
<event>
 7    1  0.9434649E-006  0.1220299E+04  0.7818608E-02  0.8951689E-01
         -4   -1    0    0    0  501 -0.00000000000E+00  0.00000000000E+00  0.94183866953E+03  0.94183866953E+03  0.00000000000E+00 0. -1.
          2   -1    0    0  501    0  0.00000000000E+00 -0.00000000000E+00 -0.17292086001E+04  0.17292086001E+04  0.00000000000E+00 0. -1.
   -9000010    2    1    2    0  502 -0.41778627610E+03 -0.48025172807E+03 -0.61998696250E+03  0.13291289039E+04  0.98843953515E+03 0.  0.
        -13    1    1    2    0    0 -0.24909124088E+03  0.83630096892E+02  0.32882389267E+03  0.42091044528E+03  0.10566000000E+00 0.  1.
         13    1    3    3    0    0 -0.40581335392E+03  0.18966472311E+03 -0.45624503771E+03  0.63938777827E+03  0.10566000000E+00 0. -1.
          2    1    1    2  502    0  0.66687751698E+03  0.39662163117E+03 -0.49620686079E+03  0.92100792052E+03  0.00000000000E+00 0. -1.
         -4    1    3    3    0  502 -0.11972922186E+02 -0.66991645117E+03 -0.16374192479E+03  0.68974112560E+03  0.00000000000E+00 0. -1.
</event>
<event>
 6    1  0.9434649E-006  0.1285810E+03  0.7818608E-02  0.1124391E+00
         -4   -1    0    0    0  501 -0.00000000000E+00  0.00000000000E+00  0.34696475417E+02  0.34696475417E+02  0.00000000000E+00 0. -1.
          2   -1    0    0  501    0  0.00000000000E+00 -0.00000000000E+00 -0.50927084256E+03  0.50927084256E+03  0.00000000000E+00 0. -1.
        -13    1    1    2    0    0 -0.15954409890E+02  0.50163173020E+02 -0.34487233252E+02  0.62930656629E+02  0.10566000000E+00 0.  1.
         13    1    1    2    0    0  0.83912531452E+01 -0.45847413772E+02 -0.14674042863E+02  0.48864477659E+02  0.10566000000E+00 0. -1.
          2    1    1    2  502    0 -0.14229816007E+02  0.14383641926E+01 -0.38956087972E+03  0.38982333892E+03  0.00000000000E+00 0. -1.
         -4    1    1    2    0  502  0.21792972752E+02 -0.57541234401E+01 -0.35852211303E+02  0.42348844768E+02  0.00000000000E+00 0. -1.
</event>
<event>
 7    1  0.9434649E-006  0.1029053E+04  0.7818608E-02  0.9149572E-01
         -4   -1    0    0    0  501 -0.00000000000E+00  0.00000000000E+00  0.13640597780E+04  0.13640597780E+04  0.00000000000E+00 0. -1.
          1   -1    0    0  501    0  0.00000000000E+00 -0.00000000000E+00 -0.98046775174E+03  0.98046775174E+03  0.00000000000E+00 0.  1.
   -9000010    2    1    2    0  502 -0.10468513465E+03 -0.17132772659E+03  0.81361034360E+03  0.13121856117E+04  0.10097312123E+04 0.  0.
        -13    1    1    2    0    0  0.90882174194E+02  0.17617745044E+03  0.26845483724E+03  0.33371555917E+03  0.10566000000E+00 0.  1.
         13    1    3    3    0    0  0.13188096025E+03  0.22809340002E+03  0.80592657901E+03  0.84790143810E+03  0.10566000000E+00 0. -1.
          1    1    1    2  502    0  0.13802960460E+02 -0.48497238468E+01 -0.69847315460E+03  0.69862635882E+03  0.00000000000E+00 0.  1.
         -4    1    3    3    0  502 -0.23656609491E+03 -0.39942112661E+03  0.76837645854E+01  0.46428417363E+03  0.00000000000E+00 0. -1.
</event>
<event>
 7    1  0.9434649E-006  0.1222764E+04  0.7818608E-02  0.8826574E-01
          4   -1    0    0  501    0  0.00000000000E+00  0.00000000000E+00  0.20531516015E+04  0.20531516015E+04  0.00000000000E+00 0.  1.
         -4   -1    0    0    0  501 -0.00000000000E+00 -0.00000000000E+00 -0.14331146115E+04  0.14331146115E+04  0.00000000000E+00 0. -1.
   -9000010    2    1    2    0  502  0.50014109664E+03 -0.22816573109E+03 -0.95841531245E+03  0.14824135753E+04  0.98832655514E+03 0.  0.
        -13    1    1    2    0    0 -0.13440562753E+03 -0.41786249859E+03  0.32168156809E+03  0.54419939623E+03  0.10566000000E+00 0.  1.
         13    1    3    3    0    0  0.37819419958E+03  0.27300205534E+03 -0.94005365317E+02  0.47581298289E+03  0.10566000000E+00 0. -1.
          4    1    1    2  502    0 -0.36573546911E+03  0.64602822969E+03  0.12567707343E+04  0.14596532415E+04  0.00000000000E+00 0.  1.
         -4    1    3    3    0  502  0.12194689706E+03 -0.50116778644E+03 -0.86440994713E+03  0.10066005924E+04  0.00000000000E+00 0. -1.
</event>
<event>
 6    1  0.9434649E-006  0.3998786E+03  0.7818608E-02  0.1041203E+00
          4   -1    0    0  501    0 -0.00000000000E+00  0.00000000000E+00  0.10295084371E+03  0.10295084371E+03  0.00000000000E+00 0.  1.
          2   -1    0    0  502    0  0.00000000000E+00 -0.00000000000E+00 -0.13957013955E+04  0.13957013955E+04  0.00000000000E+00 0.  1.
        -13    1    1    2    0    0 -0.29383516131E+03 -0.24009237784E+02 -0.33470827249E+03  0.44603271669E+03  0.10566000000E+00 0.  1.
         13    1    1    2    0    0  0.43908730221E+02 -0.13463642499E+00 -0.31564768499E+02  0.54077171626E+02  0.10566000000E+00 0. -1.
          2    1    1    2  501    0  0.28303500697E+03  0.14941584084E+02 -0.53393573800E+03  0.60449932871E+03  0.00000000000E+00 0.  1.
          4    1    1    2  502    0 -0.33108575877E+02  0.92022901247E+01 -0.39254177275E+03  0.39404302214E+03  0.00000000000E+00 0.  1.
</event>
<event>
 7    1  0.9434649E-006  0.1057031E+04  0.7818608E-02  0.8974925E-01
          4   -1    0    0  501    0 -0.00000000000E+00  0.00000000000E+00  0.59334829290E+03  0.59334829290E+03  0.00000000000E+00 0.  1.
          2   -1    0    0  502    0  0.00000000000E+00 -0.00000000000E+00 -0.45676783116E+04  0.45676783116E+04  0.00000000000E+00 0. -1.
    9000010    2    1    2  502    0 -0.22379568674E+03 -0.32783866425E+03 -0.53655253409E+03  0.11068306658E+04  0.88296251437E+03 0.  0.
        -13    1    3    3    0    0 -0.56291061676E+03 -0.22820381123E+03 -0.40325566557E+03  0.72908194663E+03  0.10566000000E+00 0.  1.
         13    1    1    2    0    0  0.24343612248E+03 -0.27559410461E+03  0.16366889760E+03  0.40249319924E+03  0.10566000000E+00 0. -1.
          2    1    1    2  501    0 -0.19640435740E+02  0.60343276886E+03 -0.36014463822E+04  0.36517027395E+04  0.00000000000E+00 0. -1.
          4    1    3    3  502    0  0.33911493002E+03 -0.99634853016E+02 -0.13329686852E+03  0.37774871919E+03  0.00000000000E+00 0.  1.
</event>
<event>
 7    1  0.9434649E-006  0.1028193E+04  0.7818608E-02  0.8998070E-01
         -4   -1    0    0    0  501 -0.00000000000E+00  0.00000000000E+00  0.81594813622E+03  0.81594813622E+03  0.00000000000E+00 0. -1.
          1   -1    0    0  501    0  0.00000000000E+00 -0.00000000000E+00 -0.13010545009E+04  0.13010545009E+04  0.00000000000E+00 0. -1.
   -9000010    2    1    2    0  502  0.54181418809E+02  0.38511636480E+02 -0.64965214820E+03  0.11826839053E+04  0.98603982372E+03 0.  0.
        -13    1    1    2    0    0  0.10464988404E+03  0.34832488877E+03  0.32369014931E+03  0.48688515103E+03  0.10566000000E+00 0.  1.
         13    1    3    3    0    0 -0.27318431803E+03 -0.54048156376E+02  0.14810708292E+03  0.31541495526E+03  0.10566000000E+00 0. -1.
          1    1    1    2  502    0 -0.15883130285E+03 -0.38683652525E+03 -0.15914436576E+03  0.44743358075E+03  0.00000000000E+00 0. -1.
         -4    1    3    3    0  502  0.32736573684E+03  0.92559792856E+02 -0.79775923112E+03  0.86726895007E+03  0.00000000000E+00 0. -1.
</event>
<event>
 7    1  0.9434649E-006  0.1122943E+04  0.7818608E-02  0.8849301E-01
          4   -1    0    0  501    0 -0.00000000000E+00  0.00000000000E+00  0.12940573509E+04  0.12940573509E+04  0.00000000000E+00 0.  1.
          2   -1    0    0  502    0  0.00000000000E+00 -0.00000000000E+00 -0.90964454165E+03  0.90964454165E+03  0.00000000000E+00 0. -1.
    9000010    2    1    2  502    0  0.21260400863E+03 -0.35682917255E+03 -0.21836845724E+03  0.11026504699E+04  0.99781047941E+03 0.  0.
        -13    1    3    3    0    0  0.31725040632E+03  0.36697979142E+01 -0.52803788308E+03  0.61602378595E+03  0.10566000000E+00 0.  1.
         13    1    1    2    0    0 -0.18011017082E+03  0.49729141477E+03  0.73494140628E+03  0.90547076522E+03  0.10566000000E+00 0. -1.
          2    1    1    2  501    0 -0.32493837810E+02 -0.14046224223E+03 -0.13216013981E+03  0.19558065738E+03  0.00000000000E+00 0. -1.
          4    1    3    3  502    0 -0.10464639769E+03 -0.36049897046E+03  0.30966942583E+03  0.48662668397E+03  0.00000000000E+00 0.  1.
</event>
<event>
 7    1  0.9434649E-006  0.1108281E+04  0.7818608E-02  0.8871362E-01
          1   -1    0    0  501    0  0.00000000000E+00  0.00000000000E+00  0.21873590164E+04  0.21873590164E+04  0.00000000000E+00 0. -1.
         -4   -1    0    0    0  501 -0.00000000000E+00 -0.00000000000E+00 -0.15995188827E+04  0.15995188827E+04  0.00000000000E+00 0. -1.
   -9000010    2    1    2    0  502  0.38829816781E+03  0.32367767846E+03 -0.74670806467E+03  0.13426015932E+04  0.99471774765E+03 0.  0.
        -13    1    1    2    0    0 -0.37783936084E+03 -0.30055543413E+03 -0.44973274382E+03  0.65981490102E+03  0.10566000000E+00 0.  1.
         13    1    3    3    0    0 -0.21227471153E+03  0.45360875110E+03 -0.31514616840E+03  0.59172508046E+03  0.10566000000E+00 0. -1.
          1    1    1    2  502    0 -0.10458806977E+02 -0.23122244330E+02  0.17842809422E+04  0.17844614049E+04  0.00000000000E+00 0. -1.
         -4    1    3    3    0  502  0.60057287934E+03 -0.12993107264E+03 -0.43156189627E+03  0.75087651272E+03  0.00000000000E+00 0. -1.
</event>
<event>
 7    1  0.9434649E-006  0.1317786E+04  0.7818608E-02  0.8605035E-01
          1   -1    0    0  501    0  0.00000000000E+00  0.00000000000E+00  0.18847128558E+04  0.18847128558E+04  0.00000000000E+00 0.  1.
         -4   -1    0    0    0  501 -0.00000000000E+00 -0.00000000000E+00 -0.18245418548E+04  0.18245418548E+04  0.00000000000E+00 0. -1.
   -9000010    2    1    2    0  502  0.73863334359E+03 -0.22732398394E+03  0.21173372772E+02  0.12255675116E+04  0.95095320800E+03 0.  0.
        -13    1    1    2    0    0 -0.75558906687E+03  0.60942093624E+03 -0.98963501173E+03  0.13862489614E+04  0.10566000000E+00 0.  1.
         13    1    3    3    0    0  0.31936900726E+03 -0.57729671039E+02  0.48122571356E+03  0.58043731468E+03  0.10566000000E+00 0. -1.
          1    1    1    2  502    0  0.16955723279E+02 -0.38209695230E+03  0.10286326400E+04  0.10974382377E+04  0.00000000000E+00 0.  1.
         -4    1    3    3    0  502  0.41926433633E+03 -0.16959431290E+03 -0.46005234079E+03  0.64513019690E+03  0.00000000000E+00 0. -1.
</event>
<event>
 7    1  0.9434649E-006  0.1150330E+04  0.7818608E-02  0.8814775E-01
          4   -1    0    0  501    0 -0.00000000000E+00  0.00000000000E+00  0.12399050030E+04  0.12399050030E+04  0.00000000000E+00 0.  1.
          2   -1    0    0  502    0  0.00000000000E+00 -0.00000000000E+00 -0.16695549797E+04  0.16695549797E+04  0.00000000000E+00 0.  1.
    9000010    2    1    2  502    0  0.49696970947E+03  0.23081925340E+03  0.75706238319E+03  0.13746507215E+04  0.10080995656E+04 0.  0.
        -13    1    3    3    0    0  0.57815444242E+03  0.43384898952E+03  0.86791483867E+03  0.11294970931E+04  0.10566000000E+00 0.  1.
         13    1    1    2    0    0 -0.52263370906E+03 -0.21082940087E+03 -0.28320046857E+03  0.63071193637E+03  0.10566000000E+00 0. -1.
          2    1    1    2  501    0  0.25663999593E+02 -0.19989852526E+02 -0.90351189127E+03  0.90409732482E+03  0.00000000000E+00 0.  1.
          4    1    3    3  502    0 -0.81184732951E+02 -0.20302973612E+03 -0.11085245548E+03  0.24515362837E+03  0.00000000000E+00 0.  1.
</event>
<event>
 6    1  0.9434649E-006  0.9135227E+03  0.7818608E-02  0.9149152E-01
          2   -1    0    0  501    0  0.00000000000E+00  0.00000000000E+00  0.12314221632E+04  0.12314221632E+04  0.00000000000E+00 0.  1.
         -4   -1    0    0    0  501 -0.00000000000E+00 -0.00000000000E+00 -0.76445185111E+03  0.76445185111E+03  0.00000000000E+00 0. -1.
        -13    1    1    2    0    0  0.28900386203E+02  0.28269878296E+03  0.46629398599E+02  0.28797247470E+03  0.10566000000E+00 0.  1.
         13    1    1    2    0    0 -0.98968328970E+02  0.45782111833E+03 -0.72443221711E+02  0.47396512326E+03  0.10566000000E+00 0. -1.
          2    1    1    2  502    0  0.38980036314E+03 -0.57283696875E+03  0.52807973032E+03  0.87118007177E+03  0.00000000000E+00 0.  1.
         -4    1    1    2    0  502 -0.31973242037E+03 -0.16768293254E+03 -0.35295595107E+02  0.36275634459E+03  0.00000000000E+00 0. -1.
</event>
<event>
 7    1  0.9434649E-006  0.1126309E+04  0.7818608E-02  0.8846889E-01
          2   -1    0    0  501    0  0.00000000000E+00  0.00000000000E+00  0.12269170089E+04  0.12269170089E+04  0.00000000000E+00 0. -1.
         -4   -1    0    0    0  501 -0.00000000000E+00 -0.00000000000E+00 -0.26082326984E+04  0.26082326984E+04  0.00000000000E+00 0. -1.
   -9000010    2    1    2    0  502 -0.49381398070E+03 -0.10937453495E+03 -0.21100692041E+04  0.23897292331E+04  0.10012985195E+04 0.  0.
        -13    1    1    2    0    0  0.56433512660E+03 -0.26365714191E+03 -0.92653291534E+00  0.62288850786E+03  0.10566000000E+00 0.  1.
         13    1    3    3    0    0 -0.87685092464E+02 -0.39663044487E+03 -0.16915538089E+04  0.17396432637E+04  0.10566000000E+00 0. -1.
          2    1    1    2  502    0 -0.70521145900E+02  0.37303167686E+03  0.72968004748E+03  0.82253196634E+03  0.00000000000E+00 0. -1.
         -4    1    3    3    0  502 -0.40612888824E+03  0.28725590993E+03 -0.41851539513E+03  0.65008596940E+03  0.00000000000E+00 0. -1.
</event>
<event>
 7    1  0.9434649E-006  0.1074009E+04  0.7818608E-02  0.8896802E-01
         -4   -1    0    0    0  501 -0.00000000000E+00  0.00000000000E+00  0.16901359250E+04  0.16901359250E+04  0.00000000000E+00 0. -1.
          2   -1    0    0  501    0  0.00000000000E+00 -0.00000000000E+00 -0.17051160622E+04  0.17051160622E+04  0.00000000000E+00 0.  1.
   -9000010    2    1    2    0  502  0.48088207206E+03 -0.85792729662E+02  0.11133631035E+04  0.15486348188E+04  0.95921032207E+03 0.  0.
        -13    1    1    2    0    0 -0.47833377411E+03  0.40557827012E+02  0.19815926782E+03  0.51934116280E+03  0.10566000000E+00 0.  1.
         13    1    3    3    0    0  0.61434757714E+03 -0.38169601068E+03  0.92193329250E+03  0.11717831698E+04  0.10566000000E+00 0. -1.
          2    1    1    2  502    0 -0.25482979454E+01  0.45234902649E+02 -0.13265025084E+04  0.13272760056E+04  0.00000000000E+00 0.  1.
         -4    1    3    3    0  502 -0.13346550509E+03  0.29590328102E+03  0.19142981100E+03  0.37685164893E+03  0.00000000000E+00 0. -1.
</event>
<event>
 7    1  0.9434649E-006  0.1143124E+04  0.7818608E-02  0.8826577E-01
          4   -1    0    0  501    0  0.00000000000E+00  0.00000000000E+00  0.14570476012E+04  0.14570476012E+04  0.00000000000E+00 0. -1.
          4   -1    0    0  502    0 -0.00000000000E+00 -0.00000000000E+00 -0.32703628979E+04  0.32703628979E+04  0.00000000000E+00 0.  1.
    9000010    2    1    2  501    0  0.48032579252E+03 -0.23681584266E+03 -0.22292846170E+04  0.25049210693E+04  0.10090218281E+04 0.  0.
        -13    1    3    3    0    0 -0.59196733220E+02  0.25039023274E+03 -0.12992936462E+04  0.13245238813E+04  0.10566000000E+00 0.  1.
         13    1    1    2    0    0 -0.50428487202E+03  0.19067804010E+03 -0.82221811952E+03  0.98321106298E+03  0.10566000000E+00 0. -1.
          4    1    3    3  501    0  0.53952252574E+03 -0.48720607540E+03 -0.92999097079E+03  0.11803971880E+04  0.00000000000E+00 0.  1.
          4    1    1    2  502    0  0.23959079503E+02  0.46137802558E+02  0.12381874398E+04  0.12392783668E+04  0.00000000000E+00 0. -1.
</event>
<event>
 7    1  0.9434649E-006  0.1037953E+04  0.7818608E-02  0.9051293E-01
          4   -1    0    0  501    0 -0.00000000000E+00  0.00000000000E+00  0.56609582129E+03  0.56609582129E+03  0.00000000000E+00 0.  1.
          2   -1    0    0  502    0  0.00000000000E+00 -0.00000000000E+00 -0.20048752825E+04  0.20048752825E+04  0.00000000000E+00 0. -1.
    9000010    2    1    2  502    0 -0.20109873409E+03  0.25093078334E+03 -0.21344409121E+03  0.10699835035E+04  0.99794757319E+03 0.  0.
        -13    1    3    3    0    0 -0.10335853990E+03  0.16482093671E+03 -0.61646471741E+03  0.64643459678E+03  0.10566000000E+00 0.  1.
         13    1    1    2    0    0  0.12281100850E+03 -0.25021969629E+03 -0.56488016447E+01  0.27879088999E+03  0.10566000000E+00 0. -1.
          2    1    1    2  501    0  0.78287725590E+02 -0.71108705761E+00 -0.12196865684E+04  0.12221967103E+04  0.00000000000E+00 0. -1.
          4    1    3    3  502    0 -0.97740194195E+02  0.86109846638E+02  0.40302062620E+03  0.42354890673E+03  0.00000000000E+00 0.  1.
</event>
<event>
 7    1  0.9434649E-006  0.1258258E+04  0.7818608E-02  0.8787232E-01
         -4   -1    0    0    0  501 -0.00000000000E+00  0.00000000000E+00  0.21940575036E+04  0.21940575036E+04  0.00000000000E+00 0. -1.
          1   -1    0    0  501    0  0.00000000000E+00 -0.00000000000E+00 -0.10133488332E+04  0.10133488332E+04  0.00000000000E+00 0. -1.
   -9000010    2    1    2    0  502 -0.51708571190E+03  0.11730355824E+03  0.70067446458E+03  0.13678178908E+04  0.10482572770E+04 0.  0.
        -13    1    1    2    0    0  0.46005732743E+02  0.47349095845E+03  0.86828349402E+03  0.99006386276E+03  0.10566000000E+00 0.  1.
         13    1    3    3    0    0 -0.40338581215E+03 -0.44522554637E+03  0.36351530237E+03  0.70220316633E+03  0.10566000000E+00 0. -1.
          1    1    1    2  502    0  0.47107997916E+03 -0.59079451669E+03 -0.38824928824E+03  0.84952458324E+03  0.00000000000E+00 0. -1.
         -4    1    3    3    0  502 -0.11369989975E+03  0.56252910461E+03  0.33715916221E+03  0.66561472445E+03  0.00000000000E+00 0. -1.
</event>
<event>
 7    1  0.9434649E-006  0.1056803E+04  0.7818608E-02  0.9139260E-01
          4   -1    0    0  501    0 -0.00000000000E+00  0.00000000000E+00  0.26754843060E+04  0.26754843060E+04  0.00000000000E+00 0.  1.
          2   -1    0    0  502    0  0.00000000000E+00 -0.00000000000E+00 -0.28289990965E+03  0.28289990965E+03  0.00000000000E+00 0.  1.
    9000010    2    1    2  502    0 -0.90579780413E+02  0.13771403890E+03  0.21704489610E+04  0.24121446254E+04  0.10394340521E+04 0.  0.
        -13    1    3    3    0    0 -0.52092460432E+03  0.19212295312E+03  0.79329880897E+03  0.96829576266E+03  0.10566000000E+00 0.  1.
         13    1    1    2    0    0  0.13996422145E+03 -0.13855274221E+03  0.35418354242E+03  0.40525650957E+03  0.10566000000E+00 0. -1.
          2    1    1    2  501    0 -0.49384441041E+02  0.83870331609E+00 -0.13204810707E+03  0.14098308062E+03  0.00000000000E+00 0.  1.
          4    1    3    3  502    0  0.43034482391E+03 -0.54408914221E+02  0.13771501520E+04  0.14438488628E+04  0.00000000000E+00 0.  1.
</event>
<event>
 7    1  0.9434649E-006  0.1092644E+04  0.7818608E-02  0.8988160E-01
         -4   -1    0    0    0  501 -0.00000000000E+00  0.00000000000E+00  0.62327778499E+03  0.62327778499E+03  0.00000000000E+00 0. -1.
          2   -1    0    0  501    0  0.00000000000E+00 -0.00000000000E+00 -0.19682667352E+04  0.19682667352E+04  0.00000000000E+00 0. -1.
   -9000010    2    1    2    0  502  0.23566428032E+03  0.18296508058E+03 -0.29141447293E+03  0.11261778731E+04  0.10461072282E+04 0.  0.
        -13    1    1    2    0    0 -0.23639716512E+03 -0.21358153322E+03  0.82323406446E+02  0.32905599132E+03  0.10566000000E+00 0.  1.
         13    1    3    3    0    0 -0.20771826561E+03 -0.47203838906E+02  0.28986899848E+03  0.35972090253E+03  0.10566000000E+00 0. -1.
          2    1    1    2  502    0  0.73288479879E+00  0.30616452646E+02 -0.11358978837E+04  0.11363106558E+04  0.00000000000E+00 0. -1.
         -4    1    3    3    0  502  0.44338254593E+03  0.23016891948E+03 -0.58128347141E+03  0.76645697052E+03  0.00000000000E+00 0. -1.
</event>
<event>
 7    1  0.9434649E-006  0.1245958E+04  0.7818608E-02  0.8677768E-01
          1   -1    0    0  501    0  0.00000000000E+00  0.00000000000E+00  0.66273862453E+03  0.66273862453E+03  0.00000000000E+00 0.  1.
         -4   -1    0    0    0  501 -0.00000000000E+00 -0.00000000000E+00 -0.18351739893E+04  0.18351739893E+04  0.00000000000E+00 0. -1.
   -9000010    2    1    2    0  502  0.66138092914E+03  0.43546724303E+03 -0.73836721876E+03  0.14524340369E+04  0.96815392821E+03 0.  0.
        -13    1    1    2    0    0 -0.66280977254E+03 -0.41119561094E+03 -0.53227497030E+03  0.94430677229E+03  0.10566000000E+00 0.  1.
         13    1    3    3    0    0  0.41168064692E+03  0.52477113242E+03  0.96190284284E+00  0.66698323284E+03  0.10566000000E+00 0. -1.
          1    1    1    2  502    0  0.14288433955E+01 -0.24271632085E+02  0.98206824273E+02  0.10117180463E+03  0.00000000000E+00 0.  1.
         -4    1    3    3    0  502  0.24970028222E+03 -0.89303889390E+02 -0.73932912160E+03  0.78545080409E+03  0.00000000000E+00 0. -1.
</event>
<event>
 7    1  0.9434649E-006  0.1115219E+04  0.7818608E-02  0.9667392E-01
         -4   -1    0    0    0  501 -0.00000000000E+00  0.00000000000E+00  0.24084536315E+04  0.24084536315E+04  0.00000000000E+00 0. -1.
          1   -1    0    0  501    0  0.00000000000E+00 -0.00000000000E+00 -0.52486419863E+03  0.52486419863E+03  0.00000000000E+00 0. -1.
   -9000010    2    1    2    0  502  0.41044734410E+02 -0.41065572653E+03  0.20737654981E+04  0.23512900526E+04  0.10284642794E+04 0.  0.
        -13    1    1    2    0    0 -0.10135677343E+02 -0.20511892756E+02  0.72620544256E+02  0.76139505591E+02  0.10566000000E+00 0.  1.
         13    1    3    3    0    0  0.49482373682E+03 -0.32974480620E+03  0.80069501971E+03  0.99734381910E+03  0.10566000000E+00 0. -1.
          1    1    1    2  502    0 -0.30909057068E+02  0.43116761928E+03 -0.26279660954E+03  0.50588827197E+03  0.00000000000E+00 0. -1.
         -4    1    3    3    0  502 -0.45377900241E+03 -0.80910920327E+02  0.12730704784E+04  0.13539462335E+04  0.00000000000E+00 0. -1.
</event>
<event>
 7    1  0.9434649E-006  0.1202836E+04  0.7818608E-02  0.9161500E-01
          2   -1    0    0  501    0  0.00000000000E+00  0.00000000000E+00  0.11545196890E+04  0.11545196890E+04  0.00000000000E+00 0. -1.
         -4   -1    0    0    0  501 -0.00000000000E+00 -0.00000000000E+00 -0.14592521639E+04  0.14592521639E+04  0.00000000000E+00 0. -1.
   -9000010    2    1    2    0  502  0.34876823118E+03 -0.56501662757E+03  0.63869849252E+03  0.13560559423E+04  0.99502205293E+03 0.  0.
        -13    1    1    2    0    0  0.11607004105E+03  0.24442843062E+02 -0.14370777401E+03  0.18633744251E+03  0.10566000000E+00 0.  1.
         13    1    3    3    0    0  0.25899841887E+03 -0.58621015852E+02 -0.22684446608E+03  0.34924923398E+03  0.10566000000E+00 0. -1.
          2    1    1    2  502    0 -0.46483827223E+03  0.54057378451E+03 -0.79972319343E+03  0.10713784681E+04  0.00000000000E+00 0. -1.
         -4    1    3    3    0  502  0.89769812308E+02 -0.50639561172E+03  0.86554295860E+03  0.10068067083E+04  0.00000000000E+00 0. -1.
</event>
<event>
 7    1  0.9434649E-006  0.1133590E+04  0.7818608E-02  0.8943675E-01
         -4   -1    0    0    0  501 -0.00000000000E+00  0.00000000000E+00  0.50160145996E+03  0.50160145996E+03  0.00000000000E+00 0. -1.
          2   -1    0    0  501    0  0.00000000000E+00 -0.00000000000E+00 -0.20513861043E+04  0.20513861043E+04  0.00000000000E+00 0.  1.
   -9000010    2    1    2    0  502 -0.40882358129E+03  0.12086472521E+03 -0.78052375066E+03  0.13471724273E+04  0.10118849841E+04 0.  0.
        -13    1    1    2    0    0 -0.14629266566E+03 -0.30549269477E+03 -0.34237667614E+03  0.48161097383E+03  0.10566000000E+00 0.  1.
         13    1    3    3    0    0 -0.74017967537E+03  0.12805887187E+03 -0.43342714707E+03  0.86725090341E+03  0.10566000000E+00 0. -1.
          2    1    1    2  502    0  0.55511624695E+03  0.18462796956E+03 -0.42688421756E+03  0.72420416319E+03  0.00000000000E+00 0.  1.
         -4    1    3    3    0  502  0.33135609408E+03 -0.71941466610E+01 -0.34709660360E+03  0.47992152385E+03  0.00000000000E+00 0. -1.
</event>
<event>
 7    1  0.9434649E-006  0.1005679E+04  0.7818608E-02  0.9253085E-01
          4   -1    0    0  501    0 -0.00000000000E+00  0.00000000000E+00  0.12243608504E+04  0.12243608504E+04  0.00000000000E+00 0.  1.
          2   -1    0    0  502    0  0.00000000000E+00 -0.00000000000E+00 -0.17436511413E+04  0.17436511413E+04  0.00000000000E+00 0. -1.
    9000010    2    1    2  502    0  0.11645621411E+03  0.19370350528E+02  0.59864427717E+03  0.11676564856E+04  0.99554479430E+03 0.  0.
        -13    1    3    3    0    0  0.27300353480E+03  0.38537945116E+02 -0.20823284412E+03  0.34550981428E+03  0.10566000000E+00 0.  1.
         13    1    1    2    0    0 -0.13621023105E+03 -0.46050688176E+02  0.32586372041E+03  0.35617561451E+03  0.10566000000E+00 0. -1.
          2    1    1    2  501    0  0.19754016940E+02  0.26680337648E+02 -0.14437982885E+04  0.14441798916E+04  0.00000000000E+00 0. -1.
          4    1    3    3  502    0 -0.15654732069E+03 -0.19167594588E+02  0.80687712128E+03  0.82214667131E+03  0.00000000000E+00 0.  1.
</event>
<event>
 7    1  0.9434649E-006  0.1073356E+04  0.7818608E-02  0.9005776E-01
          4   -1    0    0  501    0 -0.00000000000E+00  0.00000000000E+00  0.25771380263E+04  0.25771380263E+04  0.00000000000E+00 0.  1.
          2   -1    0    0  502    0  0.00000000000E+00 -0.00000000000E+00 -0.73773299758E+03  0.73773299758E+03  0.00000000000E+00 0.  1.
    9000010    2    1    2  502    0  0.14442376641E+03  0.37024878731E+03  0.53899890128E+03  0.12238375192E+04  0.10243612981E+04 0.  0.
        -13    1    3    3    0    0  0.22922989946E+03 -0.22374881653E+03 -0.11120627553E+03  0.33908218264E+03  0.10566000000E+00 0.  1.
         13    1    1    2    0    0 -0.29821302028E+03 -0.84264568867E+02  0.16116925258E+04  0.16412142858E+04  0.10566000000E+00 0. -1.
          2    1    1    2  501    0  0.15378925388E+03 -0.28598421844E+03 -0.31128639841E+03  0.44981921884E+03  0.00000000000E+00 0.  1.
          4    1    3    3  502    0 -0.84806133052E+02  0.59399760384E+03  0.65020517681E+03  0.88475533653E+03  0.00000000000E+00 0.  1.
</event>
<event>
 7    1  0.9434649E-006  0.1042562E+04  0.7818608E-02  0.9206945E-01
          2   -1    0    0  501    0  0.00000000000E+00  0.00000000000E+00  0.64586505558E+03  0.64586505558E+03  0.00000000000E+00 0. -1.
         -4   -1    0    0    0  501 -0.00000000000E+00 -0.00000000000E+00 -0.11749199728E+04  0.11749199728E+04  0.00000000000E+00 0. -1.
   -9000010    2    1    2    0  502  0.16744907488E+03  0.12443566795E+03 -0.23135028102E+03  0.10773471754E+04  0.10313246607E+04 0.  0.
        -13    1    1    2    0    0 -0.14904143798E+03 -0.28313574740E+02 -0.49795460768E+03  0.52055144916E+03  0.10566000000E+00 0.  1.
         13    1    3    3    0    0  0.60300569055E+03  0.16387716586E+02 -0.12157829004E+03  0.61535819802E+03  0.10566000000E+00 0. -1.
          2    1    1    2  502    0 -0.18407636901E+02 -0.96122093213E+02  0.20024997150E+03  0.22288640377E+03  0.00000000000E+00 0. -1.
         -4    1    3    3    0  502 -0.43555661567E+03  0.10804795137E+03 -0.10977199098E+03  0.46198897742E+03  0.00000000000E+00 0. -1.
</event>
<event>
 7    1  0.9434649E-006  0.1059545E+04  0.7818608E-02  0.8965593E-01
         -4   -1    0    0    0  501 -0.00000000000E+00  0.00000000000E+00  0.17014806636E+04  0.17014806636E+04  0.00000000000E+00 0. -1.
          2   -1    0    0  501    0  0.00000000000E+00 -0.00000000000E+00 -0.19411515541E+04  0.19411515541E+04  0.00000000000E+00 0.  1.
   -9000010    2    1    2    0  502  0.31353516043E+03 -0.16550406397E+01  0.11036476549E+04  0.15149757616E+04  0.98934643877E+03 0.  0.
        -13    1    1    2    0    0 -0.32074074772E+03  0.67281254750E+03 -0.15263109432E+03  0.76082035556E+03  0.10566000000E+00 0.  1.
         13    1    3    3    0    0  0.58583724673E+03  0.18638304354E+03  0.98949432838E+03  0.11649218667E+04  0.10566000000E+00 0. -1.
          2    1    1    2  502    0  0.72055872938E+01 -0.67115750686E+03 -0.11906874512E+04  0.13668361006E+04  0.00000000000E+00 0.  1.
         -4    1    3    3    0  502 -0.27230208630E+03 -0.18803808418E+03  0.11415332654E+03  0.35005389480E+03  0.00000000000E+00 0. -1.
</event>
<event>
 7    1  0.9434649E-006  0.1206469E+04  0.7818608E-02  0.8834613E-01
          2   -1    0    0  502    0  0.00000000000E+00  0.00000000000E+00  0.14228947786E+04  0.14228947786E+04  0.00000000000E+00 0.  1.
          4   -1    0    0  501    0 -0.00000000000E+00 -0.00000000000E+00 -0.10990372880E+04  0.10990372880E+04  0.00000000000E+00 0.  1.
    9000010    2    1    2  502    0  0.60520172133E+02  0.49027589638E+03  0.43394218896E+03  0.12181068975E+04  0.10254001387E+04 0.  0.
        -13    1    3    3    0    0 -0.38106399991E+03  0.55166738993E+03  0.14247070235E+03  0.68545210871E+03  0.10566000000E+00 0.  1.
         13    1    1    2    0    0 -0.36731953422E+03  0.24545887224E+03 -0.22942027050E+03  0.49780254103E+03  0.10566000000E+00 0. -1.
          2    1    1    2  501    0  0.30679936208E+03 -0.73573476862E+03  0.11933557215E+03  0.80602262816E+03  0.00000000000E+00 0.  1.
          4    1    3    3  502    0  0.44158417204E+03 -0.61391493556E+02  0.29147148661E+03  0.53265478876E+03  0.00000000000E+00 0.  1.
</event>
<event>
 7    1  0.9434649E-006  0.1109742E+04  0.7818608E-02  0.8915978E-01
          2   -1    0    0  502    0  0.00000000000E+00  0.00000000000E+00  0.90624815414E+03  0.90624815414E+03  0.00000000000E+00 0.  1.
          4   -1    0    0  501    0 -0.00000000000E+00 -0.00000000000E+00 -0.10528688427E+04  0.10528688427E+04  0.00000000000E+00 0.  1.
    9000010    2    1    2  502    0 -0.15067921166E+03 -0.58569192734E+02 -0.36965386257E+01  0.10459443042E+04  0.10333688828E+04 0.  0.
        -13    1    3    3    0    0 -0.11792542876E+03  0.17581815889E+03 -0.47417830456E+03  0.51929135119E+03  0.10566000000E+00 0.  1.
         13    1    1    2    0    0  0.41597914016E+03  0.19704158111E+03 -0.32446223285E+03  0.56315165048E+03  0.10566000000E+00 0. -1.
          2    1    1    2  501    0 -0.26529992850E+03 -0.13847238838E+03  0.18153808289E+03  0.35002104214E+03  0.00000000000E+00 0.  1.
          4    1    3    3  502    0 -0.32753782899E+02 -0.23438735162E+03  0.47048176593E+03  0.52665295306E+03  0.00000000000E+00 0.  1.
</event>
<event>
 6    1  0.9434649E-006  0.8300267E+03  0.7818608E-02  0.8953142E-01
          2   -1    0    0  501    0  0.00000000000E+00  0.00000000000E+00  0.10317117765E+03  0.10317117765E+03  0.00000000000E+00 0.  1.
         -4   -1    0    0    0  501 -0.00000000000E+00 -0.00000000000E+00 -0.22207912647E+04  0.22207912647E+04  0.00000000000E+00 0. -1.
        -13    1    1    2    0    0 -0.15085974841E+03  0.75760114519E+02 -0.93672014322E+03  0.95181032592E+03  0.10566000000E+00 0.  1.
         13    1    1    2    0    0  0.14023533172E+03  0.27367326362E+03 -0.40507935263E+03  0.50857870244E+03  0.10566000000E+00 0. -1.
          2    1    1    2  502    0  0.37388858894E+02 -0.98367935507E+02 -0.11360084497E+03  0.15485260567E+03  0.00000000000E+00 0.  1.
         -4    1    1    2    0  502 -0.26764442203E+02 -0.25106544263E+03 -0.66221974625E+03  0.70872080834E+03  0.00000000000E+00 0. -1.
</event>
<event>
 7    1  0.9434649E-006  0.1215929E+04  0.7818608E-02  0.8730629E-01
         -4   -1    0    0    0  501 -0.00000000000E+00  0.00000000000E+00  0.68020659736E+03  0.68020659736E+03  0.00000000000E+00 0. -1.
          2   -1    0    0  501    0  0.00000000000E+00 -0.00000000000E+00 -0.16784341763E+04  0.16784341763E+04  0.00000000000E+00 0.  1.
   -9000010    2    1    2    0  502 -0.58514253353E+03 -0.12199839356E+03 -0.41390041840E+03  0.12475401225E+04  0.10137886409E+04 0.  0.
        -13    1    1    2    0    0  0.71268369645E+03  0.86214857908E+02 -0.26472496507E+03  0.76513421777E+03  0.10566000000E+00 0.  1.
         13    1    3    3    0    0 -0.34021401607E+03 -0.54514159267E+03 -0.40298741986E+03  0.75850102473E+03  0.10566000000E+00 0. -1.
          2    1    1    2  502    0 -0.12754116293E+03  0.35783535648E+02 -0.31960219546E+03  0.34596643335E+03  0.00000000000E+00 0.  1.
         -4    1    3    3    0  502 -0.24492851745E+03  0.42314319911E+03 -0.10912998534E+02  0.48903909778E+03  0.00000000000E+00 0. -1.
</event>
<event>
 7    1  0.9434649E-006  0.1030903E+04  0.7818608E-02  0.9255167E-01
          1   -1    0    0  501    0  0.00000000000E+00  0.00000000000E+00  0.53104241041E+03  0.53104241041E+03  0.00000000000E+00 0. -1.
         -4   -1    0    0    0  501 -0.00000000000E+00 -0.00000000000E+00 -0.12472516405E+04  0.12472516405E+04  0.00000000000E+00 0. -1.
   -9000010    2    1    2    0  502 -0.11763533240E+03  0.29570712727E+02 -0.78203230786E+03  0.12929985490E+04  0.10225254122E+04 0.  0.
        -13    1    1    2    0    0  0.44884599644E+02 -0.12937360839E+03 -0.17047764587E+03  0.21866594783E+03  0.10566000000E+00 0.  1.
         13    1    3    3    0    0  0.25381503239E+03  0.41737109856E+03 -0.31433113299E+03  0.58088275660E+03  0.10566000000E+00 0. -1.
          1    1    1    2  502    0  0.72750732759E+02  0.99802895664E+02  0.23630072368E+03  0.26662955409E+03  0.00000000000E+00 0. -1.
         -4    1    3    3    0  502 -0.37145036480E+03 -0.38780038583E+03 -0.46770117487E+03  0.71211579237E+03  0.00000000000E+00 0. -1.
</event>
<event>
 7    1  0.9434649E-006  0.1008151E+04  0.7818608E-02  0.9186664E-01
          4   -1    0    0  501    0 -0.00000000000E+00  0.00000000000E+00  0.60728957043E+03  0.60728957043E+03  0.00000000000E+00 0.  1.
          2   -1    0    0  502    0  0.00000000000E+00 -0.00000000000E+00 -0.20120104790E+04  0.20120104790E+04  0.00000000000E+00 0.  1.
    9000010    2    1    2  502    0  0.24799325660E+03 -0.23189406272E+02  0.47324851443E+02  0.10233710274E+04  0.99146871573E+03 0.  0.
        -13    1    3    3    0    0  0.87761414705E+02 -0.30163400231E+03 -0.37727061113E+03  0.49093610832E+03  0.10566000000E+00 0.  1.
         13    1    1    2    0    0 -0.16260248873E+03  0.47953960228E+02 -0.31284728658E+02  0.17238879620E+03  0.10566000000E+00 0. -1.
          2    1    1    2  501    0 -0.85390767865E+02 -0.24764553956E+02 -0.14207610314E+04  0.14235402259E+04  0.00000000000E+00 0.  1.
          4    1    3    3  502    0  0.16023184189E+03  0.27844459604E+03  0.42459546257E+03  0.53243491908E+03  0.00000000000E+00 0.  1.
</event>
<event>
 6    1  0.9434649E-006  0.1047834E+04  0.7818608E-02  0.8730900E-01
         -4   -1    0    0    0  501 -0.00000000000E+00  0.00000000000E+00  0.11374091452E+04  0.11374091452E+04  0.00000000000E+00 0. -1.
          2   -1    0    0  501    0  0.00000000000E+00 -0.00000000000E+00 -0.33267685634E+03  0.33267685634E+03  0.00000000000E+00 0.  1.
        -13    1    1    2    0    0 -0.36995703115E+03 -0.19761732268E+02  0.24295735496E+03  0.44304290813E+03  0.10566000000E+00 0.  1.
         13    1    1    2    0    0  0.39886909012E+03  0.22934633817E+02  0.73160883543E+03  0.83359105545E+03  0.10566000000E+00 0. -1.
          2    1    1    2  502    0 -0.51988448163E+01  0.41425285678E+02 -0.85495676978E+02  0.95145115812E+02  0.00000000000E+00 0.  1.
         -4    1    1    2    0  502 -0.23713214154E+02 -0.44598187227E+02 -0.84338224527E+02  0.98306922166E+02  0.00000000000E+00 0. -1.
</event>
<event>
 7    1  0.9434649E-006  0.1003968E+04  0.7818608E-02  0.9234271E-01
         -4   -1    0    0    0  501 -0.00000000000E+00  0.00000000000E+00  0.13697457214E+04  0.13697457214E+04  0.00000000000E+00 0. -1.
          2   -1    0    0  501    0  0.00000000000E+00 -0.00000000000E+00 -0.68121365373E+03  0.68121365373E+03  0.00000000000E+00 0. -1.
   -9000010    2    1    2    0  502 -0.11309231572E+03  0.57093717967E+02  0.39892297889E+03  0.10767867565E+04  0.99210917311E+03 0.  0.
        -13    1    1    2    0    0  0.13891003353E+03 -0.67891453837E+02  0.62183593953E+03  0.64076922038E+03  0.10566000000E+00 0.  1.
         13    1    3    3    0    0 -0.20290829790E+03  0.48260203435E+03  0.36974010400E+03  0.64092453268E+03  0.10566000000E+00 0. -1.
          2    1    1    2  502    0 -0.25817717817E+02  0.10797735869E+02 -0.33222685072E+03  0.33340339829E+03  0.00000000000E+00 0. -1.
         -4    1    3    3    0  502  0.89815982188E+02 -0.42550831638E+03  0.29182874888E+02  0.43586222382E+03  0.00000000000E+00 0. -1.
</event>
<event>
 7    1  0.9434649E-006  0.1007853E+04  0.7818608E-02  0.9128600E-01
         -4   -1    0    0    0  501 -0.00000000000E+00  0.00000000000E+00  0.24502846991E+04  0.24502846991E+04  0.00000000000E+00 0. -1.
          2   -1    0    0  501    0  0.00000000000E+00 -0.00000000000E+00 -0.27461248256E+03  0.27461248256E+03  0.00000000000E+00 0.  1.
   -9000010    2    1    2    0  502  0.13156187930E+03  0.10950002954E+03  0.20216283796E+04  0.22537577746E+04  0.98139901006E+03 0.  0.
        -13    1    1    2    0    0 -0.13755772324E+03 -0.25919884884E+03  0.80711693667E+02  0.30433625995E+03  0.10566000000E+00 0.  1.
         13    1    3    3    0    0  0.49572334978E+03  0.29166319678E+03  0.13635998333E+04  0.14799370177E+04  0.10566000000E+00 0. -1.
          2    1    1    2  502    0  0.59958439410E+01  0.14969881930E+03  0.73332143305E+02  0.16680314711E+03  0.00000000000E+00 0.  1.
         -4    1    3    3    0  502 -0.36416147048E+03 -0.18216316723E+03  0.65802854624E+03  0.77382075686E+03  0.00000000000E+00 0. -1.
</event>
<event>
 6    1  0.9434649E-006  0.1123838E+04  0.7818608E-02  0.8666232E-01
          2   -1    0    0  501    0  0.00000000000E+00  0.00000000000E+00  0.24817133133E+04  0.24817133133E+04  0.00000000000E+00 0. -1.
         -4   -1    0    0    0  501 -0.00000000000E+00 -0.00000000000E+00 -0.32357678382E+03  0.32357678382E+03  0.00000000000E+00 0. -1.
        -13    1    1    2    0    0 -0.31409039919E+03 -0.17661919907E+03 -0.83980117145E+02  0.36999971836E+03  0.10566000000E+00 0.  1.
         13    1    1    2    0    0  0.48018774643E+03  0.51808994523E+02  0.67975929372E+03  0.83386878602E+03  0.10566000000E+00 0. -1.
          2    1    1    2  502    0 -0.94776893440E+02  0.10227318771E+03  0.14927453892E+04  0.14992435630E+04  0.00000000000E+00 0. -1.
         -4    1    1    2    0  502 -0.71320453800E+02  0.22537016845E+02  0.69611963749E+02  0.10217802971E+03  0.00000000000E+00 0. -1.
</event>
<event>
 7    1  0.9434649E-006  0.1076442E+04  0.7818608E-02  0.8939336E-01
          2   -1    0    0  501    0  0.00000000000E+00  0.00000000000E+00  0.18954526922E+04  0.18954526922E+04  0.00000000000E+00 0. -1.
         -4   -1    0    0    0  501 -0.00000000000E+00 -0.00000000000E+00 -0.69349861302E+03  0.69349861302E+03  0.00000000000E+00 0. -1.
   -9000010    2    1    2    0  502  0.39077649716E+03  0.81920556549E+02 -0.20281168186E+02  0.10753640523E+04  0.99828817022E+03 0.  0.
        -13    1    1    2    0    0 -0.40091042628E+03 -0.56088331259E+02  0.13607582321E+03  0.42707342651E+03  0.10566000000E+00 0.  1.
         13    1    3    3    0    0  0.52536941345E+03  0.22000185800E+03  0.34242912902E+03  0.66458374768E+03  0.10566000000E+00 0. -1.
          2    1    1    2  502    0  0.10133929123E+02 -0.25832225290E+02  0.10861594241E+04  0.10865138264E+04  0.00000000000E+00 0. -1.
         -4    1    3    3    0  502 -0.13459291630E+03 -0.13808130145E+03 -0.36271029721E+03  0.41078030458E+03  0.00000000000E+00 0. -1.
</event>
<event>
 7    1  0.9434649E-006  0.1191035E+04  0.7818608E-02  0.8758127E-01
          2   -1    0    0  501    0  0.00000000000E+00  0.00000000000E+00  0.27783014206E+04  0.27783014206E+04  0.00000000000E+00 0. -1.
         -4   -1    0    0    0  501 -0.00000000000E+00 -0.00000000000E+00 -0.97195705403E+03  0.97195705403E+03  0.00000000000E+00 0. -1.
   -9000010    2    1    2    0  502 -0.26069310822E+03 -0.57307585265E+03  0.17435762326E+04  0.21099457539E+04  0.10076885313E+04 0.  0.
        -13    1    1    2    0    0  0.32948661089E+03  0.54347752053E+03 -0.65849334490E+03  0.91517361113E+03  0.10566000000E+00 0.  1.
         13    1    3    3    0    0 -0.96416600070E+01  0.25603097128E+03  0.15205768412E+03  0.29793685628E+03  0.10566000000E+00 0. -1.
          2    1    1    2  502    0 -0.68793502664E+02  0.29598332117E+02  0.72126147891E+03  0.72513910957E+03  0.00000000000E+00 0. -1.
         -4    1    3    3    0  502 -0.25105144822E+03 -0.82910682393E+03  0.15915185484E+04  0.18120088977E+04  0.00000000000E+00 0. -1.
</event>
<event>
 7    1  0.9434649E-006  0.1144088E+04  0.7818608E-02  0.8819310E-01
          2   -1    0    0  502    0  0.00000000000E+00  0.00000000000E+00  0.77800543000E+03  0.77800543000E+03  0.00000000000E+00 0.  1.
          4   -1    0    0  501    0 -0.00000000000E+00 -0.00000000000E+00 -0.16017700533E+04  0.16017700533E+04  0.00000000000E+00 0.  1.
    9000010    2    1    2  502    0  0.54018141107E+03 -0.17915125459E+03  0.10639996241E+03  0.11570955331E+04  0.10018273264E+04 0.  0.
        -13    1    3    3    0    0  0.32927141062E+03 -0.86207563212E+02  0.55597164827E+03  0.65188640931E+03  0.10566000000E+00 0.  1.
         13    1    1    2    0    0 -0.50295519065E+03  0.22487416687E+03 -0.99357068999E+03  0.11360964052E+04  0.10566000000E+00 0. -1.
          2    1    1    2  501    0 -0.37226220415E+02 -0.45722912278E+02  0.63406104309E+02  0.86583544957E+02  0.00000000000E+00 0.  1.
          4    1    3    3  502    0  0.21091000044E+03 -0.92943691378E+02 -0.44957168585E+03  0.50520912381E+03  0.00000000000E+00 0.  1.
</event>
<event>
 7    1  0.9434649E-006  0.1110107E+04  0.7818608E-02  0.8868787E-01
         -4   -1    0    0    0  501 -0.00000000000E+00  0.00000000000E+00  0.15105564190E+04  0.15105564190E+04  0.00000000000E+00 0. -1.
          1   -1    0    0  501    0  0.00000000000E+00 -0.00000000000E+00 -0.62686110999E+03  0.62686110999E+03  0.00000000000E+00 0.  1.
   -9000010    2    1    2    0  502 -0.46050965200E+03  0.21021450567E+03  0.98865631222E+03  0.14914529061E+04  0.99535480574E+03 0.  0.
        -13    1    1    2    0    0  0.44834434978E+03 -0.16998459059E+03  0.53093770649E+02  0.48241722260E+03  0.10566000000E+00 0.  1.
         13    1    3    3    0    0 -0.76946029461E+03  0.21160503687E+03  0.62074193875E+03  0.10110224539E+04  0.10566000000E+00 0. -1.
          1    1    1    2  502    0  0.12165302218E+02 -0.40229915088E+02 -0.15805477381E+03  0.16354740038E+03  0.00000000000E+00 0.  1.
         -4    1    3    3    0  502  0.30895064262E+03 -0.13905311933E+01  0.36791437347E+03  0.48043045215E+03  0.00000000000E+00 0. -1.
</event>
<event>
 7    1  0.9434649E-006  0.9906509E+03  0.7818608E-02  0.9321842E-01
         -4   -1    0    0    0  501 -0.00000000000E+00  0.00000000000E+00  0.14777629318E+04  0.14777629318E+04  0.00000000000E+00 0. -1.
          2   -1    0    0  501    0  0.00000000000E+00 -0.00000000000E+00 -0.35026874872E+03  0.35026874872E+03  0.00000000000E+00 0. -1.
   -9000010    2    1    2    0  502  0.11306940382E+03  0.32183114351E+02  0.77094944183E+03  0.12555518753E+04  0.98398527771E+03 0.  0.
        -13    1    1    2    0    0 -0.11264979152E+03 -0.21362759873E+02  0.45714193030E+03  0.47130149442E+03  0.10566000000E+00 0.  1.
         13    1    3    3    0    0  0.48066829625E+03 -0.11190686134E+03  0.69671847952E+03  0.85380431453E+03  0.10566000000E+00 0. -1.
          2    1    1    2  502    0 -0.41961230265E+00 -0.10820354478E+02 -0.10059718903E+03  0.10117831084E+03  0.00000000000E+00 0. -1.
         -4    1    3    3    0  502 -0.36759889243E+03  0.14408997569E+03  0.74230962310E+02  0.40174756076E+03  0.00000000000E+00 0. -1.
</event>
<event>
 7    1  0.9434649E-006  0.9622401E+03  0.7818608E-02  0.9320796E-01
          2   -1    0    0  502    0  0.00000000000E+00  0.00000000000E+00  0.13594795234E+04  0.13594795234E+04  0.00000000000E+00 0.  1.
          4   -1    0    0  501    0 -0.00000000000E+00 -0.00000000000E+00 -0.42081809535E+03  0.42081809535E+03  0.00000000000E+00 0.  1.
    9000010    2    1    2  502    0  0.59229418819E+02  0.87820366161E+02  0.66762424753E+03  0.11692097709E+04  0.95399623260E+03 0.  0.
        -13    1    3    3    0    0  0.37744710626E+03 -0.63472278899E+02 -0.33823027089E+02  0.38423828094E+03  0.10566000000E+00 0.  1.
         13    1    1    2    0    0  0.51755002360E+01 -0.12662984020E+03 -0.14253784950E+03  0.19073267140E+03  0.10566000000E+00 0. -1.
          2    1    1    2  501    0 -0.64404919055E+02  0.38809474041E+02  0.41357502999E+03  0.42035517637E+03  0.00000000000E+00 0.  1.
          4    1    3    3  502    0 -0.31821768744E+03  0.15129264506E+03  0.70144727462E+03  0.78497149000E+03  0.00000000000E+00 0.  1.
</event>
<event>
 7    1  0.9434649E-006  0.1049710E+04  0.7818608E-02  0.9131504E-01
          4   -1    0    0  501    0  0.00000000000E+00  0.00000000000E+00  0.17132450792E+04  0.17132450792E+04  0.00000000000E+00 0. -1.
         -4   -1    0    0    0  501 -0.00000000000E+00 -0.00000000000E+00 -0.30601526766E+03  0.30601526766E+03  0.00000000000E+00 0. -1.
   -9000010    2    1    2    0  502 -0.10681324194E+03  0.61205236747E+02  0.10909392104E+04  0.15056233628E+04  0.10303388763E+04 0.  0.
        -13    1    1    2    0    0  0.19044195662E+03 -0.83081038103E+02  0.24385359253E+02  0.20920146903E+03  0.10566000000E+00 0.  1.
         13    1    3    3    0    0  0.16350756581E+03  0.47009218014E+03  0.31887028422E+03  0.59110037323E+03  0.10566000000E+00 0. -1.
          4    1    1    2  502    0 -0.83628714681E+02  0.21875801357E+02  0.29190524182E+03  0.30443551502E+03  0.00000000000E+00 0. -1.
         -4    1    3    3    0  502 -0.27032080775E+03 -0.40888694340E+03  0.77206892622E+03  0.91452298955E+03  0.00000000000E+00 0. -1.
</event>
<event>
 7    1  0.9434649E-006  0.1130692E+04  0.7818608E-02  0.9195651E-01
          2   -1    0    0  501    0  0.00000000000E+00  0.00000000000E+00  0.37403372102E+04  0.37403372102E+04  0.00000000000E+00 0. -1.
         -4   -1    0    0    0  501 -0.00000000000E+00 -0.00000000000E+00 -0.34225212929E+03  0.34225212929E+03  0.00000000000E+00 0. -1.
   -9000010    2    1    2    0  502  0.46274441145E+03  0.37925072235E+03  0.12069559466E+04  0.16885714252E+04  0.10181194922E+04 0.  0.
        -13    1    1    2    0    0 -0.68216957244E+02 -0.10477604091E+03 -0.24034798340E+02  0.12731557131E+03  0.10566000000E+00 0.  1.
         13    1    3    3    0    0  0.20677253563E+03  0.26748068731E+03  0.13379968174E+04  0.13800493810E+04  0.10566000000E+00 0. -1.
          2    1    1    2  502    0 -0.39452745421E+03 -0.27447468144E+03  0.22151639327E+04  0.22667023430E+04  0.00000000000E+00 0. -1.
         -4    1    3    3    0  502  0.25597187583E+03  0.11177003503E+03 -0.13104087080E+03  0.30852204421E+03  0.00000000000E+00 0. -1.
</event>
<event>
 7    1  0.9434649E-006  0.9040844E+03  0.7818608E-02  0.9261688E-01
          2   -1    0    0  501    0  0.00000000000E+00  0.00000000000E+00  0.17695510251E+04  0.17695510251E+04  0.00000000000E+00 0. -1.
         -4   -1    0    0    0  501 -0.00000000000E+00 -0.00000000000E+00 -0.98085659338E+03  0.98085659338E+03  0.00000000000E+00 0. -1.
   -9000010    2    1    2    0  502  0.12821354070E+03  0.15365269120E+03 -0.42631359438E+03  0.10015916988E+04  0.88396537760E+03 0.  0.
        -13    1    1    2    0    0 -0.13414806859E+03 -0.13250041394E+03 -0.23350981793E+03  0.30013148824E+03  0.10566000000E+00 0.  1.
         13    1    3    3    0    0  0.35942809439E+03  0.26186976180E+03 -0.55865214450E+03  0.71404240553E+03  0.10566000000E+00 0. -1.
          2    1    1    2  502    0  0.59345278817E+01 -0.21152277258E+02  0.14485178441E+04  0.14486844315E+04  0.00000000000E+00 0. -1.
         -4    1    3    3    0  502 -0.23121455369E+03 -0.10821707061E+03  0.13233855012E+03  0.28754929326E+03  0.00000000000E+00 0. -1.
</event>
<event>
 7    1  0.9434649E-006  0.1050520E+04  0.7818608E-02  0.8939017E-01
          4   -1    0    0  501    0 -0.00000000000E+00  0.00000000000E+00  0.15686132081E+04  0.15686132081E+04  0.00000000000E+00 0.  1.
          2   -1    0    0  502    0  0.00000000000E+00 -0.00000000000E+00 -0.15970622043E+04  0.15970622043E+04  0.00000000000E+00 0.  1.
    9000010    2    1    2  502    0  0.47143885976E+03 -0.85124921208E+02  0.36688726184E+03  0.11143634870E+04  0.93685584141E+03 0.  0.
        -13    1    3    3    0    0 -0.16643030152E+03  0.18049108514E+03  0.34450802085E+03  0.42303884535E+03  0.10566000000E+00 0.  1.
         13    1    1    2    0    0 -0.25424768967E+03 -0.35147902397E+03  0.71630321185E+03  0.83741847034E+03  0.10566000000E+00 0. -1.
          2    1    1    2  501    0 -0.21719117009E+03  0.43660394517E+03 -0.11116394699E+04  0.12138934551E+04  0.00000000000E+00 0.  1.
          4    1    3    3  502    0  0.63786916129E+03 -0.26561600635E+03  0.22379240995E+02  0.69132464167E+03  0.00000000000E+00 0.  1.
</event>
<event>
 7    1  0.9434649E-006  0.1004529E+04  0.7818608E-02  0.9190759E-01
         -4   -1    0    0    0  501 -0.00000000000E+00  0.00000000000E+00  0.16299041346E+04  0.16299041346E+04  0.00000000000E+00 0. -1.
          2   -1    0    0  501    0  0.00000000000E+00 -0.00000000000E+00 -0.91994745899E+03  0.91994745899E+03  0.00000000000E+00 0.  1.
   -9000010    2    1    2    0  502 -0.17397369143E+02  0.11100840778E+03  0.68915598987E+03  0.12098017241E+04  0.98795683010E+03 0.  0.
        -13    1    1    2    0    0  0.58009887709E+02 -0.17582979942E+03  0.66552681449E+03  0.69080186552E+03  0.10566000000E+00 0.  1.
         13    1    3    3    0    0  0.47026959655E+03  0.14099477507E+02  0.47460488367E+03  0.66828294567E+03  0.10566000000E+00 0. -1.
          2    1    1    2  502    0 -0.40612518565E+02  0.64821391645E+02 -0.64472612879E+03  0.64924800395E+03  0.00000000000E+00 0.  1.
         -4    1    3    3    0  502 -0.48766696569E+03  0.96908930273E+02  0.21455110620E+03  0.54151877840E+03  0.00000000000E+00 0. -1.
</event>
<event>
 6    1  0.9434649E-006  0.2039262E+03  0.7818608E-02  0.1057477E+00
          2   -1    0    0  502    0  0.00000000000E+00  0.00000000000E+00  0.22724884066E+04  0.22724884066E+04  0.00000000000E+00 0.  1.
          4   -1    0    0  501    0 -0.00000000000E+00 -0.00000000000E+00 -0.23612782714E+02  0.23612782714E+02  0.00000000000E+00 0.  1.
        -13    1    1    2    0    0  0.93542061491E+02  0.28290013852E+01  0.12268291936E+03  0.15430239915E+03  0.10566000000E+00 0.  1.
         13    1    1    2    0    0 -0.72723145317E+02 -0.21977328932E+02  0.19522094637E+03  0.20948242866E+03  0.10566000000E+00 0. -1.
          2    1    1    2  501    0 -0.10886872547E+02  0.30049691148E+02  0.18294407938E+04  0.18297199583E+04  0.00000000000E+00 0.  1.
          4    1    1    2  502    0 -0.99320436258E+01 -0.10901363601E+02  0.10153096437E+03  0.10259640317E+03  0.00000000000E+00 0.  1.
</event>
<event>
 7    1  0.9434649E-006  0.1228571E+04  0.7818608E-02  0.8710547E-01
          4   -1    0    0  501    0 -0.00000000000E+00  0.00000000000E+00  0.16175273229E+04  0.16175273229E+04  0.00000000000E+00 0.  1.
          2   -1    0    0  502    0  0.00000000000E+00 -0.00000000000E+00 -0.14878528045E+04  0.14878528045E+04  0.00000000000E+00 0. -1.
    9000010    2    1    2  502    0 -0.90141437017E+03  0.25972139108E+03  0.72905069595E+03  0.15547606362E+04  0.10028771863E+04 0.  0.
        -13    1    3    3    0    0 -0.89273072306E+03  0.30541220419E+03  0.12829837282E+03  0.95221071302E+03  0.10566000000E+00 0.  1.
         13    1    1    2    0    0  0.34620771937E+03 -0.53041710619E+03  0.72992326799E+02  0.63759703766E+03  0.10566000000E+00 0. -1.
          2    1    1    2  501    0  0.55520665080E+03  0.27069571511E+03 -0.67236850434E+03  0.91302245367E+03  0.00000000000E+00 0. -1.
          4    1    3    3  502    0 -0.86836471175E+01 -0.45690813109E+02  0.60075232313E+03  0.60254992314E+03  0.00000000000E+00 0.  1.
</event>
<event>
 7    1  0.9434649E-006  0.1078750E+04  0.7818608E-02  0.8959436E-01
          4   -1    0    0  501    0 -0.00000000000E+00  0.00000000000E+00  0.44136174343E+03  0.44136174343E+03  0.00000000000E+00 0.  1.
          2   -1    0    0  502    0  0.00000000000E+00 -0.00000000000E+00 -0.21598709387E+04  0.21598709387E+04  0.00000000000E+00 0.  1.
    9000010    2    1    2  502    0 -0.14791629561E+03  0.33865089019E+03 -0.33835644842E+03  0.11309112512E+04  0.10138597122E+04 0.  0.
        -13    1    3    3    0    0  0.32122616529E+02  0.65117070753E+03 -0.40017721377E+03  0.76498167718E+03  0.10566000000E+00 0.  1.
         13    1    1    2    0    0  0.13402737649E+03 -0.34225743724E+03 -0.70543260429E+03  0.79544871699E+03  0.10566000000E+00 0. -1.
          2    1    1    2  501    0  0.13888919124E+02  0.36065470470E+01 -0.67472014259E+03  0.67487271398E+03  0.00000000000E+00 0.  1.
          4    1    3    3  502    0 -0.18003891214E+03 -0.31251981733E+03  0.61820765343E+02  0.36592957402E+03  0.00000000000E+00 0.  1.
</event>
<event>
 7    1  0.9434649E-006  0.1077570E+04  0.7818608E-02  0.8941616E-01
         -4   -1    0    0    0  501 -0.00000000000E+00  0.00000000000E+00  0.11634905832E+04  0.11634905832E+04  0.00000000000E+00 0. -1.
          1   -1    0    0  501    0  0.00000000000E+00 -0.00000000000E+00 -0.93925556110E+03  0.93925556110E+03  0.00000000000E+00 0.  1.
   -9000010    2    1    2    0  502 -0.19044582030E+03 -0.31051132507E+03 -0.48074193751E+02  0.10548160188E+04  0.98875619437E+03 0.  0.
        -13    1    1    2    0    0  0.36433854154E+03 -0.15939231432E+03  0.36335384473E+03  0.53867848514E+03  0.10566000000E+00 0.  1.
         13    1    3    3    0    0 -0.16671311522E+03 -0.44563563735E+03  0.37769776967E+03  0.60748662572E+03  0.10566000000E+00 0. -1.
          1    1    1    2  502    0 -0.17389272124E+03  0.46990363939E+03 -0.91044628847E+02  0.50925164040E+03  0.00000000000E+00 0.  1.
         -4    1    3    3    0  502 -0.23732705079E+02  0.13512431228E+03 -0.42577196342E+03  0.44732939305E+03  0.00000000000E+00 0. -1.
</event>
<event>
 7    1  0.9434649E-006  0.1011248E+04  0.7818608E-02  0.9339339E-01
         -4   -1    0    0    0  501 -0.00000000000E+00  0.00000000000E+00  0.89888270572E+03  0.89888270572E+03  0.00000000000E+00 0. -1.
          2   -1    0    0  501    0  0.00000000000E+00 -0.00000000000E+00 -0.49750130103E+03  0.49750130103E+03  0.00000000000E+00 0.  1.
   -9000010    2    1    2    0  502 -0.10288056710E+03  0.10800160316E+03  0.38583269228E+03  0.10844258757E+04  0.10024289781E+04 0.  0.
        -13    1    1    2    0    0 -0.30795408822E+02 -0.96172980445E+02  0.10887627520E+03  0.14849799270E+03  0.10566000000E+00 0.  1.
         13    1    3    3    0    0  0.36274149971E+03  0.31316422230E+03  0.30806508618E+03  0.56969933669E+03  0.10566000000E+00 0. -1.
          2    1    1    2  502    0  0.13367597593E+03 -0.11828622711E+02 -0.93327562783E+02  0.16346013835E+03  0.00000000000E+00 0.  1.
         -4    1    3    3    0  502 -0.46562206681E+03 -0.20516261914E+03  0.77767606107E+02  0.51472653900E+03  0.00000000000E+00 0. -1.
</event>
<event>
 6    1  0.9434649E-006  0.2207182E+03  0.7818608E-02  0.1046791E+00
          1   -1    0    0  501    0  0.00000000000E+00  0.00000000000E+00  0.13371529730E+04  0.13371529730E+04  0.00000000000E+00 0. -1.
         -4   -1    0    0    0  501 -0.00000000000E+00 -0.00000000000E+00 -0.50162196717E+02  0.50162196717E+02  0.00000000000E+00 0. -1.
        -13    1    1    2    0    0 -0.31545643963E+02  0.38304231713E+02 -0.45802818005E+01  0.49833040902E+02  0.10566000000E+00 0.  1.
         13    1    1    2    0    0  0.44965541199E+02 -0.58033203568E+02  0.43834877123E+02  0.85505907563E+02  0.10566000000E+00 0. -1.
          1    1    1    2  502    0 -0.16357837570E+02 -0.15516670204E+02  0.10936781412E+04  0.10939105185E+04  0.00000000000E+00 0. -1.
         -4    1    1    2    0  502  0.29379403346E+01  0.35245642059E+02  0.15405803974E+03  0.15806570275E+03  0.00000000000E+00 0. -1.
</event>
<event>
 6    1  0.9434649E-006  0.3099487E+03  0.7818608E-02  0.1003281E+00
          1   -1    0    0  501    0  0.00000000000E+00  0.00000000000E+00  0.10098998911E+04  0.10098998911E+04  0.00000000000E+00 0. -1.
         -4   -1    0    0    0  501 -0.00000000000E+00 -0.00000000000E+00 -0.86285778341E+02  0.86285778341E+02  0.00000000000E+00 0. -1.
        -13    1    1    2    0    0  0.73224860679E+02 -0.71766667435E+01 -0.50428479315E+02  0.89198808608E+02  0.10566000000E+00 0.  1.
         13    1    1    2    0    0 -0.29795494157E+01  0.42136625563E+02  0.21950283074E+03  0.22353048292E+03  0.10566000000E+00 0. -1.
          1    1    1    2  502    0 -0.28384405916E+02 -0.14357400585E+02  0.73008883921E+03  0.73078144653E+03  0.00000000000E+00 0. -1.
         -4    1    1    2    0  502 -0.41860905347E+02 -0.20602558235E+02  0.24450922101E+02  0.52674931361E+02  0.00000000000E+00 0. -1.
</event>
<event>
 6    1  0.9434649E-006  0.4830930E+02  0.7818608E-02  0.1319041E+00
          4   -1    0    0  501    0 -0.00000000000E+00  0.00000000000E+00  0.23919311648E+02  0.23919311648E+02  0.00000000000E+00 0.  1.
          2   -1    0    0  502    0  0.00000000000E+00 -0.00000000000E+00 -0.18285173223E+03  0.18285173223E+03  0.00000000000E+00 0. -1.
        -13    1    1    2    0    0 -0.27303540594E+02  0.87606152492E+01 -0.81190008755E+01  0.29802030933E+02  0.10566000000E+00 0.  1.
         13    1    1    2    0    0  0.34306551321E+02 -0.34184319182E+02 -0.57193140662E+02  0.74943803242E+02  0.10566000000E+00 0. -1.
          2    1    1    2  501    0 -0.16520683958E+02  0.17250588405E+02 -0.80080870028E+02  0.83567108022E+02  0.00000000000E+00 0. -1.
          4    1    1    2  502    0  0.95176732306E+01  0.81731155275E+01 -0.13539409013E+02  0.18458101679E+02  0.00000000000E+00 0.  1.
</event>
<event>
 7    1  0.9434649E-006  0.1046873E+04  0.7818608E-02  0.9041931E-01
          2   -1    0    0  501    0  0.00000000000E+00  0.00000000000E+00  0.12079522270E+04  0.12079522270E+04  0.00000000000E+00 0. -1.
         -4   -1    0    0    0  501 -0.00000000000E+00 -0.00000000000E+00 -0.24046013285E+04  0.24046013285E+04  0.00000000000E+00 0. -1.
   -9000010    2    1    2    0  502  0.39073892520E+03 -0.14770243416E+03 -0.15078638143E+04  0.18602944555E+04  0.10062550682E+04 0.  0.
        -13    1    1    2    0    0 -0.27333163833E+03 -0.97176554057E+01 -0.68462779712E+03  0.73723798674E+03  0.10566000000E+00 0.  1.
         13    1    3    3    0    0  0.13496653920E+03  0.21007492144E+03 -0.13798248324E+04  0.14022353649E+04  0.10566000000E+00 0. -1.
          2    1    1    2  502    0 -0.11740728687E+03  0.15742008957E+03  0.99584250996E+03  0.10150211132E+04  0.00000000000E+00 0. -1.
         -4    1    3    3    0  502  0.25577238600E+03 -0.35777735560E+03 -0.12803898186E+03  0.45805909062E+03  0.00000000000E+00 0. -1.
</event>
<event>
 7    1  0.9434649E-006  0.8601825E+03  0.7818608E-02  0.9066811E-01
          2   -1    0    0  501    0  0.00000000000E+00  0.00000000000E+00  0.72760768966E+03  0.72760768966E+03  0.00000000000E+00 0. -1.
         -4   -1    0    0    0  501 -0.00000000000E+00 -0.00000000000E+00 -0.15394596687E+04  0.15394596687E+04  0.00000000000E+00 0. -1.
   -9000010    2    1    2    0  502 -0.26219848428E+03  0.48031210504E+03 -0.58313030058E+03  0.10757731020E+04  0.71958255684E+03 0.  0.
        -13    1    1    2    0    0  0.14033829507E+03 -0.42848299405E+03 -0.62659936955E+03  0.77195809105E+03  0.10566000000E+00 0.  1.
         13    1    3    3    0    0 -0.10763919053E+03  0.63010882859E+03 -0.57592433708E+03  0.86041396107E+03  0.10566000000E+00 0. -1.
          2    1    1    2  502    0  0.12186018921E+03 -0.51829110992E+02  0.39787769110E+03  0.41933616531E+03  0.00000000000E+00 0. -1.
         -4    1    3    3    0  502 -0.15455929375E+03 -0.14979672355E+03 -0.72059635036E+01  0.21535914092E+03  0.00000000000E+00 0. -1.
</event>
<event>
 7    1  0.9434649E-006  0.1444263E+04  0.7818608E-02  0.8507681E-01
         -4   -1    0    0    0  501 -0.00000000000E+00  0.00000000000E+00  0.28970777444E+04  0.28970777444E+04  0.00000000000E+00 0. -1.
          4   -1    0    0  501    0  0.00000000000E+00 -0.00000000000E+00 -0.11360980640E+04  0.11360980640E+04  0.00000000000E+00 0.  1.
   -9000010    2    1    2    0  502  0.72450027482E+03  0.11246888204E+04  0.16440618274E+04  0.23302398085E+04  0.96811811361E+03 0.  0.
        -13    1    1    2    0    0 -0.25141194315E+03 -0.85519846235E+03  0.51408547065E+03  0.10290074137E+04  0.10566000000E+00 0.  1.
         13    1    3    3    0    0  0.32611548544E+03  0.63140831190E+03  0.15286432980E+04  0.16857574291E+04  0.10566000000E+00 0. -1.
          4    1    1    2  502    0 -0.47308833167E+03 -0.26949035802E+03 -0.39716761771E+03  0.67392858612E+03  0.00000000000E+00 0.  1.
         -4    1    3    3    0  502  0.39838478938E+03  0.49328050847E+03  0.11541852948E+03  0.64448237943E+03  0.00000000000E+00 0. -1.
</event>
<event>
 6    1  0.9434649E-006  0.3692886E+03  0.7818608E-02  0.9822189E-01
          2   -1    0    0  501    0  0.00000000000E+00  0.00000000000E+00  0.18282352238E+04  0.18282352238E+04  0.00000000000E+00 0.  1.
         -4   -1    0    0    0  501 -0.00000000000E+00 -0.00000000000E+00 -0.92242130029E+02  0.92242130029E+02  0.00000000000E+00 0. -1.
        -13    1    1    2    0    0 -0.13578820347E+03  0.77317228057E+02  0.10588780625E+03  0.18875547312E+03  0.10566000000E+00 0.  1.
         13    1    1    2    0    0  0.95514950023E+02 -0.10015979801E+03  0.46794405465E+02  0.14609865969E+03  0.10566000000E+00 0. -1.
          2    1    1    2  502    0  0.21303450740E+02  0.32588925942E+02  0.14573214465E+04  0.14578414432E+04  0.00000000000E+00 0.  1.
         -4    1    1    2    0  502  0.18969802703E+02 -0.97463559846E+01  0.12598943555E+03  0.12778177781E+03  0.00000000000E+00 0. -1.
</event>
<event>
 7    1  0.9434649E-006  0.1251206E+04  0.7818608E-02  0.9028339E-01
          2   -1    0    0  501    0  0.00000000000E+00  0.00000000000E+00  0.12595437726E+04  0.12595437726E+04  0.00000000000E+00 0. -1.
         -4   -1    0    0    0  501 -0.00000000000E+00 -0.00000000000E+00 -0.13705162405E+04  0.13705162405E+04  0.00000000000E+00 0. -1.
   -9000010    2    1    2    0  502  0.43875440275E+03 -0.60708542917E+03  0.66223520014E+03  0.14172196021E+04  0.10044390455E+04 0.  0.
        -13    1    1    2    0    0 -0.15358483281E+03 -0.91217614775E+02 -0.17584619495E+03  0.25066082574E+03  0.10566000000E+00 0.  1.
         13    1    3    3    0    0  0.37617276395E+03 -0.74103056369E+03  0.84295820110E+03  0.11837274959E+04  0.10566000000E+00 0. -1.
          2    1    1    2  502    0 -0.28516956994E+03  0.69830304394E+03 -0.59736147312E+03  0.96217958530E+03  0.00000000000E+00 0. -1.
         -4    1    3    3    0  502  0.62581638800E+02  0.13394513452E+03 -0.18072300095E+03  0.23349210618E+03  0.00000000000E+00 0. -1.
</event>
<event>
 6    1  0.9434649E-006  0.1479248E+04  0.7818608E-02  0.8421543E-01
          4   -1    0    0  501    0 -0.00000000000E+00  0.00000000000E+00  0.32132750942E+04  0.32132750942E+04  0.00000000000E+00 0.  1.
          2   -1    0    0  502    0  0.00000000000E+00 -0.00000000000E+00 -0.11193581255E+04  0.11193581255E+04  0.00000000000E+00 0. -1.
        -13    1    1    2    0    0  0.39242319163E+03 -0.49652458245E+03  0.12924541084E+04  0.14390866047E+04  0.10566000000E+00 0.  1.
         13    1    1    2    0    0 -0.39545290373E+03  0.54157538328E+03  0.17758030949E+04  0.18982000785E+04  0.10566000000E+00 0. -1.
          2    1    1    2  501    0  0.12301100627E+02 -0.75349062720E+01 -0.94905559582E+03  0.94916522052E+03  0.00000000000E+00 0. -1.
          4    1    1    2  502    0 -0.92713885295E+01 -0.37515894555E+02 -0.25284638744E+02  0.46181315983E+02  0.00000000000E+00 0.  1.
</event>
<event>
 6    1  0.9434649E-006  0.1855056E+03  0.7818608E-02  0.1078433E+00
         -4   -1    0    0    0  501 -0.00000000000E+00  0.00000000000E+00  0.19004095709E+03  0.19004095709E+03  0.00000000000E+00 0. -1.
          2   -1    0    0  501    0  0.00000000000E+00 -0.00000000000E+00 -0.61139769335E+03  0.61139769335E+03  0.00000000000E+00 0.  1.
        -13    1    1    2    0    0  0.11474531319E+03 -0.66159391078E+02 -0.32607140774E+02  0.13640670336E+03  0.10566000000E+00 0.  1.
         13    1    1    2    0    0 -0.12901172130E+03  0.97935347206E+02  0.46941347083E+02  0.16863824506E+03  0.10566000000E+00 0. -1.
          2    1    1    2  502    0 -0.87507678160E+01 -0.62335903760E+02 -0.45086359930E+03  0.45523656049E+03  0.00000000000E+00 0.  1.
         -4    1    1    2    0  502  0.23017175925E+02  0.30559947632E+02  0.15172656732E+02  0.41157141533E+02  0.00000000000E+00 0. -1.
</event>
<event>
 7    1  0.9434649E-006  0.1207684E+04  0.7818608E-02  0.8726085E-01
         -4   -1    0    0    0  501 -0.00000000000E+00  0.00000000000E+00  0.11820512109E+04  0.11820512109E+04  0.00000000000E+00 0. -1.
          1   -1    0    0  501    0  0.00000000000E+00 -0.00000000000E+00 -0.16294752812E+04  0.16294752812E+04  0.00000000000E+00 0. -1.
   -9000010    2    1    2    0  502 -0.56540533394E+03  0.43876923555E+03  0.38906891535E+03  0.12782263929E+04  0.98503119590E+03 0.  0.
        -13    1    1    2    0    0  0.56246208335E+03 -0.39305791235E+03  0.93134435121E+01  0.68625423063E+03  0.10566000000E+00 0.  1.
         13    1    3    3    0    0 -0.59649813239E+03  0.85807748762E+02 -0.16112762309E+03  0.62380695233E+03  0.10566000000E+00 0. -1.
          1    1    1    2  502    0  0.29432505898E+01 -0.45711323196E+02 -0.84580642919E+03  0.84704586857E+03  0.00000000000E+00 0. -1.
         -4    1    3    3    0  502  0.31092798451E+02  0.35296148679E+03  0.55019653845E+03  0.65441944056E+03  0.00000000000E+00 0. -1.
</event>
<event>
 7    1  0.9434649E-006  0.1347072E+04  0.7818608E-02  0.8581068E-01
          2   -1    0    0  501    0  0.00000000000E+00  0.00000000000E+00  0.23053940473E+04  0.23053940473E+04  0.00000000000E+00 0.  1.
         -4   -1    0    0    0  501 -0.00000000000E+00 -0.00000000000E+00 -0.14138431281E+04  0.14138431281E+04  0.00000000000E+00 0. -1.
   -9000010    2    1    2    0  502 -0.96070531537E+03  0.33478485823E+02 -0.80425630469E+03  0.15757731228E+04  0.95506922200E+03 0.  0.
        -13    1    1    2    0    0  0.91684868131E+03 -0.12011618775E+03  0.74432080485E+03  0.11870353300E+04  0.10566000000E+00 0.  1.
         13    1    3    3    0    0  0.15257928279E+03 -0.14867065034E+02 -0.33163870520E+03  0.36535696122E+03  0.10566000000E+00 0. -1.
          2    1    1    2  502    0  0.43856634059E+02  0.86637701924E+02  0.95148641907E+03  0.95642872261E+03  0.00000000000E+00 0.  1.
         -4    1    3    3    0  502 -0.11132845982E+04  0.48345550857E+02 -0.47261759949E+03  0.12104161616E+04  0.00000000000E+00 0. -1.
</event>
<event>
 7    1  0.9434649E-006  0.2009807E+04  0.7818608E-02  0.8430268E-01
          4   -1    0    0  501    0 -0.00000000000E+00  0.00000000000E+00  0.34362186154E+04  0.34362186154E+04  0.00000000000E+00 0.  1.
          2   -1    0    0  502    0  0.00000000000E+00 -0.00000000000E+00 -0.13992606508E+04  0.13992606508E+04  0.00000000000E+00 0.  1.
    9000010    2    1    2  502    0 -0.11895334947E+04  0.11551185411E+04  0.11231631052E+04  0.22427710631E+04  0.10095731284E+04 0.  0.
        -13    1    3    3    0    0 -0.24269594939E+03  0.72261941725E+03  0.89771255617E+03  0.11776960519E+04  0.10566000000E+00 0.  1.
         13    1    1    2    0    0  0.31820799206E+03  0.46870497302E+03  0.87980767017E+02  0.57330733858E+03  0.10566000000E+00 0. -1.
          2    1    1    2  501    0  0.87132550265E+03 -0.16238235141E+04  0.82581409239E+03  0.20194008646E+04  0.00000000000E+00 0.  1.
          4    1    3    3  502    0 -0.94683754532E+03  0.43249912385E+03  0.22545054900E+03  0.10650750112E+04  0.00000000000E+00 0.  1.
</event>
<event>
 7    1  0.9434649E-006  0.1025011E+04  0.7818608E-02  0.9181614E-01
          2   -1    0    0  502    0  0.00000000000E+00  0.00000000000E+00  0.13053563306E+04  0.13053563306E+04  0.00000000000E+00 0.  1.
          4   -1    0    0  501    0 -0.00000000000E+00 -0.00000000000E+00 -0.39465844034E+03  0.39465844034E+03  0.00000000000E+00 0.  1.
    9000010    2    1    2  502    0 -0.32184843251E+03 -0.13113884320E+03  0.65240723120E+03  0.12462254728E+04  0.10033239377E+04 0.  0.
        -13    1    3    3    0    0  0.31583153472E+03 -0.26049050485E+03  0.28701122822E+03  0.49998031734E+03  0.10566000000E+00 0.  1.
         13    1    1    2    0    0  0.17714324762E+03  0.53754331893E+01  0.90398459825E+02  0.19894853144E+03  0.10566000000E+00 0. -1.
          2    1    1    2  501    0  0.14470518490E+03  0.12576341001E+03  0.16789219921E+03  0.25484076673E+03  0.00000000000E+00 0.  1.
          4    1    3    3  502    0 -0.63767996723E+03  0.12935166166E+03  0.36539600298E+03  0.74624515541E+03  0.00000000000E+00 0.  1.
</event>
<event>
 7    1  0.9434649E-006  0.1156510E+04  0.7818608E-02  0.8824373E-01
          4   -1    0    0  501    0  0.00000000000E+00  0.00000000000E+00  0.82292381245E+03  0.82292381245E+03  0.00000000000E+00 0.  1.
         -4   -1    0    0    0  501 -0.00000000000E+00 -0.00000000000E+00 -0.22252095839E+04  0.22252095839E+04  0.00000000000E+00 0. -1.
   -9000010    2    1    2    0  502  0.37530492476E+03 -0.35239549779E+03 -0.15612421507E+04  0.19405807476E+04  0.10311838883E+04 0.  0.
        -13    1    1    2    0    0 -0.62783506443E+02  0.61780893908E+03 -0.90593217889E+02  0.62756417694E+03  0.10566000000E+00 0.  1.
         13    1    3    3    0    0  0.23364667693E+03 -0.22098741533E+03 -0.16821701625E+04  0.17126361768E+04  0.10566000000E+00 0. -1.
          4    1    1    2  502    0 -0.31252141832E+03 -0.26541344129E+03  0.24954959708E+03  0.47998847187E+03  0.00000000000E+00 0.  1.
         -4    1    3    3    0  502  0.14165824783E+03 -0.13140808246E+03  0.12092801180E+03  0.22794457079E+03  0.00000000000E+00 0. -1.
</event>
<event>
 7    1  0.9434649E-006  0.1286015E+04  0.7818608E-02  0.8651331E-01
          2   -1    0    0  502    0  0.00000000000E+00  0.00000000000E+00  0.13920147418E+04  0.13920147418E+04  0.00000000000E+00 0. -1.
          4   -1    0    0  501    0 -0.00000000000E+00 -0.00000000000E+00 -0.28889155252E+04  0.28889155252E+04  0.00000000000E+00 0.  1.
    9000010    2    1    2  502    0  0.80858565349E+03 -0.43360678159E+03  0.28703920865E+02  0.13622218996E+04  0.10064785087E+04 0.  0.
        -13    1    3    3    0    0  0.52994885661E+03 -0.45934130663E+03  0.46674579655E+03  0.84243211973E+03  0.10566000000E+00 0.  1.
         13    1    1    2    0    0 -0.72443899209E+03  0.31256762054E+03 -0.21431723602E+04  0.22837903028E+04  0.10566000000E+00 0. -1.
          2    1    1    2  501    0 -0.84146661400E+02  0.12103916105E+03  0.61756765590E+03  0.63491806459E+03  0.00000000000E+00 0. -1.
          4    1    3    3  502    0  0.27863679688E+03  0.25734525037E+02 -0.43804187569E+03  0.51978977983E+03  0.00000000000E+00 0.  1.
</event>
<event>
 7    1  0.9434649E-006  0.9921592E+03  0.7818608E-02  0.9347975E-01
          2   -1    0    0  501    0  0.00000000000E+00  0.00000000000E+00  0.85101008500E+03  0.85101008500E+03  0.00000000000E+00 0. -1.
         -4   -1    0    0    0  501 -0.00000000000E+00 -0.00000000000E+00 -0.61340346935E+03  0.61340346935E+03  0.00000000000E+00 0. -1.
   -9000010    2    1    2    0  502 -0.37983347227E+02 -0.44282216281E+02  0.20511310330E+03  0.10095245216E+04  0.98674450860E+03 0.  0.
        -13    1    1    2    0    0  0.22367019501E+02  0.10222809811E+03 -0.19408408718E+03  0.22049832576E+03  0.10566000000E+00 0.  1.
         13    1    3    3    0    0 -0.31245436742E+03 -0.21093270904E+03  0.46344004748E+03  0.59740859404E+03  0.10566000000E+00 0. -1.
          2    1    1    2  502    0  0.15616327726E+02 -0.57945881827E+02  0.22657759952E+03  0.23439070698E+03  0.00000000000E+00 0. -1.
         -4    1    3    3    0  502  0.27447102020E+03  0.16665049276E+03 -0.25832694418E+03  0.41211592757E+03  0.00000000000E+00 0. -1.
</event>
<event>
 7    1  0.9434649E-006  0.1076906E+04  0.7818608E-02  0.8944759E-01
          2   -1    0    0  502    0  0.00000000000E+00  0.00000000000E+00  0.49601405587E+03  0.49601405587E+03  0.00000000000E+00 0.  1.
          4   -1    0    0  501    0 -0.00000000000E+00 -0.00000000000E+00 -0.17858652925E+04  0.17858652925E+04  0.00000000000E+00 0.  1.
    9000010    2    1    2  502    0  0.48682327790E+03 -0.14677504962E+03 -0.49896837167E+03  0.12298540591E+04  0.10025127189E+04 0.  0.
        -13    1    3    3    0    0 -0.13867708674E+03  0.66344909762E+02 -0.54613789134E+03  0.56736195586E+03  0.10566000000E+00 0.  1.
         13    1    1    2    0    0 -0.35487309036E+03  0.13696985395E+03 -0.83086615505E+03  0.91380207371E+03  0.10566000000E+00 0. -1.
          2    1    1    2  501    0 -0.13195018754E+03  0.98051956674E+01  0.39983290043E+02  0.13822321562E+03  0.00000000000E+00 0.  1.
          4    1    3    3  502    0  0.62550036463E+03 -0.21311995938E+03  0.47169519672E+02  0.66249210322E+03  0.00000000000E+00 0.  1.
</event>
<event>
 6    1  0.9434649E-006  0.4050143E+03  0.7818608E-02  0.9714675E-01
         -4   -1    0    0    0  501 -0.00000000000E+00  0.00000000000E+00  0.91452755306E+02  0.91452755306E+02  0.00000000000E+00 0. -1.
          2   -1    0    0  501    0  0.00000000000E+00 -0.00000000000E+00 -0.61001653343E+03  0.61001653343E+03  0.00000000000E+00 0.  1.
        -13    1    1    2    0    0 -0.86284281492E+01  0.18038911308E+03 -0.12873909024E+03  0.22178468479E+03  0.10566000000E+00 0.  1.
         13    1    1    2    0    0  0.24373758100E+02 -0.16245747909E+03 -0.11734081718E+03  0.20187964517E+03  0.10566000000E+00 0. -1.
          2    1    1    2  502    0 -0.26179452122E+01  0.12584333970E+02 -0.16007318141E+03  0.16058842581E+03  0.00000000000E+00 0.  1.
         -4    1    1    2    0  502 -0.13127384739E+02 -0.30515967958E+02 -0.11241068929E+03  0.11721653295E+03  0.00000000000E+00 0. -1.
</event>
<event>
 7    1  0.9434649E-006  0.1320743E+04  0.7818608E-02  0.8613435E-01
          2   -1    0    0  501    0  0.00000000000E+00  0.00000000000E+00  0.84981873423E+03  0.84981873423E+03  0.00000000000E+00 0.  1.
         -4   -1    0    0    0  501 -0.00000000000E+00 -0.00000000000E+00 -0.21169308870E+04  0.21169308870E+04  0.00000000000E+00 0. -1.
   -9000010    2    1    2    0  502  0.57699556316E+03  0.65883634239E+03 -0.48816111390E+03  0.14097266416E+04  0.99097867028E+03 0.  0.
        -13    1    1    2    0    0 -0.58352774707E+03 -0.64823535911E+03 -0.10049659304E+04  0.13306653391E+04  0.10566000000E+00 0.  1.
         13    1    3    3    0    0 -0.48319039156E+01 -0.22954632910E+03 -0.21187730710E+03  0.31242098029E+03  0.10566000000E+00 0. -1.
          2    1    1    2  502    0  0.65321839098E+01 -0.10600983278E+02  0.22601489145E+03  0.22635764054E+03  0.00000000000E+00 0.  1.
         -4    1    3    3    0  502  0.58182746707E+03  0.88838267149E+03 -0.27628380680E+03  0.10973056613E+04  0.00000000000E+00 0. -1.
</event>
<event>
 7    1  0.9434649E-006  0.9946033E+03  0.7818608E-02  0.9842992E-01
          2   -1    0    0  501    0  0.00000000000E+00  0.00000000000E+00  0.21372131157E+04  0.21372131157E+04  0.00000000000E+00 0. -1.
         -4   -1    0    0    0  501 -0.00000000000E+00 -0.00000000000E+00 -0.25945107106E+03  0.25945107106E+03  0.00000000000E+00 0. -1.
   -9000010    2    1    2    0  502  0.24646698508E+02  0.19357648878E+02  0.11380163756E+04  0.15116179469E+04  0.99444726755E+03 0.  0.
        -13    1    1    2    0    0 -0.15812056526E+02 -0.77377470610E+01 -0.71517237786E+02  0.73652021872E+02  0.10566000000E+00 0.  1.
         13    1    3    3    0    0 -0.25440664949E+03  0.24708086116E+03  0.10924451532E+04  0.11485678557E+04  0.10566000000E+00 0. -1.
          2    1    1    2  502    0 -0.88346419815E+01 -0.11619901817E+02  0.81126290675E+03  0.81139421792E+03  0.00000000000E+00 0. -1.
         -4    1    3    3    0  502  0.27905334800E+03 -0.22772321229E+03  0.45571222482E+02  0.36305009126E+03  0.00000000000E+00 0. -1.
</event>
<event>
 6    1  0.9434649E-006  0.9868482E+03  0.7818608E-02  0.8787047E-01
          1   -1    0    0  501    0  0.00000000000E+00  0.00000000000E+00  0.51516419866E+03  0.51516419866E+03  0.00000000000E+00 0. -1.
         -4   -1    0    0    0  501 -0.00000000000E+00 -0.00000000000E+00 -0.16184623539E+04  0.16184623539E+04  0.00000000000E+00 0. -1.
        -13    1    1    2    0    0 -0.23089753415E+03  0.89591474642E+02 -0.67407951746E+03  0.71813892154E+03  0.10566000000E+00 0.  1.
         13    1    1    2    0    0  0.40879650458E+03 -0.40246824538E+01 -0.84508064070E+03  0.93877158067E+03  0.10566000000E+00 0. -1.
          1    1    1    2  502    0 -0.98344412508E+02 -0.81600456005E+02  0.35245660752E+03  0.37490787945E+03  0.00000000000E+00 0. -1.
         -4    1    1    2    0  502 -0.79554557916E+02 -0.39663361839E+01  0.63405395370E+02  0.10180817094E+03  0.00000000000E+00 0. -1.
</event>
<event>
 7    1  0.9434649E-006  0.1282434E+04  0.7818608E-02  0.8657711E-01
         -4   -1    0    0    0  501 -0.00000000000E+00  0.00000000000E+00  0.53166120882E+03  0.53166120882E+03  0.00000000000E+00 0. -1.
          2   -1    0    0  501    0  0.00000000000E+00 -0.00000000000E+00 -0.30217350077E+04  0.30217350077E+04  0.00000000000E+00 0.  1.
   -9000010    2    1    2    0  502  0.39104445454E+03  0.71982209778E+03 -0.18296043688E+04  0.22465290522E+04  0.10140912276E+04 0.  0.
        -13    1    1    2    0    0 -0.39401173864E+03 -0.66997294606E+03 -0.14705963557E+03  0.79103447853E+03  0.10566000000E+00 0.  1.
         13    1    3    3    0    0  0.60602387440E+03  0.43200111437E+03 -0.57210016502E+03  0.93871641572E+03  0.10566000000E+00 0. -1.
          2    1    1    2  502    0  0.29672840979E+01 -0.49849151712E+02 -0.51340979444E+03  0.51583268579E+03  0.00000000000E+00 0.  1.
         -4    1    3    3    0  502 -0.21497941986E+03  0.28782098341E+03 -0.12575042038E+04  0.13078126364E+04  0.00000000000E+00 0. -1.
</event>
<event>
 6    1  0.9434649E-006  0.6624940E+03  0.7818608E-02  0.9179237E-01
          2   -1    0    0  501    0  0.00000000000E+00  0.00000000000E+00  0.18046956204E+03  0.18046956204E+03  0.00000000000E+00 0.  1.
         -4   -1    0    0    0  501 -0.00000000000E+00 -0.00000000000E+00 -0.69419138159E+03  0.69419138159E+03  0.00000000000E+00 0. -1.
        -13    1    1    2    0    0 -0.10644218270E+03 -0.15324944007E+03  0.49068482033E+02  0.19293277646E+03  0.10566000000E+00 0.  1.
         13    1    1    2    0    0  0.13765963630E+03  0.19388533810E+03 -0.47516598524E+03  0.53134209742E+03  0.10566000000E+00 0. -1.
          2    1    1    2  502    0  0.83387071831E+01  0.13258273306E+02  0.18946493326E+02  0.24582218328E+02  0.00000000000E+00 0.  1.
         -4    1    1    2    0  502 -0.39556160786E+02 -0.53894171339E+02 -0.10657080967E+03  0.12580385143E+03  0.00000000000E+00 0. -1.
</event>
<event>
 7    1  0.9434649E-006  0.1074595E+04  0.7818608E-02  0.9024067E-01
          4   -1    0    0  501    0 -0.00000000000E+00  0.00000000000E+00  0.40688642505E+03  0.40688642505E+03  0.00000000000E+00 0.  1.
          2   -1    0    0  502    0  0.00000000000E+00 -0.00000000000E+00 -0.21422655008E+04  0.21422655008E+04  0.00000000000E+00 0.  1.
    9000010    2    1    2  502    0  0.11013554896E+03  0.22636779043E+03 -0.11439075023E+04  0.15634458071E+04  0.10355994410E+04 0.  0.
        -13    1    3    3    0    0 -0.12124007460E+03  0.60772019915E+03 -0.66232180315E+03  0.90702435372E+03  0.10566000000E+00 0.  1.
         13    1    1    2    0    0 -0.11085012838E+03 -0.26761405573E+03  0.89740251762E+02  0.30324636476E+03  0.10566000000E+00 0. -1.
          2    1    1    2  501    0  0.71457941359E+00  0.41246265302E+02 -0.68121182522E+03  0.68245975401E+03  0.00000000000E+00 0.  1.
          4    1    3    3  502    0  0.23137562356E+03 -0.38135240872E+03 -0.48158569912E+03  0.65642145335E+03  0.00000000000E+00 0.  1.
</event>
<event>
 7    1  0.9434649E-006  0.1073659E+04  0.7818608E-02  0.8959253E-01
          2   -1    0    0  501    0  0.00000000000E+00  0.00000000000E+00  0.27798467964E+04  0.27798467964E+04  0.00000000000E+00 0. -1.
         -4   -1    0    0    0  501 -0.00000000000E+00 -0.00000000000E+00 -0.22440804688E+03  0.22440804688E+03  0.00000000000E+00 0. -1.
   -9000010    2    1    2    0  502  0.38570651203E+03 -0.14606483120E+02  0.20600766523E+04  0.23250233714E+04  0.10063970397E+04 0.  0.
        -13    1    1    2    0    0 -0.37174198545E+03  0.13572714838E+02  0.28554607956E+03  0.46894871473E+03  0.10566000000E+00 0.  1.
         13    1    3    3    0    0  0.60809379963E+03 -0.15887173644E+03  0.70592961210E+03  0.94517454800E+03  0.10566000000E+00 0. -1.
          2    1    1    2  502    0 -0.13964526576E+02  0.10337682825E+01  0.20981601775E+03  0.21028275722E+03  0.00000000000E+00 0. -1.
         -4    1    3    3    0  502 -0.22238728760E+03  0.14426525332E+03  0.13541470402E+04  0.13798488234E+04  0.00000000000E+00 0. -1.
</event>
<event>
 7    1  0.9434649E-006  0.1215574E+04  0.7818608E-02  0.8724720E-01
          2   -1    0    0  502    0  0.00000000000E+00  0.00000000000E+00  0.10606512655E+04  0.10606512655E+04  0.00000000000E+00 0. -1.
          4   -1    0    0  501    0 -0.00000000000E+00 -0.00000000000E+00 -0.41636170914E+04  0.41636170914E+04  0.00000000000E+00 0.  1.
    9000010    2    1    2  502    0 -0.44694074854E+03 -0.50139211131E+03 -0.35763546428E+04  0.37741262869E+04  0.10012824859E+04 0.  0.
        -13    1    3    3    0    0  0.17829144681E+03  0.18650368492E+03 -0.10777474149E+04  0.11082016811E+04  0.10566000000E+00 0.  1.
         13    1    1    2    0    0  0.21715503395E+03  0.79966731840E+03 -0.20764062611E+02  0.82888798178E+03  0.10566000000E+00 0. -1.
          2    1    1    2  501    0  0.22978571459E+03 -0.29827520708E+03  0.49415287954E+03  0.62125408823E+03  0.00000000000E+00 0. -1.
          4    1    3    3  502    0 -0.62523219535E+03 -0.68789579624E+03 -0.24986072279E+04  0.26659246058E+04  0.00000000000E+00 0.  1.
</event>
<event>
 7    1  0.9434649E-006  0.1045208E+04  0.7818608E-02  0.9016216E-01
          4   -1    0    0  501    0  0.00000000000E+00  0.00000000000E+00  0.11439063995E+04  0.11439063995E+04  0.00000000000E+00 0.  1.
          4   -1    0    0  502    0 -0.00000000000E+00 -0.00000000000E+00 -0.64425991784E+03  0.64425991784E+03  0.00000000000E+00 0.  1.
    9000010    2    1    2  501    0 -0.29842268601E+03 -0.20633937966E+03  0.13472991141E+03  0.10671067194E+04  0.99445088488E+03 0.  0.
        -13    1    3    3    0    0 -0.53393943001E+03 -0.46438899448E+03  0.11741070409E+03  0.71731007083E+03  0.10566000000E+00 0.  1.
         13    1    1    2    0    0  0.31007495399E+03  0.65590100906E+02 -0.13421992739E+02  0.31722026966E+03  0.10566000000E+00 0. -1.
          4    1    3    3  501    0  0.23551674400E+03  0.25804961481E+03  0.17319207316E+02  0.34979664857E+03  0.00000000000E+00 0.  1.
          4    1    1    2  502    0 -0.11652267979E+02  0.14074927876E+03  0.37833856301E+03  0.40383932829E+03  0.00000000000E+00 0.  1.
</event>
<event>
 7    1  0.9434649E-006  0.1654795E+04  0.7818608E-02  0.8747175E-01
          4   -1    0    0  501    0 -0.00000000000E+00  0.00000000000E+00  0.22089509142E+04  0.22089509142E+04  0.00000000000E+00 0.  1.
          2   -1    0    0  502    0  0.00000000000E+00 -0.00000000000E+00 -0.12765175012E+04  0.12765175012E+04  0.00000000000E+00 0.  1.
    9000010    2    1    2  502    0  0.81604574311E+03 -0.87982162275E+03  0.10707309344E+03  0.15751705744E+04  0.10147319589E+04 0.  0.
        -13    1    3    3    0    0  0.14657771064E+02 -0.75976568368E+03  0.19940995135E+02  0.76016866471E+03  0.10566000000E+00 0.  1.
         13    1    1    2    0    0  0.11964086254E+03 -0.21733672238E+03  0.26573577270E+03  0.36354463129E+03  0.10566000000E+00 0. -1.
          2    1    1    2  501    0 -0.93568660565E+03  0.10971583451E+04  0.55962454692E+03  0.15467532097E+04  0.00000000000E+00 0.  1.
          4    1    3    3  502    0  0.80138797205E+03 -0.12005593907E+03  0.87132098301E+02  0.81500190969E+03  0.00000000000E+00 0.  1.
</event>
<event>
 7    1  0.9434649E-006  0.1103882E+04  0.7818608E-02  0.8892712E-01
         -4   -1    0    0    0  501 -0.00000000000E+00  0.00000000000E+00  0.12581140996E+04  0.12581140996E+04  0.00000000000E+00 0. -1.
          1   -1    0    0  501    0  0.00000000000E+00 -0.00000000000E+00 -0.82367209266E+03  0.82367209266E+03  0.00000000000E+00 0. -1.
   -9000010    2    1    2    0  502 -0.96747786914E+02 -0.29233814842E+03 -0.21322604424E+03  0.10742562603E+04  0.10068462840E+04 0.  0.
        -13    1    1    2    0    0  0.27869207781E+03  0.38009641481E+03  0.65315461550E+03  0.80545237085E+03  0.10566000000E+00 0.  1.
         13    1    3    3    0    0  0.10938869476E+03 -0.63932883731E+03 -0.14990854371E+03  0.66571753124E+03  0.10566000000E+00 0. -1.
          1    1    1    2  502    0 -0.18194429090E+03 -0.87758266398E+02 -0.54865643455E+01  0.20207756110E+03  0.00000000000E+00 0. -1.
         -4    1    3    3    0  502 -0.20613648167E+03  0.34699068889E+03 -0.63317500535E+02  0.40853872904E+03  0.00000000000E+00 0. -1.
</event>
<event>
 7    1  0.9434649E-006  0.1043266E+04  0.7818608E-02  0.9124822E-01
          2   -1    0    0  502    0  0.00000000000E+00  0.00000000000E+00  0.90006428310E+03  0.90006428310E+03  0.00000000000E+00 0.  1.
          4   -1    0    0  501    0 -0.00000000000E+00 -0.00000000000E+00 -0.97936672794E+03  0.97936672794E+03  0.00000000000E+00 0.  1.
    9000010    2    1    2  502    0  0.19948425527E+03  0.10477707678E+03  0.35800239079E+02  0.10470873911E+04  0.10219286392E+04 0.  0.
        -13    1    3    3    0    0  0.15554970934E+03 -0.10991623908E+03  0.49929905012E+03  0.53439390370E+03  0.10566000000E+00 0.  1.
         13    1    1    2    0    0 -0.18038154341E+03 -0.10610106045E+03 -0.45032448596E+03  0.49657536190E+03  0.10566000000E+00 0. -1.
          2    1    1    2  501    0 -0.19102711856E+02  0.13239836677E+01  0.33522180204E+03  0.33576825803E+03  0.00000000000E+00 0.  1.
          4    1    3    3  502    0  0.43934545931E+02  0.21469331586E+03 -0.46349881104E+03  0.51269348742E+03  0.00000000000E+00 0.  1.
</event>
<event>
 7    1  0.9434649E-006  0.1072596E+04  0.7818608E-02  0.8948480E-01
         -4   -1    0    0    0  501 -0.00000000000E+00  0.00000000000E+00  0.25051822854E+04  0.25051822854E+04  0.00000000000E+00 0. -1.
          2   -1    0    0  501    0  0.00000000000E+00 -0.00000000000E+00 -0.85829016272E+03  0.85829016272E+03  0.00000000000E+00 0.  1.
   -9000010    2    1    2    0  502  0.16690916568E+03 -0.38249882364E+03  0.53352526277E+03  0.12064697101E+04  0.99837665026E+03 0.  0.
        -13    1    1    2    0    0 -0.19657422526E+03  0.33739450705E+03  0.16103904939E+04  0.16570558329E+04  0.10566000000E+00 0.  1.
         13    1    3    3    0    0 -0.12421631769E+03 -0.29027903022E+03 -0.22571024376E+03  0.38811948453E+03  0.10566000000E+00 0. -1.
          2    1    1    2  502    0  0.29665059580E+02  0.45104316586E+02 -0.49702363400E+03  0.49994690507E+03  0.00000000000E+00 0.  1.
         -4    1    3    3    0  502  0.29112548337E+03 -0.92219793416E+02  0.75923550653E+03  0.81835022560E+03  0.00000000000E+00 0. -1.
</event>
<event>
 7    1  0.9434649E-006  0.1185724E+04  0.7818608E-02  0.8756291E-01
          2   -1    0    0  501    0  0.00000000000E+00  0.00000000000E+00  0.13146461538E+04  0.13146461538E+04  0.00000000000E+00 0. -1.
         -4   -1    0    0    0  501 -0.00000000000E+00 -0.00000000000E+00 -0.18544455722E+04  0.18544455722E+04  0.00000000000E+00 0. -1.
   -9000010    2    1    2    0  502  0.97980696154E+02  0.67445128844E+03 -0.31122159726E+03  0.12436425031E+04  0.99262431749E+03 0.  0.
        -13    1    1    2    0    0 -0.19879110832E+03 -0.61192880811E+03 -0.97582244597E+03  0.11688473930E+04  0.10566000000E+00 0.  1.
         13    1    3    3    0    0  0.34643345303E+02  0.71190765566E+03  0.18952541814E+03  0.73751784171E+03  0.10566000000E+00 0. -1.
          2    1    1    2  502    0  0.10081041217E+03 -0.62522480331E+02  0.74724462475E+03  0.75660182988E+03  0.00000000000E+00 0. -1.
         -4    1    3    3    0  502  0.63337350852E+02 -0.37456367218E+02 -0.50074701540E+03  0.50612466141E+03  0.00000000000E+00 0. -1.
</event>
<event>
 6    1  0.9434649E-006  0.8068760E+03  0.7818608E-02  0.8980895E-01
         -4   -1    0    0    0  501 -0.00000000000E+00  0.00000000000E+00  0.49556628853E+03  0.49556628853E+03  0.00000000000E+00 0. -1.
          2   -1    0    0  501    0  0.00000000000E+00 -0.00000000000E+00 -0.17679096092E+04  0.17679096092E+04  0.00000000000E+00 0.  1.
        -13    1    1    2    0    0 -0.16402625348E+02  0.14645551745E+03  0.36488811880E+03  0.39352460548E+03  0.10566000000E+00 0.  1.
         13    1    1    2    0    0 -0.14932129279E+03 -0.89844961356E+02 -0.21176538581E+03  0.27425089855E+03  0.10566000000E+00 0. -1.
          2    1    1    2  502    0  0.19417442948E+02 -0.36832000979E+01 -0.14393599446E+04  0.14394956245E+04  0.00000000000E+00 0.  1.
         -4    1    1    2    0  502  0.14630647519E+03 -0.52927355997E+02  0.13893890950E+02  0.15620476913E+03  0.00000000000E+00 0. -1.
</event>
<event>
 7    1  0.9434649E-006  0.1119649E+04  0.7818608E-02  0.8858206E-01
          4   -1    0    0  502    0  0.00000000000E+00  0.00000000000E+00  0.24745114432E+04  0.24745114432E+04  0.00000000000E+00 0.  1.
          4   -1    0    0  501    0 -0.00000000000E+00 -0.00000000000E+00 -0.47247571341E+03  0.47247571341E+03  0.00000000000E+00 0.  1.
    9000010    2    1    2  502    0 -0.25987320791E+03  0.25265317895E+03  0.94876415167E+03  0.14263338119E+04  0.10014524524E+04 0.  0.
        -13    1    3    3    0    0 -0.60583980525E+03  0.82336546499E+02  0.32349136390E+03  0.69171370537E+03  0.10566000000E+00 0.  1.
         13    1    1    2    0    0  0.86300125398E+02 -0.56300464692E+03  0.21276615827E+03  0.60802252702E+03  0.10566000000E+00 0. -1.
          4    1    1    2  501    0  0.17357308252E+03  0.31035146797E+03  0.84050541984E+03  0.91263081771E+03  0.00000000000E+00 0.  1.
          4    1    3    3  502    0  0.34596659733E+03  0.17031663245E+03  0.62527278777E+03  0.73462010650E+03  0.00000000000E+00 0.  1.
</event>
<event>
 7    1  0.9434649E-006  0.1061358E+04  0.7818608E-02  0.8928415E-01
         -4   -1    0    0    0  501 -0.00000000000E+00  0.00000000000E+00  0.63486382264E+03  0.63486382264E+03  0.00000000000E+00 0. -1.
          2   -1    0    0  501    0  0.00000000000E+00 -0.00000000000E+00 -0.10148754002E+04  0.10148754002E+04  0.00000000000E+00 0. -1.
   -9000010    2    1    2    0  502 -0.41914396281E+03  0.11798465427E+03 -0.64131576320E+02  0.10616733624E+04  0.96614462123E+03 0.  0.
        -13    1    1    2    0    0  0.42894634824E+03 -0.10650245960E+03 -0.22501113335E+03  0.49595137349E+03  0.10566000000E+00 0.  1.
         13    1    3    3    0    0 -0.41741362304E+03 -0.37828903618E+03 -0.25751285604E+02  0.56391476968E+03  0.10566000000E+00 0. -1.
          2    1    1    2  502    0 -0.98023854367E+01 -0.11482194671E+02 -0.90868867887E+02  0.92114486948E+02  0.00000000000E+00 0. -1.
         -4    1    3    3    0  502 -0.17303397676E+01  0.49627369045E+03 -0.38380290717E+02  0.49775859271E+03  0.00000000000E+00 0. -1.
</event>
<event>
 7    1  0.9434649E-006  0.1174351E+04  0.7818608E-02  0.8768101E-01
          2   -1    0    0  502    0  0.00000000000E+00  0.00000000000E+00  0.20074030168E+04  0.20074030168E+04  0.00000000000E+00 0.  1.
          4   -1    0    0  501    0 -0.00000000000E+00 -0.00000000000E+00 -0.64864519844E+03  0.64864519844E+03  0.00000000000E+00 0.  1.
    9000010    2    1    2  502    0  0.60628567166E+03 -0.19626931466E+03  0.32232747508E+03  0.12190849316E+04  0.98801270721E+03 0.  0.
        -13    1    3    3    0    0  0.74576164086E+03  0.43969645334E+02  0.49112058287E+03  0.89403198644E+03  0.10566000000E+00 0.  1.
         13    1    1    2    0    0 -0.61095127777E+03  0.16717473688E+03  0.30161215298E+03  0.70155452992E+03  0.10566000000E+00 0. -1.
          2    1    1    2  501    0  0.46656061086E+01  0.29094577785E+02  0.73481819032E+03  0.73540875379E+03  0.00000000000E+00 0.  1.
          4    1    3    3  502    0 -0.13947596921E+03 -0.24023896000E+03 -0.16879310780E+03  0.32505294511E+03  0.00000000000E+00 0.  1.
</event>
<event>
 7    1  0.9434649E-006  0.1492791E+04  0.7818608E-02  0.8478867E-01
         -4   -1    0    0    0  501  0.00000000000E+00  0.00000000000E+00  0.17956928076E+04  0.17956928076E+04  0.00000000000E+00 0. -1.
         -4   -1    0    0    0  502 -0.00000000000E+00 -0.00000000000E+00 -0.23414769347E+04  0.23414769347E+04  0.00000000000E+00 0. -1.
   -9000010    2    1    2    0  501  0.86267528511E+03 -0.96762912409E+03 -0.15201116715E+04  0.22350833954E+04  0.10021694075E+04 0.  0.
        -13    1    1    2    0    0 -0.14871137724E+03  0.85808235477E+03  0.32104545560E+03  0.92816517766E+03  0.10566000000E+00 0.  1.
         13    1    3    3    0    0  0.25423985520E+03 -0.49398365037E+03 -0.13293536781E+04  0.14407772081E+04  0.10566000000E+00 0. -1.
         -4    1    1    2    0  502 -0.71396390787E+03  0.10954676932E+03  0.65328208875E+03  0.97392116924E+03  0.00000000000E+00 0. -1.
         -4    1    3    3    0  501  0.60843542991E+03 -0.47364547372E+03 -0.19075799338E+03  0.79430618730E+03  0.00000000000E+00 0. -1.
</event>
<event>
 6    1  0.9434649E-006  0.5468512E+03  0.7818608E-02  0.9380800E-01
          1   -1    0    0  501    0  0.00000000000E+00  0.00000000000E+00  0.12805685880E+04  0.12805685880E+04  0.00000000000E+00 0.  1.
         -4   -1    0    0    0  501 -0.00000000000E+00 -0.00000000000E+00 -0.78087374492E+02  0.78087374492E+02  0.00000000000E+00 0. -1.
        -13    1    1    2    0    0 -0.10066634598E+02  0.25722683008E+03  0.34481446190E+03  0.43030687136E+03  0.10566000000E+00 0.  1.
         13    1    1    2    0    0 -0.59483254841E+02 -0.23590067636E+03  0.52038265533E+03  0.57444364897E+03  0.10566000000E+00 0. -1.
          1    1    1    2  502    0  0.41489079577E+02 -0.34525072817E+01  0.30402554405E+03  0.30686282760E+03  0.00000000000E+00 0.  1.
         -4    1    1    2    0  502  0.28060809862E+02 -0.17873646436E+02  0.33258552220E+02  0.47042614541E+02  0.00000000000E+00 0. -1.
</event>
<event>
 7    1  0.9434649E-006  0.1019259E+04  0.7818608E-02  0.9084259E-01
          2   -1    0    0  501    0  0.00000000000E+00  0.00000000000E+00  0.17372160580E+04  0.17372160580E+04  0.00000000000E+00 0.  1.
         -4   -1    0    0    0  501 -0.00000000000E+00 -0.00000000000E+00 -0.11335811169E+04  0.11335811169E+04  0.00000000000E+00 0. -1.
   -9000010    2    1    2    0  502  0.27404719892E+03 -0.16092849156E+03 -0.19757303352E+03  0.10531306694E+04  0.98440299508E+03 0.  0.
        -13    1    1    2    0    0 -0.26279691531E+03 -0.32814983514E+02 -0.46583038340E+03  0.53585165774E+03  0.10566000000E+00 0.  1.
         13    1    3    3    0    0  0.27891772570E+03 -0.25366859393E+03 -0.56217207609E+03  0.67689017393E+03  0.10566000000E+00 0. -1.
          2    1    1    2  502    0 -0.11250283614E+02  0.19374347507E+03  0.12670383580E+04  0.12818148477E+04  0.00000000000E+00 0.  1.
         -4    1    3    3    0  502 -0.48705267808E+01  0.92740102375E+02  0.36459904258E+03  0.37624049552E+03  0.00000000000E+00 0. -1.
</event>
<event>
 7    1  0.9434649E-006  0.1078159E+04  0.7818608E-02  0.8938322E-01
          1   -1    0    0  501    0  0.00000000000E+00  0.00000000000E+00  0.18525850679E+04  0.18525850679E+04  0.00000000000E+00 0.  1.
         -4   -1    0    0    0  501 -0.00000000000E+00 -0.00000000000E+00 -0.43645191966E+03  0.43645191966E+03  0.00000000000E+00 0. -1.
   -9000010    2    1    2    0  502 -0.39788577092E+03  0.51947823764E+02  0.91831246078E+03  0.14159056629E+04  0.10002396750E+04 0.  0.
        -13    1    1    2    0    0  0.39783777787E+03 -0.62147239365E+02  0.28467867298E+02  0.40366769439E+03  0.10566000000E+00 0.  1.
         13    1    3    3    0    0  0.93928091717E+02 -0.39074949991E+03  0.46081585358E+03  0.61144003808E+03  0.10566000000E+00 0. -1.
          1    1    1    2  502    0  0.47993057809E-01  0.10199415601E+02  0.46935282011E+03  0.46946363025E+03  0.00000000000E+00 0.  1.
         -4    1    3    3    0  502 -0.49181386264E+03  0.44269732368E+03  0.45749660719E+03  0.80446562479E+03  0.00000000000E+00 0. -1.
</event>
<event>
 7    1  0.9434649E-006  0.1203083E+04  0.7818608E-02  0.8734442E-01
          2   -1    0    0  502    0  0.00000000000E+00  0.00000000000E+00  0.69982137629E+03  0.69982137629E+03  0.00000000000E+00 0.  1.
          4   -1    0    0  501    0 -0.00000000000E+00 -0.00000000000E+00 -0.23585194245E+04  0.23585194245E+04  0.00000000000E+00 0.  1.
    9000010    2    1    2  502    0  0.64276129854E+02 -0.68055805621E+03 -0.51457177067E+03  0.13094258683E+04  0.99122212887E+03 0.  0.
        -13    1    3    3    0    0 -0.13511075579E+03  0.18912014197E+03  0.70002930631E+02  0.24273806024E+03  0.10566000000E+00 0.  1.
         13    1    1    2    0    0 -0.11449511225E+03  0.67210806055E+03 -0.13630988502E+04  0.15240987049E+04  0.10566000000E+00 0. -1.
          2    1    1    2  501    0  0.50218982394E+02  0.84499956615E+01  0.21897257261E+03  0.22481622756E+03  0.00000000000E+00 0.  1.
          4    1    3    3  502    0  0.19938688564E+03 -0.86967819818E+03 -0.58457470130E+03  0.10666878081E+04  0.00000000000E+00 0.  1.
</event>
<event>
 7    1  0.9434649E-006  0.1097913E+04  0.7818608E-02  0.8899147E-01
         -4   -1    0    0    0  501 -0.00000000000E+00  0.00000000000E+00  0.24786731878E+04  0.24786731878E+04  0.00000000000E+00 0. -1.
          2   -1    0    0  501    0  0.00000000000E+00 -0.00000000000E+00 -0.13128512267E+04  0.13128512267E+04  0.00000000000E+00 0. -1.
   -9000010    2    1    2    0  502 -0.43608320047E+03  0.29881551364E+03  0.20587318724E+04  0.23500323995E+04  0.10024051514E+04 0.  0.
        -13    1    1    2    0    0  0.38966548266E+03 -0.44066350982E+02  0.10871269140E+03  0.40693917494E+03  0.10566000000E+00 0.  1.
         13    1    3    3    0    0  0.17771019061E+03  0.14977121462E+03  0.41315848155E+02  0.23604944196E+03  0.10566000000E+00 0. -1.
          2    1    1    2  502    0  0.46417717805E+02 -0.25474916265E+03 -0.10016226027E+04  0.10345528399E+04  0.00000000000E+00 0. -1.
         -4    1    3    3    0  502 -0.61379339108E+03  0.14904429901E+03  0.20174160243E+04  0.21139829576E+04  0.00000000000E+00 0. -1.
</event>
<event>
 7    1  0.9434649E-006  0.1075699E+04  0.7818608E-02  0.8956347E-01
          2   -1    0    0  501    0  0.00000000000E+00  0.00000000000E+00  0.80054688780E+03  0.80054688780E+03  0.00000000000E+00 0. -1.
         -4   -1    0    0    0  501 -0.00000000000E+00 -0.00000000000E+00 -0.28637812686E+04  0.28637812686E+04  0.00000000000E+00 0. -1.
   -9000010    2    1    2    0  502 -0.27179824262E+03  0.25068042723E+03 -0.15573002794E+04  0.18913957862E+04  0.10077097293E+04 0.  0.
        -13    1    1    2    0    0  0.30475050788E+03 -0.22358400684E+03 -0.11073116378E+04  0.11700434840E+04  0.10566000000E+00 0.  1.
         13    1    3    3    0    0 -0.40737942666E+03  0.11880104624E+03 -0.16333236280E+04  0.16875478573E+04  0.10566000000E+00 0. -1.
          2    1    1    2  502    0 -0.32952265267E+02 -0.27096420393E+02  0.60137753641E+03  0.60288888618E+03  0.00000000000E+00 0. -1.
         -4    1    3    3    0  502  0.13558118404E+03  0.13187938100E+03  0.76023348533E+02  0.20384792891E+03  0.00000000000E+00 0. -1.
</event>
<event>
 7    1  0.9434649E-006  0.1083545E+04  0.7818608E-02  0.8913277E-01
          2   -1    0    0  502    0  0.00000000000E+00  0.00000000000E+00  0.34065571451E+03  0.34065571451E+03  0.00000000000E+00 0.  1.
          4   -1    0    0  501    0 -0.00000000000E+00 -0.00000000000E+00 -0.38040814761E+04  0.38040814761E+04  0.00000000000E+00 0.  1.
    9000010    2    1    2  502    0 -0.11526228216E+02  0.44905514604E+03 -0.32389921018E+04  0.34166885589E+04  0.99040774188E+03 0.  0.
        -13    1    3    3    0    0 -0.36220040905E+02 -0.14056049514E+02  0.67471963714E+02  0.77858467378E+02  0.10566000000E+00 0.  1.
         13    1    1    2    0    0  0.22355200186E+02 -0.42842878686E+03 -0.37857148999E+03  0.57216026128E+03  0.10566000000E+00 0. -1.
          2    1    1    2  501    0 -0.10828971970E+02 -0.20626359173E+02  0.15413783020E+03  0.15588837039E+03  0.00000000000E+00 0.  1.
          4    1    3    3  502    0  0.24693812689E+02  0.46311119555E+03 -0.33064640655E+04  0.33388300915E+04  0.00000000000E+00 0.  1.
</event>
<event>
 7    1  0.9434649E-006  0.1197856E+04  0.7818608E-02  0.8780555E-01
         -4   -1    0    0    0  501 -0.00000000000E+00  0.00000000000E+00  0.86555195137E+03  0.86555195137E+03  0.00000000000E+00 0. -1.
          4   -1    0    0  501    0  0.00000000000E+00 -0.00000000000E+00 -0.21176529283E+04  0.21176529283E+04  0.00000000000E+00 0.  1.
   -9000010    2    1    2    0  502  0.79859909278E+03 -0.42529644367E+03 -0.41984189971E+03  0.14518951362E+04  0.10550330279E+04 0.  0.
        -13    1    1    2    0    0 -0.49178570783E+03  0.82942575333E+02  0.84409359765E+02  0.50582368906E+03  0.10566000000E+00 0.  1.
         13    1    3    3    0    0  0.10099788835E+04 -0.17610354131E+03 -0.16700439320E+03  0.10387301290E+04  0.10566000000E+00 0. -1.
          4    1    1    2  502    0 -0.30681338495E+03  0.34235386834E+03 -0.91666843694E+03  0.10254860543E+04  0.00000000000E+00 0.  1.
         -4    1    3    3    0  502 -0.21137979072E+03 -0.24919290236E+03 -0.25283750651E+03  0.41316500724E+03  0.00000000000E+00 0. -1.
</event>
<event>
 7    1  0.9434649E-006  0.1065858E+04  0.7818608E-02  0.8995331E-01
          2   -1    0    0  501    0  0.00000000000E+00  0.00000000000E+00  0.25379350304E+03  0.25379350304E+03  0.00000000000E+00 0. -1.
         -4   -1    0    0    0  501 -0.00000000000E+00 -0.00000000000E+00 -0.46824997464E+04  0.46824997464E+04  0.00000000000E+00 0. -1.
   -9000010    2    1    2    0  502  0.10298521083E+03 -0.33109023088E+03 -0.35038775534E+04  0.36639388066E+04  0.10134411549E+04 0.  0.
        -13    1    1    2    0    0  0.38329533643E+02  0.32979858177E+03 -0.10389476683E+04  0.10907101019E+04  0.10566000000E+00 0.  1.
         13    1    3    3    0    0  0.22297869088E+03  0.31730106167E+03 -0.16899095900E+04  0.17338379088E+04  0.10566000000E+00 0. -1.
          2    1    1    2  502    0 -0.14131474447E+03  0.12916491176E+01  0.11411897840E+03  0.18164434093E+03  0.00000000000E+00 0. -1.
         -4    1    3    3    0  502 -0.11999348005E+03 -0.64839129256E+03 -0.18139679634E+04  0.19301008978E+04  0.00000000000E+00 0. -1.
</event>
<event>
 7    1  0.9434649E-006  0.9701720E+03  0.7818608E-02  0.9266186E-01
          2   -1    0    0  501    0  0.00000000000E+00  0.00000000000E+00  0.34324519492E+04  0.34324519492E+04  0.00000000000E+00 0. -1.
         -4   -1    0    0    0  501 -0.00000000000E+00 -0.00000000000E+00 -0.30997858020E+03  0.30997858020E+03  0.00000000000E+00 0. -1.
   -9000010    2    1    2    0  502 -0.10553789275E+03 -0.72083290677E+01  0.81189012881E+03  0.12604867808E+04  0.95836899811E+03 0.  0.
        -13    1    1    2    0    0  0.14164922417E+03  0.61192322767E+02 -0.15386912442E+02  0.15506698976E+03  0.10566000000E+00 0.  1.
         13    1    3    3    0    0 -0.77325090929E+02 -0.47735978621E+03  0.49994483111E+03  0.69555472862E+03  0.10566000000E+00 0. -1.
          2    1    1    2  502    0 -0.36111331420E+02 -0.53983993700E+02  0.23259701526E+04  0.23268767588E+04  0.00000000000E+00 0. -1.
         -4    1    3    3    0  502 -0.28212801824E+02  0.47015145715E+03  0.31194529769E+03  0.56493205219E+03  0.00000000000E+00 0. -1.
</event>
<event>
 7    1  0.9434649E-006  0.1446658E+04  0.7818608E-02  0.8822929E-01
          4   -1    0    0  501    0 -0.00000000000E+00  0.00000000000E+00  0.31482815306E+04  0.31482815306E+04  0.00000000000E+00 0.  1.
          2   -1    0    0  502    0  0.00000000000E+00 -0.00000000000E+00 -0.15326478277E+04  0.15326478277E+04  0.00000000000E+00 0. -1.
    9000010    2    1    2  502    0  0.99019966990E+03 -0.65959540612E+03  0.23698928193E+04  0.28328946731E+04  0.99666381893E+03 0.  0.
        -13    1    3    3    0    0 -0.15935658543E+03 -0.27953568759E+03  0.33111707107E+03  0.46170688523E+03  0.10566000000E+00 0.  1.
         13    1    1    2    0    0 -0.28358519578E+02  0.26765890196E+03  0.27570595156E+03  0.38530413484E+03  0.10566000000E+00 0. -1.
          2    1    1    2  501    0 -0.96184115033E+03  0.39193650416E+03 -0.10299650680E+04  0.14627305504E+04  0.00000000000E+00 0. -1.
          4    1    3    3  502    0  0.11495562553E+04 -0.38005971853E+03  0.20387757482E+04  0.23711877879E+04  0.00000000000E+00 0.  1.
</event>
<event>
 7    1  0.9434649E-006  0.1085065E+04  0.7818608E-02  0.8950231E-01
          2   -1    0    0  501    0  0.00000000000E+00  0.00000000000E+00  0.74448794471E+03  0.74448794471E+03  0.00000000000E+00 0.  1.
         -4   -1    0    0    0  501 -0.00000000000E+00 -0.00000000000E+00 -0.12279125092E+04  0.12279125092E+04  0.00000000000E+00 0. -1.
   -9000010    2    1    2    0  502  0.32815060103E+03  0.19202258403E+03 -0.81546546872E+03  0.13585058024E+04  0.10178401616E+04 0.  0.
        -13    1    1    2    0    0 -0.33164824798E+03 -0.16947679043E+03  0.10673190905E+03  0.38743341938E+03  0.10566000000E+00 0.  1.
         13    1    3    3    0    0  0.14887567848E+03 -0.42008870273E+03 -0.28602058244E+03  0.52957178035E+03  0.10566000000E+00 0. -1.
          2    1    1    2  502    0  0.34976469453E+01 -0.22545793607E+02  0.22530899520E+03  0.22646123214E+03  0.00000000000E+00 0.  1.
         -4    1    3    3    0  502  0.17927492255E+03  0.61211128676E+03 -0.52944488628E+03  0.82893402201E+03  0.00000000000E+00 0. -1.
</event>
<event>
 7    1  0.9434649E-006  0.1016705E+04  0.7818608E-02  0.9326118E-01
          2   -1    0    0  502    0  0.00000000000E+00  0.00000000000E+00  0.16192154672E+04  0.16192154672E+04  0.00000000000E+00 0. -1.
          4   -1    0    0  501    0 -0.00000000000E+00 -0.00000000000E+00 -0.37712281015E+03  0.37712281015E+03  0.00000000000E+00 0.  1.
    9000010    2    1    2  502    0  0.98586021972E+02 -0.25033824692E+02  0.36943937235E+03  0.10814865912E+04  0.10113268023E+04 0.  0.
        -13    1    3    3    0    0 -0.31240382803E+03 -0.33200727583E+03  0.11590063037E+02  0.45602557352E+03  0.10566000000E+00 0.  1.
         13    1    1    2    0    0 -0.10540518371E+03  0.40199908682E+00  0.11211369544E+03  0.15388276780E+03  0.10566000000E+00 0. -1.
          2    1    1    2  501    0  0.68191617357E+01  0.24631825605E+02  0.76053958930E+03  0.76096891835E+03  0.00000000000E+00 0. -1.
          4    1    3    3  502    0  0.41098985001E+03  0.30697345114E+03  0.35784930931E+03  0.62546101772E+03  0.00000000000E+00 0.  1.
</event>
<event>
 7    1  0.9434649E-006  0.1064228E+04  0.7818608E-02  0.8956077E-01
          2   -1    0    0  502    0  0.00000000000E+00  0.00000000000E+00  0.81629997538E+03  0.81629997538E+03  0.00000000000E+00 0. -1.
          4   -1    0    0  501    0 -0.00000000000E+00 -0.00000000000E+00 -0.18389996290E+04  0.18389996290E+04  0.00000000000E+00 0.  1.
    9000010    2    1    2  502    0  0.33900215684E+03  0.85853368313E+02 -0.86102744351E+03  0.13582521876E+04  0.99054908175E+03 0.  0.
        -13    1    3    3    0    0 -0.30133773187E+03  0.22073526850E+03 -0.18304387842E+03  0.41597302797E+03  0.10566000000E+00 0.  1.
         13    1    1    2    0    0 -0.35644836451E+03 -0.18011532924E+03 -0.66987043915E+03  0.77988677691E+03  0.10566000000E+00 0. -1.
          2    1    1    2  501    0  0.17446207677E+02  0.94261960925E+02  0.50819822905E+03  0.51716063989E+03  0.00000000000E+00 0. -1.
          4    1    3    3  502    0  0.64033988871E+03 -0.13488190018E+03 -0.67798356510E+03  0.94227915960E+03  0.00000000000E+00 0.  1.
</event>
<event>
 7    1  0.9434649E-006  0.1062870E+04  0.7818608E-02  0.9067617E-01
         -4   -1    0    0    0  501 -0.00000000000E+00  0.00000000000E+00  0.27400240970E+03  0.27400240970E+03  0.00000000000E+00 0. -1.
          2   -1    0    0  501    0  0.00000000000E+00 -0.00000000000E+00 -0.36585831999E+04  0.36585831999E+04  0.00000000000E+00 0. -1.
   -9000010    2    1    2    0  502 -0.67668518588E+02  0.34447146271E+03 -0.25774139954E+04  0.27780767512E+04  0.97540141218E+03 0.  0.
        -13    1    1    2    0    0 -0.22342029902E+03  0.10996090077E+03 -0.42726651314E+03  0.49453484622E+03  0.10566000000E+00 0.  1.
         13    1    3    3    0    0 -0.46288659380E+03  0.22017951219E+02 -0.17112233317E+04  0.17728604263E+04  0.10566000000E+00 0. -1.
          2    1    1    2  502    0  0.29108881761E+03 -0.45443236348E+03 -0.37990028164E+03  0.65997401215E+03  0.00000000000E+00 0. -1.
         -4    1    3    3    0  502  0.39521807522E+03  0.32245351150E+03 -0.86619066373E+03  0.10052163250E+04  0.00000000000E+00 0. -1.
</event>
<event>
 7    1  0.9434649E-006  0.1048932E+04  0.7818608E-02  0.9046886E-01
          1   -1    0    0  501    0  0.00000000000E+00  0.00000000000E+00  0.10670513782E+04  0.10670513782E+04  0.00000000000E+00 0. -1.
         -4   -1    0    0    0  501 -0.00000000000E+00 -0.00000000000E+00 -0.61936350394E+03  0.61936350394E+03  0.00000000000E+00 0. -1.
   -9000010    2    1    2    0  502  0.22666218574E+03  0.60035051118E+02  0.21857531991E+02  0.10375489608E+04  0.10104702572E+04 0.  0.
        -13    1    1    2    0    0 -0.30931587751E+03  0.69357055807E+02  0.19675141261E+03  0.37309227116E+03  0.10566000000E+00 0.  1.
         13    1    3    3    0    0 -0.39499159769E+03 -0.67413865716E+02 -0.23148028478E+02  0.40137119219E+03  0.10566000000E+00 0. -1.
          1    1    1    2  502    0  0.82653691772E+02 -0.12939210692E+03  0.22907892965E+03  0.27577365013E+03  0.00000000000E+00 0. -1.
         -4    1    3    3    0  502  0.62165378342E+03  0.12744891683E+03  0.45005560469E+02  0.63617776865E+03  0.00000000000E+00 0. -1.
</event>
<event>
 7    1  0.9434649E-006  0.1145898E+04  0.7818608E-02  0.8811293E-01
         -4   -1    0    0    0  501 -0.00000000000E+00  0.00000000000E+00  0.17160266199E+04  0.17160266199E+04  0.00000000000E+00 0. -1.
          2   -1    0    0  501    0  0.00000000000E+00 -0.00000000000E+00 -0.10990126446E+04  0.10990126446E+04  0.00000000000E+00 0.  1.
   -9000010    2    1    2    0  502 -0.84331860158E+02 -0.54788849605E+03  0.59808568190E+03  0.12862814135E+04  0.99474606065E+03 0.  0.
        -13    1    1    2    0    0  0.21677370566E+03  0.53474165101E+03  0.65847094931E+03  0.87551326377E+03  0.10566000000E+00 0.  1.
         13    1    3    3    0    0 -0.31903084133E+03 -0.28498295252E+03  0.78005371127E+03  0.88965148489E+03  0.10566000000E+00 0. -1.
          2    1    1    2  502    0 -0.13244184550E+03  0.13146845042E+02 -0.63954265594E+03  0.65324458723E+03  0.00000000000E+00 0.  1.
         -4    1    3    3    0  502  0.23469898117E+03 -0.26290554353E+03 -0.18196802937E+03  0.39662992864E+03  0.00000000000E+00 0. -1.
</event>
<event>
 7    1  0.9434649E-006  0.1050520E+04  0.7818608E-02  0.8946304E-01
          2   -1    0    0  502    0  0.00000000000E+00  0.00000000000E+00  0.51741004502E+04  0.51741004502E+04  0.00000000000E+00 0. -1.
          4   -1    0    0  501    0 -0.00000000000E+00 -0.00000000000E+00 -0.19028552492E+04  0.19028552492E+04  0.00000000000E+00 0.  1.
    9000010    2    1    2  502    0 -0.19112215371E+01  0.34640627632E+03 -0.46244305375E+03  0.11225777432E+04  0.96245844091E+03 0.  0.
        -13    1    3    3    0    0  0.43704563387E+03 -0.30101822913E+02 -0.13709267425E+03  0.45903095573E+03  0.10566000000E+00 0.  1.
         13    1    1    2    0    0 -0.55354428442E+01 -0.43043502239E+03 -0.10682380737E+04  0.11517107028E+04  0.10566000000E+00 0. -1.
          2    1    1    2  501    0  0.74466643812E+01  0.84028746070E+02  0.48019263285E+04  0.48026672534E+04  0.00000000000E+00 0. -1.
          4    1    3    3  502    0 -0.43895685540E+03  0.37650809923E+03 -0.32535037950E+03  0.66354678745E+03  0.00000000000E+00 0.  1.
</event>
<event>
 7    1  0.9434649E-006  0.1003804E+04  0.7818608E-02  0.9220911E-01
         -4   -1    0    0    0  501 -0.00000000000E+00  0.00000000000E+00  0.22774769135E+04  0.22774769135E+04  0.00000000000E+00 0. -1.
          2   -1    0    0  501    0  0.00000000000E+00 -0.00000000000E+00 -0.28889628318E+03  0.28889628318E+03  0.00000000000E+00 0.  1.
   -9000010    2    1    2    0  502  0.13712474503E+03  0.10748902245E+03  0.17608576140E+04  0.20278895879E+04  0.99063593642E+03 0.  0.
        -13    1    1    2    0    0 -0.12515851164E+03 -0.10051259516E+03  0.36592696324E+03  0.39958727258E+03  0.10566000000E+00 0.  1.
         13    1    3    3    0    0 -0.42210831850E+03 -0.11239414899E+02  0.59747789396E+03  0.73162941570E+03  0.10566000000E+00 0. -1.
          2    1    1    2  502    0 -0.11966233390E+02 -0.69764272806E+01 -0.13820394687E+03  0.13889633619E+03  0.00000000000E+00 0.  1.
         -4    1    3    3    0  502  0.55923306352E+03  0.11872843734E+03  0.11633797200E+04  0.12962601722E+04  0.00000000000E+00 0. -1.
</event>
<event>
 7    1  0.9434649E-006  0.9922213E+03  0.7818608E-02  0.9896674E-01
          4   -1    0    0  501    0 -0.00000000000E+00  0.00000000000E+00  0.35547194794E+03  0.35547194794E+03  0.00000000000E+00 0.  1.
          2   -1    0    0  502    0  0.00000000000E+00 -0.00000000000E+00 -0.14571569127E+04  0.14571569127E+04  0.00000000000E+00 0.  1.
    9000010    2    1    2  502    0  0.33561700835E+02 -0.81572267169E+02 -0.12582646734E+04  0.16018888275E+04  0.98743982340E+03 0.  0.
        -13    1    3    3    0    0 -0.36138536625E+03  0.87593462570E+02 -0.10700528610E+04  0.11328217574E+04  0.10566000000E+00 0.  1.
         13    1    1    2    0    0  0.89963880924E+01 -0.11762458720E+02  0.83469819441E+02  0.84773299779E+02  0.10566000000E+00 0. -1.
          2    1    1    2  501    0 -0.42558088927E+02  0.93334725889E+02  0.73109889263E+02  0.12596673330E+03  0.00000000000E+00 0.  1.
          4    1    3    3  502    0  0.39494706708E+03 -0.16916572974E+03 -0.18821181243E+03  0.46906707010E+03  0.00000000000E+00 0.  1.
</event>
<event>
 7    1  0.9434649E-006  0.1067676E+04  0.7818608E-02  0.8969939E-01
          4   -1    0    0  501    0 -0.00000000000E+00  0.00000000000E+00  0.86326071357E+03  0.86326071357E+03  0.00000000000E+00 0.  1.
          2   -1    0    0  502    0  0.00000000000E+00 -0.00000000000E+00 -0.18072331517E+04  0.18072331517E+04  0.00000000000E+00 0.  1.
    9000010    2    1    2  502    0  0.11550815560E+03  0.29677904464E+03 -0.38173391734E+03  0.11200321157E+04  0.10036589168E+04 0.  0.
        -13    1    3    3    0    0  0.31594148004E+03 -0.12870230813E+03 -0.52699858175E+03  0.62778246173E+03  0.10566000000E+00 0.  1.
         13    1    1    2    0    0 -0.18555244124E+03 -0.31856984860E+03  0.42379093422E+03  0.56170741849E+03  0.10566000000E+00 0. -1.
          2    1    1    2  501    0  0.70044285637E+02  0.21790803966E+02 -0.98602945497E+03  0.98875433104E+03  0.00000000000E+00 0.  1.
          4    1    3    3  502    0 -0.20043332444E+03  0.42548135277E+03  0.14526466441E+03  0.49224965396E+03  0.00000000000E+00 0.  1.
</event>
<event>
 7    1  0.9434649E-006  0.1371444E+04  0.7818608E-02  0.8573673E-01
          2   -1    0    0  501    0  0.00000000000E+00  0.00000000000E+00  0.29944348844E+04  0.29944348844E+04  0.00000000000E+00 0.  1.
         -4   -1    0    0    0  501 -0.00000000000E+00 -0.00000000000E+00 -0.15705956984E+04  0.15705956984E+04  0.00000000000E+00 0. -1.
   -9000010    2    1    2    0  502 -0.83942066539E+03  0.69841824209E+03 -0.58043758423E+03  0.15951685752E+04  0.10075911371E+04 0.  0.
        -13    1    1    2    0    0  0.63288901953E+03 -0.51823975781E+03 -0.12107574087E+03  0.82691009415E+03  0.10566000000E+00 0.  1.
         13    1    3    3    0    0 -0.90965787676E+03  0.68070166995E+03 -0.13530019211E+03  0.11441758472E+04  0.10566000000E+00 0. -1.
          2    1    1    2  502    0  0.20653164586E+03 -0.18017848428E+03  0.21253525111E+04  0.21429519135E+04  0.00000000000E+00 0.  1.
         -4    1    3    3    0  502  0.70237211370E+02  0.17716572140E+02 -0.44513739211E+03  0.45099272793E+03  0.00000000000E+00 0. -1.
</event>
<event>
 7    1  0.9434649E-006  0.1013731E+04  0.7818608E-02  0.9441178E-01
          2   -1    0    0  501    0  0.00000000000E+00  0.00000000000E+00  0.14451602213E+04  0.14451602213E+04  0.00000000000E+00 0.  1.
         -4   -1    0    0    0  501 -0.00000000000E+00 -0.00000000000E+00 -0.80164598991E+03  0.80164598991E+03  0.00000000000E+00 0. -1.
   -9000010    2    1    2    0  502 -0.25448081364E+02  0.56322030614E+02 -0.43587721203E+03  0.11030619699E+04  0.10114034752E+04 0.  0.
        -13    1    1    2    0    0 -0.35550210509E+02 -0.63103480142E+02  0.10609261841E+02  0.73201326997E+02  0.10566000000E+00 0.  1.
         13    1    3    3    0    0  0.19958911215E+03 -0.11296051864E+03 -0.68792015142E+03  0.72514139198E+03  0.10566000000E+00 0. -1.
          2    1    1    2  502    0  0.60998291873E+02  0.67814495289E+01  0.10687821815E+04  0.10705429143E+04  0.00000000000E+00 0.  1.
         -4    1    3    3    0  502 -0.22503719352E+03  0.16928254925E+03  0.25204293939E+03  0.37792057796E+03  0.00000000000E+00 0. -1.
</event>
<event>
 7    1  0.9434649E-006  0.1474922E+04  0.7818608E-02  0.9083081E-01
          2   -1    0    0  502    0  0.00000000000E+00  0.00000000000E+00  0.20115953735E+04  0.20115953735E+04  0.00000000000E+00 0.  1.
          4   -1    0    0  501    0 -0.00000000000E+00 -0.00000000000E+00 -0.17595921617E+04  0.17595921617E+04  0.00000000000E+00 0.  1.
    9000010    2    1    2  502    0  0.99773870686E+03 -0.16876088441E+03 -0.93139152314E+03  0.17027913374E+04  0.10040146444E+04 0.  0.
        -13    1    3    3    0    0  0.74765069983E+03 -0.11676711041E+03 -0.11432041007E+04  0.13709601577E+04  0.10566000000E+00 0.  1.
         13    1    1    2    0    0  0.69457032907E+02 -0.53422572174E+02 -0.25154069221E+03  0.26636625470E+03  0.10566000000E+00 0. -1.
          2    1    1    2  501    0 -0.10671957398E+04  0.22218345658E+03  0.14349354272E+04  0.18020299430E+04  0.00000000000E+00 0.  1.
          4    1    3    3  502    0  0.25008800702E+03 -0.51993773992E+02  0.21181257759E+03  0.33183117969E+03  0.00000000000E+00 0.  1.
</event>
<event>
 7    1  0.9434649E-006  0.1451465E+04  0.7818608E-02  0.8511971E-01
         -2   -1    0    0    0  501  0.00000000000E+00  0.00000000000E+00  0.14475502520E+04  0.14475502520E+04  0.00000000000E+00 0.  1.
         -4   -1    0    0    0  502 -0.00000000000E+00 -0.00000000000E+00 -0.26292418567E+04  0.26292418567E+04  0.00000000000E+00 0. -1.
   -9000010    2    1    2    0  501  0.46396480303E+03  0.90441528966E+03 -0.13549922817E+04  0.19757518727E+04  0.10170354096E+04 0.  0.
        -13    1    1    2    0    0 -0.54013312236E+03 -0.90547464479E+03 -0.67332305192E+03  0.12509964291E+04  0.10566000000E+00 0.  1.
         13    1    3    3    0    0  0.32351778635E+03  0.66292944283E+02  0.49745174662E+02  0.33396572595E+03  0.10566000000E+00 0. -1.
         -2    1    1    2    0  502  0.76168319336E+02  0.10593551330E+01  0.84662372899E+03  0.85004380687E+03  0.00000000000E+00 0.  1.
         -4    1    3    3    0  501  0.14044701668E+03  0.83812234538E+03 -0.14047374564E+04  0.16417861468E+04  0.00000000000E+00 0. -1.
</event>
<event>
 7    1  0.9434649E-006  0.1234076E+04  0.7818608E-02  0.8830590E-01
         -4   -1    0    0    0  501 -0.00000000000E+00  0.00000000000E+00  0.28248264593E+04  0.28248264593E+04  0.00000000000E+00 0. -1.
          2   -1    0    0  501    0  0.00000000000E+00 -0.00000000000E+00 -0.56863038096E+03  0.56863038096E+03  0.00000000000E+00 0. -1.
   -9000010    2    1    2    0  502  0.54069849001E+03  0.22523949145E+01  0.10512082703E+04  0.15336691815E+04  0.97710920605E+03 0.  0.
        -13    1    1    2    0    0  0.29305684368E+03 -0.30062791900E+03  0.76112859162E+03  0.86923886444E+03  0.10566000000E+00 0.  1.
         13    1    3    3    0    0  0.40627872468E+03  0.47444360486E+03  0.62312867675E+03  0.88229728282E+03  0.10566000000E+00 0. -1.
          2    1    1    2  502    0 -0.83375533370E+03  0.29837552408E+03  0.44385921648E+03  0.99054879430E+03  0.00000000000E+00 0. -1.
         -4    1    3    3    0  502  0.13441976533E+03 -0.47219120994E+03  0.42807959352E+03  0.65137189872E+03  0.00000000000E+00 0. -1.
</event>
<event>
 7    1  0.9434649E-006  0.1048783E+04  0.7818608E-02  0.9016216E-01
         -4   -1    0    0    0  501 -0.00000000000E+00  0.00000000000E+00  0.49827814712E+03  0.49827814712E+03  0.00000000000E+00 0. -1.
          2   -1    0    0  501    0  0.00000000000E+00 -0.00000000000E+00 -0.21627771525E+04  0.21627771525E+04  0.00000000000E+00 0.  1.
   -9000010    2    1    2    0  502  0.18875457429E+03 -0.26815834476E+03 -0.10398297869E+04  0.14789518366E+04  0.99925740532E+03 0.  0.
        -13    1    1    2    0    0 -0.20296734257E+03  0.24463172641E+03  0.18777916162E+03  0.36919026046E+03  0.10566000000E+00 0.  1.
         13    1    3    3    0    0 -0.12680105203E+03 -0.48517408947E+03 -0.17161652011E+03  0.53002324952E+03  0.10566000000E+00 0. -1.
          2    1    1    2  502    0  0.14212768286E+02  0.23526618355E+02 -0.81244838010E+03  0.81291320255E+03  0.00000000000E+00 0.  1.
         -4    1    3    3    0  502  0.31555562632E+03  0.21701574471E+03 -0.86821326678E+03  0.94892858707E+03  0.00000000000E+00 0. -1.
</event>
<event>
 7    1  0.9434649E-006  0.1167998E+04  0.7818608E-02  0.8782009E-01
          2   -1    0    0  502    0  0.00000000000E+00  0.00000000000E+00  0.82048251314E+03  0.82048251314E+03  0.00000000000E+00 0.  1.
          4   -1    0    0  501    0 -0.00000000000E+00 -0.00000000000E+00 -0.16895187380E+04  0.16895187380E+04  0.00000000000E+00 0.  1.
    9000010    2    1    2  502    0 -0.68782678325E+03 -0.22419866934E+03 -0.22304575572E+03  0.12520241162E+04  0.99721825661E+03 0.  0.
        -13    1    3    3    0    0  0.92719591053E+02 -0.35293440591E+03  0.12777406181E+03  0.38663398645E+03  0.10566000000E+00 0.  1.
         13    1    1    2    0    0  0.58302175788E+03  0.80643475337E+02 -0.81991552054E+03  0.10092963947E+04  0.10566000000E+00 0. -1.
          2    1    1    2  501    0  0.10480502537E+03  0.14355519400E+03  0.17392505142E+03  0.24868074027E+03  0.00000000000E+00 0.  1.
          4    1    3    3  502    0 -0.78054637430E+03  0.12873573657E+03 -0.35081981753E+03  0.86539012975E+03  0.00000000000E+00 0.  1.
</event>
<event>
 7    1  0.9434649E-006  0.1036661E+04  0.7818608E-02  0.9043323E-01
          2   -1    0    0  502    0  0.00000000000E+00  0.00000000000E+00  0.18000494786E+04  0.18000494786E+04  0.00000000000E+00 0.  1.
          4   -1    0    0  501    0 -0.00000000000E+00 -0.00000000000E+00 -0.13559190885E+04  0.13559190885E+04  0.00000000000E+00 0.  1.
    9000010    2    1    2  502    0  0.82354239519E+02 -0.30383650894E+03 -0.28441561294E+03  0.10803665516E+04  0.99357979051E+03 0.  0.
        -13    1    3    3    0    0  0.14005400180E+03 -0.16409503989E+03  0.35932320797E+03  0.41911273481E+03  0.10566000000E+00 0.  1.
         13    1    1    2    0    0 -0.20722241590E+03  0.21303648838E+03 -0.63617734464E+03  0.70217326923E+03  0.10566000000E+00 0. -1.
          2    1    1    2  501    0  0.12486817638E+03  0.90800020560E+02  0.13647233477E+04  0.13734287462E+04  0.00000000000E+00 0.  1.
          4    1    3    3  502    0 -0.57699762279E+02 -0.13974146905E+03 -0.64373882090E+03  0.66125381683E+03  0.00000000000E+00 0.  1.
</event>
<event>
 7    1  0.9434649E-006  0.1117532E+04  0.7818608E-02  0.8919678E-01
          2   -1    0    0  501    0  0.00000000000E+00  0.00000000000E+00  0.15533529279E+04  0.15533529279E+04  0.00000000000E+00 0.  1.
         -4   -1    0    0    0  501 -0.00000000000E+00 -0.00000000000E+00 -0.92570657966E+03  0.92570657966E+03  0.00000000000E+00 0. -1.
   -9000010    2    1    2    0  502  0.11724800963E+03 -0.37877947445E+03 -0.15045018948E+03  0.11298228452E+04  0.10472074369E+04 0.  0.
        -13    1    1    2    0    0 -0.55168241723E+02  0.38557332455E+03 -0.15121928834E+03  0.41782485305E+03  0.10566000000E+00 0.  1.
         13    1    3    3    0    0  0.15330671674E+03 -0.67576351902E+03 -0.34388032710E+03  0.77357156978E+03  0.10566000000E+00 0. -1.
          2    1    1    2  502    0 -0.62079767904E+02 -0.67938501007E+01  0.92931582610E+03  0.93141180936E+03  0.00000000000E+00 0.  1.
         -4    1    3    3    0  502 -0.36058707119E+02  0.29698404457E+03  0.19343013762E+03  0.35625127541E+03  0.00000000000E+00 0. -1.
</event>
<event>
 7    1  0.9434649E-006  0.1061593E+04  0.7818608E-02  0.9028777E-01
          2   -1    0    0  501    0  0.00000000000E+00  0.00000000000E+00  0.82719912561E+03  0.82719912561E+03  0.00000000000E+00 0. -1.
         -4   -1    0    0    0  501 -0.00000000000E+00 -0.00000000000E+00 -0.17929318063E+04  0.17929318063E+04  0.00000000000E+00 0. -1.
   -9000010    2    1    2    0  502  0.16912029981E+03 -0.23420628218E+03 -0.59694944434E+03  0.12171894312E+04  0.10206601853E+04 0.  0.
        -13    1    1    2    0    0 -0.24049560234E+03  0.16800731571E+03 -0.85663244784E+03  0.90547432583E+03  0.10566000000E+00 0.  1.
         13    1    3    3    0    0 -0.54613911356E+02  0.21368417472E+03 -0.67532669388E+03  0.71042927901E+03  0.10566000000E+00 0. -1.
          2    1    1    2  502    0  0.71375302531E+02  0.66198966467E+02  0.48784921146E+03  0.49746717490E+03  0.00000000000E+00 0. -1.
         -4    1    3    3    0  502  0.22373421116E+03 -0.44789045689E+03  0.78377249538E+02  0.50676015221E+03  0.00000000000E+00 0. -1.
</event>
<event>
 7    1  0.9434649E-006  0.9033902E+03  0.7818608E-02  0.9371287E-01
          4   -1    0    0  502    0  0.00000000000E+00  0.00000000000E+00  0.94190778456E+03  0.94190778456E+03  0.00000000000E+00 0.  1.
          4   -1    0    0  501    0 -0.00000000000E+00 -0.00000000000E+00 -0.32781388946E+03  0.32781388946E+03  0.00000000000E+00 0.  1.
    9000010    2    1    2  502    0 -0.88118955168E+02  0.72942658863E+02  0.59209902709E+03  0.10788819946E+04  0.89460578958E+03 0.  0.
        -13    1    3    3    0    0  0.25556063986E+03 -0.65162849555E+02  0.65232908535E+03  0.70362680760E+03  0.10566000000E+00 0.  1.
         13    1    1    2    0    0  0.10397638558E+03 -0.71778982022E+02 -0.35457980184E+02  0.13122724771E+03  0.10566000000E+00 0. -1.
          4    1    1    2  501    0 -0.15857430412E+02 -0.11636768412E+01  0.57452848194E+02  0.59612431662E+02  0.00000000000E+00 0.  1.
          4    1    3    3  502    0 -0.34367959502E+03  0.13810550842E+03 -0.60230058261E+02  0.37525518705E+03  0.00000000000E+00 0.  1.
</event>
<event>
 7    1  0.9434649E-006  0.1008905E+04  0.7818608E-02  0.9194952E-01
          2   -1    0    0  501    0  0.00000000000E+00  0.00000000000E+00  0.49226641311E+03  0.49226641311E+03  0.00000000000E+00 0. -1.
         -4   -1    0    0    0  501 -0.00000000000E+00 -0.00000000000E+00 -0.88342790860E+03  0.88342790860E+03  0.00000000000E+00 0. -1.
   -9000010    2    1    2    0  502 -0.42815323187E+02  0.17069538577E+03 -0.27619534710E+03  0.10459461918E+04  0.99335265627E+03 0.  0.
        -13    1    1    2    0    0  0.63795758431E+02 -0.16469970320E+03 -0.18536854424E+03  0.25604179226E+03  0.10566000000E+00 0.  1.
         13    1    3    3    0    0 -0.13869722754E+03  0.34525866838E+03 -0.57617595791E+03  0.68587113560E+03  0.10566000000E+00 0. -1.
          2    1    1    2  502    0 -0.20980435244E+02 -0.59956825712E+01  0.70402395847E+02  0.73706337676E+02  0.00000000000E+00 0. -1.
         -4    1    3    3    0  502  0.95881904353E+02 -0.17456328261E+03  0.29998061081E+03  0.36007505618E+03  0.00000000000E+00 0. -1.
</event>
<event>
 7    1  0.9434649E-006  0.1016136E+04  0.7818608E-02  0.9203003E-01
          2   -1    0    0  502    0  0.00000000000E+00  0.00000000000E+00  0.13138621956E+04  0.13138621956E+04  0.00000000000E+00 0.  1.
          4   -1    0    0  501    0 -0.00000000000E+00 -0.00000000000E+00 -0.33214686367E+03  0.33214686367E+03  0.00000000000E+00 0.  1.
    9000010    2    1    2  502    0 -0.96870955691E+02 -0.12355560109E+03  0.10121973092E+04  0.14330725854E+04  0.10022493071E+04 0.  0.
        -13    1    3    3    0    0 -0.28297940054E+03  0.13830866093E+03 -0.53964217726E+02  0.31956028348E+03  0.10566000000E+00 0.  1.
         13    1    1    2    0    0  0.12226808587E+03  0.11524904364E+03 -0.54873708986E+02  0.17675678766E+03  0.10566000000E+00 0. -1.
          2    1    1    2  501    0 -0.25397130180E+02  0.83065574563E+01  0.24391731651E+02  0.36179686166E+02  0.00000000000E+00 0.  1.
          4    1    3    3  502    0  0.18610844485E+03 -0.26186426203E+03  0.10661615270E+04  0.11135123019E+04  0.00000000000E+00 0.  1.
</event>
<event>
 7    1  0.9434649E-006  0.1187015E+04  0.7818608E-02  0.8758710E-01
          4   -1    0    0  501    0 -0.00000000000E+00  0.00000000000E+00  0.18123242244E+04  0.18123242244E+04  0.00000000000E+00 0.  1.
          2   -1    0    0  502    0  0.00000000000E+00 -0.00000000000E+00 -0.11370979152E+04  0.11370979152E+04  0.00000000000E+00 0.  1.
    9000010    2    1    2  502    0  0.66282567564E+03 -0.58249744531E+03  0.40025022603E+02  0.13341288727E+04  0.99982833354E+03 0.  0.
        -13    1    3    3    0    0  0.32461324916E+03 -0.46175108415E+03 -0.45330613759E+03  0.72392975541E+03  0.10566000000E+00 0.  1.
         13    1    1    2    0    0 -0.39132399247E+03  0.46601801551E+03  0.98476176271E+03  0.11576109011E+04  0.10566000000E+00 0. -1.
          2    1    1    2  501    0 -0.27150168317E+03  0.11647942980E+03 -0.34956047614E+03  0.45768236585E+03  0.00000000000E+00 0.  1.
          4    1    3    3  502    0  0.33821242648E+03 -0.12074636116E+03  0.49333116019E+03  0.61019911732E+03  0.00000000000E+00 0.  1.
</event>
<event>
 7    1  0.9434649E-006  0.9678879E+03  0.7818608E-02  0.9553404E-01
         -2   -1    0    0    0  501  0.00000000000E+00  0.00000000000E+00  0.40961355047E+03  0.40961355047E+03  0.00000000000E+00 0.  1.
         -4   -1    0    0    0  502 -0.00000000000E+00 -0.00000000000E+00 -0.23869027153E+04  0.23869027153E+04  0.00000000000E+00 0. -1.
   -9000010    2    1    2    0  501 -0.17048215980E+02  0.39880941392E+02 -0.22023877809E+04  0.24055038275E+04  0.96646551699E+03 0.  0.
        -13    1    1    2    0    0  0.17890120818E+02 -0.50126828279E+02 -0.74322745441E+02  0.91414643193E+02  0.10566000000E+00 0.  1.
         13    1    3    3    0    0  0.30346884612E+03 -0.32043487167E+03 -0.69899203176E+03  0.82665695374E+03  0.10566000000E+00 0. -1.
         -2    1    1    2    0  502 -0.84190483830E+00  0.10245886887E+02  0.29942136158E+03  0.29959779501E+03  0.00000000000E+00 0.  1.
         -4    1    3    3    0  501 -0.32051706210E+03  0.36031581306E+03 -0.15033957492E+04  0.15788468738E+04  0.00000000000E+00 0. -1.
</event>
<event>
 7    1  0.9434649E-006  0.1051552E+04  0.7818608E-02  0.9035673E-01
          4   -1    0    0  501    0  0.00000000000E+00  0.00000000000E+00  0.21011164529E+04  0.21011164529E+04  0.00000000000E+00 0. -1.
          4   -1    0    0  502    0 -0.00000000000E+00 -0.00000000000E+00 -0.26493875897E+04  0.26493875897E+04  0.00000000000E+00 0.  1.
    9000010    2    1    2  501    0  0.17598031679E+03  0.16461414580E+03 -0.21472683288E+04  0.23852081150E+04  0.10101433497E+04 0.  0.
        -13    1    3    3    0    0  0.36764986185E+03  0.34110654641E+03 -0.20445153999E+04  0.21051278651E+04  0.10566000000E+00 0.  1.
         13    1    1    2    0    0 -0.20106405206E+03 -0.25215608239E+03 -0.31400903140E+03  0.45012345627E+03  0.10566000000E+00 0. -1.
          4    1    3    3  501    0 -0.19166954506E+03 -0.17649240060E+03 -0.10275292892E+03  0.28008024989E+03  0.00000000000E+00 0.  1.
          4    1    1    2  502    0  0.25083735268E+02  0.87541936585E+02  0.19130062233E+04  0.19151724713E+04  0.00000000000E+00 0. -1.
</event>
<event>
 7    1  0.9434649E-006  0.9971630E+03  0.7818608E-02  0.8905939E-01
          2   -1    0    0  502    0  0.00000000000E+00  0.00000000000E+00  0.16015156517E+04  0.16015156517E+04  0.00000000000E+00 0.  1.
          4   -1    0    0  501    0 -0.00000000000E+00 -0.00000000000E+00 -0.10320560884E+04  0.10320560884E+04  0.00000000000E+00 0.  1.
    9000010    2    1    2  502    0  0.29356853004E+03  0.45906840996E+03 -0.33651908009E+03  0.10327871486E+04  0.81023324803E+03 0.  0.
        -13    1    3    3    0    0  0.11142150853E+03 -0.12739523517E+03  0.16766244379E+03  0.23823308907E+03  0.10566000000E+00 0.  1.
         13    1    1    2    0    0 -0.31505721238E+03 -0.52154144219E+03 -0.78268410043E+02  0.61432278012E+03  0.10566000000E+00 0. -1.
          2    1    1    2  501    0  0.21488682343E+02  0.62473032230E+02  0.98424705343E+03  0.98646181143E+03  0.00000000000E+00 0.  1.
          4    1    3    3  502    0  0.18214702151E+03  0.58646364514E+03 -0.50418152388E+03  0.79455405954E+03  0.00000000000E+00 0.  1.
</event>
<event>
 7    1  0.9434649E-006  0.1028079E+04  0.7818608E-02  0.9188353E-01
          2   -1    0    0  501    0  0.00000000000E+00  0.00000000000E+00  0.14189539399E+04  0.14189539399E+04  0.00000000000E+00 0. -1.
         -4   -1    0    0    0  501 -0.00000000000E+00 -0.00000000000E+00 -0.49671808655E+03  0.49671808655E+03  0.00000000000E+00 0. -1.
   -9000010    2    1    2    0  502  0.12587065097E+03  0.10379647867E+03  0.13880986106E+03  0.10361248283E+04  0.10137402786E+04 0.  0.
        -13    1    1    2    0    0 -0.15028720118E+03 -0.87123222101E+02  0.11030318697E+03  0.20577536997E+03  0.10566000000E+00 0.  1.
         13    1    3    3    0    0  0.15598526850E+03  0.55283482117E+03  0.11232796460E+03  0.58529934759E+03  0.10566000000E+00 0. -1.
          2    1    1    2  502    0  0.24416550209E+02 -0.16673256570E+02  0.67312280528E+03  0.67377182814E+03  0.00000000000E+00 0. -1.
         -4    1    3    3    0  502 -0.30114617534E+02 -0.44903834250E+03  0.26481896463E+02  0.45082548072E+03  0.00000000000E+00 0. -1.
</event>
<event>
 7    1  0.9434649E-006  0.1185237E+04  0.7818608E-02  0.8764102E-01
          2   -1    0    0  502    0  0.00000000000E+00  0.00000000000E+00  0.89161418588E+03  0.89161418588E+03  0.00000000000E+00 0.  1.
          4   -1    0    0  501    0 -0.00000000000E+00 -0.00000000000E+00 -0.12017172817E+04  0.12017172817E+04  0.00000000000E+00 0.  1.
    9000010    2    1    2  502    0 -0.37451960599E+03 -0.50726675711E+03 -0.37769295200E+03  0.12452156014E+04  0.10051494565E+04 0.  0.
        -13    1    3    3    0    0  0.86454278111E+02 -0.75448122422E+02  0.29856545550E+03  0.31985637990E+03  0.10566000000E+00 0.  1.
         13    1    1    2    0    0  0.38323734839E+03  0.49583490690E+03 -0.13827466287E+03  0.64174996194E+03  0.10566000000E+00 0. -1.
          2    1    1    2  501    0 -0.87177423991E+01  0.11431850215E+02  0.20586451905E+03  0.20636590425E+03  0.00000000000E+00 0.  1.
          4    1    3    3  502    0 -0.46097388410E+03 -0.43181863469E+03 -0.67625840750E+03  0.92535922149E+03  0.00000000000E+00 0.  1.
</event>
<event>
 7    1  0.9434649E-006  0.8014525E+03  0.7818608E-02  0.9242760E-01
         -4   -1    0    0    0  501 -0.00000000000E+00  0.00000000000E+00  0.37618000212E+04  0.37618000212E+04  0.00000000000E+00 0. -1.
          1   -1    0    0  501    0  0.00000000000E+00 -0.00000000000E+00 -0.22372799619E+03  0.22372799619E+03  0.00000000000E+00 0.  1.
   -9000010    2    1    2    0  502  0.24108135122E+03  0.21753519751E+03  0.30199981467E+04  0.31276931516E+04  0.74607899359E+03 0.  0.
        -13    1    1    2    0    0 -0.14731920405E+03 -0.23777555450E+03  0.64248828640E+03  0.70073630669E+03  0.10566000000E+00 0.  1.
         13    1    3    3    0    0  0.16747780052E+03  0.42542935740E+03  0.27037884972E+04  0.27421727153E+04  0.10566000000E+00 0. -1.
          1    1    1    2  502    0 -0.93762147172E+02  0.20240356982E+02 -0.12441440813E+03  0.15709855901E+03  0.00000000000E+00 0.  1.
         -4    1    3    3    0  502  0.73603550704E+02 -0.20789415989E+03  0.31620964947E+03  0.38552043631E+03  0.00000000000E+00 0. -1.
</event>
<event>
 6    1  0.9434649E-006  0.8340510E+03  0.7818608E-02  0.8948414E-01
          2   -1    0    0  501    0  0.00000000000E+00  0.00000000000E+00  0.16875438862E+04  0.16875438862E+04  0.00000000000E+00 0. -1.
         -4   -1    0    0    0  501 -0.00000000000E+00 -0.00000000000E+00 -0.42648816039E+03  0.42648816039E+03  0.00000000000E+00 0. -1.
        -13    1    1    2    0    0 -0.75070463726E+02  0.20824462160E+03  0.90990043452E+02  0.23933365021E+03  0.10566000000E+00 0.  1.
         13    1    1    2    0    0  0.20852637911E+02 -0.22828646688E+03 -0.30861557025E+03  0.38443871402E+03  0.10566000000E+00 0. -1.
          2    1    1    2  502    0 -0.14011421325E+02  0.17830374780E+02  0.12795745928E+04  0.12797755197E+04  0.00000000000E+00 0. -1.
         -4    1    1    2    0  502  0.68229247139E+02  0.22114704982E+01  0.19910665975E+03  0.21048416264E+03  0.00000000000E+00 0. -1.
</event>
<event>
 7    1  0.9434649E-006  0.1044392E+04  0.7818608E-02  0.9025905E-01
         -4   -1    0    0    0  501 -0.00000000000E+00  0.00000000000E+00  0.43407032494E+03  0.43407032494E+03  0.00000000000E+00 0. -1.
          2   -1    0    0  501    0  0.00000000000E+00 -0.00000000000E+00 -0.17980084912E+04  0.17980084912E+04  0.00000000000E+00 0. -1.
   -9000010    2    1    2    0  502  0.10250741863E+03  0.72225346871E+02 -0.99545075363E+03  0.14282501227E+04  0.10164900090E+04 0.  0.
        -13    1    1    2    0    0  0.22538717683E+03 -0.21309077581E+03 -0.31657442993E+03  0.44320022458E+03  0.10566000000E+00 0.  1.
         13    1    3    3    0    0  0.15377353157E+03  0.42266205369E+03 -0.97471154906E+03  0.10734766535E+04  0.10566000000E+00 0. -1.
          2    1    1    2  502    0 -0.32789459546E+03  0.14086542894E+03 -0.51912982747E+02  0.36062846890E+03  0.00000000000E+00 0. -1.
         -4    1    3    3    0  502 -0.51266112937E+02 -0.35043670682E+03 -0.20739204568E+02  0.35477346917E+03  0.00000000000E+00 0. -1.
</event>
<event>
 7    1  0.9434649E-006  0.1191823E+04  0.7818608E-02  0.8732127E-01
          1   -1    0    0  501    0  0.00000000000E+00  0.00000000000E+00  0.58725822387E+03  0.58725822387E+03  0.00000000000E+00 0.  1.
         -4   -1    0    0    0  501 -0.00000000000E+00 -0.00000000000E+00 -0.47416629684E+04  0.47416629684E+04  0.00000000000E+00 0. -1.
   -9000010    2    1    2    0  502 -0.77406036097E+03 -0.17971838645E+03 -0.37210059752E+04  0.39237789380E+04  0.95848189678E+03 0.  0.
        -13    1    1    2    0    0  0.57077107803E+03  0.24619966032E+03 -0.78028569770E+03  0.99761699938E+03  0.10566000000E+00 0.  1.
         13    1    3    3    0    0 -0.63779772748E+03 -0.86553104503E+02 -0.94793940214E+03  0.11458038673E+04  0.10566000000E+00 0. -1.
          1    1    1    2  502    0  0.20328928294E+03 -0.66481273868E+02  0.34688692831E+03  0.40752525488E+03  0.00000000000E+00 0.  1.
         -4    1    3    3    0  502 -0.13626263349E+03 -0.93165281950E+02 -0.27730665730E+04  0.27779750707E+04  0.00000000000E+00 0. -1.
</event>
<event>
 7    1  0.9434649E-006  0.1056831E+04  0.7818608E-02  0.9012405E-01
         -4   -1    0    0    0  501 -0.00000000000E+00  0.00000000000E+00  0.46462083566E+03  0.46462083566E+03  0.00000000000E+00 0. -1.
          1   -1    0    0  501    0  0.00000000000E+00 -0.00000000000E+00 -0.11577828899E+04  0.11577828899E+04  0.00000000000E+00 0. -1.
   -9000010    2    1    2    0  502  0.65554071328E+02  0.31919994659E+03 -0.36837510156E+03  0.11219940477E+04  0.10084564867E+04 0.  0.
        -13    1    1    2    0    0 -0.68215282546E+02 -0.30489118584E+03 -0.19174964949E+03  0.36657863988E+03  0.10566000000E+00 0.  1.
         13    1    3    3    0    0  0.34524887558E+03 -0.19200769505E+03  0.58893358997E+02  0.39941479686E+03  0.10566000000E+00 0. -1.
          1    1    1    2  502    0  0.26612112178E+01 -0.14308760747E+02 -0.13303730318E+03  0.13383103794E+03  0.00000000000E+00 0. -1.
         -4    1    3    3    0  502 -0.27969480425E+03  0.51120764164E+03 -0.42726846055E+03  0.72257925087E+03  0.00000000000E+00 0. -1.
</event>
<event>
 7    1  0.9434649E-006  0.1391892E+04  0.7818608E-02  0.8571208E-01
         -4   -1    0    0    0  501 -0.00000000000E+00  0.00000000000E+00  0.71063533376E+03  0.71063533376E+03  0.00000000000E+00 0. -1.
          4   -1    0    0  501    0  0.00000000000E+00 -0.00000000000E+00 -0.28968411564E+04  0.28968411564E+04  0.00000000000E+00 0.  1.
   -9000010    2    1    2    0  502  0.90956828631E+03 -0.37129076107E+02 -0.57613105818E+03  0.15127128378E+04  0.10619228304E+04 0.  0.
        -13    1    1    2    0    0 -0.88758467487E+03 -0.14769196645E+03 -0.63305114404E+03  0.11001696388E+04  0.10566000000E+00 0.  1.
         13    1    3    3    0    0 -0.57063499273E+02  0.22784827512E+03 -0.44326511566E+03  0.50165232318E+03  0.10566000000E+00 0. -1.
          4    1    1    2  502    0 -0.21983611438E+02  0.18482104255E+03 -0.97702362046E+03  0.99459401359E+03  0.00000000000E+00 0.  1.
         -4    1    3    3    0  502  0.96663178558E+03 -0.26497735123E+03 -0.13286594252E+03  0.10110605146E+04  0.00000000000E+00 0. -1.
</event>
<event>
 7    1  0.9434649E-006  0.1143798E+04  0.7818608E-02  0.8877467E-01
          1   -1    0    0  501    0  0.00000000000E+00  0.00000000000E+00  0.57596988036E+03  0.57596988036E+03  0.00000000000E+00 0. -1.
         -4   -1    0    0    0  501 -0.00000000000E+00 -0.00000000000E+00 -0.24880504761E+04  0.24880504761E+04  0.00000000000E+00 0. -1.
   -9000010    2    1    2    0  502  0.60540127151E+01  0.40310313528E+03 -0.10311876842E+04  0.14961495491E+04  0.10062736428E+04 0.  0.
        -13    1    1    2    0    0  0.43321766942E+03  0.12946752102E+02 -0.85935199156E+03  0.96246092079E+03  0.10566000000E+00 0.  1.
         13    1    3    3    0    0 -0.85051586872E+02  0.31156118465E+03 -0.12229916371E+04  0.12649160841E+04  0.10566000000E+00 0. -1.
          1    1    1    2  502    0 -0.43927168214E+03 -0.41604988738E+03 -0.21540919909E+02  0.60540988656E+03  0.00000000000E+00 0. -1.
         -4    1    3    3    0  502  0.91105599587E+02  0.91541950633E+02  0.19180395285E+03  0.23123346499E+03  0.00000000000E+00 0. -1.
</event>
<event>
 7    1  0.9434649E-006  0.1121033E+04  0.7818608E-02  0.8876032E-01
          2   -1    0    0  502    0  0.00000000000E+00  0.00000000000E+00  0.32707139625E+04  0.32707139625E+04  0.00000000000E+00 0.  1.
          4   -1    0    0  501    0 -0.00000000000E+00 -0.00000000000E+00 -0.15726580460E+04  0.15726580460E+04  0.00000000000E+00 0.  1.
    9000010    2    1    2  502    0  0.33187059569E+03 -0.23139140612E+03 -0.51971995498E+03  0.12149195207E+04  0.10209018244E+04 0.  0.
        -13    1    3    3    0    0  0.45975851205E+03 -0.49912698283E+03 -0.60185741725E+03  0.90704905946E+03  0.10566000000E+00 0.  1.
         13    1    1    2    0    0 -0.30706338004E+03  0.36855578479E+03 -0.62186645796E+03  0.78539110547E+03  0.10566000000E+00 0. -1.
          2    1    1    2  501    0 -0.24807215654E+02 -0.13716437867E+03  0.28396423294E+04  0.28430613824E+04  0.00000000000E+00 0.  1.
          4    1    3    3  502    0 -0.12788791636E+03  0.26773557671E+03  0.82137462274E+02  0.30787046123E+03  0.00000000000E+00 0.  1.
</event>
<event>
 7    1  0.9434649E-006  0.1002860E+04  0.7818608E-02  0.8941774E-01
         -4   -1    0    0    0  501 -0.00000000000E+00  0.00000000000E+00  0.81602808042E+03  0.81602808042E+03  0.00000000000E+00 0. -1.
          1   -1    0    0  501    0  0.00000000000E+00 -0.00000000000E+00 -0.75544643007E+03  0.75544643007E+03  0.00000000000E+00 0.  1.
   -9000010    2    1    2    0  502 -0.50345227516E+03  0.65615620142E+02 -0.10191011601E+03  0.10152897853E+04  0.87330296777E+03 0.  0.
        -13    1    1    2    0    0  0.48800939699E+03 -0.25590004696E+02  0.15469715205E+03  0.51258095937E+03  0.10566000000E+00 0.  1.
         13    1    3    3    0    0 -0.53827031111E+03 -0.30595649131E+03 -0.15520248582E+03  0.63830410086E+03  0.10566000000E+00 0. -1.
          1    1    1    2  502    0  0.15442878177E+02 -0.40025615446E+02  0.77946143053E+01  0.43603765782E+02  0.00000000000E+00 0.  1.
         -4    1    3    3    0  502  0.34818035952E+02  0.37157211145E+03  0.53292369812E+02  0.37698568449E+03  0.00000000000E+00 0. -1.
</event>
<event>
 7    1  0.9434649E-006  0.1134830E+04  0.7818608E-02  0.8962716E-01
         -4   -1    0    0    0  501 -0.00000000000E+00  0.00000000000E+00  0.16676752329E+04  0.16676752329E+04  0.00000000000E+00 0. -1.
          1   -1    0    0  501    0  0.00000000000E+00 -0.00000000000E+00 -0.56473686956E+03  0.56473686956E+03  0.00000000000E+00 0.  1.
   -9000010    2    1    2    0  502 -0.25676591736E+03 -0.22633231141E+03  0.10623531527E+04  0.15607849548E+04  0.10910088921E+04 0.  0.
        -13    1    1    2    0    0  0.29397794464E+03  0.97531045540E+02  0.26671247587E+03  0.40874306444E+03  0.10566000000E+00 0.  1.
         13    1    3    3    0    0  0.20104876858E+03  0.27733174454E+03  0.57832661228E+02  0.34738758145E+03  0.10566000000E+00 0. -1.
          1    1    1    2  502    0 -0.37212027284E+02  0.12880126587E+03 -0.22612726529E+03  0.26288408315E+03  0.00000000000E+00 0.  1.
         -4    1    3    3    0  502 -0.45781468594E+03 -0.50366405595E+03  0.10045204915E+04  0.12133973734E+04  0.00000000000E+00 0. -1.
</event>
<event>
 6    1  0.9434649E-006  0.1516264E+03  0.7818608E-02  0.1201014E+00
          2   -1    0    0  502    0  0.00000000000E+00  0.00000000000E+00  0.99843576716E+02  0.99843576716E+02  0.00000000000E+00 0. -1.
          4   -1    0    0  501    0 -0.00000000000E+00 -0.00000000000E+00 -0.27829566724E+03  0.27829566724E+03  0.00000000000E+00 0.  1.
        -13    1    1    2    0    0  0.10435634585E+03  0.46003980633E+01 -0.15278732492E+03  0.18508211259E+03  0.10566000000E+00 0.  1.
         13    1    1    2    0    0  0.11925780699E+02  0.25978684577E+01  0.47002382128E+01  0.13079624195E+02  0.10566000000E+00 0. -1.
          2    1    1    2  501    0 -0.11228785269E+03  0.32896442056E+02  0.16508169376E+02  0.11816622790E+03  0.00000000000E+00 0. -1.
          4    1    1    2  502    0 -0.39942738587E+01 -0.40094708577E+02 -0.46873173193E+02  0.61811279267E+02  0.00000000000E+00 0.  1.
</event>
<event>
 7    1  0.9434649E-006  0.1014686E+04  0.7818608E-02  0.9379460E-01
         -4   -1    0    0    0  501 -0.00000000000E+00  0.00000000000E+00  0.34514222305E+04  0.34514222305E+04  0.00000000000E+00 0. -1.
          1   -1    0    0  501    0  0.00000000000E+00 -0.00000000000E+00 -0.21963168807E+03  0.21963168807E+03  0.00000000000E+00 0. -1.
   -9000010    2    1    2    0  502 -0.41579710607E+02  0.29863636177E+02  0.30604366867E+04  0.32235198214E+04  0.10110324508E+04 0.  0.
        -13    1    1    2    0    0  0.26834236545E+02 -0.85552679944E+02  0.29650251771E+03  0.30976296013E+03  0.10566000000E+00 0.  1.
         13    1    3    3    0    0  0.30303661284E+03  0.39452028490E+03  0.12651686633E+04  0.13594591578E+04  0.10566000000E+00 0. -1.
          1    1    1    2  502    0  0.14745474062E+02  0.55689043766E+02 -0.12514866199E+03  0.13777113703E+03  0.00000000000E+00 0. -1.
         -4    1    3    3    0  502 -0.34461632345E+03 -0.36465664872E+03  0.17952680234E+04  0.18640606636E+04  0.00000000000E+00 0. -1.
</event>
<event>
 7    1  0.9434649E-006  0.1055737E+04  0.7818608E-02  0.9006831E-01
          2   -1    0    0  501    0  0.00000000000E+00  0.00000000000E+00  0.93669648664E+03  0.93669648664E+03  0.00000000000E+00 0. -1.
         -4   -1    0    0    0  501 -0.00000000000E+00 -0.00000000000E+00 -0.15129934301E+04  0.15129934301E+04  0.00000000000E+00 0. -1.
   -9000010    2    1    2    0  502  0.28191153932E+03 -0.11504491953E+03 -0.12383211024E+02  0.10498976583E+04  0.10047001042E+04 0.  0.
        -13    1    1    2    0    0 -0.28720582428E+03  0.15293901427E+03 -0.95393250015E+03  0.10079011626E+04  0.10566000000E+00 0.  1.
         13    1    3    3    0    0  0.26468117972E+03 -0.21733947438E+03  0.45593037387E+03  0.57023248855E+03  0.10566000000E+00 0. -1.
          2    1    1    2  502    0  0.52942849638E+01 -0.37894094742E+02  0.39001876770E+03  0.39189109588E+03  0.00000000000E+00 0. -1.
         -4    1    3    3    0  502  0.17230359596E+02  0.10229455485E+03 -0.46831358489E+03  0.47966516972E+03  0.00000000000E+00 0. -1.
</event>
<event>
 7    1  0.9434649E-006  0.1010908E+04  0.7818608E-02  0.9232153E-01
          2   -1    0    0  501    0  0.00000000000E+00  0.00000000000E+00  0.51482877487E+03  0.51482877487E+03  0.00000000000E+00 0. -1.
         -4   -1    0    0    0  501 -0.00000000000E+00 -0.00000000000E+00 -0.13835677354E+04  0.13835677354E+04  0.00000000000E+00 0. -1.
   -9000010    2    1    2    0  502 -0.10373189596E+03  0.10352164805E+03 -0.91830953890E+03  0.13651438753E+04  0.99942401065E+03 0.  0.
        -13    1    1    2    0    0  0.94224015170E+02 -0.12006926215E+03 -0.21738570755E+03  0.26561504054E+03  0.10566000000E+00 0.  1.
         13    1    3    3    0    0 -0.12098554177E+03 -0.44433311866E+03 -0.45612354560E+03  0.64816519629E+03  0.10566000000E+00 0. -1.
          2    1    1    2  502    0  0.95078807853E+01  0.16547614099E+02  0.26695628597E+03  0.26763759443E+03  0.00000000000E+00 0. -1.
         -4    1    3    3    0  502  0.17253645816E+02  0.54785476671E+03 -0.46218599330E+03  0.71697867897E+03  0.00000000000E+00 0. -1.
</event>
<event>
 7    1  0.9434649E-006  0.1014264E+04  0.7818608E-02  0.9271615E-01
          2   -1    0    0  502    0  0.00000000000E+00  0.00000000000E+00  0.18914144519E+04  0.18914144519E+04  0.00000000000E+00 0. -1.
          4   -1    0    0  501    0 -0.00000000000E+00 -0.00000000000E+00 -0.29808964036E+03  0.29808964036E+03  0.00000000000E+00 0.  1.
    9000010    2    1    2  502    0 -0.25499811509E+03 -0.19603214583E+03  0.76975045747E+03  0.12963993473E+04  0.99231187636E+03 0.  0.
        -13    1    3    3    0    0 -0.98106429929E+02  0.34876556460E+03  0.28816463218E+02  0.36344558101E+03  0.10566000000E+00 0.  1.
         13    1    1    2    0    0  0.12232915669E+03  0.41980798563E+02  0.20904067956E+03  0.24581461897E+03  0.10566000000E+00 0. -1.
          2    1    1    2  501    0  0.13266895840E+03  0.15405134726E+03  0.61453367450E+03  0.64729012600E+03  0.00000000000E+00 0. -1.
          4    1    3    3  502    0 -0.15689168516E+03 -0.54479771042E+03  0.74093399425E+03  0.93295376627E+03  0.00000000000E+00 0.  1.
</event>
<event>
 6    1  0.9434649E-006  0.7878267E+03  0.7818608E-02  0.9004474E-01
          4   -1    0    0  501    0  0.00000000000E+00  0.00000000000E+00  0.13006071384E+03  0.13006071384E+03  0.00000000000E+00 0.  1.
         -4   -1    0    0    0  501 -0.00000000000E+00 -0.00000000000E+00 -0.15331296052E+04  0.15331296052E+04  0.00000000000E+00 0. -1.
        -13    1    1    2    0    0 -0.47108338239E+01 -0.27338090691E+03 -0.19721076417E+03  0.33712224621E+03  0.10566000000E+00 0.  1.
         13    1    1    2    0    0 -0.27195448992E+02  0.10742293884E+03 -0.31934610610E+02  0.11532177051E+03  0.10566000000E+00 0. -1.
          4    1    1    2  502    0 -0.18347159792E+02  0.10304998093E+03 -0.14583519243E+03  0.17950994455E+03  0.00000000000E+00 0.  1.
         -4    1    1    2    0  502  0.50253442608E+02  0.62907987138E+02 -0.10280883241E+04  0.10312363577E+04  0.00000000000E+00 0. -1.
</event>
<event>
 7    1  0.9434649E-006  0.1026284E+04  0.7818608E-02  0.9335652E-01
         -4   -1    0    0    0  501  0.00000000000E+00  0.00000000000E+00  0.26435108892E+04  0.26435108892E+04  0.00000000000E+00 0.  1.
         -4   -1    0    0    0  502 -0.00000000000E+00 -0.00000000000E+00 -0.15467143086E+04  0.15467143086E+04  0.00000000000E+00 0. -1.
   -9000010    2    1    2    0  501 -0.21573099842E+03 -0.40864328150E+02 -0.99510041436E+03  0.14410574428E+04  0.10189268678E+04 0.  0.
        -13    1    1    2    0    0  0.97610369379E+02  0.82415873600E+01 -0.31974530342E+03  0.33441408193E+03  0.10566000000E+00 0.  1.
         13    1    3    3    0    0 -0.47061292711E+03  0.30807566647E+03 -0.77075345724E+03  0.95417401266E+03  0.10566000000E+00 0. -1.
         -4    1    1    2    0  502  0.11812062904E+03  0.32622740790E+02  0.24116422984E+04  0.24147536731E+04  0.00000000000E+00 0.  1.
         -4    1    3    3    0  501  0.25488192869E+03 -0.34893999462E+03 -0.22434695713E+03  0.48688343018E+03  0.00000000000E+00 0. -1.
</event>
<event>
 7    1  0.9434649E-006  0.1037394E+04  0.7818608E-02  0.9080520E-01
         -4   -1    0    0    0  501 -0.00000000000E+00  0.00000000000E+00  0.22351331764E+04  0.22351331764E+04  0.00000000000E+00 0. -1.
          4   -1    0    0  501    0  0.00000000000E+00 -0.00000000000E+00 -0.10949442924E+04  0.10949442924E+04  0.00000000000E+00 0.  1.
   -9000010    2    1    2    0  502  0.15230914443E+03  0.11530217841E+03  0.18171700808E+04  0.20856808258E+04  0.10057160318E+04 0.  0.
        -13    1    1    2    0    0 -0.47533648462E+03  0.16795297077E+03 -0.82379420568E+02  0.51082223336E+03  0.10566000000E+00 0.  1.
         13    1    3    3    0    0  0.27900374777E+03  0.38129163292E+03  0.34680434616E+03  0.58608844579E+03  0.10566000000E+00 0. -1.
          4    1    1    2  502    0  0.32302734019E+03 -0.28325514918E+03 -0.59460177634E+03  0.73357440963E+03  0.00000000000E+00 0.  1.
         -4    1    3    3    0  502 -0.12669460334E+03 -0.26598945451E+03  0.14703657347E+04  0.14995923800E+04  0.00000000000E+00 0. -1.
</event>
<event>
 6    1  0.9434649E-006  0.1028373E+04  0.7818608E-02  0.8748380E-01
          2   -1    0    0  501    0  0.00000000000E+00  0.00000000000E+00  0.77383303872E+03  0.77383303872E+03  0.00000000000E+00 0.  1.
         -4   -1    0    0    0  501 -0.00000000000E+00 -0.00000000000E+00 -0.43627673743E+03  0.43627673743E+03  0.00000000000E+00 0. -1.
        -13    1    1    2    0    0  0.33830061269E+03 -0.89230126349E+01 -0.19326224866E+03  0.38971429615E+03  0.10566000000E+00 0.  1.
         13    1    1    2    0    0 -0.38832993994E+03  0.37071202262E+02  0.18877006103E+03  0.43336885375E+03  0.10566000000E+00 0. -1.
          2    1    1    2  502    0 -0.63025246708E+02 -0.48187106063E+01  0.15268511974E+03  0.16525176999E+03  0.00000000000E+00 0.  1.
         -4    1    1    2    0  502  0.11305457395E+03 -0.23329479021E+02  0.18936336918E+03  0.22177485627E+03  0.00000000000E+00 0. -1.
</event>
<event>
 7    1  0.9434649E-006  0.1029669E+04  0.7818608E-02  0.9099642E-01
          2   -1    0    0  502    0  0.00000000000E+00  0.00000000000E+00  0.22557070140E+04  0.22557070140E+04  0.00000000000E+00 0. -1.
          4   -1    0    0  501    0 -0.00000000000E+00 -0.00000000000E+00 -0.18146562600E+04  0.18146562600E+04  0.00000000000E+00 0.  1.
    9000010    2    1    2  502    0 -0.56539938079E+02 -0.26563033711E+03 -0.56968382549E+03  0.11833648987E+04  0.10010277628E+04 0.  0.
        -13    1    3    3    0    0  0.17956471489E+03  0.33952490144E+03 -0.16491962421E+03  0.41799418554E+03  0.10566000000E+00 0.  1.
         13    1    1    2    0    0  0.10359530329E+03  0.21649582650E+03 -0.92217334764E+03  0.95289355335E+03  0.10566000000E+00 0. -1.
          2    1    1    2  501    0 -0.47055365213E+02  0.49134510605E+02  0.19329079271E+04  0.19341048219E+04  0.00000000000E+00 0. -1.
          4    1    3    3  502    0 -0.23610465296E+03 -0.60515523855E+03 -0.40476420128E+03  0.76537071314E+03  0.00000000000E+00 0.  1.
</event>
<event>
 7    1  0.9434649E-006  0.1029736E+04  0.7818608E-02  0.9281704E-01
          2   -1    0    0  502    0  0.00000000000E+00  0.00000000000E+00  0.21420148376E+04  0.21420148376E+04  0.00000000000E+00 0.  1.
          4   -1    0    0  501    0 -0.00000000000E+00 -0.00000000000E+00 -0.45018120334E+03  0.45018120334E+03  0.00000000000E+00 0.  1.
    9000010    2    1    2  502    0  0.82985083274E+02 -0.23523511019E+03  0.42618865457E+03  0.11080599403E+04  0.99193648025E+03 0.  0.
        -13    1    3    3    0    0 -0.37765581525E+03  0.12050386089E+03  0.17338387542E+02  0.39679431212E+03  0.10566000000E+00 0.  1.
         13    1    1    2    0    0 -0.11130865393E+03 -0.41888123759E+02 -0.57418542685E+02  0.13206487633E+03  0.10566000000E+00 0. -1.
          2    1    1    2  501    0  0.28323570651E+02  0.27712323395E+03  0.13230635223E+04  0.13520712243E+04  0.00000000000E+00 0.  1.
          4    1    3    3  502    0  0.46064089853E+03 -0.35573897108E+03  0.40885026703E+03  0.71126562815E+03  0.00000000000E+00 0.  1.
</event>
<event>
 7    1  0.9434649E-006  0.1041075E+04  0.7818608E-02  0.8980317E-01
          1   -1    0    0  501    0  0.00000000000E+00  0.00000000000E+00  0.75084932191E+03  0.75084932191E+03  0.00000000000E+00 0.  1.
         -4   -1    0    0    0  501 -0.00000000000E+00 -0.00000000000E+00 -0.16411122986E+04  0.16411122986E+04  0.00000000000E+00 0. -1.
   -9000010    2    1    2    0  502 -0.13989218213E+03 -0.34523237093E+03 -0.13717117954E+04  0.17211646966E+04  0.97059747086E+03 0.  0.
        -13    1    1    2    0    0  0.15997483510E+03  0.35119026190E+03  0.30173908697E+03  0.48987042745E+03  0.10566000000E+00 0.  1.
         13    1    3    3    0    0 -0.65687840064E+02  0.11494277379E+03  0.10731884403E+03  0.17042323499E+03  0.10566000000E+00 0. -1.
          1    1    1    2  502    0 -0.20082652967E+02 -0.59578909705E+01  0.17970973181E+03  0.18092649646E+03  0.00000000000E+00 0.  1.
         -4    1    3    3    0  502 -0.74204342070E+02 -0.46017514472E+03 -0.14790306395E+04  0.15507414616E+04  0.00000000000E+00 0. -1.
</event>
<event>
 7    1  0.9434649E-006  0.1012799E+04  0.7818608E-02  0.9269162E-01
          4   -1    0    0  501    0 -0.00000000000E+00  0.00000000000E+00  0.26400158411E+04  0.26400158411E+04  0.00000000000E+00 0.  1.
          2   -1    0    0  502    0  0.00000000000E+00 -0.00000000000E+00 -0.81478603467E+03  0.81478603467E+03  0.00000000000E+00 0.  1.
    9000010    2    1    2  502    0  0.86596045641E+02 -0.88195255707E+02  0.24999094620E+04  0.26969231271E+04  0.10042757375E+04 0.  0.
        -13    1    3    3    0    0  0.41146685690E+03  0.25549369478E+03  0.17001739081E+04  0.17678159778E+04  0.10566000000E+00 0.  1.
         13    1    1    2    0    0 -0.90786890121E+02  0.10706520454E+03 -0.77425731358E+02  0.16031210959E+03  0.10566000000E+00 0. -1.
          2    1    1    2  501    0  0.41908444803E+01 -0.18869948834E+02 -0.59725392422E+03  0.59756663908E+03  0.00000000000E+00 0.  1.
          4    1    3    3  502    0 -0.32487081126E+03 -0.34368895049E+03  0.79973555390E+03  0.92910714930E+03  0.00000000000E+00 0.  1.
</event>
<event>
 7    1  0.9434649E-006  0.1453840E+04  0.7818608E-02  0.8766455E-01
          4   -1    0    0  501    0  0.00000000000E+00  0.00000000000E+00  0.32191193273E+04  0.32191193273E+04  0.00000000000E+00 0.  1.
          4   -1    0    0  502    0 -0.00000000000E+00 -0.00000000000E+00 -0.81571053822E+03  0.81571053822E+03  0.00000000000E+00 0.  1.
    9000010    2    1    2  501    0  0.63507672405E+03 -0.85035264088E+03  0.74738461434E+03  0.16424507185E+04  0.10062994294E+04 0.  0.
        -13    1    3    3    0    0  0.98382656560E+02 -0.68380253265E+03  0.82402530116E+03  0.10753058908E+04  0.10566000000E+00 0.  1.
         13    1    1    2    0    0  0.23258015466E+03  0.24374426771E+03 -0.91567926063E+02  0.34912675726E+03  0.10566000000E+00 0. -1.
          4    1    3    3  501    0  0.53669406749E+03 -0.16655010823E+03 -0.76640686816E+02  0.56714482763E+03  0.00000000000E+00 0.  1.
          4    1    1    2  502    0 -0.86765687872E+03  0.60660837317E+03  0.17475921008E+04  0.20432523898E+04  0.00000000000E+00 0.  1.
</event>
<event>
 7    1  0.9434649E-006  0.1017885E+04  0.7818608E-02  0.9433977E-01
          2   -1    0    0  502    0  0.00000000000E+00  0.00000000000E+00  0.18484361959E+04  0.18484361959E+04  0.00000000000E+00 0.  1.
          4   -1    0    0  501    0 -0.00000000000E+00 -0.00000000000E+00 -0.27913839426E+03  0.27913839426E+03  0.00000000000E+00 0.  1.
    9000010    2    1    2  502    0 -0.17884789183E+03  0.37032875369E+02  0.76335172239E+03  0.12797984938E+04  0.10108512900E+04 0.  0.
        -13    1    3    3    0    0 -0.45322070956E+03  0.31096213350E+03  0.17810388095E+03  0.57777804010E+03  0.10566000000E+00 0.  1.
         13    1    1    2    0    0  0.69221076064E+02  0.76054258423E+01  0.58305699664E+02  0.90823816541E+02  0.10566000000E+00 0. -1.
          2    1    1    2  501    0  0.10962681576E+03 -0.44638301212E+02  0.74764037958E+03  0.75695227977E+03  0.00000000000E+00 0.  1.
          4    1    3    3  502    0  0.27437281774E+03 -0.27392925813E+03  0.58524784144E+03  0.70202045375E+03  0.00000000000E+00 0.  1.
</event>
<event>
 7    1  0.9434649E-006  0.1162042E+04  0.7818608E-02  0.8791903E-01
          1   -1    0    0  501    0  0.00000000000E+00  0.00000000000E+00  0.10646902171E+04  0.10646902171E+04  0.00000000000E+00 0.  1.
         -4   -1    0    0    0  501 -0.00000000000E+00 -0.00000000000E+00 -0.16666524626E+04  0.16666524626E+04  0.00000000000E+00 0. -1.
   -9000010    2    1    2    0  502  0.57050670210E+03 -0.23076034885E+03 -0.46142642557E+03  0.12615129794E+04  0.99988620120E+03 0.  0.
        -13    1    1    2    0    0 -0.51631001196E+03  0.27848398790E+03 -0.69568477305E+03  0.91000366735E+03  0.10566000000E+00 0.  1.
         13    1    3    3    0    0  0.67329695115E+03 -0.46287668793E+03 -0.55853043454E+03  0.98971706570E+03  0.10566000000E+00 0. -1.
          1    1    1    2  502    0 -0.54196690131E+02 -0.47723639055E+02  0.55514895313E+03  0.55982603290E+03  0.00000000000E+00 0.  1.
         -4    1    3    3    0  502 -0.10279024905E+03  0.23211633909E+03  0.97104008971E+02  0.27179591375E+03  0.00000000000E+00 0. -1.
</event>
<event>
 7    1  0.9434649E-006  0.1137412E+04  0.7818608E-02  0.8850069E-01
          4   -1    0    0  501    0 -0.00000000000E+00  0.00000000000E+00  0.16189190936E+04  0.16189190936E+04  0.00000000000E+00 0.  1.
          2   -1    0    0  502    0  0.00000000000E+00 -0.00000000000E+00 -0.17728768521E+04  0.17728768521E+04  0.00000000000E+00 0. -1.
    9000010    2    1    2  502    0  0.41193832525E+03 -0.32779819472E+03  0.59790610031E+03  0.12977528121E+04  0.10244636725E+04 0.  0.
        -13    1    3    3    0    0  0.44260856648E+00 -0.60752259880E+03  0.14423697637E+03  0.62441029818E+03  0.10566000000E+00 0.  1.
         13    1    1    2    0    0 -0.37381852972E+03  0.31063894462E+03  0.58271445951E+03  0.75881025267E+03  0.10566000000E+00 0. -1.
          2    1    1    2  501    0 -0.38119795528E+02  0.17159250101E+02 -0.13345783183E+04  0.13352328810E+04  0.00000000000E+00 0. -1.
          4    1    3    3  502    0  0.41149571668E+03  0.27972440408E+03  0.45366912394E+03  0.67334251396E+03  0.00000000000E+00 0.  1.
</event>
<event>
 7    1  0.9434649E-006  0.1095590E+04  0.7818608E-02  0.8933014E-01
         -4   -1    0    0    0  501  0.00000000000E+00  0.00000000000E+00  0.78148275350E+03  0.78148275350E+03  0.00000000000E+00 0. -1.
         -4   -1    0    0    0  502 -0.00000000000E+00 -0.00000000000E+00 -0.18098409498E+04  0.18098409498E+04  0.00000000000E+00 0. -1.
   -9000010    2    1    2    0  501 -0.86887391838E+02  0.39337318370E+03 -0.74398121969E+03  0.13275818511E+04  0.10230706894E+04 0.  0.
        -13    1    1    2    0    0  0.37155475119E+02 -0.38879518786E+03 -0.72328602455E+03  0.82200055469E+03  0.10566000000E+00 0.  1.
         13    1    3    3    0    0 -0.35908357264E+03 -0.22038174289E+03 -0.21609869638E+03  0.47350584208E+03  0.10566000000E+00 0. -1.
         -4    1    1    2    0  502  0.49731916720E+02 -0.45779958417E+01  0.43890904794E+03  0.44174129753E+03  0.00000000000E+00 0. -1.
         -4    1    3    3    0  501  0.27219618080E+03  0.61375492660E+03 -0.52788252331E+03  0.85407600902E+03  0.00000000000E+00 0. -1.
</event>
<event>
 7    1  0.9434649E-006  0.1022996E+04  0.7818608E-02  0.9153085E-01
          1   -1    0    0  501    0  0.00000000000E+00  0.00000000000E+00  0.80758393437E+03  0.80758393437E+03  0.00000000000E+00 0. -1.
         -4   -1    0    0    0  501 -0.00000000000E+00 -0.00000000000E+00 -0.69437803190E+03  0.69437803190E+03  0.00000000000E+00 0. -1.
   -9000010    2    1    2    0  502  0.96853719616E+02  0.21439442152E+03 -0.38443767651E+02  0.10313277388E+04  0.10034009022E+04 0.  0.
        -13    1    1    2    0    0 -0.15394204490E+03 -0.12361055825E+03 -0.81821273429E+02  0.21371114909E+03  0.10566000000E+00 0.  1.
         13    1    3    3    0    0  0.81107686699E+02 -0.16203082892E+03 -0.44292968410E+03  0.47855946609E+03  0.10566000000E+00 0. -1.
          1    1    1    2  502    0  0.57088325281E+02 -0.90783863273E+02  0.23347094355E+03  0.25692307836E+03  0.00000000000E+00 0. -1.
         -4    1    3    3    0  502  0.15746032917E+02  0.37642525044E+03  0.40448591645E+03  0.55276827273E+03  0.00000000000E+00 0. -1.
</event>
<event>
 7    1  0.9434649E-006  0.1002466E+04  0.7818608E-02  0.9210937E-01
          2   -1    0    0  501    0  0.00000000000E+00  0.00000000000E+00  0.23401520050E+03  0.23401520050E+03  0.00000000000E+00 0. -1.
         -4   -1    0    0    0  501 -0.00000000000E+00 -0.00000000000E+00 -0.29079996619E+04  0.29079996619E+04  0.00000000000E+00 0. -1.
   -9000010    2    1    2    0  502  0.20038998406E+03  0.29248579546E+01 -0.22979702067E+04  0.25094179833E+04  0.98810264829E+03 0.  0.
        -13    1    1    2    0    0 -0.16393077236E+03 -0.20350176376E+02 -0.48712206126E+03  0.51436887692E+03  0.10566000000E+00 0.  1.
         13    1    3    3    0    0  0.12099125537E+03  0.14541502801E+02  0.69701080622E+02  0.14038728925E+03  0.10566000000E+00 0. -1.
          2    1    1    2  502    0 -0.36459211703E+02  0.17425318421E+02  0.11110780652E+03  0.11822800222E+03  0.00000000000E+00 0. -1.
         -4    1    3    3    0  502  0.79398728692E+02 -0.11616644846E+02 -0.23676712873E+04  0.23690306941E+04  0.00000000000E+00 0. -1.
</event>
<event>
 6    1  0.9434649E-006  0.1239148E+04  0.7818608E-02  0.8577652E-01
         -4   -1    0    0    0  501 -0.00000000000E+00  0.00000000000E+00  0.22979927131E+04  0.22979927131E+04  0.00000000000E+00 0. -1.
          1   -1    0    0  501    0  0.00000000000E+00 -0.00000000000E+00 -0.74920062469E+03  0.74920062469E+03  0.00000000000E+00 0. -1.
        -13    1    1    2    0    0 -0.25084153644E+03  0.34563448730E+03  0.42499189247E+03  0.60249713281E+03  0.10566000000E+00 0.  1.
         13    1    1    2    0    0  0.33790537990E+03 -0.40540883146E+03  0.13587405359E+04  0.14576392631E+04  0.10566000000E+00 0. -1.
          1    1    1    2  502    0  0.54311484408E+02 -0.93085321983E+02 -0.57679940101E+03  0.58678118878E+03  0.00000000000E+00 0. -1.
         -4    1    1    2    0  502 -0.14137532786E+03  0.15285966614E+03  0.34185906108E+03  0.40027575308E+03  0.00000000000E+00 0. -1.
</event>
<event>
 6    1  0.9434649E-006  0.1180240E+04  0.7818608E-02  0.8621593E-01
          1   -1    0    0  501    0  0.00000000000E+00  0.00000000000E+00  0.10249698204E+04  0.10249698204E+04  0.00000000000E+00 0.  1.
         -4   -1    0    0    0  501 -0.00000000000E+00 -0.00000000000E+00 -0.68029978811E+03  0.68029978811E+03  0.00000000000E+00 0. -1.
        -13    1    1    2    0    0 -0.42316766045E+03 -0.81491317745E+02 -0.17856449783E+03  0.46647293037E+03  0.10566000000E+00 0.  1.
         13    1    1    2    0    0  0.42711419150E+03  0.87350642868E+02 -0.21997973398E+03  0.48831113229E+03  0.10566000000E+00 0. -1.
          1    1    1    2  502    0  0.44407523017E+02 -0.14476315482E+02  0.51120849962E+03  0.51333782434E+03  0.00000000000E+00 0.  1.
         -4    1    1    2    0  502 -0.48354054068E+02  0.86169903596E+01  0.23200576444E+03  0.23714772147E+03  0.00000000000E+00 0. -1.
</event>
<event>
 7    1  0.9434649E-006  0.1128100E+04  0.7818608E-02  0.8842957E-01
          2   -1    0    0  501    0  0.00000000000E+00  0.00000000000E+00  0.70462793142E+03  0.70462793142E+03  0.00000000000E+00 0.  1.
         -4   -1    0    0    0  501 -0.00000000000E+00 -0.00000000000E+00 -0.15399783480E+04  0.15399783480E+04  0.00000000000E+00 0. -1.
   -9000010    2    1    2    0  502 -0.17476504281E+03  0.52265653877E+03 -0.70799523958E+03  0.13436146865E+04  0.10001652307E+04 0.  0.
        -13    1    1    2    0    0 -0.27696730472E+02 -0.51968669852E+03 -0.32862272965E+03  0.61549515279E+03  0.10566000000E+00 0.  1.
         13    1    3    3    0    0 -0.15985112084E+03  0.31762482704E+02  0.23172446718E+03  0.28329750439E+03  0.10566000000E+00 0. -1.
          2    1    1    2  502    0  0.20246177328E+03 -0.29698402490E+01  0.20126755265E+03  0.28549644015E+03  0.00000000000E+00 0.  1.
         -4    1    3    3    0  502 -0.14913921973E+02  0.49089405607E+03 -0.93971970676E+03  0.10603171821E+04  0.00000000000E+00 0. -1.
</event>
<event>
 7    1  0.9434649E-006  0.1228743E+04  0.7818608E-02  0.8705208E-01
         -4   -1    0    0    0  501 -0.00000000000E+00  0.00000000000E+00  0.30341985975E+04  0.30341985975E+04  0.00000000000E+00 0. -1.
          2   -1    0    0  501    0  0.00000000000E+00 -0.00000000000E+00 -0.10134902792E+04  0.10134902792E+04  0.00000000000E+00 0.  1.
   -9000010    2    1    2    0  502  0.35327463355E+03  0.70047014951E+03  0.18965259451E+04  0.22792793614E+04  0.99138405773E+03 0.  0.
        -13    1    1    2    0    0  0.34368807736E+03 -0.75457769651E+03  0.50651086570E+03  0.97162866509E+03  0.10566000000E+00 0.  1.
         13    1    3    3    0    0  0.40713977995E+02  0.30023237492E+03  0.17125697773E+04  0.17391642707E+04  0.10566000000E+00 0. -1.
          2    1    1    2  502    0 -0.69696271091E+03  0.54107547002E+02 -0.38232849245E+03  0.79678085016E+03  0.00000000000E+00 0.  1.
         -4    1    3    3    0  502  0.31256065555E+03  0.40023777459E+03  0.18395616777E+03  0.54011509076E+03  0.00000000000E+00 0. -1.
</event>
<event>
 7    1  0.9434649E-006  0.1151039E+04  0.7818608E-02  0.8784604E-01
          4   -1    0    0  501    0 -0.00000000000E+00  0.00000000000E+00  0.14766079519E+04  0.14766079519E+04  0.00000000000E+00 0.  1.
          2   -1    0    0  502    0  0.00000000000E+00 -0.00000000000E+00 -0.18086690787E+04  0.18086690787E+04  0.00000000000E+00 0.  1.
    9000010    2    1    2  502    0  0.14686159556E+03 -0.63883656747E+03 -0.53781841159E+03  0.12841063760E+04  0.96436510349E+03 0.  0.
        -13    1    3    3    0    0 -0.32145722057E+02 -0.55758561365E+02  0.26679019034E+03  0.27444376736E+03  0.10566000000E+00 0.  1.
         13    1    1    2    0    0 -0.79441869031E+02  0.62097998936E+03  0.10130445132E+04  0.11908762970E+04  0.10566000000E+00 0. -1.
          2    1    1    2  501    0 -0.67419726528E+02  0.17856578104E+02 -0.80728722841E+03  0.81029435767E+03  0.00000000000E+00 0.  1.
          4    1    3    3  502    0  0.17900731762E+03 -0.58307800610E+03 -0.80460860194E+03  0.10096626086E+04  0.00000000000E+00 0.  1.
</event>
<event>
 7    1  0.9434649E-006  0.1005041E+04  0.7818608E-02  0.9228116E-01
         -4   -1    0    0    0  501 -0.00000000000E+00  0.00000000000E+00  0.65031692318E+03  0.65031692318E+03  0.00000000000E+00 0. -1.
          2   -1    0    0  501    0  0.00000000000E+00 -0.00000000000E+00 -0.10486542361E+04  0.10486542361E+04  0.00000000000E+00 0. -1.
   -9000010    2    1    2    0  502 -0.13637215307E+03 -0.75296763623E+02  0.14218697718E+03  0.10148551041E+04  0.99269672057E+03 0.  0.
        -13    1    1    2    0    0  0.13264788042E+03  0.84614996645E+02 -0.14509288718E+02  0.15800534314E+03  0.10566000000E+00 0.  1.
         13    1    3    3    0    0 -0.52937492421E+03 -0.22204913517E+03  0.69972986098E+01  0.57410156084E+03  0.10566000000E+00 0. -1.
          2    1    1    2  502    0  0.37242726515E+01 -0.93182330221E+01 -0.52601500143E+03  0.52611071212E+03  0.00000000000E+00 0. -1.
         -4    1    3    3    0  502  0.39300277113E+03  0.14675237155E+03  0.13518967857E+03  0.44075354323E+03  0.00000000000E+00 0. -1.
</event>
<event>
 7    1  0.9434649E-006  0.1018079E+04  0.7818608E-02  0.9177514E-01
          4   -1    0    0  501    0 -0.00000000000E+00  0.00000000000E+00  0.74245917719E+03  0.74245917719E+03  0.00000000000E+00 0.  1.
          2   -1    0    0  502    0  0.00000000000E+00 -0.00000000000E+00 -0.18964809755E+04  0.18964809755E+04  0.00000000000E+00 0. -1.
    9000010    2    1    2  502    0 -0.14008049489E+03  0.11926545803E+02  0.17424083771E+03  0.10260770438E+04  0.10013538050E+04 0.  0.
        -13    1    3    3    0    0 -0.88866542983E+02  0.39172178024E+03 -0.23503484470E+03  0.46538651137E+03  0.10566000000E+00 0.  1.
         13    1    1    2    0    0  0.18492250234E+03 -0.45789061736E+02  0.77725286144E+02  0.20575276746E+03  0.10566000000E+00 0. -1.
          2    1    1    2  501    0 -0.44842007451E+02  0.33862515933E+02 -0.14059879222E+04  0.14071103414E+04  0.00000000000E+00 0. -1.
          4    1    3    3  502    0 -0.51213951908E+02 -0.37979523444E+03  0.40927568241E+03  0.56069053246E+03  0.00000000000E+00 0.  1.
</event>
<event>
 6    1  0.9434649E-006  0.1010949E+04  0.7818608E-02  0.8764371E-01
          2   -1    0    0  501    0  0.00000000000E+00  0.00000000000E+00  0.12752862847E+04  0.12752862847E+04  0.00000000000E+00 0.  1.
         -4   -1    0    0    0  501 -0.00000000000E+00 -0.00000000000E+00 -0.50164433301E+03  0.50164433301E+03  0.00000000000E+00 0. -1.
        -13    1    1    2    0    0 -0.34961064629E+03 -0.15798250989E+03 -0.14391770027E+03  0.40975406410E+03  0.10566000000E+00 0.  1.
         13    1    1    2    0    0  0.36065490690E+03  0.14380590218E+03 -0.54390807289E+02  0.39205926906E+03  0.10566000000E+00 0. -1.
          2    1    1    2  502    0 -0.47626416713E+01 -0.19917606736E+02  0.76567606848E+03  0.76594989108E+03  0.00000000000E+00 0.  1.
         -4    1    1    2    0  502 -0.62816189479E+01  0.34094214454E+02  0.20627439074E+03  0.20916739343E+03  0.00000000000E+00 0. -1.
</event>
<event>
 7    1  0.9434649E-006  0.1208745E+04  0.7818608E-02  0.8724639E-01
          2   -1    0    0  502    0  0.00000000000E+00  0.00000000000E+00  0.27924566108E+04  0.27924566108E+04  0.00000000000E+00 0.  1.
          4   -1    0    0  501    0 -0.00000000000E+00 -0.00000000000E+00 -0.60162954778E+03  0.60162954778E+03  0.00000000000E+00 0.  1.
    9000010    2    1    2  502    0 -0.64748688945E+03  0.47512928764E+03  0.58550266889E+03  0.13989769108E+04  0.98454858170E+03 0.  0.
        -13    1    3    3    0    0 -0.70450725757E+03  0.28028547236E+03  0.80097601335E+03  0.11029292847E+04  0.10566000000E+00 0.  1.
         13    1    1    2    0    0  0.58594898169E+03 -0.27718957577E+03  0.37792920661E+03  0.75033377002E+03  0.10566000000E+00 0. -1.
          2    1    1    2  501    0  0.61537907753E+02 -0.19793971187E+03  0.12273951875E+04  0.12447754777E+04  0.00000000000E+00 0.  1.
          4    1    3    3  502    0  0.57020368122E+02  0.19484381529E+03 -0.21547334447E+03  0.29604762609E+03  0.00000000000E+00 0.  1.
</event>
<event>
 7    1  0.9434649E-006  0.1053090E+04  0.7818608E-02  0.9057965E-01
         -4   -1    0    0    0  501  0.00000000000E+00  0.00000000000E+00  0.47428314924E+03  0.47428314924E+03  0.00000000000E+00 0. -1.
         -4   -1    0    0    0  502 -0.00000000000E+00 -0.00000000000E+00 -0.20600102604E+04  0.20600102604E+04  0.00000000000E+00 0. -1.
   -9000010    2    1    2    0  501  0.11072252789E+02 -0.26697801874E+03 -0.91315481619E+03  0.13940799157E+04  0.10189245486E+04 0.  0.
        -13    1    1    2    0    0  0.68354627791E+01  0.26593266854E+03 -0.88649058123E+03  0.92554441790E+03  0.10566000000E+00 0.  1.
         13    1    3    3    0    0 -0.14228561762E+03  0.31232815920E+03 -0.65926789416E+03  0.74325516711E+03  0.10566000000E+00 0. -1.
         -4    1    1    2    0  502 -0.17907715568E+02  0.10453501970E+01  0.21391828622E+03  0.21466907606E+03  0.00000000000E+00 0. -1.
         -4    1    3    3    0  501  0.15335787040E+03 -0.57930617793E+03 -0.25388692203E+03  0.65082474860E+03  0.00000000000E+00 0. -1.
</event>
<event>
 6    1  0.9434649E-006  0.6922701E+02  0.7818608E-02  0.1242856E+00
          4   -1    0    0  501    0  0.00000000000E+00  0.00000000000E+00  0.30629452840E+02  0.30629452840E+02  0.00000000000E+00 0.  1.
         -4   -1    0    0    0  501 -0.00000000000E+00 -0.00000000000E+00 -0.38769751583E+03  0.38769751583E+03  0.00000000000E+00 0. -1.
        -13    1    1    2    0    0  0.66217738355E+02 -0.44333690855E+01 -0.92420260754E+02  0.11378031199E+03  0.10566000000E+00 0.  1.
         13    1    1    2    0    0 -0.40359773787E+02 -0.31448138421E+02 -0.65712028930E+02  0.83282523139E+02  0.10566000000E+00 0. -1.
          4    1    1    2  502    0  0.27567041368E+02  0.13348174788E+02 -0.30908097072E+02  0.43513515194E+02  0.00000000000E+00 0.  1.
         -4    1    1    2    0  502 -0.53425005936E+02  0.22533332718E+02 -0.16802767623E+03  0.17775061835E+03  0.00000000000E+00 0. -1.
</event>
<event>
 7    1  0.9434649E-006  0.1212075E+04  0.7818608E-02  0.8738577E-01
          1   -1    0    0  501    0  0.00000000000E+00  0.00000000000E+00  0.61449676947E+03  0.61449676947E+03  0.00000000000E+00 0.  1.
         -4   -1    0    0    0  501 -0.00000000000E+00 -0.00000000000E+00 -0.35190697795E+04  0.35190697795E+04  0.00000000000E+00 0. -1.
   -9000010    2    1    2    0  502 -0.28056519926E+03 -0.61535974960E+03 -0.20708265459E+04  0.24053613854E+04  0.10198315344E+04 0.  0.
        -13    1    1    2    0    0  0.28566472217E+03  0.57808337557E+03 -0.11988015913E+04  0.13612163638E+04  0.10566000000E+00 0.  1.
         13    1    3    3    0    0  0.36950278122E+03 -0.19365627095E+03 -0.10005000132E+04  0.10839904724E+04  0.10566000000E+00 0. -1.
          1    1    1    2  502    0 -0.50995229059E+01  0.37276374034E+02  0.36505512724E+03  0.36698879972E+03  0.00000000000E+00 0.  1.
         -4    1    3    3    0  502 -0.65006798049E+03 -0.42170347865E+03 -0.10703265327E+04  0.13213709130E+04  0.00000000000E+00 0. -1.
</event>
<event>
 7    1  0.9434649E-006  0.1062468E+04  0.7818608E-02  0.8992803E-01
          2   -1    0    0  501    0  0.00000000000E+00  0.00000000000E+00  0.88738169580E+03  0.88738169580E+03  0.00000000000E+00 0.  1.
         -4   -1    0    0    0  501 -0.00000000000E+00 -0.00000000000E+00 -0.22457677488E+04  0.22457677488E+04  0.00000000000E+00 0. -1.
   -9000010    2    1    2    0  502 -0.27463081761E+03  0.18162025273E+03 -0.18497489339E+04  0.21320000933E+04  0.10076930471E+04 0.  0.
        -13    1    1    2    0    0  0.28315660325E+03 -0.19334693701E+03 -0.13946837538E+03  0.37015150805E+03  0.10566000000E+00 0.  1.
         13    1    3    3    0    0  0.15246401464E+03  0.42421383971E+03 -0.13822678546E+04  0.14539144028E+04  0.10566000000E+00 0. -1.
          2    1    1    2  502    0 -0.85257856388E+01  0.11726684281E+02  0.63083125634E+03  0.63099784320E+03  0.00000000000E+00 0.  1.
         -4    1    3    3    0  502 -0.42709483225E+03 -0.24259358698E+03 -0.46748107934E+03  0.67808569055E+03  0.00000000000E+00 0. -1.
</event>
<event>
 7    1  0.9434649E-006  0.1037867E+04  0.7818608E-02  0.9246131E-01
         -4   -1    0    0    0  501 -0.00000000000E+00  0.00000000000E+00  0.19440322601E+03  0.19440322601E+03  0.00000000000E+00 0. -1.
          4   -1    0    0  501    0  0.00000000000E+00 -0.00000000000E+00 -0.29682018791E+04  0.29682018791E+04  0.00000000000E+00 0. -1.
   -9000010    2    1    2    0  502  0.18816580828E+03  0.18776591912E+03 -0.18441570042E+04  0.21100362393E+04  0.99029059519E+03 0.  0.
        -13    1    1    2    0    0 -0.67593628797E+02  0.11461805975E+03 -0.11714217427E+03  0.17728084620E+03  0.10566000000E+00 0.  1.
         13    1    3    3    0    0  0.57633069271E+03  0.17167895493E+02 -0.82809156283E+03  0.10090527497E+04  0.10566000000E+00 0. -1.
          4    1    1    2  502    0 -0.12057217948E+03 -0.30238397886E+03 -0.81249947453E+03  0.87528801960E+03  0.00000000000E+00 0. -1.
         -4    1    3    3    0  502 -0.38816488442E+03  0.17059802363E+03 -0.10160654414E+04  0.11009834896E+04  0.00000000000E+00 0. -1.
</event>
<event>
 6    1  0.9434649E-006  0.1171192E+04  0.7818608E-02  0.8628577E-01
          2   -1    0    0  501    0  0.00000000000E+00  0.00000000000E+00  0.17118719310E+04  0.17118719310E+04  0.00000000000E+00 0.  1.
         -4   -1    0    0    0  501 -0.00000000000E+00 -0.00000000000E+00 -0.32977404938E+04  0.32977404938E+04  0.00000000000E+00 0. -1.
        -13    1    1    2    0    0  0.18329321721E+03 -0.29422095628E+03 -0.17858699239E+04  0.18192014102E+04  0.10566000000E+00 0.  1.
         13    1    1    2    0    0 -0.17300436038E+03  0.28894684784E+03 -0.14732059881E+04  0.15112103374E+04  0.10566000000E+00 0. -1.
          2    1    1    2  502    0 -0.37707608382E+02  0.73897448198E+01  0.16076479409E+04  0.16081070778E+04  0.00000000000E+00 0.  1.
         -4    1    1    2    0  502  0.27418751548E+02 -0.21156363807E+01  0.65559408324E+02  0.71093599385E+02  0.00000000000E+00 0. -1.
</event>
<event>
 7    1  0.9434649E-006  0.1010042E+04  0.7818608E-02  0.9263564E-01
          2   -1    0    0  502    0  0.00000000000E+00  0.00000000000E+00  0.16893501108E+04  0.16893501108E+04  0.00000000000E+00 0.  1.
          4   -1    0    0  501    0 -0.00000000000E+00 -0.00000000000E+00 -0.83966133892E+03  0.83966133892E+03  0.00000000000E+00 0.  1.
    9000010    2    1    2  502    0 -0.13898663386E+03  0.23964506774E+03 -0.26885741374E+03  0.10650237299E+04  0.99259467729E+03 0.  0.
        -13    1    3    3    0    0  0.27710432792E+02  0.53175119846E+03 -0.43716065293E+03  0.68893878740E+03  0.10566000000E+00 0.  1.
         13    1    1    2    0    0 -0.14602829587E+02 -0.13425625683E+03 -0.13836658185E+03  0.19334763321E+03  0.10566000000E+00 0. -1.
          2    1    1    2  501    0  0.15358946345E+03 -0.10538881091E+03  0.12569127675E+04  0.12706400866E+04  0.00000000000E+00 0.  1.
          4    1    3    3  502    0 -0.16669706666E+03 -0.29210613072E+03  0.16830323919E+03  0.37608494248E+03  0.00000000000E+00 0.  1.
</event>
<event>
 6    1  0.9434649E-006  0.1350124E+03  0.7818608E-02  0.1137193E+00
         -4   -1    0    0    0  502 -0.00000000000E+00  0.00000000000E+00  0.20116906317E+03  0.20116906317E+03  0.00000000000E+00 0. -1.
         -2   -1    0    0    0  501  0.00000000000E+00 -0.00000000000E+00 -0.50562243773E+03  0.50562243773E+03  0.00000000000E+00 0.  1.
        -13    1    1    2    0    0 -0.36493076526E+02  0.69088825091E+02  0.10570526106E+03  0.13144817902E+03  0.10566000000E+00 0.  1.
         13    1    1    2    0    0 -0.31416310750E+00  0.13055137298E+02 -0.30937674463E+02  0.33581038899E+02  0.10566000000E+00 0. -1.
         -2    1    1    2    0  502 -0.67869961128E+02 -0.26515758656E+02 -0.41230301294E+03  0.41869223967E+03  0.00000000000E+00 0.  1.
         -4    1    1    2    0  501  0.10467720076E+03 -0.55628203733E+02  0.33082051782E+02  0.12307004331E+03  0.00000000000E+00 0. -1.
</event>
<event>
 7    1  0.9434649E-006  0.1020926E+04  0.7818608E-02  0.9331276E-01
          2   -1    0    0  502    0  0.00000000000E+00  0.00000000000E+00  0.12734920545E+04  0.12734920545E+04  0.00000000000E+00 0. -1.
          4   -1    0    0  501    0 -0.00000000000E+00 -0.00000000000E+00 -0.92925807075E+03  0.92925807075E+03  0.00000000000E+00 0.  1.
    9000010    2    1    2  502    0 -0.19185104568E+02 -0.36758312684E+02 -0.56879555132E+03  0.11608418734E+04  0.10110916052E+04 0.  0.
        -13    1    3    3    0    0 -0.49696262385E+03  0.11555687538E+03 -0.27391668132E+03  0.57909895563E+03  0.10566000000E+00 0.  1.
         13    1    1    2    0    0 -0.64278419701E+02 -0.78112420468E+02 -0.15714334079E+02  0.10237293065E+03  0.10566000000E+00 0. -1.
          2    1    1    2  501    0  0.83463524269E+02  0.11487073315E+03  0.92874386917E+03  0.93953532118E+03  0.00000000000E+00 0. -1.
          4    1    3    3  502    0  0.47777751928E+03 -0.15231518807E+03 -0.29487887000E+03  0.58174291781E+03  0.00000000000E+00 0.  1.
</event>
<event>
 7    1  0.9434649E-006  0.9489872E+03  0.7818608E-02  0.9140076E-01
          2   -1    0    0  501    0  0.00000000000E+00  0.00000000000E+00  0.51108700786E+03  0.51108700786E+03  0.00000000000E+00 0. -1.
         -4   -1    0    0    0  501 -0.00000000000E+00 -0.00000000000E+00 -0.11715945133E+04  0.11715945133E+04  0.00000000000E+00 0. -1.
   -9000010    2    1    2    0  502 -0.24185224629E+01  0.25517922944E+03 -0.66781877631E+03  0.11587425023E+04  0.91191007247E+03 0.  0.
        -13    1    1    2    0    0  0.79744192266E+01 -0.26463316515E+03 -0.19028359101E+03  0.32604011967E+03  0.10566000000E+00 0.  1.
         13    1    3    3    0    0 -0.35674698194E+03  0.10292999907E+03  0.18210374234E+02  0.37174537350E+03  0.10566000000E+00 0. -1.
          2    1    1    2  502    0 -0.55558967636E+01  0.94539357147E+01  0.19759486184E+03  0.19789889923E+03  0.00000000000E+00 0. -1.
         -4    1    3    3    0  502  0.35432845947E+03  0.15224923037E+03 -0.68602915055E+03  0.78699712880E+03  0.00000000000E+00 0. -1.
</event>
<event>
 7    1  0.9434649E-006  0.9393253E+03  0.7818608E-02  0.9434779E-01
         -4   -1    0    0    0  501  0.00000000000E+00  0.00000000000E+00  0.13921392136E+04  0.13921392136E+04  0.00000000000E+00 0. -1.
         -4   -1    0    0    0  502 -0.00000000000E+00 -0.00000000000E+00 -0.12627323034E+04  0.12627323034E+04  0.00000000000E+00 0. -1.
   -9000010    2    1    2    0  501  0.61543209844E+02 -0.24307341077E+02 -0.67632079989E+03  0.11559906443E+04  0.93516101915E+03 0.  0.
        -13    1    1    2    0    0 -0.85547207678E+02  0.24132154934E+02 -0.34074977882E+03  0.35215210999E+03  0.10566000000E+00 0.  1.
         13    1    3    3    0    0 -0.16090515310E+03  0.25711270349E+03  0.84484632518E+02  0.31485722937E+03  0.10566000000E+00 0. -1.
         -4    1    1    2    0  502  0.24003997834E+02  0.17518614390E+00  0.11464774889E+04  0.11467287627E+04  0.00000000000E+00 0. -1.
         -4    1    3    3    0  501  0.22244836294E+03 -0.28142004457E+03 -0.76080543241E+03  0.84113341489E+03  0.00000000000E+00 0. -1.
</event>
<event>
 7    1  0.9434649E-006  0.1088980E+04  0.7818608E-02  0.8935656E-01
         -4   -1    0    0    0  501 -0.00000000000E+00  0.00000000000E+00  0.18755826479E+04  0.18755826479E+04  0.00000000000E+00 0. -1.
          4   -1    0    0  501    0  0.00000000000E+00 -0.00000000000E+00 -0.65235975530E+03  0.65235975530E+03  0.00000000000E+00 0.  1.
   -9000010    2    1    2    0  502 -0.33273679663E+03 -0.15991237970E+03  0.10921697859E+04  0.15359341215E+04  0.10148758738E+04 0.  0.
        -13    1    1    2    0    0  0.41915686453E+03 -0.12587445202E+03  0.39796014172E+03  0.59153118288E+03  0.10566000000E+00 0.  1.
         13    1    3    3    0    0 -0.37975877931E+03 -0.55577123961E+03  0.77500478092E+03  0.10265139175E+04  0.10566000000E+00 0. -1.
          4    1    1    2  502    0 -0.86420067904E+02  0.28578683173E+03 -0.26690703503E+03  0.40047709881E+03  0.00000000000E+00 0.  1.
         -4    1    3    3    0  502  0.47021982682E+02  0.39585885991E+03  0.31716500495E+03  0.50942020395E+03  0.00000000000E+00 0. -1.
</event>
<event>
 7    1  0.9434649E-006  0.1150551E+04  0.7818608E-02  0.8804546E-01
         -4   -1    0    0    0  501 -0.00000000000E+00  0.00000000000E+00  0.99695143663E+03  0.99695143663E+03  0.00000000000E+00 0. -1.
          1   -1    0    0  501    0  0.00000000000E+00 -0.00000000000E+00 -0.21291057425E+04  0.21291057425E+04  0.00000000000E+00 0.  1.
   -9000010    2    1    2    0  502 -0.11355899239E+02 -0.59646045631E+03  0.45774788082E+03  0.12469457201E+04  0.99470924098E+03 0.  0.
        -13    1    1    2    0    0  0.22005724667E+01  0.55351879644E+03 -0.38696638757E+03  0.67537463441E+03  0.10566000000E+00 0.  1.
         13    1    3    3    0    0 -0.18493479448E+03  0.23408984211E+03  0.20368990137E+03  0.36123194692E+03  0.10566000000E+00 0. -1.
          1    1    1    2  502    0  0.91553267728E+01  0.42941659866E+02 -0.12029357992E+04  0.12037368247E+04  0.00000000000E+00 0.  1.
         -4    1    3    3    0  502  0.17357889524E+03 -0.83055029842E+03  0.25405797945E+03  0.88571377318E+03  0.00000000000E+00 0. -1.
</event>
<event>
 6    1  0.9434649E-006  0.3130397E+03  0.7818608E-02  0.1019653E+00
         -4   -1    0    0    0  501 -0.00000000000E+00  0.00000000000E+00  0.14557014881E+04  0.14557014881E+04  0.00000000000E+00 0. -1.
          2   -1    0    0  501    0  0.00000000000E+00 -0.00000000000E+00 -0.90780901627E+03  0.90780901627E+03  0.00000000000E+00 0. -1.
        -13    1    1    2    0    0 -0.43805231939E+02  0.16496898230E+03  0.57991478836E+03  0.60451206472E+03  0.10566000000E+00 0.  1.
         13    1    1    2    0    0  0.11718449793E+03 -0.15549350134E+03  0.84569749101E+03  0.86782180947E+03  0.10566000000E+00 0. -1.
          2    1    1    2  502    0 -0.91371596879E+02 -0.31729307593E+01 -0.86093624945E+03  0.86577714328E+03  0.00000000000E+00 0. -1.
         -4    1    1    2    0  502  0.17992330885E+02 -0.63025502025E+01 -0.16783558128E+02  0.25399486868E+02  0.00000000000E+00 0. -1.
</event>
<event>
 7    1  0.9434649E-006  0.1215809E+04  0.7818608E-02  0.8731921E-01
          4   -1    0    0  501    0 -0.00000000000E+00  0.00000000000E+00  0.50924042579E+03  0.50924042579E+03  0.00000000000E+00 0.  1.
          2   -1    0    0  502    0  0.00000000000E+00 -0.00000000000E+00 -0.39972819726E+04  0.39972819726E+04  0.00000000000E+00 0.  1.
    9000010    2    1    2  502    0  0.30753031478E+03 -0.61775341803E+03 -0.18505359996E+04  0.22210052862E+04  0.10159659519E+04 0.  0.
        -13    1    3    3    0    0  0.63231924196E+03 -0.32251808675E+03 -0.14993405576E+04  0.16588754200E+04  0.10566000000E+00 0.  1.
         13    1    1    2    0    0 -0.27977157971E+03  0.60235077036E+03 -0.16660771859E+02  0.66436148281E+03  0.10566000000E+00 0. -1.
          2    1    1    2  501    0 -0.27758735076E+02  0.15402647671E+02 -0.16208447753E+04  0.16211556294E+04  0.00000000000E+00 0.  1.
          4    1    3    3  502    0 -0.32478892718E+03 -0.29523533128E+03 -0.35119544201E+03  0.56212986626E+03  0.00000000000E+00 0.  1.
</event>
<event>
 7    1  0.9434649E-006  0.1269414E+04  0.7818608E-02  0.8709627E-01
          4   -1    0    0  501    0 -0.00000000000E+00  0.00000000000E+00  0.13351095644E+04  0.13351095644E+04  0.00000000000E+00 0.  1.
          2   -1    0    0  502    0  0.00000000000E+00 -0.00000000000E+00 -0.99898723567E+03  0.99898723567E+03  0.00000000000E+00 0.  1.
    9000010    2    1    2  502    0 -0.34168114082E+03 -0.53475786315E+03 -0.15609383862E+03  0.12732981765E+04  0.10927996091E+04 0.  0.
        -13    1    3    3    0    0 -0.24803915114E+03  0.20867245792E+03 -0.37209669794E+03  0.49348108269E+03  0.10566000000E+00 0.  1.
         13    1    1    2    0    0  0.37747870327E+03  0.52694780358E+03  0.63858097130E+03  0.90991748372E+03  0.10566000000E+00 0. -1.
          2    1    1    2  501    0 -0.35797562449E+02  0.78100595699E+01 -0.14636480400E+03  0.15088113983E+03  0.00000000000E+00 0.  1.
          4    1    3    3  502    0 -0.93641989682E+02 -0.74343032107E+03  0.21600285932E+03  0.77981709378E+03  0.00000000000E+00 0.  1.
</event>
<event>
 7    1  0.9434649E-006  0.1487635E+04  0.7818608E-02  0.8492465E-01
          4   -1    0    0  502    0  0.00000000000E+00  0.00000000000E+00  0.85670592636E+03  0.85670592636E+03  0.00000000000E+00 0. -1.
          4   -1    0    0  501    0 -0.00000000000E+00 -0.00000000000E+00 -0.22419224897E+04  0.22419224897E+04  0.00000000000E+00 0.  1.
    9000010    2    1    2  502    0  0.96760837976E+03 -0.44576691431E+03 -0.11870738080E+04  0.19112727299E+04  0.10530171433E+04 0.  0.
        -13    1    3    3    0    0 -0.18888767971E+03 -0.54088302197E+02 -0.43475299578E+03  0.47708938207E+03  0.10566000000E+00 0.  1.
         13    1    1    2    0    0 -0.93994634962E+03  0.43385149060E+03 -0.30266622845E+03  0.10785792104E+04  0.10566000000E+00 0. -1.
          4    1    1    2  501    0 -0.27662030145E+02  0.11915423702E+02  0.10452347313E+03  0.10877647572E+03  0.00000000000E+00 0. -1.
          4    1    3    3  502    0  0.11564960595E+04 -0.39167861211E+03 -0.75232081220E+03  0.14341833478E+04  0.00000000000E+00 0.  1.
</event>
<event>
 6    1  0.9434649E-006  0.2991918E+03  0.7818608E-02  0.1007640E+00
          2   -1    0    0  501    0  0.00000000000E+00  0.00000000000E+00  0.13070266018E+04  0.13070266018E+04  0.00000000000E+00 0. -1.
         -4   -1    0    0    0  501 -0.00000000000E+00 -0.00000000000E+00 -0.46004964465E+02  0.46004964465E+02  0.00000000000E+00 0. -1.
        -13    1    1    2    0    0 -0.24667555061E+02 -0.30207344247E+02  0.17122443294E+02  0.42592970635E+02  0.10566000000E+00 0.  1.
         13    1    1    2    0    0  0.60421455381E+02  0.83746880286E+02  0.55863986221E+02  0.11740991589E+03  0.10566000000E+00 0. -1.
          2    1    1    2  502    0 -0.33167392261E+02  0.31746346966E+01  0.81662199633E+03  0.81730143711E+03  0.00000000000E+00 0. -1.
         -4    1    1    2    0  502 -0.25865080585E+01 -0.56714170736E+02  0.37141321151E+03  0.37572724265E+03  0.00000000000E+00 0. -1.
</event>
<event>
 7    1  0.9434649E-006  0.1088737E+04  0.7818608E-02  0.9074990E-01
          2   -1    0    0  502    0  0.00000000000E+00  0.00000000000E+00  0.29183858586E+04  0.29183858586E+04  0.00000000000E+00 0.  1.
          4   -1    0    0  501    0 -0.00000000000E+00 -0.00000000000E+00 -0.72060694181E+03  0.72060694181E+03  0.00000000000E+00 0.  1.
    9000010    2    1    2  502    0 -0.22021029760E+03 -0.33594306901E+03  0.49731399958E+03  0.12423381331E+04  0.10652382373E+04 0.  0.
        -13    1    3    3    0    0 -0.76984678647E+02  0.24123645675E+03  0.58853396729E+03  0.64069798706E+03  0.10566000000E+00 0.  1.
         13    1    1    2    0    0  0.79879552650E+02  0.20310635189E+03 -0.30878835888E+03  0.37813118736E+03  0.10566000000E+00 0. -1.
          2    1    1    2  501    0  0.14033074495E+03  0.13283671712E+03  0.20092532761E+04  0.20185234799E+04  0.00000000000E+00 0.  1.
          4    1    3    3  502    0 -0.14322561896E+03 -0.57717952575E+03 -0.91219967708E+02  0.60164014609E+03  0.00000000000E+00 0.  1.
</event>
<event>
 7    1  0.9434649E-006  0.9870336E+03  0.7818608E-02  0.9190110E-01
          4   -1    0    0  501    0 -0.00000000000E+00  0.00000000000E+00  0.67800968304E+03  0.67800968304E+03  0.00000000000E+00 0.  1.
          2   -1    0    0  502    0  0.00000000000E+00 -0.00000000000E+00 -0.15225697045E+04  0.15225697045E+04  0.00000000000E+00 0.  1.
    9000010    2    1    2  502    0 -0.59107582678E+02  0.17978053651E+03  0.20949717025E+03  0.10084951902E+04  0.96817288575E+03 0.  0.
        -13    1    3    3    0    0 -0.50641305962E+03  0.28945546375E+02  0.47669865504E+02  0.50947468912E+03  0.10566000000E+00 0.  1.
         13    1    1    2    0    0  0.11641776371E+03 -0.15711497063E+03 -0.72437200830E+02  0.20853145790E+03  0.10566000000E+00 0. -1.
          2    1    1    2  501    0 -0.57310181035E+02 -0.22665565877E+02 -0.98161999087E+03  0.98355273941E+03  0.00000000000E+00 0.  1.
          4    1    3    3  502    0  0.44730547694E+03  0.15083499013E+03  0.16182730475E+03  0.49902050110E+03  0.00000000000E+00 0.  1.
</event>
<event>
 6    1  0.9434649E-006  0.1227649E+04  0.7818608E-02  0.8586028E-01
          4   -1    0    0  501    0 -0.00000000000E+00  0.00000000000E+00  0.21512122006E+04  0.21512122006E+04  0.00000000000E+00 0.  1.
          2   -1    0    0  502    0  0.00000000000E+00 -0.00000000000E+00 -0.20217819447E+04  0.20217819447E+04  0.00000000000E+00 0. -1.
        -13    1    1    2    0    0  0.11826386545E+03  0.42402308161E+03  0.18096394089E+04  0.18624115327E+04  0.10566000000E+00 0.  1.
         13    1    1    2    0    0 -0.94770350985E+02 -0.33595411947E+03  0.69552771086E+02  0.35592722423E+03  0.10566000000E+00 0. -1.
          2    1    1    2  501    0  0.18292458311E+02 -0.64723870559E+02 -0.18459717186E+04  0.18471966271E+04  0.00000000000E+00 0. -1.
          4    1    1    2  502    0 -0.41785972776E+02 -0.23345091574E+02  0.96209794464E+02  0.10745876126E+03  0.00000000000E+00 0.  1.
</event>
<event>
 7    1  0.9434649E-006  0.1238282E+04  0.7818608E-02  0.8693429E-01
          2   -1    0    0  501    0  0.00000000000E+00  0.00000000000E+00  0.14877549292E+04  0.14877549292E+04  0.00000000000E+00 0.  1.
         -4   -1    0    0    0  501 -0.00000000000E+00 -0.00000000000E+00 -0.23925544228E+04  0.23925544228E+04  0.00000000000E+00 0. -1.
   -9000010    2    1    2    0  502  0.80428090492E+03 -0.33725763332E+03 -0.16635538655E+04  0.21223240967E+04  0.98804737880E+03 0.  0.
        -13    1    1    2    0    0 -0.49311871939E+03  0.41310932623E+03 -0.25715488638E+03  0.69278714883E+03  0.10566000000E+00 0.  1.
         13    1    3    3    0    0  0.77467580510E+03 -0.46083202904E+03 -0.17500943002E+04  0.19685829505E+04  0.10566000000E+00 0. -1.
          2    1    1    2  502    0 -0.31116218552E+03 -0.75851692907E+02  0.10159092583E+04  0.10651981065E+04  0.00000000000E+00 0.  1.
         -4    1    3    3    0  502  0.29605099820E+02  0.12357439572E+03  0.86540434708E+02  0.15374114625E+03  0.00000000000E+00 0. -1.
</event>
<event>
 7    1  0.9434649E-006  0.1098543E+04  0.7818608E-02  0.8916637E-01
         -4   -1    0    0    0  501 -0.00000000000E+00  0.00000000000E+00  0.37666529157E+03  0.37666529157E+03  0.00000000000E+00 0. -1.
          2   -1    0    0  501    0  0.00000000000E+00 -0.00000000000E+00 -0.19112889822E+04  0.19112889822E+04  0.00000000000E+00 0.  1.
   -9000010    2    1    2    0  502  0.93417504925E+02 -0.37402277234E+03 -0.98420538715E+03  0.14666539517E+04  0.10167564632E+04 0.  0.
        -13    1    1    2    0    0 -0.14443871552E+03  0.39948759979E+03 -0.20585033308E+03  0.47204581951E+03  0.10566000000E+00 0.  1.
         13    1    3    3    0    0 -0.49544231415E+02 -0.25421095865E+03 -0.11730019578E+04  0.12012541140E+04  0.10566000000E+00 0. -1.
          2    1    1    2  502    0  0.51021210596E+02 -0.25464827448E+02 -0.34456797041E+03  0.34925450262E+03  0.00000000000E+00 0.  1.
         -4    1    3    3    0  502  0.14296173634E+03 -0.11981181369E+03  0.18879657060E+03  0.26539983766E+03  0.00000000000E+00 0. -1.
</event>
<event>
 7    1  0.9434649E-006  0.1012911E+04  0.7818608E-02  0.9062312E-01
          1   -1    0    0  501    0  0.00000000000E+00  0.00000000000E+00  0.20946515666E+04  0.20946515666E+04  0.00000000000E+00 0. -1.
         -4   -1    0    0    0  501 -0.00000000000E+00 -0.00000000000E+00 -0.65637866377E+03  0.65637866377E+03  0.00000000000E+00 0. -1.
   -9000010    2    1    2    0  502 -0.31976148261E+03 -0.30611082981E+03  0.11151344909E+04  0.15424370583E+04  0.96934818311E+03 0.  0.
        -13    1    1    2    0    0  0.70264180242E+02  0.28206785155E+03 -0.37057626058E+03  0.47098418654E+03  0.10566000000E+00 0.  1.
         13    1    3    3    0    0  0.30989940276E+03 -0.67677740561E+02  0.11627182254E+03  0.33784177403E+03  0.10566000000E+00 0. -1.
          1    1    1    2  502    0  0.24949730237E+03  0.24042978255E+02  0.69371467254E+03  0.73760898557E+03  0.00000000000E+00 0. -1.
         -4    1    3    3    0  502 -0.62966088537E+03 -0.23843308925E+03  0.99886266834E+03  0.12045952842E+04  0.00000000000E+00 0. -1.
</event>
<event>
 7    1  0.9434649E-006  0.1079358E+04  0.7818608E-02  0.9163789E-01
         -4   -1    0    0    0  501 -0.00000000000E+00  0.00000000000E+00  0.26827048783E+04  0.26827048783E+04  0.00000000000E+00 0. -1.
          2   -1    0    0  501    0  0.00000000000E+00 -0.00000000000E+00 -0.32589481985E+03  0.32589481985E+03  0.00000000000E+00 0. -1.
   -9000010    2    1    2    0  502 -0.29181458018E+03  0.14663054606E+03  0.83294716596E+03  0.13398344705E+04  0.99734605865E+03 0.  0.
        -13    1    1    2    0    0 -0.14683220439E+03  0.70079033572E+02  0.61986469784E+03  0.64086115656E+03  0.10566000000E+00 0.  1.
         13    1    3    3    0    0 -0.12177183645E+03 -0.29230144404E+03  0.80870921972E+03  0.86849244532E+03  0.10566000000E+00 0. -1.
          2    1    1    2  502    0  0.43864678458E+03 -0.21670957963E+03  0.90399819461E+03  0.10279040711E+04  0.00000000000E+00 0. -1.
         -4    1    3    3    0  502 -0.17004274373E+03  0.43893199010E+03  0.24237946240E+02  0.47134202515E+03  0.00000000000E+00 0. -1.
</event>
<event>
 7    1  0.9434649E-006  0.1190031E+04  0.7818608E-02  0.8772156E-01
          4   -1    0    0  501    0  0.00000000000E+00  0.00000000000E+00  0.82419629045E+03  0.82419629045E+03  0.00000000000E+00 0.  1.
         -4   -1    0    0    0  501 -0.00000000000E+00 -0.00000000000E+00 -0.23806313208E+04  0.23806313208E+04  0.00000000000E+00 0. -1.
   -9000010    2    1    2    0  502 -0.40564086344E+03  0.35326763651E+03 -0.17663566493E+04  0.21133068735E+04  0.10279628379E+04 0.  0.
        -13    1    1    2    0    0  0.65642078627E+03 -0.44199778793E+03  0.23179537552E+03  0.82460863473E+03  0.10566000000E+00 0.  1.
         13    1    3    3    0    0 -0.35793715747E+03  0.59222301810E+03 -0.17346518140E+04  0.18675824048E+04  0.10566000000E+00 0. -1.
          4    1    1    2  502    0 -0.25077992283E+03  0.88730151424E+02 -0.21873756526E+02  0.26691210293E+03  0.00000000000E+00 0.  1.
         -4    1    3    3    0  502 -0.47703705968E+02 -0.23895538159E+03 -0.31704835332E+02  0.24572446874E+03  0.00000000000E+00 0. -1.
</event>
<event>
 7    1  0.9434649E-006  0.8454822E+03  0.7818608E-02  0.9282907E-01
         -4   -1    0    0    0  501 -0.00000000000E+00  0.00000000000E+00  0.21065642682E+04  0.21065642682E+04  0.00000000000E+00 0. -1.
          2   -1    0    0  501    0  0.00000000000E+00 -0.00000000000E+00 -0.61377608351E+03  0.61377608351E+03  0.00000000000E+00 0. -1.
   -9000010    2    1    2    0  502  0.18150605920E+03  0.47607270317E+03  0.16530628672E+04  0.18968130453E+04  0.77826294900E+03 0.  0.
        -13    1    1    2    0    0 -0.14985772282E+03 -0.15259910131E+03  0.23104018115E+03  0.31483868771E+03  0.10566000000E+00 0.  1.
         13    1    3    3    0    0 -0.10765934080E+03 -0.13473350462E+03  0.91372269590E+02  0.19517313786E+03  0.10566000000E+00 0. -1.
          2    1    1    2  502    0 -0.31648336375E+02 -0.32347360185E+03 -0.39131486363E+03  0.50868861869E+03  0.00000000000E+00 0. -1.
         -4    1    3    3    0  502  0.28916540000E+03  0.61080620778E+03  0.15616905976E+04  0.17016399074E+04  0.00000000000E+00 0. -1.
</event>
<event>
 6    1  0.9434649E-006  0.6168280E+03  0.7818608E-02  0.9253240E-01
          2   -1    0    0  502    0  0.00000000000E+00  0.00000000000E+00  0.48518020623E+03  0.48518020623E+03  0.00000000000E+00 0.  1.
          4   -1    0    0  501    0 -0.00000000000E+00 -0.00000000000E+00 -0.25643405854E+03  0.25643405854E+03  0.00000000000E+00 0.  1.
        -13    1    1    2    0    0  0.22335850708E+03 -0.20123562043E+03  0.74248485829E+02  0.30967345128E+03  0.10566000000E+00 0.  1.
         13    1    1    2    0    0 -0.12186147033E+03  0.12871928712E+03  0.63146808809E+02  0.18816589344E+03  0.10566000000E+00 0. -1.
          2    1    1    2  501    0  0.12089849477E+02  0.13268058714E+02  0.11250632357E+03  0.11392927054E+03  0.00000000000E+00 0.  1.
          4    1    1    2  502    0 -0.11358688623E+03  0.59248274593E+02 -0.21155470523E+02  0.12984564951E+03  0.00000000000E+00 0.  1.
</event>
<event>
 7    1  0.9434649E-006  0.1068803E+04  0.7818608E-02  0.8945775E-01
          2   -1    0    0  502    0  0.00000000000E+00  0.00000000000E+00  0.17627184158E+04  0.17627184158E+04  0.00000000000E+00 0.  1.
          4   -1    0    0  501    0 -0.00000000000E+00 -0.00000000000E+00 -0.19517840420E+04  0.19517840420E+04  0.00000000000E+00 0.  1.
    9000010    2    1    2  502    0 -0.33926532166E+03 -0.24188244036E+03 -0.12788545438E+04  0.16705962083E+04  0.99086561833E+03 0.  0.
        -13    1    3    3    0    0  0.32599140928E+03 -0.38906027592E+02 -0.67045174399E+03  0.74651833875E+03  0.10566000000E+00 0.  1.
         13    1    1    2    0    0  0.31948089947E+03  0.23059546335E+03 -0.39560256223E+03  0.55834013939E+03  0.10566000000E+00 0. -1.
          2    1    1    2  501    0  0.19784422188E+02  0.11286977001E+02  0.14853914798E+04  0.14855661101E+04  0.00000000000E+00 0.  1.
          4    1    3    3  502    0 -0.66525673093E+03 -0.20297641276E+03 -0.60840279981E+03  0.92407786956E+03  0.00000000000E+00 0.  1.
</event>
<event>
 7    1  0.9434649E-006  0.1044415E+04  0.7818608E-02  0.9057432E-01
          2   -1    0    0  502    0  0.00000000000E+00  0.00000000000E+00  0.21226389737E+04  0.21226389737E+04  0.00000000000E+00 0.  1.
          4   -1    0    0  501    0 -0.00000000000E+00 -0.00000000000E+00 -0.43766804362E+03  0.43766804362E+03  0.00000000000E+00 0.  1.
    9000010    2    1    2  502    0 -0.17271036820E+03  0.22019645690E+03  0.97591612193E+03  0.14306705293E+04  0.10080131623E+04 0.  0.
        -13    1    3    3    0    0 -0.15080407731E+02  0.60312078795E+03  0.41004213831E+03  0.72946327523E+03  0.10566000000E+00 0.  1.
         13    1    1    2    0    0  0.17680850690E+03 -0.20784012409E+03 -0.12169956535E+03  0.29878012093E+03  0.10566000000E+00 0. -1.
          2    1    1    2  501    0 -0.40981386969E+01 -0.12356332805E+02  0.83075437354E+03  0.83085636716E+03  0.00000000000E+00 0.  1.
          4    1    3    3  502    0 -0.15762996047E+03 -0.38292433106E+03  0.56587398361E+03  0.70120725402E+03  0.00000000000E+00 0.  1.
</event>
<event>
 7    1  0.9434649E-006  0.9599125E+03  0.7818608E-02  0.9358676E-01
          1   -1    0    0  501    0  0.00000000000E+00  0.00000000000E+00  0.44361424800E+03  0.44361424800E+03  0.00000000000E+00 0. -1.
         -4   -1    0    0    0  501 -0.00000000000E+00 -0.00000000000E+00 -0.20644889706E+04  0.20644889706E+04  0.00000000000E+00 0. -1.
   -9000010    2    1    2    0  502  0.92301389416E+02  0.47041257652E+02 -0.12493389117E+04  0.15751043961E+04  0.95361088284E+03 0.  0.
        -13    1    1    2    0    0 -0.87588371620E+02 -0.66600238298E+02 -0.64725771203E+03  0.65654388394E+03  0.10566000000E+00 0.  1.
         13    1    3    3    0    0  0.67952893818E+02  0.45669047827E+03 -0.32757465217E+03  0.56611743713E+03  0.10566000000E+00 0. -1.
          1    1    1    2  502    0 -0.47130177964E+01  0.19558980646E+02  0.27572190117E+03  0.27645493854E+03  0.00000000000E+00 0. -1.
         -4    1    3    3    0  502  0.24348495599E+02 -0.40964922061E+03 -0.92176425952E+03  0.10089869589E+04  0.00000000000E+00 0. -1.
</event>
<event>
 7    1  0.9434649E-006  0.9470072E+03  0.7818608E-02  0.8960960E-01
          4   -1    0    0  501    0 -0.00000000000E+00  0.00000000000E+00  0.65487482670E+03  0.65487482670E+03  0.00000000000E+00 0.  1.
          2   -1    0    0  502    0  0.00000000000E+00 -0.00000000000E+00 -0.27906140567E+04  0.27906140567E+04  0.00000000000E+00 0. -1.
    9000010    2    1    2  502    0 -0.57202623188E+02  0.63487001774E+03 -0.52949077852E+03  0.11360083535E+04  0.77706011032E+03 0.  0.
        -13    1    3    3    0    0  0.38578095613E+02  0.78287760266E+03 -0.55141453696E+03  0.95835463840E+03  0.10566000000E+00 0.  1.
         13    1    1    2    0    0  0.20840094931E+03 -0.48108179371E+03  0.14582517331E+03  0.54418346193E+03  0.10566000000E+00 0. -1.
          2    1    1    2  501    0 -0.15119832612E+03 -0.15378822404E+03 -0.17520736248E+04  0.17652970680E+04  0.00000000000E+00 0. -1.
          4    1    3    3  502    0 -0.95780718801E+02 -0.14800758492E+03  0.21923758444E+02  0.17765371505E+03  0.00000000000E+00 0.  1.
</event>
<event>
 7    1  0.9434649E-006  0.1414214E+04  0.7818608E-02  0.8534020E-01
          2   -1    0    0  502    0  0.00000000000E+00  0.00000000000E+00  0.12851775405E+04  0.12851775405E+04  0.00000000000E+00 0. -1.
          4   -1    0    0  501    0 -0.00000000000E+00 -0.00000000000E+00 -0.18662963244E+04  0.18662963244E+04  0.00000000000E+00 0.  1.
    9000010    2    1    2  502    0 -0.14212823638E+02  0.10400584110E+04 -0.21649168954E+03  0.14496841271E+04  0.98630214130E+03 0.  0.
        -13    1    3    3    0    0  0.38588033500E+03  0.94548119272E+03 -0.18013004143E+03  0.10369595757E+04  0.10566000000E+00 0.  1.
         13    1    1    2    0    0  0.31560099991E+02 -0.10025343680E+04 -0.78853203258E+03  0.12758738090E+04  0.10566000000E+00 0. -1.
          2    1    1    2  501    0 -0.17347276353E+02 -0.37524043033E+02  0.42390493821E+03  0.42591592885E+03  0.00000000000E+00 0. -1.
          4    1    3    3  502    0 -0.40009315863E+03  0.94577218283E+02 -0.36361648117E+02  0.41272455131E+03  0.00000000000E+00 0.  1.
</event>
<event>
 7    1  0.9434649E-006  0.1441143E+04  0.7818608E-02  0.8895904E-01
          2   -1    0    0  501    0  0.00000000000E+00  0.00000000000E+00  0.18650792278E+04  0.18650792278E+04  0.00000000000E+00 0. -1.
         -4   -1    0    0    0  501 -0.00000000000E+00 -0.00000000000E+00 -0.18660328693E+04  0.18660328693E+04  0.00000000000E+00 0. -1.
   -9000010    2    1    2    0  502 -0.85652511761E+03  0.75734642015E+03 -0.34365893664E+03  0.15559155135E+04  0.99777890499E+03 0.  0.
        -13    1    1    2    0    0  0.26501487633E+01 -0.20069753416E+03 -0.69333750676E+03  0.72180567534E+03  0.10566000000E+00 0.  1.
         13    1    3    3    0    0 -0.37418907122E+03  0.42282255888E+03 -0.67647249543E+03  0.88114211427E+03  0.10566000000E+00 0. -1.
          2    1    1    2  502    0  0.85387496885E+03 -0.55664888600E+03  0.10360428019E+04  0.14533909082E+04  0.00000000000E+00 0. -1.
         -4    1    3    3    0  502 -0.48233604639E+03  0.33452386128E+03  0.33281355878E+03  0.67477339924E+03  0.00000000000E+00 0. -1.
</event>
<event>
 7    1  0.9434649E-006  0.1084236E+04  0.7818608E-02  0.8919578E-01
          4   -1    0    0  501    0 -0.00000000000E+00  0.00000000000E+00  0.44922532848E+03  0.44922532848E+03  0.00000000000E+00 0.  1.
          2   -1    0    0  502    0  0.00000000000E+00 -0.00000000000E+00 -0.21126397209E+04  0.21126397209E+04  0.00000000000E+00 0.  1.
    9000010    2    1    2  502    0 -0.16789304862E+03  0.12942866896E+03 -0.76108277651E+03  0.12716437612E+04  0.99643916348E+03 0.  0.
        -13    1    3    3    0    0  0.27452393623E+03  0.38911273068E+03 -0.21530638113E+03  0.52261741041E+03  0.10566000000E+00 0.  1.
         13    1    1    2    0    0  0.45800737877E+03 -0.24430132814E+03 -0.27003850069E+03  0.58512793555E+03  0.10566000000E+00 0. -1.
          2    1    1    2  501    0 -0.29011433015E+03  0.11487265918E+03 -0.63229311522E+03  0.70509335264E+03  0.00000000000E+00 0.  1.
          4    1    3    3  502    0 -0.44241698485E+03 -0.25968406172E+03 -0.54577639537E+03  0.74902635077E+03  0.00000000000E+00 0.  1.
</event>
<event>
 7    1  0.9434649E-006  0.1101385E+04  0.7818608E-02  0.8926771E-01
          4   -1    0    0  501    0 -0.00000000000E+00  0.00000000000E+00  0.42534628519E+03  0.42534628519E+03  0.00000000000E+00 0.  1.
          2   -1    0    0  502    0  0.00000000000E+00 -0.00000000000E+00 -0.14922674825E+04  0.14922674825E+04  0.00000000000E+00 0.  1.
    9000010    2    1    2  502    0 -0.20716379215E+03 -0.32178859592E+03 -0.69424169360E+03  0.12979931665E+04  0.10277888858E+04 0.  0.
        -13    1    3    3    0    0  0.12269103562E+03 -0.50648503970E+03 -0.75265685404E+03  0.91546301769E+03  0.10566000000E+00 0.  1.
         13    1    1    2    0    0  0.24766047212E+03  0.31495164802E+03 -0.21103872950E+03  0.45284390970E+03  0.10566000000E+00 0. -1.
          2    1    1    2  501    0 -0.40496679966E+02  0.68369478961E+01 -0.16164077418E+03  0.16677669148E+03  0.00000000000E+00 0.  1.
          4    1    3    3  502    0 -0.32985482777E+03  0.18469644378E+03  0.58415160439E+02  0.38253014877E+03  0.00000000000E+00 0.  1.
</event>
<event>
 7    1  0.9434649E-006  0.1070384E+04  0.7818608E-02  0.8936163E-01
          2   -1    0    0  502    0  0.00000000000E+00  0.00000000000E+00  0.62657827289E+03  0.62657827289E+03  0.00000000000E+00 0.  1.
          4   -1    0    0  501    0 -0.00000000000E+00 -0.00000000000E+00 -0.10167713223E+04  0.10167713223E+04  0.00000000000E+00 0.  1.
    9000010    2    1    2  502    0 -0.12316040584E+03  0.37835094805E+03 -0.21022056258E+03  0.10844685334E+04  0.98669214524E+03 0.  0.
        -13    1    3    3    0    0 -0.54689564557E+03  0.10026779988E+03 -0.13404415272E+03  0.57194084036E+03  0.10566000000E+00 0.  1.
         13    1    1    2    0    0  0.12628957518E+03 -0.40013325823E+03 -0.24798755754E+03  0.48739462554E+03  0.10566000000E+00 0. -1.
          2    1    1    2  501    0 -0.31291693432E+01  0.21782310180E+02  0.68015070682E+02  0.71486436318E+02  0.00000000000E+00 0.  1.
          4    1    3    3  502    0  0.42373523973E+03  0.27808314817E+03 -0.76176409863E+02  0.51252769301E+03  0.00000000000E+00 0.  1.
</event>
<event>
 6    1  0.9434649E-006  0.1000846E+04  0.7818608E-02  0.8773797E-01
          4   -1    0    0  501    0 -0.00000000000E+00  0.00000000000E+00  0.33482545219E+04  0.33482545219E+04  0.00000000000E+00 0.  1.
          2   -1    0    0  502    0  0.00000000000E+00 -0.00000000000E+00 -0.13379546956E+03  0.13379546956E+03  0.00000000000E+00 0.  1.
        -13    1    1    2    0    0 -0.19508325468E+03  0.36277229600E+03  0.12857940611E+04  0.13501583587E+04  0.10566000000E+00 0.  1.
         13    1    1    2    0    0  0.23769865805E+03 -0.24822291121E+03  0.18239011657E+04  0.18559985827E+04  0.10566000000E+00 0. -1.
          2    1    1    2  501    0  0.26068399997E+02  0.88060577865E+01 -0.55719631864E+02  0.62143265985E+02  0.00000000000E+00 0.  1.
          4    1    1    2  502    0 -0.68683803366E+02 -0.12335544258E+03  0.16048345747E+03  0.21374978405E+03  0.00000000000E+00 0.  1.
</event>
<event>
 7    1  0.9434649E-006  0.1037473E+04  0.7818608E-02  0.9083419E-01
          4   -1    0    0  502    0  0.00000000000E+00  0.00000000000E+00  0.17654991197E+04  0.17654991197E+04  0.00000000000E+00 0. -1.
          4   -1    0    0  501    0 -0.00000000000E+00 -0.00000000000E+00 -0.93703756386E+03  0.93703756386E+03  0.00000000000E+00 0.  1.
    9000010    2    1    2  502    0  0.75920986571E+02 -0.12786442205E+03 -0.26161280445E+03  0.10505646493E+04  0.10065443440E+04 0.  0.
        -13    1    3    3    0    0 -0.93261369179E+02  0.70159516842E+02 -0.60692351608E+03  0.61804223668E+03  0.10566000000E+00 0.  1.
         13    1    1    2    0    0 -0.28362696232E+03  0.37185086532E+00 -0.19486956866E+03  0.34411996743E+03  0.10566000000E+00 0. -1.
          4    1    1    2  501    0  0.20770597575E+03  0.12749257119E+03  0.12849439289E+04  0.13078520667E+04  0.00000000000E+00 0. -1.
          4    1    3    3  502    0  0.16918235575E+03 -0.19802393890E+03  0.34531071164E+03  0.43252241265E+03  0.00000000000E+00 0.  1.
</event>
<event>
 7    1  0.9434649E-006  0.8958583E+03  0.7818608E-02  0.9151591E-01
          2   -1    0    0  501    0  0.00000000000E+00  0.00000000000E+00  0.65994942951E+03  0.65994942951E+03  0.00000000000E+00 0.  1.
         -4   -1    0    0    0  501 -0.00000000000E+00 -0.00000000000E+00 -0.21696305877E+04  0.21696305877E+04  0.00000000000E+00 0. -1.
   -9000010    2    1    2    0  502  0.12368828971E+02 -0.36514852093E+03 -0.39131755239E+03  0.10000521269E+04  0.84468242518E+03 0.  0.
        -13    1    1    2    0    0  0.20147524056E+03  0.22234756055E+03 -0.14095055345E+04  0.14410886763E+04  0.10566000000E+00 0.  1.
         13    1    3    3    0    0  0.10260825725E+03  0.21462979946E+03 -0.33461112528E+03  0.41055940082E+03  0.10566000000E+00 0. -1.
          2    1    1    2  502    0 -0.21384406953E+03  0.14280096038E+03  0.29114192865E+03  0.38843921400E+03  0.00000000000E+00 0.  1.
         -4    1    3    3    0  502 -0.90239428283E+02 -0.57977832039E+03 -0.56706427110E+02  0.58949272607E+03  0.00000000000E+00 0. -1.
</event>
<event>
 7    1  0.9434649E-006  0.1026246E+04  0.7818608E-02  0.9225335E-01
         -4   -1    0    0    0  501 -0.00000000000E+00  0.00000000000E+00  0.10715739048E+04  0.10715739048E+04  0.00000000000E+00 0. -1.
          2   -1    0    0  501    0  0.00000000000E+00 -0.00000000000E+00 -0.10503582606E+04  0.10503582606E+04  0.00000000000E+00 0.  1.
   -9000010    2    1    2    0  502  0.11110144244E+03 -0.67140599531E+02  0.48869912804E+03  0.11342972108E+04  0.10153580324E+04 0.  0.
        -13    1    1    2    0    0 -0.13519893855E+03  0.65945116977E+02  0.23810138599E+03  0.28163769743E+03  0.10566000000E+00 0.  1.
         13    1    3    3    0    0  0.54392983812E+03  0.78713474391E+02  0.16278517168E+03  0.57319674034E+03  0.10566000000E+00 0. -1.
          2    1    1    2  502    0  0.24097496116E+02  0.11954825535E+01 -0.70558486984E+03  0.70599725711E+03  0.00000000000E+00 0.  1.
         -4    1    3    3    0  502 -0.43282839568E+03 -0.14585407392E+03  0.32591395635E+03  0.56110047045E+03  0.00000000000E+00 0. -1.
</event>
<event>
 7    1  0.9434649E-006  0.1030181E+04  0.7818608E-02  0.9082517E-01
         -4   -1    0    0    0  501 -0.00000000000E+00  0.00000000000E+00  0.16075582683E+04  0.16075582683E+04  0.00000000000E+00 0. -1.
          2   -1    0    0  501    0  0.00000000000E+00 -0.00000000000E+00 -0.46130313971E+03  0.46130313971E+03  0.00000000000E+00 0.  1.
   -9000010    2    1    2    0  502  0.24559025113E+03  0.49397235186E+02  0.12627837314E+04  0.16285646294E+04  0.99741934086E+03 0.  0.
        -13    1    1    2    0    0 -0.25602624516E+03 -0.55323560330E+02  0.55582518872E+02  0.26776773910E+03  0.10566000000E+00 0.  1.
         13    1    3    3    0    0  0.40552005645E+03  0.87565352977E+02  0.65453947526E+02  0.41999814004E+03  0.10566000000E+00 0. -1.
          2    1    1    2  502    0  0.10435994029E+02  0.59263251445E+01 -0.17211112164E+03  0.17252903956E+03  0.00000000000E+00 0.  1.
         -4    1    3    3    0  502 -0.15992980533E+03 -0.38168117791E+02  0.11973297838E+04  0.12085664893E+04  0.00000000000E+00 0. -1.
</event>
<event>
 7    1  0.9434649E-006  0.1157658E+04  0.7818608E-02  0.8805263E-01
          2   -1    0    0  502    0  0.00000000000E+00  0.00000000000E+00  0.17801756334E+04  0.17801756334E+04  0.00000000000E+00 0. -1.
          4   -1    0    0  501    0 -0.00000000000E+00 -0.00000000000E+00 -0.65154485536E+03  0.65154485536E+03  0.00000000000E+00 0.  1.
    9000010    2    1    2  502    0 -0.10695782333E+03 -0.56259769590E+03 -0.40142407777E+01  0.11609899745E+04  0.10099135921E+04 0.  0.
        -13    1    3    3    0    0 -0.48587504649E+03 -0.22658711648E+03 -0.25739578626E+03  0.59470066765E+03  0.10566000000E+00 0.  1.
         13    1    1    2    0    0  0.10650412482E+03  0.54233065249E+03  0.10616598707E+04  0.11969074139E+04  0.10566000000E+00 0. -1.
          2    1    1    2  501    0  0.45369851195E+00  0.20267043412E+02  0.70985148120E+02  0.73823100345E+02  0.00000000000E+00 0. -1.
          4    1    3    3  502    0  0.37891722316E+03 -0.33601057942E+03  0.25338154548E+03  0.56628930687E+03  0.00000000000E+00 0.  1.
</event>
<event>
 6    1  0.1538443E-005  0.5566965E+03  0.7818608E-02  0.9361671E-01
          2   -1    0    0  502    0  0.00000000000E+00  0.00000000000E+00  0.52629638710E+03  0.52629638710E+03  0.00000000000E+00 0. -1.
          4   -1    0    0  501    0 -0.00000000000E+00 -0.00000000000E+00 -0.64018209435E+03  0.64018209435E+03  0.00000000000E+00 0.  1.
        -13    1    1    2    0    0  0.16936663470E+03 -0.77391826143E+02 -0.52699285933E+03  0.55892399899E+03  0.10566000000E+00 0.  1.
         13    1    1    2    0    0 -0.16369342863E+03  0.75740440661E+02  0.16488595377E+02  0.18111885013E+03  0.10566000000E+00 0. -1.
          2    1    1    2  501    0 -0.18428792717E+02  0.15975371719E+02  0.40483543069E+03  0.40556942543E+03  0.00000000000E+00 0. -1.
          4    1    1    2  502    0  0.12755586655E+02 -0.14323986237E+02 -0.82168739811E+01  0.20866206906E+02  0.00000000000E+00 0.  1.
</event>
<event>
 6    1  0.9434649E-006  0.2289039E+03  0.7818608E-02  0.1041945E+00
          2   -1    0    0  502    0  0.00000000000E+00  0.00000000000E+00  0.95435221920E+03  0.95435221920E+03  0.00000000000E+00 0.  1.
          4   -1    0    0  501    0 -0.00000000000E+00 -0.00000000000E+00 -0.47842638457E+02  0.47842638457E+02  0.00000000000E+00 0.  1.
        -13    1    1    2    0    0 -0.57365588057E+02 -0.21173016924E+02  0.40051641865E+02  0.73097554808E+02  0.10566000000E+00 0.  1.
         13    1    1    2    0    0  0.48273738737E+02  0.49989591818E+02  0.64896686774E+02  0.95083669786E+02  0.10566000000E+00 0. -1.
          2    1    1    2  501    0  0.90056113849E+01 -0.11558243599E+03  0.64203500762E+03  0.65241808034E+03  0.00000000000E+00 0.  1.
          4    1    1    2  502    0  0.86237934709E-01  0.86765861098E+02  0.15952624448E+03  0.18159555272E+03  0.00000000000E+00 0.  1.
</event>
<event>
 6    1  0.9434649E-006  0.5792478E+03  0.7818608E-02  0.9319383E-01
          2   -1    0    0  502    0  0.00000000000E+00  0.00000000000E+00  0.14526579871E+04  0.14526579871E+04  0.00000000000E+00 0. -1.
          4   -1    0    0  501    0 -0.00000000000E+00 -0.00000000000E+00 -0.14629230125E+03  0.14629230125E+03  0.00000000000E+00 0.  1.
        -13    1    1    2    0    0 -0.61033397541E+01 -0.26191528509E+03  0.68543286502E+02  0.27080446933E+03  0.10566000000E+00 0.  1.
         13    1    1    2    0    0 -0.21914678374E+02  0.16874791752E+03  0.22291612742E+03  0.28044201508E+03  0.10566000000E+00 0. -1.
          2    1    1    2  501    0 -0.26835277151E+02  0.10217984944E+02  0.87811573346E+03  0.87858510155E+03  0.00000000000E+00 0. -1.
          4    1    1    2  502    0  0.54853295279E+02  0.82949382627E+02  0.13679053843E+03  0.16911870235E+03  0.00000000000E+00 0.  1.
</event>
<event>
 7    1  0.9434649E-006  0.9390358E+03  0.7818608E-02  0.9022024E-01
          4   -1    0    0  501    0 -0.00000000000E+00  0.00000000000E+00  0.73303842301E+03  0.73303842301E+03  0.00000000000E+00 0.  1.
          2   -1    0    0  502    0  0.00000000000E+00 -0.00000000000E+00 -0.89257405595E+03  0.89257405595E+03  0.00000000000E+00 0.  1.
    9000010    2    1    2  502    0 -0.35906530647E+03  0.24018121699E+03 -0.12780369174E+03  0.94702986511E+03  0.83301672882E+03 0.  0.
        -13    1    3    3    0    0 -0.34730053204E+03  0.19416830308E+03  0.31140281259E+03  0.50526301302E+03  0.10566000000E+00 0.  1.
         13    1    1    2    0    0  0.32604750533E+03 -0.28744988981E+03  0.17154067456E+03  0.46729073292E+03  0.10566000000E+00 0. -1.
          2    1    1    2  501    0  0.33017801137E+02  0.47268672817E+02 -0.20327261577E+03  0.21129188092E+03  0.00000000000E+00 0.  1.
          4    1    3    3  502    0 -0.11764774427E+02  0.46012913910E+02 -0.43920650433E+03  0.44176685209E+03  0.00000000000E+00 0.  1.
</event>
<event>
 7    1  0.9434649E-006  0.1065173E+04  0.7818608E-02  0.8969895E-01
         -4   -1    0    0    0  501 -0.00000000000E+00  0.00000000000E+00  0.93834674630E+03  0.93834674630E+03  0.00000000000E+00 0. -1.
          2   -1    0    0  501    0  0.00000000000E+00 -0.00000000000E+00 -0.13895105735E+04  0.13895105735E+04  0.00000000000E+00 0. -1.
   -9000010    2    1    2    0  502  0.23929631331E+03 -0.21782735202E+03  0.19552528180E+03  0.10691146642E+04  0.10000322737E+04 0.  0.
        -13    1    1    2    0    0 -0.30682892266E+03  0.22225651353E+03  0.18686485288E+03  0.42244577166E+03  0.10566000000E+00 0.  1.
         13    1    3    3    0    0  0.20702295465E+03  0.16675779143E+02 -0.38761994466E+03  0.43975654404E+03  0.10566000000E+00 0. -1.
          2    1    1    2  502    0  0.67532609349E+02 -0.44291615043E+01 -0.83355396183E+03  0.83629688394E+03  0.00000000000E+00 0. -1.
         -4    1    3    3    0  502  0.32273358658E+02 -0.23450313117E+03  0.58314522646E+03  0.62935812011E+03  0.00000000000E+00 0. -1.
</event>
<event>
 7    1  0.9434649E-006  0.1091668E+04  0.7818608E-02  0.8922080E-01
          2   -1    0    0  501    0  0.00000000000E+00  0.00000000000E+00  0.18244991960E+04  0.18244991960E+04  0.00000000000E+00 0.  1.
         -4   -1    0    0    0  501 -0.00000000000E+00 -0.00000000000E+00 -0.17133926739E+04  0.17133926739E+04  0.00000000000E+00 0. -1.
   -9000010    2    1    2    0  502  0.42937574185E+02 -0.39551496094E+03 -0.33418650810E+03  0.11357521312E+04  0.10099388901E+04 0.  0.
        -13    1    1    2    0    0 -0.28658033365E+02  0.41532090250E+03 -0.93402673505E+03  0.10226038763E+04  0.10566000000E+00 0.  1.
         13    1    3    3    0    0  0.21918782959E+03  0.25342941084E+03 -0.31973830038E+03  0.46314399792E+03  0.10566000000E+00 0. -1.
          2    1    1    2  502    0 -0.14279540820E+02 -0.19805941566E+02  0.13793197653E+04  0.13795358624E+04  0.00000000000E+00 0.  1.
         -4    1    3    3    0  502 -0.17625025541E+03 -0.64894437178E+03 -0.14448207723E+02  0.67260813324E+03  0.00000000000E+00 0. -1.
</event>
<event>
 7    1  0.9434649E-006  0.1076437E+04  0.7818608E-02  0.8952156E-01
          4   -1    0    0  501    0 -0.00000000000E+00  0.00000000000E+00  0.25773247489E+04  0.25773247489E+04  0.00000000000E+00 0.  1.
          2   -1    0    0  502    0  0.00000000000E+00 -0.00000000000E+00 -0.43348658359E+03  0.43348658359E+03  0.00000000000E+00 0.  1.
    9000010    2    1    2  502    0 -0.25056823733E+03  0.29573115940E+03  0.12103317938E+04  0.16210728102E+04  0.10063461853E+04 0.  0.
        -13    1    3    3    0    0  0.25104695945E+03 -0.12234119315E+03  0.41683522919E+02  0.28236407462E+03  0.10566000000E+00 0.  1.
         13    1    1    2    0    0  0.23966545932E+03 -0.29650093996E+03  0.11301844416E+04  0.11927569840E+04  0.10566000000E+00 0. -1.
          2    1    1    2  501    0  0.10902778010E+02  0.76978056166E+00 -0.19667807013E+03  0.19698153823E+03  0.00000000000E+00 0.  1.
          4    1    3    3  502    0 -0.50161519678E+03  0.41807235255E+03  0.11686482709E+04  0.13387087356E+04  0.00000000000E+00 0.  1.
</event>
<event>
 7    1  0.9434649E-006  0.1142526E+04  0.7818608E-02  0.8823345E-01
         -4   -1    0    0    0  501 -0.00000000000E+00  0.00000000000E+00  0.15082132212E+04  0.15082132212E+04  0.00000000000E+00 0. -1.
          1   -1    0    0  501    0  0.00000000000E+00 -0.00000000000E+00 -0.12570955588E+04  0.12570955588E+04  0.00000000000E+00 0. -1.
   -9000010    2    1    2    0  502 -0.30951256342E+03 -0.43104448072E+03  0.71809944102E+02  0.11378125060E+04  0.10039239312E+04 0.  0.
        -13    1    1    2    0    0  0.30774284056E+03  0.45314601996E+03  0.82016012724E+03  0.98626042037E+03  0.10566000000E+00 0.  1.
         13    1    3    3    0    0 -0.19673919061E+03 -0.48810623349E+03  0.47890434845E+03  0.71154999151E+03  0.10566000000E+00 0. -1.
          1    1    1    2  502    0  0.17697228672E+01 -0.22101539231E+02 -0.64085240888E+03  0.64123585358E+03  0.00000000000E+00 0. -1.
         -4    1    3    3    0  502 -0.11277337281E+03  0.57061752763E+02 -0.40709440435E+03  0.42626251453E+03  0.00000000000E+00 0. -1.
</event>
<event>
 7    1  0.9434649E-006  0.1083776E+04  0.7818608E-02  0.8871076E-01
          4   -1    0    0  501    0 -0.00000000000E+00  0.00000000000E+00  0.11616501559E+04  0.11616501559E+04  0.00000000000E+00 0.  1.
          2   -1    0    0  502    0  0.00000000000E+00 -0.00000000000E+00 -0.12850331903E+04  0.12850331903E+04  0.00000000000E+00 0.  1.
    9000010    2    1    2  502    0 -0.19055957432E+03 -0.49110880542E+03  0.50164875925E+03  0.11958105733E+04  0.94911044643E+03 0.  0.
        -13    1    3    3    0    0 -0.22721769537E+03  0.10433377038E+02 -0.21985760775E+03  0.31634493088E+03  0.10566000000E+00 0.  1.
         13    1    1    2    0    0  0.22831628106E+03  0.46906396949E+03  0.94367785426E+02  0.53014584952E+03  0.10566000000E+00 0. -1.
          2    1    1    2  501    0 -0.37756706741E+02  0.22044835936E+02 -0.71939957902E+03  0.72072692332E+03  0.00000000000E+00 0.  1.
          4    1    3    3  502    0  0.36658121048E+02 -0.50154218246E+03  0.72150636701E+03  0.87946564246E+03  0.00000000000E+00 0.  1.
</event>
<event>
 7    1  0.9434649E-006  0.1012335E+04  0.7818608E-02  0.9371834E-01
          2   -1    0    0  501    0  0.00000000000E+00  0.00000000000E+00  0.11811535597E+04  0.11811535597E+04  0.00000000000E+00 0.  1.
         -4   -1    0    0    0  501 -0.00000000000E+00 -0.00000000000E+00 -0.11943225213E+04  0.11943225213E+04  0.00000000000E+00 0. -1.
   -9000010    2    1    2    0  502  0.88898945947E+02  0.12912541754E+03 -0.46461155513E+03  0.11198824193E+04  0.10068248805E+04 0.  0.
        -13    1    1    2    0    0 -0.85892721280E+02 -0.23798783696E+02 -0.39382454245E+03  0.40378425313E+03  0.10566000000E+00 0.  1.
         13    1    3    3    0    0  0.24868936472E+03  0.50628360850E+03 -0.42911186427E+03  0.70873584330E+03  0.10566000000E+00 0. -1.
          2    1    1    2  502    0 -0.30062246670E+01 -0.10532663384E+03  0.84526713604E+03  0.85180940852E+03  0.00000000000E+00 0.  1.
         -4    1    3    3    0  502 -0.15979041877E+03 -0.37715819096E+03 -0.35499690862E+02  0.41114657604E+03  0.00000000000E+00 0. -1.
</event>
<event>
 7    1  0.9434649E-006  0.1294966E+04  0.7818608E-02  0.8616043E-01
          4   -1    0    0  501    0 -0.00000000000E+00  0.00000000000E+00  0.26903120539E+04  0.26903120539E+04  0.00000000000E+00 0.  1.
          2   -1    0    0  502    0  0.00000000000E+00 -0.00000000000E+00 -0.31170279352E+04  0.31170279352E+04  0.00000000000E+00 0.  1.
    9000010    2    1    2  502    0  0.12583505806E+03  0.88562120241E+03  0.37715294977E+03  0.13344926751E+04  0.91567842404E+03 0.  0.
        -13    1    3    3    0    0 -0.81414868204E+02  0.86269882891E+02 -0.26374098001E+03  0.28918884688E+03  0.10566000000E+00 0.  1.
         13    1    1    2    0    0 -0.75101587833E+02 -0.91803612947E+03  0.17184852183E+04  0.19497748691E+04  0.10566000000E+00 0. -1.
          2    1    1    2  501    0 -0.50733470226E+02  0.32414927063E+02 -0.25223540494E+04  0.25230724450E+04  0.00000000000E+00 0.  1.
          4    1    3    3  502    0  0.20724992626E+03  0.79935131952E+03  0.64089392978E+03  0.10453038282E+04  0.00000000000E+00 0.  1.
</event>
<event>
 7    1  0.9434649E-006  0.1197082E+04  0.7818608E-02  0.8750346E-01
         -4   -1    0    0    0  501 -0.00000000000E+00  0.00000000000E+00  0.15200665369E+04  0.15200665369E+04  0.00000000000E+00 0. -1.
          2   -1    0    0  501    0  0.00000000000E+00 -0.00000000000E+00 -0.13722831537E+04  0.13722831537E+04  0.00000000000E+00 0. -1.
   -9000010    2    1    2    0  502  0.18693708796E+03 -0.12370562985E+03  0.11622327388E+03  0.10709941343E+04  0.10408035495E+04 0.  0.
        -13    1    1    2    0    0  0.47157264006E+03  0.44226141544E+03  0.60993367702E+03  0.88881663800E+03  0.10566000000E+00 0.  1.
         13    1    3    3    0    0 -0.36994778338E+03 -0.23135468685E+03  0.22888135983E+03  0.49272004383E+03  0.10566000000E+00 0. -1.
          2    1    1    2  502    0 -0.65850972802E+03 -0.31855578559E+03 -0.57837356768E+03  0.93253891834E+03  0.00000000000E+00 0. -1.
         -4    1    3    3    0  502  0.55688487134E+03  0.10764905699E+03 -0.11265808595E+03  0.57827409048E+03  0.00000000000E+00 0. -1.
</event>
<event>
 7    1  0.9434649E-006  0.1120299E+04  0.7818608E-02  0.8790121E-01
         -4   -1    0    0    0  501 -0.00000000000E+00  0.00000000000E+00  0.26122991312E+04  0.26122991312E+04  0.00000000000E+00 0. -1.
          1   -1    0    0  501    0  0.00000000000E+00 -0.00000000000E+00 -0.11294133189E+04  0.11294133189E+04  0.00000000000E+00 0. -1.
   -9000010    2    1    2    0  502  0.48149920334E+03 -0.45563052307E+03  0.19876919708E+04  0.22808243647E+04  0.90099930925E+03 0.  0.
        -13    1    1    2    0    0 -0.49621613850E+03  0.45092056341E+03  0.24281657618E+03  0.71310568042E+03  0.10566000000E+00 0.  1.
         13    1    3    3    0    0  0.40219529930E+03 -0.72768435360E+03  0.13975263935E+04  0.16261505493E+04  0.10566000000E+00 0. -1.
          1    1    1    2  502    0  0.14716935160E+02  0.47099596547E+01 -0.74762273469E+03  0.74778240506E+03  0.00000000000E+00 0. -1.
         -4    1    3    3    0  502  0.79303904032E+02  0.27205383053E+03  0.59016557736E+03  0.65467381542E+03  0.00000000000E+00 0. -1.
</event>
<event>
 7    1  0.9434649E-006  0.1099551E+04  0.7818608E-02  0.8904084E-01
         -4   -1    0    0    0  501 -0.00000000000E+00  0.00000000000E+00  0.86763983240E+03  0.86763983240E+03  0.00000000000E+00 0. -1.
          1   -1    0    0  501    0  0.00000000000E+00 -0.00000000000E+00 -0.88063675377E+03  0.88063675377E+03  0.00000000000E+00 0. -1.
   -9000010    2    1    2    0  502  0.17717830409E+02  0.40590891668E+03  0.10780184794E+03  0.10930951514E+04  0.10090390486E+04 0.  0.
        -13    1    1    2    0    0  0.16725547751E+02 -0.44882159881E+03  0.71836002018E+02  0.45484172396E+03  0.10566000000E+00 0.  1.
         13    1    3    3    0    0  0.86193643833E+02 -0.21774434317E+03 -0.27260140076E+03  0.35937929556E+03  0.10566000000E+00 0. -1.
          1    1    1    2  502    0 -0.34443378160E+02  0.42912682131E+02 -0.19263477133E+03  0.20033971077E+03  0.00000000000E+00 0. -1.
         -4    1    3    3    0  502 -0.68475813424E+02  0.62365325984E+03  0.38040324870E+03  0.73371585587E+03  0.00000000000E+00 0. -1.
</event>
<event>
 7    1  0.9434649E-006  0.1035793E+04  0.7818608E-02  0.9002496E-01
         -4   -1    0    0    0  501 -0.00000000000E+00  0.00000000000E+00  0.10959885464E+04  0.10959885464E+04  0.00000000000E+00 0. -1.
          2   -1    0    0  501    0  0.00000000000E+00 -0.00000000000E+00 -0.60829443984E+03  0.60829443984E+03  0.00000000000E+00 0.  1.
   -9000010    2    1    2    0  502  0.32253675211E+03  0.10685294877E+03  0.24652011085E+03  0.10615916039E+04  0.97506772039E+03 0.  0.
        -13    1    1    2    0    0 -0.34480188530E+03 -0.68319465835E+02  0.36762980663E+03  0.50863304592E+03  0.10566000000E+00 0.  1.
         13    1    3    3    0    0 -0.20442890839E+03  0.37868331593E+03  0.33882340250E+02  0.43167146824E+03  0.10566000000E+00 0. -1.
          2    1    1    2  502    0  0.22265133184E+02 -0.38533482933E+02 -0.12645581088E+03  0.13405833643E+03  0.00000000000E+00 0.  1.
         -4    1    3    3    0  502  0.52696566050E+03 -0.27183036716E+03  0.21263777060E+03  0.62992013569E+03  0.00000000000E+00 0. -1.
</event>
<event>
 7    1  0.9434649E-006  0.1205890E+04  0.7818608E-02  0.8736390E-01
          2   -1    0    0  502    0  0.00000000000E+00  0.00000000000E+00  0.18407672540E+04  0.18407672540E+04  0.00000000000E+00 0. -1.
          4   -1    0    0  501    0 -0.00000000000E+00 -0.00000000000E+00 -0.79014953770E+03  0.79014953770E+03  0.00000000000E+00 0.  1.
    9000010    2    1    2  502    0 -0.20396585721E+02  0.67497539491E+03  0.84368312716E+03  0.14734831967E+04  0.10016704584E+04 0.  0.
        -13    1    3    3    0    0  0.62230471384E+02  0.93769177604E+02 -0.22646750219E+03  0.25288896961E+03  0.10566000000E+00 0.  1.
         13    1    1    2    0    0  0.36103983834E+02 -0.66971062741E+03 -0.23839790050E+03  0.71179308247E+03  0.10566000000E+00 0. -1.
          2    1    1    2  501    0 -0.15707398114E+02 -0.52647674934E+01  0.44533248967E+03  0.44564051262E+03  0.00000000000E+00 0. -1.
          4    1    3    3  502    0 -0.82627057105E+02  0.58120621730E+03  0.10701506293E+04  0.12205942270E+04  0.00000000000E+00 0.  1.
</event>
<event>
 7    1  0.9434649E-006  0.1064049E+04  0.7818608E-02  0.8960313E-01
          1   -1    0    0  501    0  0.00000000000E+00  0.00000000000E+00  0.20400992824E+04  0.20400992824E+04  0.00000000000E+00 0.  1.
         -4   -1    0    0    0  501 -0.00000000000E+00 -0.00000000000E+00 -0.14153748669E+04  0.14153748669E+04  0.00000000000E+00 0. -1.
   -9000010    2    1    2    0  502  0.40835791064E+03  0.25618655211E+03 -0.53989672305E+03  0.12286924355E+04  0.99287909475E+03 0.  0.
        -13    1    1    2    0    0 -0.35430766175E+03 -0.96564805893E+02 -0.46272126103E+03  0.59073653813E+03  0.10566000000E+00 0.  1.
         13    1    3    3    0    0  0.70684327276E+03  0.63063293441E+02 -0.50598508536E+03  0.87156486219E+03  0.10566000000E+00 0. -1.
          1    1    1    2  502    0 -0.54050248895E+02 -0.15962174622E+03  0.16273423996E+04  0.16360451756E+04  0.00000000000E+00 0.  1.
         -4    1    3    3    0  502 -0.29848536212E+03  0.19312325867E+03 -0.33911637687E+02  0.35712757330E+03  0.00000000000E+00 0. -1.
</event>
<event>
 7    1  0.9434649E-006  0.1069308E+04  0.7818608E-02  0.8984110E-01
         -4   -1    0    0    0  501 -0.00000000000E+00  0.00000000000E+00  0.66074980824E+03  0.66074980824E+03  0.00000000000E+00 0. -1.
          1   -1    0    0  501    0  0.00000000000E+00 -0.00000000000E+00 -0.19813701148E+04  0.19813701148E+04  0.00000000000E+00 0. -1.
   -9000010    2    1    2    0  502  0.15536527943E+03 -0.28690459744E+03 -0.47442563658E+03  0.11652762371E+04  0.10130826255E+04 0.  0.
        -13    1    1    2    0    0 -0.42284665115E+02  0.34384383559E+03  0.21526035967E+03  0.40786469544E+03  0.10566000000E+00 0.  1.
         13    1    3    3    0    0  0.35925819953E+03  0.15930066863E+03  0.10429893754E+03  0.40659738869E+03  0.10566000000E+00 0. -1.
          1    1    1    2  502    0 -0.11308061432E+03 -0.56939238158E+02 -0.10614550296E+04  0.10689789905E+04  0.00000000000E+00 0. -1.
         -4    1    3    3    0  502 -0.20389292009E+03 -0.44620526606E+03 -0.57872457412E+03  0.75867884841E+03  0.00000000000E+00 0. -1.
</event>
<event>
 7    1  0.9434649E-006  0.1046820E+04  0.7818608E-02  0.9045879E-01
         -4   -1    0    0    0  501 -0.00000000000E+00  0.00000000000E+00  0.83676034812E+03  0.83676034812E+03  0.00000000000E+00 0. -1.
          2   -1    0    0  501    0  0.00000000000E+00 -0.00000000000E+00 -0.89777837471E+03  0.89777837471E+03  0.00000000000E+00 0. -1.
   -9000010    2    1    2    0  502  0.13848597159E+02  0.24986199832E+03 -0.45303523562E+03  0.11326396309E+04  0.10074764548E+04 0.  0.
        -13    1    1    2    0    0 -0.47650564988E+02 -0.28217730095E+03  0.44635166551E+03  0.53021168035E+03  0.10566000000E+00 0.  1.
         13    1    3    3    0    0 -0.12175517902E+03 -0.33263261711E+03  0.41435222218E+02  0.35663100032E+03  0.10566000000E+00 0. -1.
          2    1    1    2  502    0  0.33801967829E+02  0.32315302632E+02 -0.54334456476E+02  0.71687411544E+02  0.00000000000E+00 0. -1.
         -4    1    3    3    0  502  0.13560377618E+03  0.58249461543E+03 -0.49447045784E+03  0.77600863062E+03  0.00000000000E+00 0. -1.
</event>
<event>
 7    1  0.9434649E-006  0.1326548E+04  0.7818608E-02  0.8608219E-01
         -4   -1    0    0    0  501 -0.00000000000E+00  0.00000000000E+00  0.24892698205E+04  0.24892698205E+04  0.00000000000E+00 0. -1.
          2   -1    0    0  501    0  0.00000000000E+00 -0.00000000000E+00 -0.26427111364E+04  0.26427111364E+04  0.00000000000E+00 0.  1.
   -9000010    2    1    2    0  502 -0.85058367103E+03 -0.11445543530E+03  0.11414820744E+04  0.17383098674E+04  0.99103342076E+03 0.  0.
        -13    1    1    2    0    0  0.88621119312E+03  0.13884098520E+03  0.85742085094E+03  0.12408938814E+04  0.10566000000E+00 0.  1.
         13    1    3    3    0    0  0.18088442538E+03  0.63247695704E+02  0.27665783575E+01  0.19164318792E+03  0.10566000000E+00 0. -1.
          2    1    1    2  502    0 -0.35627522090E+02 -0.24385549899E+02 -0.21523442412E+04  0.21527772082E+04  0.00000000000E+00 0.  1.
         -4    1    3    3    0  502 -0.10314680964E+04 -0.17770313100E+03  0.11387154960E+04  0.15466666795E+04  0.00000000000E+00 0. -1.
</event>
<event>
 7    1  0.9434649E-006  0.1045232E+04  0.7818608E-02  0.9011587E-01
          1   -1    0    0  501    0  0.00000000000E+00  0.00000000000E+00  0.25117502939E+03  0.25117502939E+03  0.00000000000E+00 0. -1.
         -4   -1    0    0    0  501 -0.00000000000E+00 -0.00000000000E+00 -0.44317182640E+04  0.44317182640E+04  0.00000000000E+00 0. -1.
   -9000010    2    1    2    0  502  0.13590895225E+02 -0.33511277722E+03 -0.27274919183E+04  0.29217726215E+04  0.99250078164E+03 0.  0.
        -13    1    1    2    0    0  0.10189504388E+03  0.31345479775E+03 -0.15646986773E+04  0.15990367326E+04  0.10566000000E+00 0.  1.
         13    1    3    3    0    0  0.19887768042E+03 -0.23015293186E+03 -0.15668156846E+03  0.34215760823E+03  0.10566000000E+00 0. -1.
          1    1    1    2  502    0 -0.11548593910E+03  0.21657979470E+02  0.11164736092E+03  0.16208393938E+03  0.00000000000E+00 0. -1.
         -4    1    3    3    0  502 -0.18528678519E+03 -0.10495984536E+03 -0.25708103498E+04  0.25796150133E+04  0.00000000000E+00 0. -1.
</event>
<event>
 7    1  0.9434649E-006  0.9959146E+03  0.7818608E-02  0.9269524E-01
          4   -1    0    0  501    0 -0.00000000000E+00  0.00000000000E+00  0.57473439172E+03  0.57473439172E+03  0.00000000000E+00 0.  1.
          2   -1    0    0  502    0  0.00000000000E+00 -0.00000000000E+00 -0.20779617960E+04  0.20779617960E+04  0.00000000000E+00 0. -1.
    9000010    2    1    2  502    0  0.12131843961E+03 -0.25811653518E+01  0.81415779476E+02  0.99711375864E+03  0.98634805840E+03 0.  0.
        -13    1    3    3    0    0 -0.78389281696E+01  0.10516374490E+03  0.51832652517E+03  0.52894542242E+03  0.10566000000E+00 0.  1.
         13    1    1    2    0    0 -0.14247005017E+03  0.11273385017E+02 -0.10893932784E+03  0.17970139877E+03  0.10566000000E+00 0. -1.
          2    1    1    2  501    0  0.21151610555E+02 -0.86922196652E+01 -0.14757038559E+04  0.14758810303E+04  0.00000000000E+00 0. -1.
          4    1    3    3  502    0  0.12915736778E+03 -0.10774491025E+03 -0.43691074569E+03  0.46816833622E+03  0.00000000000E+00 0.  1.
</event>
<event>
 7    1  0.9434649E-006  0.1076688E+04  0.7818608E-02  0.9119985E-01
         -4   -1    0    0    0  501 -0.00000000000E+00  0.00000000000E+00  0.85910369074E+03  0.85910369074E+03  0.00000000000E+00 0. -1.
          1   -1    0    0  501    0  0.00000000000E+00 -0.00000000000E+00 -0.12551300952E+04  0.12551300952E+04  0.00000000000E+00 0. -1.
   -9000010    2    1    2    0  502 -0.19394019007E+03  0.17174238011E+02  0.28879922308E+03  0.11147568621E+04  0.10589476468E+04 0.  0.
        -13    1    1    2    0    0  0.19457551308E+03 -0.62717155535E+01  0.97049141556E+02  0.21752588753E+03  0.10566000000E+00 0.  1.
         13    1    3    3    0    0 -0.51376441936E+03  0.28441115558E+03 -0.33065509136E+02  0.58816402736E+03  0.10566000000E+00 0. -1.
          1    1    1    2  502    0 -0.63532300928E+00 -0.10902522458E+02 -0.78187476907E+03  0.78195103628E+03  0.00000000000E+00 0. -1.
         -4    1    3    3    0  502  0.31982422930E+03 -0.26723691757E+03  0.32186473222E+03  0.52659283474E+03  0.00000000000E+00 0. -1.
</event>
<event>
 7    1  0.9434649E-006  0.1021060E+04  0.7818608E-02  0.9114637E-01
          1   -1    0    0  501    0  0.00000000000E+00  0.00000000000E+00  0.20710796739E+04  0.20710796739E+04  0.00000000000E+00 0. -1.
         -4   -1    0    0    0  501 -0.00000000000E+00 -0.00000000000E+00 -0.25326936361E+04  0.25326936361E+04  0.00000000000E+00 0. -1.
   -9000010    2    1    2    0  502 -0.36452827804E+03 -0.47237825515E+02 -0.13364971114E+04  0.17057460508E+04  0.99409898072E+03 0.  0.
        -13    1    1    2    0    0  0.22355840141E+03 -0.20905167497E+02 -0.99580135552E+03  0.10208015163E+04  0.10566000000E+00 0.  1.
         13    1    3    3    0    0 -0.70637435129E+03  0.13802800807E+02 -0.80736535328E+03  0.10728439152E+04  0.10566000000E+00 0. -1.
          1    1    1    2  502    0  0.14096987663E+03  0.68142993012E+02  0.18706845047E+04  0.18772257429E+04  0.00000000000E+00 0. -1.
         -4    1    3    3    0  502  0.34184607326E+03 -0.61040626322E+02 -0.52913175807E+03  0.63290213561E+03  0.00000000000E+00 0. -1.
</event>
<event>
 7    1  0.9434649E-006  0.1006865E+04  0.7818608E-02  0.9134472E-01
          2   -1    0    0  501    0  0.00000000000E+00  0.00000000000E+00  0.34095426175E+04  0.34095426175E+04  0.00000000000E+00 0.  1.
         -4   -1    0    0    0  501 -0.00000000000E+00 -0.00000000000E+00 -0.26741101843E+03  0.26741101843E+03  0.00000000000E+00 0. -1.
   -9000010    2    1    2    0  502 -0.13008676681E+03  0.13615639698E+03  0.17345530497E+04  0.20018410946E+04  0.98144401491E+03 0.  0.
        -13    1    1    2    0    0  0.14145056842E+03 -0.17720927248E+03 -0.37143200925E+02  0.22976296067E+03  0.10566000000E+00 0.  1.
         13    1    3    3    0    0 -0.30621987949E+03  0.46192460841E+03  0.64142954244E+03  0.84768911018E+03  0.10566000000E+00 0. -1.
          2    1    1    2  502    0 -0.11363801610E+02  0.41052875494E+02  0.14447217503E+04  0.14453495807E+04  0.00000000000E+00 0.  1.
         -4    1    3    3    0  502  0.17613311268E+03 -0.32576821143E+03  0.10931235073E+04  0.11541519844E+04  0.00000000000E+00 0. -1.
</event>
<event>
 7    1  0.9434649E-006  0.1248393E+04  0.7818608E-02  0.8698015E-01
         -4   -1    0    0    0  501 -0.00000000000E+00  0.00000000000E+00  0.53758328167E+03  0.53758328167E+03  0.00000000000E+00 0. -1.
          4   -1    0    0  501    0  0.00000000000E+00 -0.00000000000E+00 -0.21644124192E+04  0.21644124192E+04  0.00000000000E+00 0. -1.
   -9000010    2    1    2    0  502  0.67468936026E+03  0.10756204523E+03 -0.83808211748E+03  0.14892089521E+04  0.10240050493E+04 0.  0.
        -13    1    1    2    0    0 -0.69690849540E+03 -0.23610561392E+03 -0.48247739542E+03  0.87989303904E+03  0.10566000000E+00 0.  1.
         13    1    3    3    0    0  0.14565269931E+02  0.37988187739E+03  0.10302150257E+02  0.38030058285E+03  0.10566000000E+00 0. -1.
          4    1    1    2  502    0  0.22219135143E+02  0.12854356870E+03 -0.30626962463E+03  0.33289370975E+03  0.00000000000E+00 0. -1.
         -4    1    3    3    0  502  0.66012409033E+03 -0.27231983216E+03 -0.84838426773E+03  0.11089083692E+04  0.00000000000E+00 0. -1.
</event>
<event>
 6    1  0.9434649E-006  0.7497248E+03  0.7818608E-02  0.9053806E-01
          2   -1    0    0  502    0  0.00000000000E+00  0.00000000000E+00  0.61980403742E+03  0.61980403742E+03  0.00000000000E+00 0. -1.
          4   -1    0    0  501    0 -0.00000000000E+00 -0.00000000000E+00 -0.20503286601E+04  0.20503286601E+04  0.00000000000E+00 0.  1.
        -13    1    1    2    0    0 -0.30741534982E+03  0.34958770812E+02 -0.16595193487E+04  0.16881145674E+04  0.10566000000E+00 0.  1.
         13    1    1    2    0    0  0.22539008691E+03 -0.21047747847E+02 -0.30509991461E+03  0.37990744666E+03  0.10566000000E+00 0. -1.
          2    1    1    2  501    0  0.89169285357E+02 -0.57664718995E+02  0.54598094243E+03  0.55621180387E+03  0.00000000000E+00 0. -1.
          4    1    1    2  502    0 -0.71440224514E+01  0.43753696030E+02 -0.11886301804E+02  0.45898879547E+02  0.00000000000E+00 0.  1.
</event>
<event>
 7    1  0.9434649E-006  0.1207976E+04  0.7818608E-02  0.9270787E-01
          4   -1    0    0  501    0  0.00000000000E+00  0.00000000000E+00  0.26346290506E+04  0.26346290506E+04  0.00000000000E+00 0. -1.
         -4   -1    0    0    0  501 -0.00000000000E+00 -0.00000000000E+00 -0.20966311200E+04  0.20966311200E+04  0.00000000000E+00 0. -1.
   -9000010    2    1    2    0  502  0.53299085678E+03  0.27669655976E+03 -0.16781931960E+04  0.20829296646E+04  0.10777863169E+04 0.  0.
        -13    1    1    2    0    0 -0.28548976908E+02 -0.71295519020E+02 -0.17752854381E+03  0.19342825581E+03  0.10566000000E+00 0.  1.
         13    1    3    3    0    0 -0.24693102687E+03 -0.20118774798E+03 -0.40542293709E+03  0.51557658117E+03  0.10566000000E+00 0. -1.
          4    1    1    2  502    0 -0.50444187987E+03 -0.20540104074E+03  0.23937196703E+04  0.24549022502E+04  0.00000000000E+00 0. -1.
         -4    1    3    3    0  502  0.77992188365E+03  0.47788430774E+03 -0.12727702589E+04  0.15673530835E+04  0.00000000000E+00 0. -1.
</event>
<event>
 6    1  0.9434649E-006  0.3013542E+03  0.7818608E-02  0.1014472E+00
          4   -1    0    0  501    0 -0.00000000000E+00  0.00000000000E+00  0.81344679679E+03  0.81344679679E+03  0.00000000000E+00 0.  1.
          2   -1    0    0  502    0  0.00000000000E+00 -0.00000000000E+00 -0.12553020424E+04  0.12553020424E+04  0.00000000000E+00 0. -1.
        -13    1    1    2    0    0  0.25071496305E+03  0.99047851720E+01  0.52563585241E+03  0.58245099190E+03  0.10566000000E+00 0.  1.
         13    1    1    2    0    0 -0.21900551875E+03 -0.80171330749E+02  0.20226336058E+03  0.30870914744E+03  0.10566000000E+00 0. -1.
          2    1    1    2  501    0 -0.24068680627E+02  0.79163981855E+02 -0.11581091897E+04  0.11610612098E+04  0.00000000000E+00 0. -1.
          4    1    1    2  502    0 -0.76407636730E+01 -0.88974362787E+01 -0.11645268797E+02  0.16527490045E+02  0.00000000000E+00 0.  1.
</event>
<event>
 6    1  0.9434649E-006  0.7579755E+03  0.7818608E-02  0.9042867E-01
          4   -1    0    0  501    0 -0.00000000000E+00  0.00000000000E+00  0.38347136096E+03  0.38347136096E+03  0.00000000000E+00 0.  1.
          2   -1    0    0  502    0  0.00000000000E+00 -0.00000000000E+00 -0.45141144371E+03  0.45141144371E+03  0.00000000000E+00 0.  1.
        -13    1    1    2    0    0  0.22735926871E+02 -0.24464228276E+03  0.21851075870E+03  0.32880652627E+03  0.10566000000E+00 0.  1.
         13    1    1    2    0    0  0.40911247878E+02  0.16241171025E+03 -0.99137731948E+01  0.16777838923E+03  0.10566000000E+00 0. -1.
          2    1    1    2  501    0  0.65403495007E+01 -0.47058647210E+02 -0.60429443539E+02  0.76870085828E+02  0.00000000000E+00 0.  1.
          4    1    1    2  502    0 -0.70187524249E+02  0.12928921972E+03 -0.21610762472E+03  0.26142780334E+03  0.00000000000E+00 0.  1.
</event>
<event>
 7    1  0.9434649E-006  0.1030272E+04  0.7818608E-02  0.9128004E-01
          2   -1    0    0  502    0  0.00000000000E+00  0.00000000000E+00  0.10310486997E+04  0.10310486997E+04  0.00000000000E+00 0. -1.
          4   -1    0    0  501    0 -0.00000000000E+00 -0.00000000000E+00 -0.16921442037E+04  0.16921442037E+04  0.00000000000E+00 0.  1.
    9000010    2    1    2  502    0 -0.19482023730E+03 -0.70907409348E+02 -0.13194012634E+04  0.16730005319E+04  0.10075357564E+04 0.  0.
        -13    1    3    3    0    0  0.27429937147E+03 -0.34403926979E+03 -0.35108879295E+03  0.56290897670E+03  0.10566000000E+00 0.  1.
         13    1    1    2    0    0  0.20296808338E+03  0.79506295016E+02 -0.13525907578E+03  0.25653912482E+03  0.10566000000E+00 0. -1.
          2    1    1    2  501    0 -0.81478460882E+01 -0.85988856683E+01  0.79356483520E+03  0.79365324664E+03  0.00000000000E+00 0. -1.
          4    1    3    3  502    0 -0.46911960876E+03  0.27313186044E+03 -0.96831247049E+03  0.11100915552E+04  0.00000000000E+00 0.  1.
</event>
<event>
 6    1  0.9434649E-006  0.8779988E+02  0.7818608E-02  0.1193157E+00
         -2   -1    0    0    0  501  0.00000000000E+00  0.00000000000E+00  0.13179748526E+04  0.13179748526E+04  0.00000000000E+00 0.  1.
         -4   -1    0    0    0  502 -0.00000000000E+00 -0.00000000000E+00 -0.26567065030E+03  0.26567065030E+03  0.00000000000E+00 0. -1.
        -13    1    1    2    0    0 -0.84974897258E+02 -0.35502903954E+02 -0.27392789711E+02  0.96081035826E+02  0.10566000000E+00 0.  1.
         13    1    1    2    0    0  0.70792492465E+02  0.17322961039E+02 -0.16869920790E+03  0.18376913745E+03  0.10566000000E+00 0. -1.
         -2    1    1    2    0  502  0.19457838787E+02  0.81946971253E+01  0.12748536539E+04  0.12750284700E+04  0.00000000000E+00 0.  1.
         -4    1    1    2    0  501 -0.52754339944E+01  0.99852457892E+01 -0.26457453997E+02  0.28766859566E+02  0.00000000000E+00 0. -1.
</event>
<event>
 7    1  0.9434649E-006  0.1526924E+04  0.7818608E-02  0.8456373E-01
          4   -1    0    0  501    0  0.00000000000E+00  0.00000000000E+00  0.19932143217E+04  0.19932143217E+04  0.00000000000E+00 0. -1.
         -4   -1    0    0    0  501 -0.00000000000E+00 -0.00000000000E+00 -0.23592925807E+04  0.23592925807E+04  0.00000000000E+00 0.  1.
   -9000010    2    1    2    0  502  0.54706850277E+03 -0.61216981741E+03  0.11231671756E+04  0.17187716890E+04  0.10092748794E+04 0.  0.
        -13    1    1    2    0    0 -0.33010033684E+03  0.12374966868E+04 -0.36952109592E+03  0.13330079271E+04  0.10566000000E+00 0.  1.
         13    1    3    3    0    0 -0.15765387110E+03 -0.19079675552E+03 -0.81776750767E+02  0.26066375491E+03  0.10566000000E+00 0. -1.
          4    1    1    2  502    0 -0.21696816593E+03 -0.62532686936E+03 -0.11197243388E+04  0.13007272864E+04  0.00000000000E+00 0.  1.
         -4    1    3    3    0  502  0.70472237387E+03 -0.42137306189E+03  0.12049439264E+04  0.14581079340E+04  0.00000000000E+00 0. -1.
</event>
<event>
 7    1  0.9434649E-006  0.1304717E+04  0.7818608E-02  0.8649323E-01
         -4   -1    0    0    0  501 -0.00000000000E+00  0.00000000000E+00  0.15037899059E+04  0.15037899059E+04  0.00000000000E+00 0. -1.
          4   -1    0    0  501    0  0.00000000000E+00 -0.00000000000E+00 -0.12417581472E+04  0.12417581472E+04  0.00000000000E+00 0.  1.
   -9000010    2    1    2    0  502 -0.72565728597E+03  0.11282294975E+03  0.67095470493E+03  0.14469567239E+04  0.10508073231E+04 0.  0.
        -13    1    1    2    0    0  0.78395319101E+03 -0.21974147767E+03  0.57824902434E+02  0.81621850825E+03  0.10566000000E+00 0.  1.
         13    1    3    3    0    0  0.16179571664E+03  0.18013568461E+03  0.47866267606E+03  0.53641838840E+03  0.10566000000E+00 0. -1.
          4    1    1    2  502    0 -0.58295905042E+02  0.10691852792E+03 -0.46674784865E+03  0.48237282094E+03  0.00000000000E+00 0.  1.
         -4    1    3    3    0  502 -0.88745300260E+03 -0.67312734857E+02  0.19229202886E+03  0.91053833553E+03  0.00000000000E+00 0. -1.
</event>
<event>
 7    1  0.9434649E-006  0.1226617E+04  0.7818608E-02  0.8965019E-01
          4   -1    0    0  501    0 -0.00000000000E+00  0.00000000000E+00  0.83663211433E+03  0.83663211433E+03  0.00000000000E+00 0.  1.
          2   -1    0    0  502    0  0.00000000000E+00 -0.00000000000E+00 -0.12572025477E+04  0.12572025477E+04  0.00000000000E+00 0.  1.
    9000010    2    1    2  502    0  0.53495387575E+03  0.26009595778E+03 -0.11559859409E+03  0.12906649445E+04  0.11395733445E+04 0.  0.
        -13    1    3    3    0    0 -0.26382146171E+03 -0.22187934039E+03  0.31747498324E+02  0.34617931794E+03  0.10566000000E+00 0.  1.
         13    1    1    2    0    0 -0.10220307009E+03 -0.22266841134E+03  0.40298130219E+02  0.24829546796E+03  0.10566000000E+00 0. -1.
          2    1    1    2  501    0 -0.43275080566E+03 -0.37427546433E+02 -0.34526996950E+03  0.55487424960E+03  0.00000000000E+00 0.  1.
          4    1    3    3  502    0  0.79877533746E+03  0.48197529817E+03 -0.14734609242E+03  0.94448562653E+03  0.00000000000E+00 0.  1.
</event>
<event>
 7    1  0.9434649E-006  0.1063327E+04  0.7818608E-02  0.8978213E-01
         -4   -1    0    0    0  501 -0.00000000000E+00  0.00000000000E+00  0.27867865186E+04  0.27867865186E+04  0.00000000000E+00 0. -1.
          2   -1    0    0  501    0  0.00000000000E+00 -0.00000000000E+00 -0.45130662321E+03  0.45130662321E+03  0.00000000000E+00 0. -1.
   -9000010    2    1    2    0  502  0.21870957203E+03  0.30020997822E+03  0.19439660074E+04  0.22182404787E+04  0.10018118963E+04 0.  0.
        -13    1    1    2    0    0 -0.19826333139E+03 -0.29044839553E+03  0.66136738456E+03  0.74904969632E+03  0.10566000000E+00 0.  1.
         13    1    3    3    0    0  0.25384518188E+03 -0.13070995548E+03  0.68552070864E+02  0.29363560140E+03  0.10566000000E+00 0. -1.
          2    1    1    2  502    0 -0.20446240636E+02 -0.97615826890E+01 -0.26985349653E+03  0.27080296683E+03  0.00000000000E+00 0. -1.
         -4    1    3    3    0  502 -0.35135609853E+02  0.43091993371E+03  0.18754139365E+04  0.19246048773E+04  0.00000000000E+00 0. -1.
</event>
<event>
 7    1  0.9434649E-006  0.1193877E+04  0.7818608E-02  0.8741377E-01
          2   -1    0    0  501    0  0.00000000000E+00  0.00000000000E+00  0.79735709025E+03  0.79735709025E+03  0.00000000000E+00 0. -1.
         -4   -1    0    0    0  501 -0.00000000000E+00 -0.00000000000E+00 -0.30004893922E+04  0.30004893922E+04  0.00000000000E+00 0. -1.
   -9000010    2    1    2    0  502  0.64414968816E+03  0.20563807974E+03 -0.22158768126E+04  0.25167409636E+04  0.98318827726E+03 0.  0.
        -13    1    1    2    0    0 -0.66982696955E+03 -0.12537833534E+03 -0.44616388919E+03  0.81452447679E+03  0.10566000000E+00 0.  1.
         13    1    3    3    0    0  0.54363135855E+03  0.44683245557E+03 -0.21275620867E+04  0.22409182808E+04  0.10566000000E+00 0. -1.
          2    1    1    2  502    0  0.25677281399E+02 -0.80259744397E+02  0.45890839986E+03  0.46658104206E+03  0.00000000000E+00 0. -1.
         -4    1    3    3    0  502  0.10051832961E+03 -0.24119437583E+03 -0.88314725901E+02  0.27582268277E+03  0.00000000000E+00 0. -1.
</event>
<event>
 7    1  0.9434649E-006  0.1161355E+04  0.7818608E-02  0.8797125E-01
         -4   -1    0    0    0  501 -0.00000000000E+00  0.00000000000E+00  0.14330483040E+04  0.14330483040E+04  0.00000000000E+00 0. -1.
          4   -1    0    0  501    0  0.00000000000E+00 -0.00000000000E+00 -0.13344719564E+04  0.13344719564E+04  0.00000000000E+00 0.  1.
   -9000010    2    1    2    0  502 -0.43180502939E+03  0.55040606808E+03  0.67745017145E+03  0.14001801814E+04  0.10060633093E+04 0.  0.
        -13    1    1    2    0    0  0.43452596416E+03 -0.30038806303E+03  0.18802346887E+03  0.56071261618E+03  0.10566000000E+00 0.  1.
         13    1    3    3    0    0  0.32842879876E+03  0.16655322729E+03  0.26654505838E+03  0.45458963108E+03  0.10566000000E+00 0. -1.
          4    1    1    2  502    0 -0.27209347657E+01 -0.25001800505E+03 -0.76689729271E+03  0.80662746290E+03  0.00000000000E+00 0.  1.
         -4    1    3    3    0  502 -0.76023382815E+03  0.38385284079E+03  0.41090511307E+03  0.94559055029E+03  0.00000000000E+00 0. -1.
</event>
<event>
 6    1  0.9434649E-006  0.1840546E+04  0.7818608E-02  0.8236595E-01
          4   -1    0    0  501    0 -0.00000000000E+00  0.00000000000E+00  0.12398140026E+04  0.12398140026E+04  0.00000000000E+00 0.  1.
          2   -1    0    0  502    0  0.00000000000E+00 -0.00000000000E+00 -0.77198657578E+03  0.77198657578E+03  0.00000000000E+00 0. -1.
        -13    1    1    2    0    0 -0.55237708876E+02  0.38056867824E+03  0.11285272720E+04  0.11922489414E+04  0.10566000000E+00 0.  1.
         13    1    1    2    0    0  0.10333322531E+02 -0.37768793840E+03 -0.57795368153E+03  0.69049650653E+03  0.10566000000E+00 0. -1.
          2    1    1    2  501    0  0.82112907988E+01 -0.17314917959E+02 -0.87285757797E+02  0.89364619368E+02  0.00000000000E+00 0. -1.
          4    1    1    2  502    0  0.36693095546E+02  0.14434178123E+02  0.45395941440E+01  0.39690511131E+02  0.00000000000E+00 0.  1.
</event>
<event>
 7    1  0.9434649E-006  0.1047608E+04  0.7818608E-02  0.8986855E-01
          4   -1    0    0  501    0 -0.00000000000E+00  0.00000000000E+00  0.27957066509E+04  0.27957066509E+04  0.00000000000E+00 0.  1.
          2   -1    0    0  502    0  0.00000000000E+00 -0.00000000000E+00 -0.78898887513E+03  0.78898887513E+03  0.00000000000E+00 0.  1.
    9000010    2    1    2  502    0 -0.22254026499E+03  0.26960300992E+03  0.22665731153E+04  0.24955069880E+04  0.98386558420E+03 0.  0.
        -13    1    3    3    0    0 -0.51038652184E+03  0.44298109301E+03  0.17817979712E+04  0.19056575432E+04  0.10566000000E+00 0.  1.
         13    1    1    2    0    0  0.19696509201E+03 -0.31130476241E+03  0.33164085636E+03  0.49567284709E+03  0.10566000000E+00 0. -1.
          2    1    1    2  501    0  0.25575172983E+02  0.41701752491E+02 -0.59149619588E+03  0.59351569093E+03  0.00000000000E+00 0.  1.
          4    1    3    3  502    0  0.28784625685E+03 -0.17337808309E+03  0.48477514409E+03  0.58984944486E+03  0.00000000000E+00 0.  1.
</event>
<event>
 7    1  0.9434649E-006  0.1043880E+04  0.7818608E-02  0.9052736E-01
          2   -1    0    0  501    0  0.00000000000E+00  0.00000000000E+00  0.22357016913E+04  0.22357016913E+04  0.00000000000E+00 0. -1.
         -4   -1    0    0    0  501 -0.00000000000E+00 -0.00000000000E+00 -0.49702232763E+03  0.49702232763E+03  0.00000000000E+00 0. -1.
   -9000010    2    1    2    0  502 -0.31338538022E+03  0.61684981039E+02  0.10488761100E+04  0.14879626190E+04  0.10059205874E+04 0.  0.
        -13    1    1    2    0    0  0.27585360783E+03 -0.23269711434E+02 -0.20742843603E+03  0.34592377724E+03  0.10566000000E+00 0.  1.
         13    1    3    3    0    0  0.51296631194E+02  0.38565394164E+03  0.71424904245E+02  0.39555256944E+03  0.10566000000E+00 0. -1.
          2    1    1    2  502    0  0.37531772392E+02 -0.38415269606E+02  0.89723168970E+03  0.89883762265E+03  0.00000000000E+00 0. -1.
         -4    1    3    3    0  502 -0.36468201141E+03 -0.32396896060E+03  0.97745120574E+03  0.10924100496E+04  0.00000000000E+00 0. -1.
</event>
<event>
 7    1  0.9434649E-006  0.1257244E+04  0.7818608E-02  0.8982978E-01
          2   -1    0    0  501    0  0.00000000000E+00  0.00000000000E+00  0.16679725103E+04  0.16679725103E+04  0.00000000000E+00 0. -1.
         -4   -1    0    0    0  501 -0.00000000000E+00 -0.00000000000E+00 -0.10189826416E+04  0.10189826416E+04  0.00000000000E+00 0. -1.
   -9000010    2    1    2    0  502 -0.15282005254E+03  0.48512007173E+03 -0.43386048441E+03  0.13652052315E+04  0.11903171643E+04 0.  0.
        -13    1    1    2    0    0  0.19358180882E+03 -0.85175772592E+02  0.55662453828E+02  0.21869419031E+03  0.10566000000E+00 0.  1.
         13    1    3    3    0    0  0.10179855266E+03  0.93588959599E+02 -0.77474748714E+03  0.78699143495E+03  0.10566000000E+00 0. -1.
          2    1    1    2  502    0 -0.40761756279E+02 -0.39994429914E+03  0.10271878993E+04  0.11030557301E+04  0.00000000000E+00 0. -1.
         -4    1    3    3    0  502 -0.25461860520E+03  0.39153111213E+03  0.34088700273E+03  0.57821379654E+03  0.00000000000E+00 0. -1.
</event>
<event>
 7    1  0.9434649E-006  0.1146668E+04  0.7818608E-02  0.8811315E-01
          2   -1    0    0  502    0  0.00000000000E+00  0.00000000000E+00  0.17861064619E+04  0.17861064619E+04  0.00000000000E+00 0. -1.
          4   -1    0    0  501    0 -0.00000000000E+00 -0.00000000000E+00 -0.70457005564E+03  0.70457005564E+03  0.00000000000E+00 0.  1.
    9000010    2    1    2  502    0 -0.52455260472E+03 -0.62817027216E+02  0.22929117464E+03  0.11507929353E+04  0.99631748106E+03 0.  0.
        -13    1    3    3    0    0 -0.35553009652E+02 -0.37115857271E+03 -0.20706790818E+03  0.42649716570E+03  0.10566000000E+00 0.  1.
         13    1    1    2    0    0  0.58965363382E+03 -0.88160025374E+02  0.14473952700E+03  0.61352517454E+03  0.10566000000E+00 0. -1.
          2    1    1    2  501    0 -0.65101029099E+02  0.15097705259E+03  0.70750570467E+03  0.72635840777E+03  0.00000000000E+00 0. -1.
          4    1    3    3  502    0 -0.48899959507E+03  0.30834154550E+03  0.43635908281E+03  0.72429576957E+03  0.00000000000E+00 0.  1.
</event>
<event>
 6    1  0.9434649E-006  0.1759931E+03  0.7818608E-02  0.1077969E+00
         -4   -1    0    0    0  501 -0.00000000000E+00  0.00000000000E+00  0.11029997048E+03  0.11029997048E+03  0.00000000000E+00 0. -1.
          2   -1    0    0  501    0  0.00000000000E+00 -0.00000000000E+00 -0.31680987714E+03  0.31680987714E+03  0.00000000000E+00 0.  1.
        -13    1    1    2    0    0  0.35961737744E+01  0.29011171927E+02 -0.37559864467E+01  0.29473702866E+02  0.10566000000E+00 0.  1.
         13    1    1    2    0    0 -0.27544756564E+02 -0.14336068773E+02  0.93890948758E+02  0.98892658497E+02  0.10566000000E+00 0. -1.
          2    1    1    2  502    0  0.12136595716E+02 -0.95986700803E+01 -0.24620904365E+03  0.24669480051E+03  0.00000000000E+00 0.  1.
         -4    1    1    2    0  502  0.11811987074E+02 -0.50764330742E+01 -0.50435825320E+02  0.52048685739E+02  0.00000000000E+00 0. -1.
</event>
<event>
 7    1  0.9434649E-006  0.1122682E+04  0.7818608E-02  0.9392642E-01
         -4   -1    0    0    0  501 -0.00000000000E+00  0.00000000000E+00  0.65676563723E+03  0.65676563723E+03  0.00000000000E+00 0. -1.
          2   -1    0    0  501    0  0.00000000000E+00 -0.00000000000E+00 -0.47165643105E+04  0.47165643105E+04  0.00000000000E+00 0. -1.
   -9000010    2    1    2    0  502  0.36629104189E+03  0.31014213790E+03 -0.12566151339E+03  0.11110657435E+04  0.99414234262E+03 0.  0.
        -13    1    1    2    0    0  0.29335570934E+01  0.60403974977E+02  0.14114083606E+03  0.15355127065E+03  0.10566000000E+00 0.  1.
         13    1    3    3    0    0  0.21806977341E+02  0.63027336852E+03 -0.31327102375E+02  0.63142811296E+03  0.10566000000E+00 0. -1.
          2    1    1    2  502    0 -0.36922459898E+03 -0.37054611288E+03 -0.40752779959E+04  0.41087129336E+04  0.00000000000E+00 0. -1.
         -4    1    3    3    0  502  0.34448406455E+03 -0.32013123062E+03 -0.94334411018E+02  0.47963763056E+03  0.00000000000E+00 0. -1.
</event>
<event>
 7    1  0.9434649E-006  0.9778775E+03  0.7818608E-02  0.9351574E-01
          1   -1    0    0  501    0  0.00000000000E+00  0.00000000000E+00  0.16679752248E+04  0.16679752248E+04  0.00000000000E+00 0.  1.
         -4   -1    0    0    0  501 -0.00000000000E+00 -0.00000000000E+00 -0.34407346581E+03  0.34407346581E+03  0.00000000000E+00 0. -1.
   -9000010    2    1    2    0  502 -0.99843202219E+02 -0.33697574921E+02  0.70989583437E+03  0.12082726241E+04  0.97204240998E+03 0.  0.
        -13    1    1    2    0    0  0.83718695019E+02  0.66472377140E+02 -0.64128242569E+02  0.12465889249E+03  0.10566000000E+00 0.  1.
         13    1    3    3    0    0 -0.68135797066E+02 -0.16322150217E+03 -0.21239185080E+03  0.27639474499E+03  0.10566000000E+00 0. -1.
          1    1    1    2  502    0  0.16124507200E+02 -0.32774802219E+02  0.67813416716E+03  0.67911717403E+03  0.00000000000E+00 0.  1.
         -4    1    3    3    0  502 -0.31707405153E+02  0.12952392724E+03  0.92228768516E+03  0.93187787906E+03  0.00000000000E+00 0. -1.
</event>
<event>
 7    1  0.9434649E-006  0.1029299E+04  0.7818608E-02  0.9134923E-01
          2   -1    0    0  501    0  0.00000000000E+00  0.00000000000E+00  0.25381839092E+04  0.25381839092E+04  0.00000000000E+00 0. -1.
         -4   -1    0    0    0  501 -0.00000000000E+00 -0.00000000000E+00 -0.29607032067E+03  0.29607032067E+03  0.00000000000E+00 0. -1.
   -9000010    2    1    2    0  502 -0.16654854402E+03  0.14354608690E+03  0.14360049329E+04  0.17679883694E+04  0.10076352567E+04 0.  0.
        -13    1    1    2    0    0  0.17564090031E+03 -0.11446555423E+03 -0.45156492934E+02  0.21445561076E+03  0.10566000000E+00 0.  1.
         13    1    3    3    0    0  0.27813182056E+03 -0.15437924228E+03  0.10761352931E+03  0.33581385158E+03  0.10566000000E+00 0. -1.
          2    1    1    2  502    0 -0.90923562879E+01 -0.29080532666E+02  0.85126514853E+03  0.85181024966E+03  0.00000000000E+00 0. -1.
         -4    1    3    3    0  502 -0.44468036458E+03  0.29792532918E+03  0.13283914036E+04  0.14321745179E+04  0.00000000000E+00 0. -1.
</event>
<event>
 7    1  0.9434649E-006  0.1075716E+04  0.7818608E-02  0.8971626E-01
          4   -1    0    0  501    0 -0.00000000000E+00  0.00000000000E+00  0.16926223382E+04  0.16926223382E+04  0.00000000000E+00 0.  1.
          2   -1    0    0  502    0  0.00000000000E+00 -0.00000000000E+00 -0.14744175118E+04  0.14744175118E+04  0.00000000000E+00 0.  1.
    9000010    2    1    2  502    0  0.25553766622E+03 -0.23504981944E+03  0.13442450070E+03  0.10820121682E+04  0.10159392055E+04 0.  0.
        -13    1    3    3    0    0  0.30873884940E+03 -0.41822588376E+03 -0.30518636897E+03  0.60280286823E+03  0.10566000000E+00 0.  1.
         13    1    1    2    0    0 -0.25045669193E+03  0.25018463857E+03  0.10554450250E+04  0.11132318356E+04  0.10566000000E+00 0. -1.
          2    1    1    2  501    0 -0.50809742929E+01 -0.15134819124E+02 -0.97166469926E+03  0.97179584627E+03  0.00000000000E+00 0.  1.
          4    1    3    3  502    0 -0.53201183176E+02  0.18317606431E+03  0.43961086967E+03  0.47920929995E+03  0.00000000000E+00 0.  1.
</event>
<event>
 7    1  0.9434649E-006  0.1012117E+04  0.7818608E-02  0.9223370E-01
          2   -1    0    0  502    0  0.00000000000E+00  0.00000000000E+00  0.74353907119E+03  0.74353907119E+03  0.00000000000E+00 0.  1.
          4   -1    0    0  501    0 -0.00000000000E+00 -0.00000000000E+00 -0.20525754542E+04  0.20525754542E+04  0.00000000000E+00 0.  1.
    9000010    2    1    2  502    0 -0.11008337907E+03  0.20088932894E+03 -0.14498326173E+04  0.17760480623E+04  0.99992861174E+03 0.  0.
        -13    1    3    3    0    0 -0.17403470419E+03  0.13391353553E+03  0.87167587339E+02  0.23626068803E+03  0.10566000000E+00 0.  1.
         13    1    1    2    0    0  0.69008401011E+02 -0.13411263386E+03 -0.42391098456E+03  0.44994320971E+03  0.10566000000E+00 0. -1.
          2    1    1    2  501    0  0.41074978061E+02 -0.66776695086E+02  0.56470721894E+03  0.57012325330E+03  0.00000000000E+00 0.  1.
          4    1    3    3  502    0  0.63951325115E+02  0.66975793412E+02 -0.15370002047E+04  0.15397873743E+04  0.00000000000E+00 0.  1.
</event>
<event>
 7    1  0.9434649E-006  0.9679582E+03  0.7818608E-02  0.9224475E-01
          2   -1    0    0  502    0  0.00000000000E+00  0.00000000000E+00  0.27166613340E+04  0.27166613340E+04  0.00000000000E+00 0.  1.
          4   -1    0    0  501    0 -0.00000000000E+00 -0.00000000000E+00 -0.11219632398E+04  0.11219632398E+04  0.00000000000E+00 0.  1.
    9000010    2    1    2  502    0  0.10889141396E+03 -0.16345705271E+03 -0.90335480150E+03  0.13265702869E+04  0.95140069399E+03 0.  0.
        -13    1    3    3    0    0  0.29951912965E+03 -0.28416006221E+02 -0.10214262565E+04  0.10648149074E+04  0.10566000000E+00 0.  1.
         13    1    1    2    0    0 -0.99814206753E+02  0.77642369173E+02  0.66170665571E+03  0.67368161822E+03  0.10566000000E+00 0. -1.
          2    1    1    2  501    0 -0.90772072075E+01  0.85814683535E+02  0.18363462400E+04  0.18383726686E+04  0.00000000000E+00 0.  1.
          4    1    3    3  502    0 -0.19062771569E+03 -0.13504104649E+03  0.11807145495E+03  0.26175537950E+03  0.00000000000E+00 0.  1.
</event>
<event>
 7    1  0.9434649E-006  0.1572292E+04  0.7818608E-02  0.8427543E-01
          4   -1    0    0  501    0  0.00000000000E+00  0.00000000000E+00  0.67883125140E+03  0.67883125140E+03  0.00000000000E+00 0.  1.
         -4   -1    0    0    0  501 -0.00000000000E+00 -0.00000000000E+00 -0.36696731382E+04  0.36696731382E+04  0.00000000000E+00 0. -1.
   -9000010    2    1    2    0  502 -0.16949803064E+03 -0.12157787752E+04 -0.15357877757E+04  0.22140196426E+04  0.10180330413E+04 0.  0.
        -13    1    1    2    0    0  0.26053841150E+03  0.11536615838E+04 -0.15762763713E+04  0.19706502794E+04  0.10566000000E+00 0.  1.
         13    1    3    3    0    0  0.10970943822E+03 -0.77544702006E+03 -0.14990902867E+04  0.16913385057E+04  0.10566000000E+00 0. -1.
          4    1    1    2  502    0 -0.91040380856E+02  0.62117191412E+02  0.12122226021E+03  0.16383446764E+03  0.00000000000E+00 0.  1.
         -4    1    3    3    0  502 -0.27920746886E+03 -0.44033175511E+03 -0.36697488982E+02  0.52268113695E+03  0.00000000000E+00 0. -1.
</event>
<event>
 7    1  0.9434649E-006  0.1059412E+04  0.7818608E-02  0.9337909E-01
         -4   -1    0    0    0  501 -0.00000000000E+00  0.00000000000E+00  0.55035835469E+03  0.55035835469E+03  0.00000000000E+00 0. -1.
          2   -1    0    0  501    0  0.00000000000E+00 -0.00000000000E+00 -0.11652412459E+04  0.11652412459E+04  0.00000000000E+00 0. -1.
   -9000010    2    1    2    0  502  0.18333544407E+03 -0.32762954103E+03 -0.25998803780E+03  0.11108867045E+04  0.10126808427E+04 0.  0.
        -13    1    1    2    0    0 -0.77230931614E+02  0.42805450500E+02  0.47626666985E+02  0.10032563961E+03  0.10566000000E+00 0.  1.
         13    1    3    3    0    0 -0.28024966017E+03 -0.42248429024E+03 -0.36683952333E+03  0.62578278545E+03  0.10566000000E+00 0. -1.
          2    1    1    2  502    0 -0.10610451246E+03  0.28482409053E+03 -0.40252152041E+03  0.50438725648E+03  0.00000000000E+00 0. -1.
         -4    1    3    3    0  502  0.46358510425E+03  0.94854749214E+02  0.10685148553E+03  0.48510391906E+03  0.00000000000E+00 0. -1.
</event>
<event>
 7    1  0.9434649E-006  0.9778436E+03  0.7818608E-02  0.9698830E-01
          2   -1    0    0  502    0  0.00000000000E+00  0.00000000000E+00  0.29160571050E+04  0.29160571050E+04  0.00000000000E+00 0.  1.
          4   -1    0    0  501    0 -0.00000000000E+00 -0.00000000000E+00 -0.17257159554E+03  0.17257159554E+03  0.00000000000E+00 0.  1.
    9000010    2    1    2  502    0  0.48737165822E+02 -0.32369127701E+01  0.22972807148E+04  0.24967276231E+04  0.97660859729E+03 0.  0.
        -13    1    3    3    0    0  0.36184751266E+03  0.11209206336E+03  0.20413619191E+04  0.20762121156E+04  0.10566000000E+00 0.  1.
         13    1    1    2    0    0 -0.10969191428E+02 -0.28361821839E+02 -0.68447381218E+02  0.74898406246E+02  0.10566000000E+00 0. -1.
          2    1    1    2  501    0 -0.37767974394E+02  0.31598734609E+02  0.51465217591E+03  0.51700267126E+03  0.00000000000E+00 0.  1.
          4    1    3    3  502    0 -0.31311034684E+03 -0.11532897613E+03  0.25591879570E+03  0.42051550747E+03  0.00000000000E+00 0.  1.
</event>
<event>
 7    1  0.9434649E-006  0.1083961E+04  0.7818608E-02  0.8913672E-01
          2   -1    0    0  502    0  0.00000000000E+00  0.00000000000E+00  0.65330308965E+03  0.65330308965E+03  0.00000000000E+00 0. -1.
          4   -1    0    0  501    0 -0.00000000000E+00 -0.00000000000E+00 -0.14819460018E+04  0.14819460018E+04  0.00000000000E+00 0.  1.
    9000010    2    1    2  502    0 -0.31709068531E+03  0.30098413295E+03 -0.53081573512E+03  0.12065589686E+04  0.99140367618E+03 0.  0.
        -13    1    3    3    0    0 -0.56164921714E+03  0.51049658544E+03 -0.33466605256E+03  0.82949260682E+03  0.10566000000E+00 0.  1.
         13    1    1    2    0    0  0.32550416846E+03 -0.29390585622E+03 -0.53470842228E+03  0.69155384753E+03  0.10566000000E+00 0. -1.
          2    1    1    2  501    0 -0.84134831506E+01 -0.70782767282E+01  0.23688124526E+03  0.23713627528E+03  0.00000000000E+00 0. -1.
          4    1    3    3  502    0  0.24455853184E+03 -0.20951245249E+03 -0.19614968257E+03  0.37706636182E+03  0.00000000000E+00 0.  1.
</event>
<event>
 6    1  0.9434649E-006  0.1587281E+03  0.7818608E-02  0.1108052E+00
          2   -1    0    0  501    0  0.00000000000E+00  0.00000000000E+00  0.25053053578E+04  0.25053053578E+04  0.00000000000E+00 0.  1.
         -4   -1    0    0    0  501 -0.00000000000E+00 -0.00000000000E+00 -0.88230833321E+02  0.88230833321E+02  0.00000000000E+00 0. -1.
        -13    1    1    2    0    0  0.30613656021E+02 -0.10049552428E+03  0.14424406160E+03  0.17844580915E+03  0.10566000000E+00 0.  1.
         13    1    1    2    0    0 -0.41868402754E+02  0.12283631743E+03  0.28550166922E+02  0.13287906992E+03  0.10566000000E+00 0. -1.
          2    1    1    2  502    0  0.80067851911E+02 -0.86733731023E+02  0.21335183156E+04  0.21367812251E+04  0.00000000000E+00 0.  1.
         -4    1    1    2    0  502 -0.68813105178E+02  0.64392937874E+02  0.11076198040E+03  0.14543008696E+03  0.00000000000E+00 0. -1.
</event>
<event>
 7    1  0.9434649E-006  0.1040418E+04  0.7818608E-02  0.9075885E-01
          2   -1    0    0  501    0  0.00000000000E+00  0.00000000000E+00  0.13513621007E+04  0.13513621007E+04  0.00000000000E+00 0. -1.
         -4   -1    0    0    0  501 -0.00000000000E+00 -0.00000000000E+00 -0.71353784299E+03  0.71353784299E+03  0.00000000000E+00 0. -1.
   -9000010    2    1    2    0  502  0.19112252696E+03 -0.10411023542E+03  0.40488375491E+03  0.10882116276E+04  0.98636044626E+03 0.  0.
        -13    1    1    2    0    0  0.15504050629E+03  0.20482450435E+03 -0.26031680779E+03  0.36572597358E+03  0.10566000000E+00 0.  1.
         13    1    3    3    0    0  0.32563952783E+03  0.35410883586E+03  0.31666719970E+02  0.48211716630E+03  0.10566000000E+00 0. -1.
          2    1    1    2  502    0 -0.34616303325E+03 -0.10071426893E+03  0.49325731058E+03  0.61096234254E+03  0.00000000000E+00 0. -1.
         -4    1    3    3    0  502 -0.13451700087E+03 -0.45821907128E+03  0.37321703494E+03  0.60609446127E+03  0.00000000000E+00 0. -1.
</event>
<event>
 7    1  0.9434649E-006  0.1023485E+04  0.7818608E-02  0.9114578E-01
         -4   -1    0    0    0  501 -0.00000000000E+00  0.00000000000E+00  0.60102149878E+03  0.60102149878E+03  0.00000000000E+00 0. -1.
          2   -1    0    0  501    0  0.00000000000E+00 -0.00000000000E+00 -0.20937102820E+04  0.20937102820E+04  0.00000000000E+00 0. -1.
   -9000010    2    1    2    0  502  0.12798319938E+03  0.20414474251E+03  0.13134123355E+03  0.10340401332E+04  0.99696223716E+03 0.  0.
        -13    1    1    2    0    0 -0.10815178010E+03 -0.18918362546E+03 -0.63502554995E+03  0.67137523929E+03  0.10566000000E+00 0.  1.
         13    1    3    3    0    0 -0.23636931683E+03  0.46113176515E+03 -0.10604055633E+03  0.52892113733E+03  0.10566000000E+00 0. -1.
          2    1    1    2  502    0 -0.19831419281E+02 -0.14961117053E+02 -0.98900446679E+03  0.98931640820E+03  0.00000000000E+00 0. -1.
         -4    1    3    3    0  502  0.36435251621E+03 -0.25698702263E+03  0.23738178988E+03  0.50511899592E+03  0.00000000000E+00 0. -1.
</event>
<event>
 7    1  0.9434649E-006  0.1014964E+04  0.7818608E-02  0.9167217E-01
          4   -1    0    0  501    0 -0.00000000000E+00  0.00000000000E+00  0.14128562444E+04  0.14128562444E+04  0.00000000000E+00 0.  1.
          2   -1    0    0  502    0  0.00000000000E+00 -0.00000000000E+00 -0.21742587650E+04  0.21742587650E+04  0.00000000000E+00 0.  1.
    9000010    2    1    2  502    0 -0.14337514257E+03 -0.10925864705E+03  0.23725910471E+03  0.10400290826E+04  0.99643099428E+03 0.  0.
        -13    1    3    3    0    0  0.13972095117E+03  0.38510701254E+03  0.23100223229E+03  0.47030989549E+03  0.10566000000E+00 0.  1.
         13    1    1    2    0    0  0.17093337626E+03  0.90744285869E+02  0.76195937850E+03  0.78615192564E+03  0.10566000000E+00 0. -1.
          2    1    1    2  501    0 -0.27558233691E+02  0.18514361186E+02 -0.17606210038E+04  0.17609340013E+04  0.00000000000E+00 0.  1.
          4    1    3    3  502    0 -0.28309609374E+03 -0.49436565960E+03  0.62568724131E+01  0.56971918708E+03  0.00000000000E+00 0.  1.
</event>
<event>
 7    1  0.9434649E-006  0.1040575E+04  0.7818608E-02  0.9182139E-01
          4   -1    0    0  501    0 -0.00000000000E+00  0.00000000000E+00  0.87412340616E+03  0.87412340616E+03  0.00000000000E+00 0.  1.
          2   -1    0    0  502    0  0.00000000000E+00 -0.00000000000E+00 -0.11625121794E+04  0.11625121794E+04  0.00000000000E+00 0.  1.
    9000010    2    1    2  502    0  0.18027466200E+03  0.25253008605E+02  0.25133372302E+03  0.10726252942E+04  0.10267520213E+04 0.  0.
        -13    1    3    3    0    0  0.27343184370E+03 -0.26246540981E+03  0.53655442105E+03  0.65691987518E+03  0.10566000000E+00 0.  1.
         13    1    1    2    0    0 -0.16754118812E+03 -0.12677870939E+02  0.17874654428E+03  0.24531839798E+03  0.10566000000E+00 0. -1.
          2    1    1    2  501    0 -0.12733473878E+02 -0.12575137666E+02 -0.71846904059E+03  0.71869189346E+03  0.00000000000E+00 0.  1.
          4    1    3    3  502    0 -0.93157181700E+02  0.28771841842E+03 -0.28522069803E+03  0.41570541899E+03  0.00000000000E+00 0.  1.
</event>
<event>
 7    1  0.9434649E-006  0.1013358E+04  0.7818608E-02  0.9324910E-01
          2   -1    0    0  502    0  0.00000000000E+00  0.00000000000E+00  0.21202541399E+04  0.21202541399E+04  0.00000000000E+00 0. -1.
          4   -1    0    0  501    0 -0.00000000000E+00 -0.00000000000E+00 -0.94231386293E+03  0.94231386293E+03  0.00000000000E+00 0.  1.
    9000010    2    1    2  502    0 -0.93408483685E+01  0.10138813766E+03 -0.60781496082E+03  0.11813021407E+04  0.10078040063E+04 0.  0.
        -13    1    3    3    0    0  0.44064365935E+02 -0.44943689611E+03 -0.20018906901E+03  0.49397456053E+03  0.10566000000E+00 0.  1.
         13    1    1    2    0    0  0.49207900725E+02 -0.96303608385E+02  0.13993961858E+02  0.10904881757E+03  0.10566000000E+00 0. -1.
          2    1    1    2  501    0 -0.39867052356E+02 -0.50845292735E+01  0.17717612760E+04  0.17722170446E+04  0.00000000000E+00 0. -1.
          4    1    3    3  502    0 -0.53405214303E+02  0.55082503377E+03 -0.40762589180E+03  0.68732758013E+03  0.00000000000E+00 0.  1.
</event>
<event>
 7    1  0.9434649E-006  0.1087384E+04  0.7818608E-02  0.8890954E-01
          2   -1    0    0  501    0  0.00000000000E+00  0.00000000000E+00  0.19827188634E+04  0.19827188634E+04  0.00000000000E+00 0. -1.
         -4   -1    0    0    0  501 -0.00000000000E+00 -0.00000000000E+00 -0.54726125260E+03  0.54726125260E+03  0.00000000000E+00 0. -1.
   -9000010    2    1    2    0  502  0.48269592229E+03  0.46810809624E+02  0.71261114303E+03  0.13030470345E+04  0.97720536615E+03 0.  0.
        -13    1    1    2    0    0 -0.47055023322E+03 -0.66616176307E+02 -0.27679420120E+02  0.47604768500E+03  0.10566000000E+00 0.  1.
         13    1    3    3    0    0  0.32607910668E+02  0.45673242680E+03  0.17282954661E+03  0.48942604025E+03  0.10566000000E+00 0. -1.
          2    1    1    2  502    0 -0.12145689069E+02  0.19805366683E+02  0.75052588785E+03  0.75088539648E+03  0.00000000000E+00 0. -1.
         -4    1    3    3    0  502  0.45008801162E+03 -0.40992161718E+03  0.53978159642E+03  0.81362099424E+03  0.00000000000E+00 0. -1.
</event>
<event>
 7    1  0.9434649E-006  0.1071999E+04  0.7818608E-02  0.8926984E-01
         -4   -1    0    0    0  501 -0.00000000000E+00  0.00000000000E+00  0.38913568051E+03  0.38913568051E+03  0.00000000000E+00 0. -1.
          1   -1    0    0  501    0  0.00000000000E+00 -0.00000000000E+00 -0.25459676887E+04  0.25459676887E+04  0.00000000000E+00 0. -1.
   -9000010    2    1    2    0  502  0.23736283681E+03  0.57575781127E+02 -0.98346585299E+03  0.14114045011E+04  0.98244668807E+03 0.  0.
        -13    1    1    2    0    0 -0.47182692437E+03 -0.11509381023E+03 -0.20752256034E+03  0.52814094324E+03  0.10566000000E+00 0.  1.
         13    1    3    3    0    0 -0.29779200979E+02  0.46724688371E+03 -0.71170016432E+03  0.85189411678E+03  0.10566000000E+00 0. -1.
          1    1    1    2  502    0  0.23446408756E+03  0.57518029103E+02 -0.96584359486E+03  0.99555792487E+03  0.00000000000E+00 0. -1.
         -4    1    3    3    0  502  0.26714203779E+03 -0.40967110258E+03 -0.27176568867E+03  0.55951038434E+03  0.00000000000E+00 0. -1.
</event>
<event>
 7    1  0.9434649E-006  0.1414497E+04  0.7818608E-02  0.8546402E-01
         -4   -1    0    0    0  501 -0.00000000000E+00  0.00000000000E+00  0.23321495148E+04  0.23321495148E+04  0.00000000000E+00 0. -1.
          2   -1    0    0  501    0  0.00000000000E+00 -0.00000000000E+00 -0.18653096220E+04  0.18653096220E+04  0.00000000000E+00 0. -1.
   -9000010    2    1    2    0  502 -0.86055523973E+03  0.41827262757E+03  0.10432718745E+04  0.17569426588E+04  0.10406363393E+04 0.  0.
        -13    1    1    2    0    0  0.87075007700E+03 -0.40182583343E+03  0.68526708785E+03  0.11786690332E+04  0.10566000000E+00 0.  1.
         13    1    3    3    0    0 -0.69777882325E+03 -0.23809361783E+03  0.53232787085E+03  0.90937166785E+03  0.10566000000E+00 0. -1.
          2    1    1    2  502    0 -0.10194837262E+02 -0.16446794142E+02 -0.12616990696E+04  0.12618474448E+04  0.00000000000E+00 0. -1.
         -4    1    3    3    0  502 -0.16277641648E+03  0.65636624541E+03  0.51094400368E+03  0.84757099099E+03  0.00000000000E+00 0. -1.
</event>
<event>
 7    1  0.9434649E-006  0.1022137E+04  0.7818608E-02  0.9002462E-01
         -4   -1    0    0    0  501 -0.00000000000E+00  0.00000000000E+00  0.17447679665E+04  0.17447679665E+04  0.00000000000E+00 0. -1.
          2   -1    0    0  501    0  0.00000000000E+00 -0.00000000000E+00 -0.56511369312E+03  0.56511369312E+03  0.00000000000E+00 0. -1.
   -9000010    2    1    2    0  502  0.24531846504E+03 -0.27684292749E+03  0.35112041541E+03  0.10828683538E+04  0.95524613042E+03 0.  0.
        -13    1    1    2    0    0 -0.25408603838E+03  0.25949994655E+03  0.99510716043E+03  0.10593102516E+04  0.10566000000E+00 0.  1.
         13    1    3    3    0    0  0.37174893561E+03 -0.70198423097E+02 -0.23726428982E+03  0.44656404258E+03  0.10566000000E+00 0. -1.
          2    1    1    2  502    0  0.87675733439E+01  0.17342980943E+02 -0.16657330246E+03  0.16770305430E+03  0.00000000000E+00 0. -1.
         -4    1    3    3    0  502 -0.12643047057E+03 -0.20664450439E+03  0.58838470524E+03  0.63630431119E+03  0.00000000000E+00 0. -1.
</event>
<event>
 7    1  0.9434649E-006  0.1009223E+04  0.7818608E-02  0.9203502E-01
          4   -1    0    0  501    0 -0.00000000000E+00  0.00000000000E+00  0.15901632854E+04  0.15901632854E+04  0.00000000000E+00 0.  1.
          2   -1    0    0  502    0  0.00000000000E+00 -0.00000000000E+00 -0.16585976672E+04  0.16585976672E+04  0.00000000000E+00 0.  1.
    9000010    2    1    2  502    0 -0.12892520664E+03 -0.17701651337E+03  0.44736867620E+03  0.11094413357E+04  0.99134493996E+03 0.  0.
        -13    1    3    3    0    0 -0.37245906196E+03 -0.47295901076E+03  0.13980828519E+03  0.61803102387E+03  0.10566000000E+00 0.  1.
         13    1    1    2    0    0 -0.59788739096E+02  0.15973098917E+03  0.79591488914E+03  0.81398354046E+03  0.10566000000E+00 0. -1.
          2    1    1    2  501    0  0.18871394574E+03  0.17285524193E+02 -0.13117179472E+04  0.13253360765E+04  0.00000000000E+00 0.  1.
          4    1    3    3  502    0  0.24353385531E+03  0.29594249740E+03  0.30756039101E+03  0.49141031183E+03  0.00000000000E+00 0.  1.
</event>
<event>
 7    1  0.9434649E-006  0.1027486E+04  0.7818608E-02  0.9036039E-01
          2   -1    0    0  501    0  0.00000000000E+00  0.00000000000E+00  0.13614574573E+04  0.13614574573E+04  0.00000000000E+00 0. -1.
         -4   -1    0    0    0  501 -0.00000000000E+00 -0.00000000000E+00 -0.46306430633E+03  0.46306430633E+03  0.00000000000E+00 0. -1.
   -9000010    2    1    2    0  502 -0.30492460870E+03 -0.14385796619E+02  0.39324244816E+03  0.10980644102E+04  0.97873380333E+03 0.  0.
        -13    1    1    2    0    0  0.31273984631E+03  0.39464882931E+02  0.11518184741E+03  0.33560476395E+03  0.10566000000E+00 0.  1.
         13    1    3    3    0    0 -0.40087908052E+03 -0.43085997547E+03  0.15422209611E+03  0.60838213464E+03  0.10566000000E+00 0. -1.
          2    1    1    2  502    0 -0.78152376058E+01 -0.25079086312E+02  0.38996885536E+03  0.39085258943E+03  0.00000000000E+00 0. -1.
         -4    1    3    3    0  502  0.95954471815E+02  0.41647417885E+03  0.23902035206E+03  0.48968227557E+03  0.00000000000E+00 0. -1.
</event>
<event>
 6    1  0.9434649E-006  0.4411642E+03  0.7818608E-02  0.9617185E-01
          4   -1    0    0  501    0 -0.00000000000E+00  0.00000000000E+00  0.11387567601E+03  0.11387567601E+03  0.00000000000E+00 0.  1.
          2   -1    0    0  502    0  0.00000000000E+00 -0.00000000000E+00 -0.11174925985E+04  0.11174925985E+04  0.00000000000E+00 0. -1.
        -13    1    1    2    0    0  0.11708352998E+02 -0.12129584938E+03 -0.25936088427E+02  0.12458916668E+03  0.10566000000E+00 0.  1.
         13    1    1    2    0    0 -0.74526380567E+02  0.16230369764E+03 -0.27138148702E+03  0.32487627542E+03  0.10566000000E+00 0. -1.
          2    1    1    2  501    0 -0.21993305723E+02 -0.89695428869E+01 -0.68924204452E+03  0.68965118294E+03  0.00000000000E+00 0. -1.
          4    1    1    2  502    0  0.84811333293E+02 -0.32038305373E+02 -0.17057302563E+02  0.92251649507E+02  0.00000000000E+00 0.  1.
</event>
<event>
 6    1  0.9434649E-006  0.1988202E+03  0.7818608E-02  0.1060948E+00
         -4   -1    0    0    0  501 -0.00000000000E+00  0.00000000000E+00  0.20120178977E+03  0.20120178977E+03  0.00000000000E+00 0. -1.
          2   -1    0    0  501    0  0.00000000000E+00 -0.00000000000E+00 -0.11814972854E+03  0.11814972854E+03  0.00000000000E+00 0. -1.
        -13    1    1    2    0    0 -0.37805493342E+02 -0.22486130078E+02  0.26022326434E+02  0.51108257745E+02  0.10566000000E+00 0.  1.
         13    1    1    2    0    0 -0.62586285765E+01  0.42284348967E+02  0.13530779664E+03  0.14189907539E+03  0.10566000000E+00 0. -1.
          2    1    1    2  502    0 -0.11043904136E+02 -0.14742421256E+02 -0.67495679591E+02  0.69964087691E+02  0.00000000000E+00 0. -1.
         -4    1    1    2    0  502  0.55108026055E+02 -0.50557976328E+01 -0.10782382253E+02  0.56380097485E+02  0.00000000000E+00 0. -1.
</event>
<event>
 7    1  0.9434649E-006  0.1080750E+04  0.7818608E-02  0.8915058E-01
          4   -1    0    0  501    0 -0.00000000000E+00  0.00000000000E+00  0.38927774485E+03  0.38927774485E+03  0.00000000000E+00 0.  1.
          2   -1    0    0  502    0  0.00000000000E+00 -0.00000000000E+00 -0.37808610166E+04  0.37808610166E+04  0.00000000000E+00 0.  1.
    9000010    2    1    2  502    0 -0.42239368272E+03  0.27979176493E+03 -0.25953996622E+04  0.28172826994E+04  0.97174201651E+03 0.  0.
        -13    1    3    3    0    0 -0.15874263956E+03 -0.36555583002E+03 -0.91632889680E+03  0.99924418875E+03  0.10566000000E+00 0.  1.
         13    1    1    2    0    0 -0.87213750357E+02 -0.43093869659E+03 -0.58406813556E+02  0.44353778363E+03  0.10566000000E+00 0. -1.
          2    1    1    2  501    0  0.50960743308E+03  0.15114693167E+03 -0.73777679591E+03  0.90931827838E+03  0.00000000000E+00 0.  1.
          4    1    3    3  502    0 -0.26365104316E+03  0.64534759494E+03 -0.16790707654E+04  0.18180385107E+04  0.00000000000E+00 0.  1.
</event>
<event>
 7    1  0.9434649E-006  0.1088896E+04  0.7818608E-02  0.8923370E-01
          4   -1    0    0  501    0 -0.00000000000E+00  0.00000000000E+00  0.26580783069E+04  0.26580783069E+04  0.00000000000E+00 0.  1.
          2   -1    0    0  502    0  0.00000000000E+00 -0.00000000000E+00 -0.10923120183E+04  0.10923120183E+04  0.00000000000E+00 0. -1.
    9000010    2    1    2  502    0 -0.43500076919E+03 -0.65301244603E+02  0.14942306744E+04  0.18545480833E+04  0.10065452614E+04 0.  0.
        -13    1    3    3    0    0  0.34765264756E+01 -0.48590647652E+03  0.57733572744E+03  0.75460833782E+03  0.10566000000E+00 0.  1.
         13    1    1    2    0    0  0.39699945342E+03 -0.13400464610E+03  0.92665400259E+03  0.10169825283E+04  0.10566000000E+00 0. -1.
          2    1    1    2  501    0  0.38001315773E+02  0.19930589071E+03 -0.85511838838E+03  0.87885971361E+03  0.00000000000E+00 0. -1.
          4    1    3    3  502    0 -0.43847729567E+03  0.42060523192E+03  0.91689494697E+03  0.10999397455E+04  0.00000000000E+00 0.  1.
</event>
<event>
 7    1  0.9434649E-006  0.1041733E+04  0.7818608E-02  0.9053116E-01
          2   -1    0    0  501    0  0.00000000000E+00  0.00000000000E+00  0.90013507149E+03  0.90013507149E+03  0.00000000000E+00 0.  1.
         -4   -1    0    0    0  501 -0.00000000000E+00 -0.00000000000E+00 -0.18119498380E+04  0.18119498380E+04  0.00000000000E+00 0. -1.
   -9000010    2    1    2    0  502  0.35795387608E+03  0.54438316846E+02 -0.55373512036E+03  0.11995659500E+04  0.10006204961E+04 0.  0.
        -13    1    1    2    0    0 -0.13659924553E+03 -0.24469826623E+03 -0.87505515727E+03  0.91883520546E+03  0.10566000000E+00 0.  1.
         13    1    3    3    0    0  0.41958657521E+03 -0.21333529027E+03  0.10809812629E+03  0.48295968387E+03  0.10566000000E+00 0. -1.
          2    1    1    2  502    0 -0.22135463055E+03  0.19025994939E+03  0.51697551107E+03  0.59368375408E+03  0.00000000000E+00 0.  1.
         -4    1    3    3    0  502 -0.61632699130E+02  0.26777360712E+03 -0.66183324665E+03  0.71660626612E+03  0.00000000000E+00 0. -1.
</event>
<event>
 7    1  0.9434649E-006  0.1009712E+04  0.7818608E-02  0.9216178E-01
          4   -1    0    0  501    0 -0.00000000000E+00  0.00000000000E+00  0.16556655936E+04  0.16556655936E+04  0.00000000000E+00 0.  1.
          2   -1    0    0  502    0  0.00000000000E+00 -0.00000000000E+00 -0.43554514302E+03  0.43554514302E+03  0.00000000000E+00 0.  1.
    9000010    2    1    2  502    0 -0.11282051763E+03 -0.12643783226E+03  0.14224928023E+04  0.17451136220E+04  0.99660462908E+03 0.  0.
        -13    1    3    3    0    0 -0.95676043479E+02  0.14816113325E+02 -0.14326086041E+03  0.17290780144E+03  0.10566000000E+00 0.  1.
         13    1    1    2    0    0  0.10380965872E+03  0.11940421783E+03 -0.15614125133E+02  0.15898938501E+03  0.10566000000E+00 0. -1.
          2    1    1    2  501    0  0.90108589139E+01  0.70336144353E+01 -0.18675822652E+03  0.18710772962E+03  0.00000000000E+00 0.  1.
          4    1    3    3  502    0 -0.17144474152E+02 -0.14125394559E+03  0.15657536627E+04  0.15722058206E+04  0.00000000000E+00 0.  1.
</event>
<event>
 7    1  0.9434649E-006  0.1041936E+04  0.7818608E-02  0.9238109E-01
          4   -1    0    0  501    0 -0.00000000000E+00  0.00000000000E+00  0.67198114396E+03  0.67198114396E+03  0.00000000000E+00 0.  1.
          2   -1    0    0  502    0  0.00000000000E+00 -0.00000000000E+00 -0.11722981818E+04  0.11722981818E+04  0.00000000000E+00 0.  1.
    9000010    2    1    2  502    0 -0.12648723086E+03 -0.14562805491E+03 -0.50581244842E+03  0.11663140999E+04  0.10330710512E+04 0.  0.
        -13    1    3    3    0    0  0.23009164783E+03  0.30846115549E+03 -0.44104801435E+03  0.58533222444E+03  0.10566000000E+00 0.  1.
         13    1    1    2    0    0  0.88792528034E+02  0.10130276498E+03  0.32573071434E+03  0.35248669855E+03  0.10566000000E+00 0. -1.
          2    1    1    2  501    0  0.37694702830E+02  0.44325289936E+02 -0.32023530372E+03  0.32547852724E+03  0.00000000000E+00 0.  1.
          4    1    3    3  502    0 -0.35657887869E+03 -0.45408921040E+03 -0.64764434073E+02  0.58098187549E+03  0.00000000000E+00 0.  1.
</event>
<event>
 7    1  0.9434649E-006  0.1091137E+04  0.7818608E-02  0.8907158E-01
          2   -1    0    0  502    0  0.00000000000E+00  0.00000000000E+00  0.92198219554E+03  0.92198219554E+03  0.00000000000E+00 0.  1.
          4   -1    0    0  501    0 -0.00000000000E+00 -0.00000000000E+00 -0.17150376593E+04  0.17150376593E+04  0.00000000000E+00 0.  1.
    9000010    2    1    2  502    0 -0.75209476066E+02 -0.44616034962E+03 -0.36830517206E+03  0.11559006705E+04  0.99786879775E+03 0.  0.
        -13    1    3    3    0    0  0.23114595264E+03 -0.47930646945E+03 -0.57608983989E+03  0.78424655426E+03  0.10566000000E+00 0.  1.
         13    1    1    2    0    0  0.60028164200E+02  0.43588867966E+03 -0.90195833148E+03  0.10035592481E+04  0.10566000000E+00 0. -1.
          2    1    1    2  501    0  0.15181311866E+02  0.10271669957E+02  0.47720803978E+03  0.47755993620E+03  0.00000000000E+00 0.  1.
          4    1    3    3  502    0 -0.30635542871E+03  0.33146119833E+02  0.20778466783E+03  0.37165411628E+03  0.00000000000E+00 0.  1.
</event>
<event>
 6    1  0.9434649E-006  0.6907879E+03  0.7818608E-02  0.9136450E-01
          2   -1    0    0  501    0  0.00000000000E+00  0.00000000000E+00  0.16757751887E+04  0.16757751887E+04  0.00000000000E+00 0.  1.
         -4   -1    0    0    0  501 -0.00000000000E+00 -0.00000000000E+00 -0.15709939712E+04  0.15709939712E+04  0.00000000000E+00 0. -1.
        -13    1    1    2    0    0 -0.46402758627E+02  0.87064280209E+01 -0.44369878765E+02  0.64789776993E+02  0.10566000000E+00 0.  1.
         13    1    1    2    0    0  0.21761098507E+03  0.98008171016E+02 -0.80713394017E+03  0.84168007637E+03  0.10566000000E+00 0. -1.
          2    1    1    2  502    0 -0.40746421175E+03  0.16964497604E+03  0.15678657581E+04  0.16288061693E+04  0.00000000000E+00 0.  1.
         -4    1    1    2    0  502  0.23625598531E+03 -0.27635957508E+03 -0.61158072158E+03  0.71149313724E+03  0.00000000000E+00 0. -1.
</event>
<event>
 6    1  0.9434649E-006  0.5081335E+03  0.7818608E-02  0.9460321E-01
          5   -1    0    0  501    0  0.00000000000E+00  0.00000000000E+00  0.54079013315E+03  0.54079013315E+03  0.00000000000E+00 0.  1.
         -4   -1    0    0    0  501 -0.00000000000E+00 -0.00000000000E+00 -0.13988369478E+03  0.13988369478E+03  0.00000000000E+00 0. -1.
        -13    1    1    2    0    0 -0.38505171154E+02 -0.99586454245E+02  0.29177829907E+03  0.31070033319E+03  0.10566000000E+00 0.  1.
         13    1    1    2    0    0  0.98078075809E+02  0.10848955869E+03 -0.66426447530E+02  0.16062931674E+03  0.10566000000E+00 0. -1.
          5    1    1    2  502    0  0.18395966570E+02  0.20449805703E+02  0.67592482699E+02  0.72974994736E+02  0.00000000000E+00 0.  1.
         -4    1    1    2    0  502 -0.77968871225E+02 -0.29352910151E+02  0.10796210413E+03  0.13636918326E+03  0.00000000000E+00 0. -1.
</event>
<event>
 6    1  0.9434649E-006  0.9018629E+03  0.7818608E-02  0.8872702E-01
         -2   -1    0    0    0  501  0.00000000000E+00  0.00000000000E+00  0.42930372845E+03  0.42930372845E+03  0.00000000000E+00 0.  1.
         -4   -1    0    0    0  502 -0.00000000000E+00 -0.00000000000E+00 -0.16097400143E+04  0.16097400143E+04  0.00000000000E+00 0. -1.
        -13    1    1    2    0    0  0.21057050779E+03 -0.33966995157E+03 -0.39178338792E+03  0.55965154245E+03  0.10566000000E+00 0.  1.
         13    1    1    2    0    0 -0.18419033594E+03  0.33871996919E+03 -0.93929985565E+03  0.10153529078E+04  0.10566000000E+00 0. -1.
         -2    1    1    2    0  502  0.25411265759E+02  0.91865829540E+01  0.30233586922E+03  0.30354094213E+03  0.00000000000E+00 0.  1.
         -4    1    1    2    0  501 -0.51791437605E+02 -0.82366005743E+01 -0.15168891154E+03  0.16049835040E+03  0.00000000000E+00 0. -1.
</event>
<event>
 7    1  0.9434649E-006  0.9886101E+03  0.7818608E-02  0.9494123E-01
          1   -1    0    0  501    0  0.00000000000E+00  0.00000000000E+00  0.77247891327E+03  0.77247891327E+03  0.00000000000E+00 0. -1.
         -4   -1    0    0    0  501 -0.00000000000E+00 -0.00000000000E+00 -0.79276961550E+03  0.79276961550E+03  0.00000000000E+00 0. -1.
   -9000010    2    1    2    0  502 -0.14428043093E+03 -0.48950679807E+02 -0.38215787982E+03  0.10629004944E+04  0.98005091913E+03 0.  0.
        -13    1    1    2    0    0  0.15016252690E+02  0.59110581052E+02 -0.44693654988E+02  0.75611391981E+02  0.10566000000E+00 0.  1.
         13    1    3    3    0    0 -0.34280370040E+03  0.28056911214E+03 -0.49277053451E+03  0.66261317112E+03  0.10566000000E+00 0. -1.
          1    1    1    2  502    0  0.12926417824E+03 -0.10159901245E+02  0.40656083258E+03  0.42673664239E+03  0.00000000000E+00 0. -1.
         -4    1    3    3    0  502  0.19852326947E+03 -0.32951979195E+03  0.11061265469E+03  0.40028732329E+03  0.00000000000E+00 0. -1.
</event>
<event>
 7    1  0.9434649E-006  0.1153999E+04  0.7818608E-02  0.8937085E-01
          4   -1    0    0  501    0  0.00000000000E+00  0.00000000000E+00  0.23557902403E+04  0.23557902403E+04  0.00000000000E+00 0. -1.
         -4   -1    0    0    0  501 -0.00000000000E+00 -0.00000000000E+00 -0.12975874232E+04  0.12975874232E+04  0.00000000000E+00 0.  1.
   -9000010    2    1    2    0  502 -0.30023158354E+03  0.22314810921E+01 -0.94619706452E+03  0.13990892618E+04  0.98590967864E+03 0.  0.
        -13    1    1    2    0    0 -0.29523840479E+03  0.14710408554E+03  0.31221629258E+03  0.45418537202E+03  0.10566000000E+00 0.  1.
         13    1    3    3    0    0  0.22174585540E+03 -0.28315460607E+03 -0.11628355855E+03  0.37798099486E+03  0.10566000000E+00 0. -1.
          4    1    1    2  502    0  0.59546998833E+03 -0.14933556664E+03  0.16921835890E+04  0.18001030297E+04  0.00000000000E+00 0.  1.
         -4    1    3    3    0  502 -0.52197743894E+03  0.28538608716E+03 -0.82991350597E+03  0.10211082670E+04  0.00000000000E+00 0. -1.
</event>
<event>
 7    1  0.9434649E-006  0.1095282E+04  0.7818608E-02  0.8901750E-01
          2   -1    0    0  502    0  0.00000000000E+00  0.00000000000E+00  0.73451785162E+03  0.73451785162E+03  0.00000000000E+00 0. -1.
          4   -1    0    0  501    0 -0.00000000000E+00 -0.00000000000E+00 -0.26452681475E+04  0.26452681475E+04  0.00000000000E+00 0.  1.
    9000010    2    1    2  502    0 -0.36999203674E+03  0.31697484083E+03 -0.79413498944E+03  0.13669281938E+04  0.10002375460E+04 0.  0.
        -13    1    3    3    0    0  0.22066838527E+02  0.48665686011E+03 -0.25830539557E+02  0.48784123728E+03  0.10566000000E+00 0.  1.
         13    1    1    2    0    0  0.42224734720E+03 -0.14134426168E+03 -0.15124678285E+04  0.15766515043E+04  0.10566000000E+00 0. -1.
          2    1    1    2  501    0 -0.52255310460E+02 -0.17563057915E+03  0.39585252211E+03  0.43620630104E+03  0.00000000000E+00 0. -1.
          4    1    3    3  502    0 -0.39205887527E+03 -0.16968201928E+03 -0.76830444988E+03  0.87908695648E+03  0.00000000000E+00 0.  1.
</event>
<event>
 7    1  0.9434649E-006  0.1110843E+04  0.7818608E-02  0.8851398E-01
          2   -1    0    0  502    0  0.00000000000E+00  0.00000000000E+00  0.65940033576E+03  0.65940033576E+03  0.00000000000E+00 0. -1.
          4   -1    0    0  501    0 -0.00000000000E+00 -0.00000000000E+00 -0.15041085302E+04  0.15041085302E+04  0.00000000000E+00 0.  1.
    9000010    2    1    2  502    0 -0.47417797112E+03 -0.22651871102E+03 -0.10715707994E+04  0.15427632013E+04  0.97759850773E+03 0.  0.
        -13    1    3    3    0    0 -0.68233915117E+03 -0.43946779225E+03 -0.80393742619E+03  0.11423808708E+04  0.10566000000E+00 0.  1.
         13    1    1    2    0    0  0.47377928586E+03  0.23900098500E+03  0.16219520173E+03  0.55488339061E+03  0.10566000000E+00 0. -1.
          2    1    1    2  501    0  0.39868525875E+00 -0.12482273974E+02  0.64667403198E+02  0.65862274102E+02  0.00000000000E+00 0. -1.
          4    1    3    3  502    0  0.20816118004E+03  0.21294908123E+03 -0.26763337318E+03  0.40038233042E+03  0.00000000000E+00 0.  1.
</event>
<event>
 7    1  0.9434649E-006  0.1021783E+04  0.7818608E-02  0.9066641E-01
         -4   -1    0    0    0  502 -0.00000000000E+00  0.00000000000E+00  0.11849246396E+04  0.11849246396E+04  0.00000000000E+00 0. -1.
         -2   -1    0    0    0  501  0.00000000000E+00 -0.00000000000E+00 -0.47729503633E+03  0.47729503633E+03  0.00000000000E+00 0. -1.
   -9000010    2    1    2    0  501 -0.88050858219E+02  0.26048149403E+03  0.28815800387E+03  0.10599575732E+04  0.98227870759E+03 0.  0.
        -13    1    1    2    0    0  0.82098072080E+02 -0.26981543963E+03  0.47131357156E+03  0.54925127110E+03  0.10566000000E+00 0.  1.
         13    1    3    3    0    0 -0.35103660781E+03  0.82379996844E+02  0.54363415813E+03  0.65234291056E+03  0.10566000000E+00 0. -1.
         -2    1    1    2    0  502  0.59527861383E+01  0.93339456002E+01 -0.51841972115E+02  0.53010831686E+02  0.00000000000E+00 0. -1.
         -4    1    3    3    0  501  0.26298574959E+03  0.17810149719E+03 -0.25547615426E+03  0.40761466262E+03  0.00000000000E+00 0. -1.
</event>
<event>
 6    1  0.1194368E-005  0.3979092E+03  0.7818608E-02  0.9735103E-01
         -4   -1    0    0    0  501 -0.00000000000E+00  0.00000000000E+00  0.38049352073E+03  0.38049352073E+03  0.00000000000E+00 0. -1.
          1   -1    0    0  501    0  0.00000000000E+00 -0.00000000000E+00 -0.74774968741E+03  0.74774968741E+03  0.00000000000E+00 0. -1.
        -13    1    1    2    0    0 -0.12532892337E+03 -0.99388153238E+02  0.94120646514E+02  0.18559108627E+03  0.10566000000E+00 0.  1.
         13    1    1    2    0    0  0.13488939704E+03  0.82701384638E+02  0.19256703666E+03  0.24923230775E+03  0.10566000000E+00 0. -1.
          1    1    1    2  502    0 -0.53284438747E+02  0.33973100483E+02 -0.64174117545E+03  0.64484505056E+03  0.00000000000E+00 0. -1.
         -4    1    1    2    0  502  0.43723965076E+02 -0.17286331883E+02 -0.12202674414E+02  0.48574763559E+02  0.00000000000E+00 0. -1.
</event>
<event>
 7    1  0.9434649E-006  0.1106635E+04  0.7818608E-02  0.8866941E-01
          4   -1    0    0  501    0 -0.00000000000E+00  0.00000000000E+00  0.20379010161E+04  0.20379010161E+04  0.00000000000E+00 0.  1.
          2   -1    0    0  502    0  0.00000000000E+00 -0.00000000000E+00 -0.89312454727E+03  0.89312454727E+03  0.00000000000E+00 0. -1.
    9000010    2    1    2  502    0  0.17907635492E+02 -0.51649410066E+03  0.25281449037E+03  0.11426429709E+04  0.98723399103E+03 0.  0.
        -13    1    3    3    0    0 -0.30404845203E+03 -0.60545599233E+03  0.38977742800E+03  0.78163218612E+03  0.10566000000E+00 0.  1.
         13    1    1    2    0    0  0.76195871151E+01  0.49826259889E+03  0.12932158653E+04  0.13859043838E+04  0.10566000000E+00 0. -1.
          2    1    1    2  501    0 -0.25527222607E+02  0.18231501766E+02 -0.40125388684E+03  0.40247820867E+03  0.00000000000E+00 0. -1.
          4    1    3    3  502    0  0.32195608752E+03  0.88961891677E+02 -0.13696293763E+03  0.36101078481E+03  0.00000000000E+00 0.  1.
</event>
<event>
 7    1  0.9434649E-006  0.1038675E+04  0.7818608E-02  0.9030320E-01
         -4   -1    0    0    0  501 -0.00000000000E+00  0.00000000000E+00  0.19894502642E+04  0.19894502642E+04  0.00000000000E+00 0. -1.
          5   -1    0    0  501    0  0.00000000000E+00 -0.00000000000E+00 -0.64456469402E+03  0.64456469402E+03  0.00000000000E+00 0. -1.
   -9000010    2    1    2    0  502  0.25905969104E+03  0.10984821211E+03  0.53234325275E+03  0.11599366946E+04  0.99140569069E+03 0.  0.
        -13    1    1    2    0    0 -0.30914001888E+03 -0.44419723158E+02  0.11163921938E+04  0.11592550214E+04  0.10566000000E+00 0.  1.
         13    1    3    3    0    0  0.16400734545E+03 -0.43974398592E+03  0.19596097154E+03  0.50859993713E+03  0.10566000000E+00 0. -1.
          5    1    1    2  502    0  0.50080327831E+02 -0.65428488949E+02 -0.30384987643E+03  0.31482324216E+03  0.00000000000E+00 0. -1.
         -4    1    3    3    0  502  0.95052345596E+02  0.54959219803E+03  0.33638228121E+03  0.65133675748E+03  0.00000000000E+00 0. -1.
</event>
<event>
 7    1  0.9434649E-006  0.1100962E+04  0.7818608E-02  0.9017991E-01
          2   -1    0    0  501    0  0.00000000000E+00  0.00000000000E+00  0.91301446097E+03  0.91301446097E+03  0.00000000000E+00 0. -1.
         -4   -1    0    0    0  501 -0.00000000000E+00 -0.00000000000E+00 -0.11027656581E+04  0.11027656581E+04  0.00000000000E+00 0. -1.
   -9000010    2    1    2    0  502  0.21131187607E+03  0.47177448980E+03 -0.19140450840E+03  0.11392583369E+04  0.99702055849E+03 0.  0.
        -13    1    1    2    0    0 -0.27317436332E+03 -0.97155219995E+01  0.23016746057E+03  0.35734534447E+03  0.10566000000E+00 0.  1.
         13    1    3    3    0    0  0.54867655348E+03  0.35042553750E+03  0.12282591457E+03  0.66251810098E+03  0.10566000000E+00 0. -1.
          2    1    1    2  502    0  0.61862487245E+02 -0.46205896780E+03 -0.22851414927E+03  0.51917643771E+03  0.00000000000E+00 0. -1.
         -4    1    3    3    0  502 -0.33736467741E+03  0.12134895230E+03 -0.31423042297E+03  0.47674023588E+03  0.00000000000E+00 0. -1.
</event>
<event>
 7    1  0.9434649E-006  0.1052634E+04  0.7818608E-02  0.8992883E-01
          2   -1    0    0  502    0  0.00000000000E+00  0.00000000000E+00  0.13783260750E+04  0.13783260750E+04  0.00000000000E+00 0.  1.
          4   -1    0    0  501    0 -0.00000000000E+00 -0.00000000000E+00 -0.53784272490E+03  0.53784272490E+03  0.00000000000E+00 0.  1.
    9000010    2    1    2  502    0  0.24460743593E+03 -0.21212054117E+03  0.81277864675E+03  0.13242561983E+04  0.99409125758E+03 0.  0.
        -13    1    3    3    0    0  0.27651994321E+03 -0.42907389565E+03  0.94078037694E+03  0.10703435970E+04  0.10566000000E+00 0.  1.
         13    1    1    2    0    0 -0.25881831321E+03  0.23325361589E+03 -0.17341458706E+03  0.38918735687E+03  0.10566000000E+00 0. -1.
          2    1    1    2  501    0  0.14210877281E+02 -0.21133074722E+02  0.20111929045E+03  0.20272524478E+03  0.00000000000E+00 0.  1.
          4    1    3    3  502    0 -0.31912507283E+02  0.21695335448E+03 -0.12800173019E+03  0.25391260125E+03  0.00000000000E+00 0.  1.
</event>
<event>
 6    1  0.9434649E-006  0.1902019E+03  0.7818608E-02  0.1067069E+00
         -2   -1    0    0    0  501  0.00000000000E+00  0.00000000000E+00  0.41149642537E+03  0.41149642537E+03  0.00000000000E+00 0. -1.
         -4   -1    0    0    0  502 -0.00000000000E+00 -0.00000000000E+00 -0.54408925757E+02  0.54408925757E+02  0.00000000000E+00 0. -1.
        -13    1    1    2    0    0 -0.28917060545E+02 -0.55798460538E+01  0.53628419339E+01  0.29934968017E+02  0.10566000000E+00 0.  1.
         13    1    1    2    0    0 -0.38026610380E+02  0.28024570116E+02  0.18174666890E+03  0.18778514970E+03  0.10566000000E+00 0. -1.
         -2    1    1    2    0  502  0.69658408365E+02 -0.82078572836E+02  0.15119427982E+03  0.18560413849E+03  0.00000000000E+00 0. -1.
         -4    1    1    2    0  501 -0.27147374409E+01  0.59633848774E+02  0.18783708958E+02  0.62581094919E+02  0.00000000000E+00 0. -1.
</event>
<event>
 6    1  0.9434649E-006  0.6070195E+03  0.7818608E-02  0.9270015E-01
          2   -1    0    0  501    0  0.00000000000E+00  0.00000000000E+00  0.90072521390E+03  0.90072521390E+03  0.00000000000E+00 0. -1.
         -4   -1    0    0    0  501 -0.00000000000E+00 -0.00000000000E+00 -0.16071190370E+03  0.16071190370E+03  0.00000000000E+00 0. -1.
        -13    1    1    2    0    0  0.98127127100E+02 -0.14232952090E+03  0.22877383373E+03  0.28674745641E+03  0.10566000000E+00 0.  1.
         13    1    1    2    0    0 -0.12616127517E+03  0.11717178311E+03 -0.73780153396E+02  0.18732169204E+03  0.10566000000E+00 0. -1.
          2    1    1    2  502    0 -0.23527947768E+01  0.16446692689E+02  0.32657170897E+03  0.32699405261E+03  0.00000000000E+00 0. -1.
         -4    1    1    2    0  502  0.30386942849E+02  0.87110451020E+01  0.25844792089E+03  0.26037391654E+03  0.00000000000E+00 0. -1.
</event>
<event>
 7    1  0.9434649E-006  0.1188647E+04  0.7818608E-02  0.8758071E-01
         -2   -1    0    0    0  501  0.00000000000E+00  0.00000000000E+00  0.20493820808E+04  0.20493820808E+04  0.00000000000E+00 0. -1.
         -4   -1    0    0    0  502 -0.00000000000E+00 -0.00000000000E+00 -0.76435872299E+03  0.76435872299E+03  0.00000000000E+00 0. -1.
   -9000010    2    1    2    0  501 -0.28174386899E+03  0.58798787188E+03  0.23105358118E+03  0.12178515123E+04  0.10023308853E+04 0.  0.
        -13    1    1    2    0    0  0.38546054144E+03 -0.50669550484E+03  0.11405714859E+03  0.64678374124E+03  0.10566000000E+00 0.  1.
         13    1    3    3    0    0  0.73642591506E+02  0.76072263430E+03  0.29175869264E+03  0.81807414304E+03  0.10566000000E+00 0. -1.
         -2    1    1    2    0  502 -0.10371667245E+03 -0.81292367043E+02  0.93991262801E+03  0.94910555018E+03  0.00000000000E+00 0. -1.
         -4    1    3    3    0  501 -0.35538646049E+03 -0.17273476242E+03 -0.60705111455E+02  0.39977736930E+03  0.00000000000E+00 0. -1.
</event>
<event>
 7    1  0.9434649E-006  0.9147630E+03  0.7818608E-02  0.9304662E-01
          2   -1    0    0  501    0  0.00000000000E+00  0.00000000000E+00  0.11895523414E+04  0.11895523414E+04  0.00000000000E+00 0. -1.
         -4   -1    0    0    0  501 -0.00000000000E+00 -0.00000000000E+00 -0.87325030714E+03  0.87325030714E+03  0.00000000000E+00 0. -1.
   -9000010    2    1    2    0  502  0.87044674641E+02  0.99001466105E+02 -0.43943870399E+03  0.10114836725E+04  0.90145148480E+03 0.  0.
        -13    1    1    2    0    0 -0.11470084160E+03 -0.11025486230E+03 -0.10463649950E+03  0.19042380606E+03  0.10566000000E+00 0.  1.
         13    1    3    3    0    0  0.41170985175E+03 -0.19866151570E+03 -0.13714734637E+03  0.47726387422E+03  0.10566000000E+00 0. -1.
          2    1    1    2  502    0  0.27656166956E+02  0.11253396196E+02  0.86037723772E+03  0.86089516998E+03  0.00000000000E+00 0. -1.
         -4    1    3    3    0  502 -0.32466517711E+03  0.29766298180E+03 -0.30229135761E+03  0.53421979826E+03  0.00000000000E+00 0. -1.
</event>
<event>
 7    1  0.9434649E-006  0.1092735E+04  0.7818608E-02  0.8921915E-01
         -4   -1    0    0    0  501 -0.00000000000E+00  0.00000000000E+00  0.10113333072E+04  0.10113333072E+04  0.00000000000E+00 0. -1.
          2   -1    0    0  501    0  0.00000000000E+00 -0.00000000000E+00 -0.16887478852E+04  0.16887478852E+04  0.00000000000E+00 0. -1.
   -9000010    2    1    2    0  502 -0.36557146181E+03  0.37387132351E+03  0.14126801680E+03  0.11473686238E+04  0.10114721183E+04 0.  0.
        -13    1    1    2    0    0  0.71373327266E+02 -0.39803640078E+03  0.22866666781E+03  0.46455955950E+03  0.10566000000E+00 0.  1.
         13    1    3    3    0    0  0.19850163279E+03 -0.16633829154E+03 -0.16650366985E+03  0.30788765596E+03  0.10566000000E+00 0. -1.
          2    1    1    2  502    0  0.29419813455E+03  0.24165077273E+02 -0.10473492626E+04  0.10881530091E+04  0.00000000000E+00 0. -1.
         -4    1    3    3    0  502 -0.56407309460E+03  0.54020961505E+03  0.30777168665E+03  0.83948096784E+03  0.00000000000E+00 0. -1.
</event>
<event>
 7    1  0.9434649E-006  0.1045216E+04  0.7818608E-02  0.9008930E-01
          4   -1    0    0  501    0 -0.00000000000E+00  0.00000000000E+00  0.20691676571E+04  0.20691676571E+04  0.00000000000E+00 0.  1.
          2   -1    0    0  502    0  0.00000000000E+00 -0.00000000000E+00 -0.35865556144E+04  0.35865556144E+04  0.00000000000E+00 0. -1.
    9000010    2    1    2  502    0  0.20102775106E+03  0.28177526281E+03  0.11074451501E+04  0.15260824769E+04  0.99130394449E+03 0.  0.
        -13    1    3    3    0    0  0.76839975404E+02 -0.35978598863E+03  0.23694262895E+03  0.43759817186E+03  0.10566000000E+00 0.  1.
         13    1    1    2    0    0 -0.24034980483E+03 -0.22579691722E+03  0.71590190233E+03  0.78820544367E+03  0.10566000000E+00 0. -1.
          2    1    1    2  501    0  0.39322053765E+02 -0.55978345592E+02 -0.33407350097E+04  0.33414353509E+04  0.00000000000E+00 0. -1.
          4    1    3    3  502    0  0.12418777566E+03  0.64156125144E+03  0.87050252114E+03  0.10884843050E+04  0.00000000000E+00 0.  1.
</event>
<event>
 7    1  0.9434649E-006  0.1024641E+04  0.7818608E-02  0.9113868E-01
          2   -1    0    0  501    0  0.00000000000E+00  0.00000000000E+00  0.20126231073E+04  0.20126231073E+04  0.00000000000E+00 0.  1.
         -4   -1    0    0    0  501 -0.00000000000E+00 -0.00000000000E+00 -0.16669140277E+04  0.16669140277E+04  0.00000000000E+00 0. -1.
   -9000010    2    1    2    0  502  0.25423298577E+03 -0.13540656345E+03 -0.87189125515E+03  0.13562916937E+04  0.99818006851E+03 0.  0.
        -13    1    1    2    0    0 -0.22891127876E+03 -0.34244695576E+01 -0.52614707576E+03  0.57379687785E+03  0.10566000000E+00 0.  1.
         13    1    3    3    0    0  0.37957463226E+03 -0.71008453271E+02  0.79720765145E+02  0.39430256587E+03  0.10566000000E+00 0. -1.
          2    1    1    2  502    0 -0.25321707014E+02  0.13883103300E+03  0.17437474105E+04  0.17494485635E+04  0.00000000000E+00 0.  1.
         -4    1    3    3    0  502 -0.12534164649E+03 -0.64398110174E+02 -0.95161202030E+03  0.96198912786E+03  0.00000000000E+00 0. -1.
</event>
<event>
 7    1  0.9434649E-006  0.1312922E+04  0.7818608E-02  0.8621113E-01
          4   -1    0    0  501    0 -0.00000000000E+00  0.00000000000E+00  0.14156351214E+04  0.14156351214E+04  0.00000000000E+00 0.  1.
          2   -1    0    0  502    0  0.00000000000E+00 -0.00000000000E+00 -0.11670635057E+04  0.11670635057E+04  0.00000000000E+00 0. -1.
    9000010    2    1    2  502    0 -0.70423703808E+03  0.52796862145E+03  0.60379352455E+03  0.14576853482E+04  0.99276345772E+03 0.  0.
        -13    1    3    3    0    0  0.19669665743E+03  0.82862902130E+01 -0.80498259685E+02  0.21269277991E+03  0.10566000000E+00 0.  1.
         13    1    1    2    0    0  0.64500401236E+03 -0.53360697584E+03 -0.77171328169E+02  0.84066759524E+03  0.10566000000E+00 0. -1.
          2    1    1    2  501    0  0.59233025725E+02  0.56383543973E+01 -0.27805058069E+03  0.28434568363E+03  0.00000000000E+00 0. -1.
          4    1    3    3  502    0 -0.90093369551E+03  0.51968233123E+03  0.68429178423E+03  0.12449925683E+04  0.00000000000E+00 0.  1.
</event>
<event>
 7    1  0.9434649E-006  0.9828500E+03  0.7818608E-02  0.9024342E-01
         -4   -1    0    0    0  501 -0.00000000000E+00  0.00000000000E+00  0.16318740497E+04  0.16318740497E+04  0.00000000000E+00 0. -1.
          4   -1    0    0  501    0  0.00000000000E+00 -0.00000000000E+00 -0.30799865216E+03  0.30799865216E+03  0.00000000000E+00 0. -1.
   -9000010    2    1    2    0  502 -0.31895144441E+03 -0.13698980118E+03  0.87124198152E+03  0.13058694972E+04  0.90870034870E+03 0.  0.
        -13    1    1    2    0    0  0.35636237984E+03  0.14126288432E+03  0.45655255620E+03  0.59614561643E+03  0.10566000000E+00 0.  1.
         13    1    3    3    0    0 -0.28812055226E+03 -0.50259237775E+03  0.67593366892E+03  0.89022406548E+03  0.10566000000E+00 0. -1.
          4    1    1    2  502    0 -0.37410935430E+02 -0.42730831419E+01 -0.39191401911E+01  0.37857588264E+02  0.00000000000E+00 0. -1.
         -4    1    3    3    0  502 -0.30830892151E+02  0.36560257657E+03  0.19530831260E+03  0.41564543168E+03  0.00000000000E+00 0. -1.
</event>
<event>
 6    1  0.1334408E-005  0.6101276E+03  0.7818608E-02  0.9264664E-01
          2   -1    0    0  502    0  0.00000000000E+00  0.00000000000E+00  0.16521497449E+04  0.16521497449E+04  0.00000000000E+00 0.  1.
          4   -1    0    0  501    0 -0.00000000000E+00 -0.00000000000E+00 -0.15185838642E+03  0.15185838642E+03  0.00000000000E+00 0.  1.
        -13    1    1    2    0    0  0.12078881084E+03  0.63138150137E+02 -0.10442587145E+03  0.17170071816E+03  0.10566000000E+00 0.  1.
         13    1    1    2    0    0 -0.13519628799E+03 -0.23771992117E+02  0.35036530439E+03  0.37629642780E+03  0.10566000000E+00 0. -1.
          2    1    1    2  501    0  0.21857122964E+02 -0.48229513269E+02  0.10358987455E+04  0.10372511898E+04  0.00000000000E+00 0.  1.
          4    1    1    2  502    0 -0.74496458091E+01  0.88633552487E+01  0.21845318002E+03  0.21875979555E+03  0.00000000000E+00 0.  1.
</event>
<event>
 7    1  0.9434649E-006  0.1049885E+04  0.7818608E-02  0.8952703E-01
         -4   -1    0    0    0  501 -0.00000000000E+00  0.00000000000E+00  0.14463157421E+04  0.14463157421E+04  0.00000000000E+00 0. -1.
          2   -1    0    0  501    0  0.00000000000E+00 -0.00000000000E+00 -0.23514832150E+04  0.23514832150E+04  0.00000000000E+00 0. -1.
   -9000010    2    1    2    0  502 -0.40577907591E+03 -0.10824505007E+03  0.51233901877E+03  0.11714507236E+04  0.96614278364E+03 0.  0.
        -13    1    1    2    0    0  0.38672572235E+03  0.13364057518E+03  0.53503033501E+03  0.67355330762E+03  0.10566000000E+00 0.  1.
         13    1    3    3    0    0 -0.46448934916E+03  0.34118146315E+03  0.40862454620E+03  0.70649074814E+03  0.10566000000E+00 0. -1.
          2    1    1    2  502    0  0.19053353559E+02 -0.25395525106E+02 -0.19525368266E+04  0.19527949258E+04  0.00000000000E+00 0. -1.
         -4    1    3    3    0  502  0.58710273251E+02 -0.44942651322E+03  0.10371447256E+03  0.46495997547E+03  0.00000000000E+00 0. -1.
</event>
<event>
 7    1  0.9434649E-006  0.1104354E+04  0.7818608E-02  0.8891219E-01
          4   -1    0    0  501    0  0.00000000000E+00  0.00000000000E+00  0.15292578105E+04  0.15292578105E+04  0.00000000000E+00 0.  1.
         -4   -1    0    0    0  501 -0.00000000000E+00 -0.00000000000E+00 -0.17606977618E+04  0.17606977618E+04  0.00000000000E+00 0. -1.
   -9000010    2    1    2    0  502  0.41608394800E+03 -0.18608423473E+03 -0.13604453285E+04  0.17525201526E+04  0.10063608693E+04 0.  0.
        -13    1    1    2    0    0 -0.27171600185E+03  0.42592662347E+03  0.16173845196E+03  0.53047376207E+03  0.10566000000E+00 0.  1.
         13    1    3    3    0    0 -0.15154469380E+03 -0.29904902396E+03 -0.76083684783E+02  0.34378023678E+03  0.10566000000E+00 0. -1.
          4    1    1    2  502    0 -0.14436794615E+03 -0.23984238875E+03  0.96726692517E+03  0.10069616576E+04  0.00000000000E+00 0.  1.
         -4    1    3    3    0  502  0.56762864180E+03  0.11296478923E+03 -0.12843616437E+04  0.14087399158E+04  0.00000000000E+00 0. -1.
</event>
<event>
 7    1  0.9434649E-006  0.1126443E+04  0.7818608E-02  0.8860298E-01
         -4   -1    0    0    0  501 -0.00000000000E+00  0.00000000000E+00  0.82285064749E+03  0.82285064749E+03  0.00000000000E+00 0. -1.
          2   -1    0    0  501    0  0.00000000000E+00 -0.00000000000E+00 -0.26195762292E+04  0.26195762292E+04  0.00000000000E+00 0.  1.
   -9000010    2    1    2    0  502 -0.49040516764E+02  0.50595173910E+03 -0.76794040128E+03  0.13709185555E+04  0.10155260170E+04 0.  0.
        -13    1    1    2    0    0  0.11687152019E+03 -0.47145516042E+03  0.40700371711E+03  0.63370415607E+03  0.10566000000E+00 0.  1.
         13    1    3    3    0    0 -0.20035245689E+03 -0.26331159565E+03 -0.35322479802E+03  0.48398540524E+03  0.10566000000E+00 0. -1.
          2    1    1    2  502    0 -0.67831003422E+02 -0.34496578687E+02 -0.14357888976E+04  0.14378041652E+04  0.00000000000E+00 0.  1.
         -4    1    3    3    0  502  0.15131194012E+03  0.76926333476E+03 -0.41471560327E+03  0.88693315025E+03  0.00000000000E+00 0. -1.
</event>
<event>
 7    1  0.9434649E-006  0.1026153E+04  0.7818608E-02  0.9607190E-01
          4   -1    0    0  501    0 -0.00000000000E+00  0.00000000000E+00  0.43594584041E+03  0.43594584041E+03  0.00000000000E+00 0.  1.
          2   -1    0    0  502    0  0.00000000000E+00 -0.00000000000E+00 -0.10300471856E+04  0.10300471856E+04  0.00000000000E+00 0.  1.
    9000010    2    1    2  502    0 -0.46675076811E+02  0.23867509806E+01 -0.48184689492E+03  0.11340331857E+04  0.10255099106E+04 0.  0.
        -13    1    3    3    0    0 -0.13286130957E+03  0.26260720870E+03  0.22852244436E+03  0.37260863165E+03  0.10566000000E+00 0.  1.
         13    1    1    2    0    0  0.31189846438E+02 -0.18576460994E+02  0.10626502422E+03  0.11229495964E+03  0.10566000000E+00 0. -1.
          2    1    1    2  501    0  0.15485230373E+02  0.16189710013E+02 -0.21851947453E+03  0.21966488071E+03  0.00000000000E+00 0.  1.
          4    1    3    3  502    0  0.86186232759E+02 -0.26022045772E+03 -0.71036933928E+03  0.76142455406E+03  0.00000000000E+00 0.  1.
</event>
<event>
 7    1  0.9434649E-006  0.1118322E+04  0.7818608E-02  0.8871996E-01
         -4   -1    0    0    0  501 -0.00000000000E+00  0.00000000000E+00  0.12806739195E+04  0.12806739195E+04  0.00000000000E+00 0.  1.
          4   -1    0    0  501    0  0.00000000000E+00 -0.00000000000E+00 -0.13384698023E+04  0.13384698023E+04  0.00000000000E+00 0. -1.
   -9000010    2    1    2    0  502 -0.47728457618E+03 -0.89638953642E+02 -0.72897790295E+03  0.13389699796E+04  0.10127171938E+04 0.  0.
        -13    1    1    2    0    0  0.47335834639E+03  0.24548664274E+02  0.91354509409E+03  0.10291916299E+04  0.10566000000E+00 0.  1.
         13    1    3    3    0    0  0.26172276366E+03 -0.13613444910E+01 -0.49304844778E+03  0.55820913760E+03  0.10566000000E+00 0. -1.
          4    1    1    2  502    0  0.39262297975E+01  0.65090289369E+02 -0.24236307395E+03  0.25098211224E+03  0.00000000000E+00 0.  1.
         -4    1    3    3    0  502 -0.73900733984E+03 -0.88277609151E+02 -0.23592945517E+03  0.78076084202E+03  0.00000000000E+00 0. -1.
</event>
<event>
 7    1  0.9434649E-006  0.1023822E+04  0.7818608E-02  0.9414049E-01
         -4   -1    0    0    0  501 -0.00000000000E+00  0.00000000000E+00  0.69282626336E+03  0.69282626336E+03  0.00000000000E+00 0. -1.
          2   -1    0    0  501    0  0.00000000000E+00 -0.00000000000E+00 -0.81177921970E+03  0.81177921970E+03  0.00000000000E+00 0.  1.
   -9000010    2    1    2    0  502 -0.28105014031E+01 -0.35670339448E+02  0.14485333338E+03  0.10320121314E+04  0.10211690747E+04 0.  0.
        -13    1    1    2    0    0  0.63102440104E+02  0.41046739393E+02  0.87892703772E+02  0.11572333949E+03  0.10566000000E+00 0.  1.
         13    1    3    3    0    0 -0.23163101605E+03  0.29209515350E+03  0.40859962183E+03  0.55310592875E+03  0.10566000000E+00 0. -1.
          2    1    1    2  502    0 -0.60291938701E+02 -0.53763999448E+01 -0.35169899349E+03  0.35687001215E+03  0.00000000000E+00 0.  1.
         -4    1    3    3    0  502  0.22882051465E+03 -0.32776549295E+03 -0.26374628845E+03  0.47890620268E+03  0.00000000000E+00 0. -1.
</event>
<event>
 7    1  0.9434649E-006  0.1028719E+04  0.7818608E-02  0.9124826E-01
          2   -1    0    0  501    0  0.00000000000E+00  0.00000000000E+00  0.11082322781E+04  0.11082322781E+04  0.00000000000E+00 0.  1.
         -4   -1    0    0    0  501 -0.00000000000E+00 -0.00000000000E+00 -0.15416072185E+04  0.15416072185E+04  0.00000000000E+00 0. -1.
   -9000010    2    1    2    0  502 -0.25104034543E+03  0.12190227108E+03 -0.86500917647E+03  0.13551556901E+04  0.10051490687E+04 0.  0.
        -13    1    1    2    0    0  0.20534560689E+03 -0.56297245340E+02 -0.40323319069E+03  0.45599694663E+03  0.10566000000E+00 0.  1.
         13    1    3    3    0    0 -0.47839149079E+03 -0.53692913716E+02 -0.94188932632E+03  0.10577792121E+04  0.10566000000E+00 0. -1.
          2    1    1    2  502    0  0.45694738547E+02 -0.65605025737E+02  0.83486742675E+03  0.83868685979E+03  0.00000000000E+00 0.  1.
         -4    1    3    3    0  502  0.22735114536E+03  0.17559518479E+03  0.76880149854E+02  0.29737647798E+03  0.00000000000E+00 0. -1.
</event>
<event>
 6    1  0.9434649E-006  0.1439953E+03  0.7818608E-02  0.1107189E+00
         -4   -1    0    0    0  501 -0.00000000000E+00  0.00000000000E+00  0.87714346889E+01  0.87714346889E+01  0.00000000000E+00 0. -1.
          1   -1    0    0  501    0  0.00000000000E+00 -0.00000000000E+00 -0.12650598312E+04  0.12650598312E+04  0.00000000000E+00 0.  1.
        -13    1    1    2    0    0  0.56042970572E+02  0.20856223205E+02 -0.27417138058E+03  0.28061673808E+03  0.10566000000E+00 0.  1.
         13    1    1    2    0    0 -0.35024992806E+02 -0.21989368284E+02 -0.87138248032E+02  0.96453967636E+02  0.10566000000E+00 0. -1.
          1    1    1    2  502    0  0.37444923528E+00 -0.15399140496E+02 -0.66795689793E+03  0.66813448589E+03  0.00000000000E+00 0.  1.
         -4    1    1    2    0  502 -0.21392427002E+02  0.16532285574E+02 -0.22702186994E+03  0.22862607426E+03  0.00000000000E+00 0. -1.
</event>
<event>
 7    1  0.9434649E-006  0.1066507E+04  0.7818608E-02  0.8966663E-01
          2   -1    0    0  502    0  0.00000000000E+00  0.00000000000E+00  0.31144450892E+03  0.31144450892E+03  0.00000000000E+00 0.  1.
          4   -1    0    0  501    0 -0.00000000000E+00 -0.00000000000E+00 -0.36940770583E+04  0.36940770583E+04  0.00000000000E+00 0.  1.
    9000010    2    1    2  502    0 -0.37997607155E+03  0.34953328432E+03 -0.16964198934E+04  0.20358649603E+04  0.10001751597E+04 0.  0.
        -13    1    3    3    0    0 -0.18220200410E+03  0.68302664420E+03 -0.13093983960E+04  0.14880346561E+04  0.10566000000E+00 0.  1.
         13    1    1    2    0    0  0.12380413511E+03 -0.33742786748E+03 -0.16748126605E+04  0.17129455592E+04  0.10566000000E+00 0. -1.
          2    1    1    2  501    0  0.25617193645E+03 -0.12105416843E+02 -0.11399995469E+02  0.25671104775E+03  0.00000000000E+00 0.  1.
          4    1    3    3  502    0 -0.19777406745E+03 -0.33349335987E+03 -0.38702149736E+03  0.54783030425E+03  0.00000000000E+00 0.  1.
</event>
<event>
 6    1  0.9434649E-006  0.7722805E+03  0.7818608E-02  0.9083400E-01
         -4   -1    0    0    0  501 -0.00000000000E+00  0.00000000000E+00  0.12713952026E+04  0.12713952026E+04  0.00000000000E+00 0. -1.
          2   -1    0    0  501    0  0.00000000000E+00 -0.00000000000E+00 -0.11148865978E+04  0.11148865978E+04  0.00000000000E+00 0. -1.
        -13    1    1    2    0    0 -0.13237944720E+03 -0.59718029427E+03  0.73534265589E+03  0.95649226586E+03  0.10566000000E+00 0.  1.
         13    1    1    2    0    0  0.45122218555E+02  0.19523646230E+03 -0.19837202352E+03  0.28196588747E+03  0.10566000000E+00 0. -1.
          2    1    1    2  502    0 -0.59972743963E+01  0.10011054277E+02 -0.65831988059E+03  0.65842330889E+03  0.00000000000E+00 0. -1.
         -4    1    1    2    0  502  0.93254503040E+02  0.39193277769E+03  0.27785785294E+03  0.48940033817E+03  0.00000000000E+00 0. -1.
</event>
<event>
 7    1  0.9434649E-006  0.1242391E+04  0.7818608E-02  0.8709264E-01
         -4   -1    0    0    0  501 -0.00000000000E+00  0.00000000000E+00  0.34753309630E+04  0.34753309630E+04  0.00000000000E+00 0. -1.
          2   -1    0    0  501    0  0.00000000000E+00 -0.00000000000E+00 -0.42213675128E+03  0.42213675128E+03  0.00000000000E+00 0.  1.
   -9000010    2    1    2    0  502  0.79614510511E+03  0.88377711366E+02  0.14053237520E+04  0.19193600187E+04  0.10331265098E+04 0.  0.
        -13    1    1    2    0    0 -0.64587906297E+03 -0.15396948523E+03  0.16840387732E+04  0.18102079900E+04  0.10566000000E+00 0.  1.
         13    1    3    3    0    0 -0.10048849827E+03  0.31460735813E+03  0.63523897888E+03  0.71596389540E+03  0.10566000000E+00 0. -1.
          2    1    1    2  502    0 -0.15026604215E+03  0.65591773863E+02 -0.36168313481E+02  0.16789970554E+03  0.00000000000E+00 0.  1.
         -4    1    3    3    0  502  0.89663360339E+03 -0.22622964676E+03  0.77008477315E+03  0.12033961233E+04  0.00000000000E+00 0. -1.
</event>
<event>
 7    1  0.9434649E-006  0.1009562E+04  0.7818608E-02  0.9152012E-01
         -2   -1    0    0    0  501  0.00000000000E+00  0.00000000000E+00  0.20787599962E+03  0.20787599962E+03  0.00000000000E+00 0. -1.
         -4   -1    0    0    0  502 -0.00000000000E+00 -0.00000000000E+00 -0.21759745027E+04  0.21759745027E+04  0.00000000000E+00 0. -1.
   -9000010    2    1    2    0  501 -0.17354147872E+03 -0.11222978419E+03 -0.17299989577E+04  0.20028674389E+04  0.98786103020E+03 0.  0.
        -13    1    1    2    0    0  0.16734044099E+03  0.12469062814E+03 -0.27287374976E+03  0.34352681177E+03  0.10566000000E+00 0.  1.
         13    1    3    3    0    0 -0.58741724129E+03 -0.56247169264E+02 -0.95882908659E+03  0.11258667718E+04  0.10566000000E+00 0. -1.
         -2    1    1    2    0  502  0.62010377284E+01 -0.12460843946E+02  0.34774204336E+02  0.37456251653E+02  0.00000000000E+00 0. -1.
         -4    1    3    3    0  501  0.41387576257E+03 -0.55982614926E+02 -0.77116987108E+03  0.87700066709E+03  0.00000000000E+00 0. -1.
</event>
<event>
 7    1  0.9434649E-006  0.1006809E+04  0.7818608E-02  0.9389058E-01
         -4   -1    0    0    0  501 -0.00000000000E+00  0.00000000000E+00  0.23733376130E+04  0.23733376130E+04  0.00000000000E+00 0. -1.
          2   -1    0    0  501    0  0.00000000000E+00 -0.00000000000E+00 -0.13187137309E+04  0.13187137309E+04  0.00000000000E+00 0. -1.
   -9000010    2    1    2    0  502  0.51500209664E+02 -0.96326803216E+02  0.18714297928E+04  0.21261760493E+04  0.10032168253E+04 0.  0.
        -13    1    1    2    0    0 -0.80034055175E+02  0.28857240187E+02  0.36855788968E+03  0.37825007536E+03  0.10566000000E+00 0.  1.
         13    1    3    3    0    0  0.34999883156E+03  0.22472318180E+03  0.35237362978E+03  0.54513014653E+03  0.10566000000E+00 0. -1.
          2    1    1    2  502    0  0.28533845511E+02  0.67469563029E+02 -0.11853638004E+04  0.11876252193E+04  0.00000000000E+00 0. -1.
         -4    1    3    3    0  502 -0.29849862189E+03 -0.32104998502E+03  0.15190561630E+04  0.15810459027E+04  0.00000000000E+00 0. -1.
</event>
<event>
 7    1  0.9434649E-006  0.1033620E+04  0.7818608E-02  0.9602292E-01
          4   -1    0    0  501    0 -0.00000000000E+00  0.00000000000E+00  0.78194580297E+03  0.78194580297E+03  0.00000000000E+00 0.  1.
          2   -1    0    0  502    0  0.00000000000E+00 -0.00000000000E+00 -0.17498645311E+04  0.17498645311E+04  0.00000000000E+00 0.  1.
    9000010    2    1    2  502    0  0.23484359522E+03  0.47656636186E+02  0.13428943837E+03  0.10463084884E+04  0.10096064236E+04 0.  0.
        -13    1    3    3    0    0  0.42971363918E+02  0.15957250530E+03 -0.41882997268E+03  0.45025379481E+03  0.10566000000E+00 0.  1.
         13    1    1    2    0    0 -0.25935499981E+02  0.25203038469E+02  0.18038053977E+03  0.18397008887E+03  0.10566000000E+00 0. -1.
          2    1    1    2  501    0 -0.20890809524E+03 -0.72859674655E+02 -0.12825887063E+04  0.13015317568E+04  0.00000000000E+00 0.  1.
          4    1    3    3  502    0  0.19187223131E+03 -0.11191586912E+03  0.55311941105E+03  0.59605469362E+03  0.00000000000E+00 0.  1.
</event>
<event>
 7    1  0.9434649E-006  0.9483970E+03  0.7818608E-02  0.9334869E-01
         -4   -1    0    0    0  502 -0.00000000000E+00  0.00000000000E+00  0.14913406602E+03  0.14913406602E+03  0.00000000000E+00 0. -1.
         -2   -1    0    0    0  501  0.00000000000E+00 -0.00000000000E+00 -0.24657222787E+04  0.24657222787E+04  0.00000000000E+00 0. -1.
   -9000010    2    1    2    0  501  0.51055792415E+02 -0.11674306394E+03 -0.15130212890E+04  0.17858967220E+04  0.94019042953E+03 0.  0.
        -13    1    1    2    0    0 -0.58268402089E+02  0.10947201873E+03 -0.29141085222E+03  0.31670116123E+03  0.10566000000E+00 0.  1.
         13    1    3    3    0    0 -0.36783492178E+03  0.48483619515E+02 -0.25629640520E+03  0.45093353115E+03  0.10566000000E+00 0. -1.
         -2    1    1    2    0  502  0.72126096743E+01  0.72710452036E+01 -0.51215607152E+03  0.51225846155E+03  0.00000000000E+00 0. -1.
         -4    1    3    3    0  501  0.41889071419E+03 -0.16522668345E+03 -0.12567248838E+04  0.13349631908E+04  0.00000000000E+00 0. -1.
</event>
<event>
 7    1  0.9434649E-006  0.1126662E+04  0.7818608E-02  0.8856709E-01
         -4   -1    0    0    0  502 -0.00000000000E+00  0.00000000000E+00  0.25007211472E+04  0.25007211472E+04  0.00000000000E+00 0. -1.
         -2   -1    0    0    0  501  0.00000000000E+00 -0.00000000000E+00 -0.12496271467E+04  0.12496271467E+04  0.00000000000E+00 0.  1.
   -9000010    2    1    2    0  501  0.17097493937E+03  0.46182574893E+03  0.22278687254E+04  0.24961476318E+04  0.10123430691E+04 0.  0.
        -13    1    1    2    0    0 -0.16816900962E+03 -0.47237665954E+03 -0.31460998656E+03  0.59194592581E+03  0.10566000000E+00 0.  1.
         13    1    3    3    0    0  0.32402533354E+03 -0.17712764848E+03  0.13502444962E+04  0.13998310010E+04  0.10566000000E+00 0. -1.
         -2    1    1    2    0  502 -0.28059297527E+01  0.10550910611E+02 -0.66216473837E+03  0.66225473626E+03  0.00000000000E+00 0.  1.
         -4    1    3    3    0  501 -0.15305039416E+03  0.63895339741E+03  0.87762422922E+03  0.10963166308E+04  0.00000000000E+00 0. -1.
</event>
<event>
 7    1  0.9434649E-006  0.1046257E+04  0.7818608E-02  0.9149832E-01
         -4   -1    0    0    0  501 -0.00000000000E+00  0.00000000000E+00  0.36053378526E+03  0.36053378526E+03  0.00000000000E+00 0. -1.
          2   -1    0    0  501    0  0.00000000000E+00 -0.00000000000E+00 -0.28567409370E+04  0.28567409370E+04  0.00000000000E+00 0. -1.
   -9000010    2    1    2    0  502 -0.20380289056E+03  0.21687777808E+03 -0.95545288641E+03  0.14296200536E+04  0.10209562628E+04 0.  0.
        -13    1    1    2    0    0  0.18832491251E+03  0.11153878263E+02  0.37998427880E+02  0.19244368880E+03  0.10566000000E+00 0.  1.
         13    1    3    3    0    0 -0.45220455559E+03  0.27142979897E+03 -0.99540433387E+02  0.53672283807E+03  0.10566000000E+00 0. -1.
          2    1    1    2  502    0  0.15477978043E+02 -0.22803165634E+03 -0.15787526932E+04  0.15952109799E+04  0.00000000000E+00 0. -1.
         -4    1    3    3    0  502  0.24840166503E+03 -0.54552020898E+02 -0.85591245302E+03  0.89289721548E+03  0.00000000000E+00 0. -1.
</event>
<event>
 6    1  0.1057014E-005  0.4812753E+03  0.7818608E-02  0.9519984E-01
          4   -1    0    0  501    0 -0.00000000000E+00  0.00000000000E+00  0.10707988903E+03  0.10707988903E+03  0.00000000000E+00 0.  1.
          2   -1    0    0  502    0  0.00000000000E+00 -0.00000000000E+00 -0.15013587594E+04  0.15013587594E+04  0.00000000000E+00 0. -1.
        -13    1    1    2    0    0  0.15905069841E+02  0.13194659880E+03  0.49406807820E+02  0.14178829290E+03  0.10566000000E+00 0.  1.
         13    1    1    2    0    0 -0.93401467906E+01 -0.11784644317E+03 -0.40405734664E+03  0.42099569243E+03  0.10566000000E+00 0. -1.
          2    1    1    2  501    0 -0.35038724080E+02 -0.21601279424E+02 -0.95789700200E+03  0.95878099371E+03  0.00000000000E+00 0. -1.
          4    1    1    2  502    0  0.28473801030E+02  0.75011237974E+01 -0.81731329588E+02  0.86873669426E+02  0.00000000000E+00 0.  1.
</event>
<event>
 7    1  0.9434649E-006  0.1038370E+04  0.7818608E-02  0.9116715E-01
          4   -1    0    0  501    0 -0.00000000000E+00  0.00000000000E+00  0.82115838694E+03  0.82115838694E+03  0.00000000000E+00 0.  1.
          2   -1    0    0  502    0  0.00000000000E+00 -0.00000000000E+00 -0.20409771107E+04  0.20409771107E+04  0.00000000000E+00 0.  1.
    9000010    2    1    2  502    0  0.36675553822E+03 -0.21441373228E+03  0.19233495336E+03  0.11066721188E+04  0.10036172432E+04 0.  0.
        -13    1    3    3    0    0  0.39447362015E+03  0.34770862570E+03  0.67157331091E+02  0.53011399120E+03  0.10566000000E+00 0.  1.
         13    1    1    2    0    0 -0.10323118981E+03  0.19406644979E+03  0.84614370018E+02  0.23553782767E+03  0.10566000000E+00 0. -1.
          2    1    1    2  501    0 -0.26352434841E+03  0.20347282485E+02 -0.14967680471E+04  0.15199255511E+04  0.00000000000E+00 0.  1.
          4    1    3    3  502    0 -0.27718081937E+02 -0.56212235798E+03  0.12517762227E+03  0.57655812762E+03  0.00000000000E+00 0.  1.
</event>
<event>
 7    1  0.9434649E-006  0.1024760E+04  0.7818608E-02  0.9033570E-01
         -4   -1    0    0    0  501 -0.00000000000E+00  0.00000000000E+00  0.53253739002E+03  0.53253739002E+03  0.00000000000E+00 0. -1.
          2   -1    0    0  501    0  0.00000000000E+00 -0.00000000000E+00 -0.12284103022E+04  0.12284103022E+04  0.00000000000E+00 0. -1.
   -9000010    2    1    2    0  502 -0.22944417914E+03 -0.18612622572E+03 -0.63417952030E+03  0.11992655565E+04  0.97404651208E+03 0.  0.
        -13    1    1    2    0    0  0.15806802053E+03  0.28228607052E+03  0.11915869612E+03  0.34477489866E+03  0.10566000000E+00 0.  1.
         13    1    3    3    0    0 -0.42566599815E+02 -0.17351020993E+03  0.24339507064E+03  0.30192528868E+03  0.10566000000E+00 0. -1.
          2    1    1    2  502    0  0.71376158616E+02 -0.96159844799E+02 -0.18085208803E+03  0.21690723712E+03  0.00000000000E+00 0. -1.
         -4    1    3    3    0  502 -0.18687757933E+03 -0.12616015790E+02 -0.87757459094E+03  0.89734026778E+03  0.00000000000E+00 0. -1.
</event>
<event>
 7    1  0.9434649E-006  0.1027034E+04  0.7818608E-02  0.9255394E-01
         -4   -1    0    0    0  502 -0.00000000000E+00  0.00000000000E+00  0.17748469861E+04  0.17748469861E+04  0.00000000000E+00 0. -1.
         -2   -1    0    0    0  501  0.00000000000E+00 -0.00000000000E+00 -0.24108898863E+03  0.24108898863E+03  0.00000000000E+00 0. -1.
   -9000010    2    1    2    0  501 -0.23425383755E+02  0.15448452721E+03  0.10300564920E+04  0.14569370064E+04  0.10184472721E+04 0.  0.
        -13    1    1    2    0    0  0.16648424322E+02 -0.13055668936E+03  0.51509535634E+03  0.53164410696E+03  0.10566000000E+00 0.  1.
         13    1    3    3    0    0  0.32488734854E+03  0.44243520002E+03  0.73449530885E+03  0.91694278194E+03  0.10566000000E+00 0. -1.
         -2    1    1    2    0  502  0.67769594334E+01 -0.23927837846E+02 -0.11393850894E+02  0.27354861384E+02  0.00000000000E+00 0. -1.
         -4    1    3    3    0  501 -0.34831273229E+03 -0.28795067281E+03  0.29556118319E+03  0.53999422447E+03  0.00000000000E+00 0. -1.
</event>
<event>
 6    1  0.9434649E-006  0.2864562E+03  0.7818608E-02  0.1013058E+00
          2   -1    0    0  502    0  0.00000000000E+00  0.00000000000E+00  0.45695002667E+03  0.45695002667E+03  0.00000000000E+00 0. -1.
          4   -1    0    0  501    0 -0.00000000000E+00 -0.00000000000E+00 -0.10048021186E+03  0.10048021186E+03  0.00000000000E+00 0.  1.
        -13    1    1    2    0    0  0.28653929727E+02  0.47406933660E+02 -0.34333126223E+02  0.65170850601E+02  0.10566000000E+00 0.  1.
         13    1    1    2    0    0  0.29188047366E+02 -0.77630184319E+02  0.13462452584E+03  0.15812071891E+03  0.10566000000E+00 0. -1.
          2    1    1    2  501    0  0.10046711744E+02 -0.14995020931E+02  0.25180610339E+03  0.25245217522E+03  0.00000000000E+00 0. -1.
          4    1    1    2  502    0 -0.67888688837E+02  0.45218271590E+02  0.43723117997E+01  0.81686493792E+02  0.00000000000E+00 0.  1.
</event>
<event>
 7    1  0.9434649E-006  0.1417374E+04  0.7818608E-02  0.8848579E-01
          4   -1    0    0  501    0  0.00000000000E+00  0.00000000000E+00  0.13143372056E+04  0.13143372056E+04  0.00000000000E+00 0.  1.
         -4   -1    0    0    0  501 -0.00000000000E+00 -0.00000000000E+00 -0.26189120344E+04  0.26189120344E+04  0.00000000000E+00 0. -1.
   -9000010    2    1    2    0  502 -0.50877562649E+03 -0.59791732553E+03 -0.20172827163E+04  0.23852754537E+04  0.10018740770E+04 0.  0.
        -13    1    1    2    0    0 -0.22683092384E+03 -0.12072913950E+03 -0.57291390290E+02  0.26326812891E+03  0.10566000000E+00 0.  1.
         13    1    3    3    0    0 -0.66152765566E+01  0.26397736221E+03 -0.30318212485E+03  0.40205375467E+03  0.10566000000E+00 0. -1.
          4    1    1    2  502    0  0.73560655033E+03  0.71864646502E+03  0.76999927778E+03  0.12847056575E+04  0.00000000000E+00 0.  1.
         -4    1    3    3    0  502 -0.50216034993E+03 -0.86189468774E+03 -0.17141005914E+04  0.19832216990E+04  0.00000000000E+00 0. -1.
</event>
<event>
 7    1  0.9434649E-006  0.1102252E+04  0.7818608E-02  0.9133026E-01
          2   -1    0    0  501    0  0.00000000000E+00  0.00000000000E+00  0.18687327606E+04  0.18687327606E+04  0.00000000000E+00 0. -1.
         -4   -1    0    0    0  501 -0.00000000000E+00 -0.00000000000E+00 -0.10559724174E+04  0.10559724174E+04  0.00000000000E+00 0. -1.
   -9000010    2    1    2    0  502 -0.34978434945E+03  0.58341334285E+02  0.26490724892E+03  0.11113786903E+04  0.10194282419E+04 0.  0.
        -13    1    1    2    0    0 -0.10484857424E+02  0.17201796012E+03 -0.58109154097E+03  0.60610848945E+03  0.10566000000E+00 0.  1.
         13    1    3    3    0    0  0.12303291316E+03  0.34894132799E+03 -0.16913741498E+03  0.40682259574E+03  0.10566000000E+00 0. -1.
          2    1    1    2  502    0  0.36026920687E+03 -0.23035929440E+03  0.11289446352E+04  0.12072179982E+04  0.00000000000E+00 0. -1.
         -4    1    3    3    0  502 -0.47281726261E+03 -0.29059999370E+03  0.43404466390E+03  0.70455609459E+03  0.00000000000E+00 0. -1.
</event>
<event>
 7    1  0.9434649E-006  0.1006998E+04  0.7818608E-02  0.9081431E-01
          4   -1    0    0  501    0  0.00000000000E+00  0.00000000000E+00  0.15016056962E+04  0.15016056962E+04  0.00000000000E+00 0.  1.
          4   -1    0    0  502    0 -0.00000000000E+00 -0.00000000000E+00 -0.45020351418E+03  0.45020351418E+03  0.00000000000E+00 0.  1.
    9000010    2    1    2  501    0  0.27819034780E+03  0.94859443746E+02  0.89057419845E+03  0.13478680726E+04  0.96811040413E+03 0.  0.
        -13    1    3    3    0    0  0.36799281505E+03  0.30366177826E+03  0.53045507457E+02  0.48004481513E+03  0.10566000000E+00 0.  1.
         13    1    1    2    0    0 -0.26422278903E+03 -0.79298839056E+02 -0.13517260254E+03  0.30720291626E+03  0.10566000000E+00 0. -1.
          4    1    3    3  501    0 -0.89802467250E+02 -0.20880233452E+03  0.83752869100E+03  0.86782325751E+03  0.00000000000E+00 0.  1.
          4    1    1    2  502    0 -0.13967558768E+02 -0.15560604690E+02  0.29600058615E+03  0.29673822153E+03  0.00000000000E+00 0.  1.
</event>
<event>
 7    1  0.9434649E-006  0.1051972E+04  0.7818608E-02  0.9062867E-01
          1   -1    0    0  501    0  0.00000000000E+00  0.00000000000E+00  0.13647496650E+04  0.13647496650E+04  0.00000000000E+00 0. -1.
         -4   -1    0    0    0  501 -0.00000000000E+00 -0.00000000000E+00 -0.61497520046E+03  0.61497520046E+03  0.00000000000E+00 0. -1.
   -9000010    2    1    2    0  502 -0.20847049085E+03 -0.67751358128E+02  0.76377875116E+03  0.12819120036E+04  0.10059275382E+04 0.  0.
        -13    1    1    2    0    0  0.22630436579E+02 -0.26076516220E+03 -0.14384367297E+03  0.29866640235E+03  0.10566000000E+00 0.  1.
         13    1    3    3    0    0 -0.47265315582E+03  0.31041437725E+03  0.37378083254E+03  0.67784232182E+03  0.10566000000E+00 0. -1.
          1    1    1    2  502    0  0.18584005428E+03  0.32851652032E+03  0.12983938630E+03  0.39914645950E+03  0.00000000000E+00 0. -1.
         -4    1    3    3    0  502  0.26418266496E+03 -0.37816573538E+03  0.38999791862E+03  0.60406968175E+03  0.00000000000E+00 0. -1.
</event>
<event>
 6    1  0.9434649E-006  0.8871566E+03  0.7818608E-02  0.8888519E-01
          4   -1    0    0  501    0 -0.00000000000E+00  0.00000000000E+00  0.19443797258E+04  0.19443797258E+04  0.00000000000E+00 0.  1.
          2   -1    0    0  502    0  0.00000000000E+00 -0.00000000000E+00 -0.22516075989E+03  0.22516075989E+03  0.00000000000E+00 0.  1.
        -13    1    1    2    0    0  0.32087291236E+03  0.88131098931E+02  0.93789535274E+03  0.99517547214E+03  0.10566000000E+00 0.  1.
         13    1    1    2    0    0 -0.65546154321E+02 -0.11868051404E+01  0.42393053252E+01  0.65693909355E+02  0.10566000000E+00 0. -1.
          2    1    1    2  501    0 -0.22031893384E+03  0.30200971397E+03  0.23861532828E+03  0.44349472920E+03  0.00000000000E+00 0.  1.
          4    1    1    2  502    0 -0.35007824197E+02 -0.38895400776E+03  0.53846897955E+03  0.66517637499E+03  0.00000000000E+00 0.  1.
</event>
<event>
 7    1  0.9434649E-006  0.9369809E+03  0.7818608E-02  0.9469148E-01
         -4   -1    0    0    0  501 -0.00000000000E+00  0.00000000000E+00  0.51302043537E+03  0.51302043537E+03  0.00000000000E+00 0. -1.
          2   -1    0    0  501    0  0.00000000000E+00 -0.00000000000E+00 -0.19797239656E+04  0.19797239656E+04  0.00000000000E+00 0. -1.
   -9000010    2    1    2    0  502 -0.22180655360E+02  0.32038904191E+02 -0.26539924430E+03  0.97145836704E+03  0.93368952397E+03 0.  0.
        -13    1    1    2    0    0 -0.17029620490E+02 -0.77444207109E+02  0.14945905081E+03  0.16919111153E+03  0.10566000000E+00 0.  1.
         13    1    3    3    0    0 -0.76075567039E+01  0.48282190666E+03 -0.11979980111E+03  0.49752072518E+03  0.10566000000E+00 0. -1.
          2    1    1    2  502    0  0.39210275850E+02  0.45405302918E+02 -0.13507633367E+04  0.13520949223E+04  0.00000000000E+00 0. -1.
         -4    1    3    3    0  502 -0.14573098656E+02 -0.45078300247E+03 -0.14559944319E+03  0.47393764187E+03  0.00000000000E+00 0. -1.
</event>
<event>
 7    1  0.9434649E-006  0.1051441E+04  0.7818608E-02  0.9042786E-01
         -4   -1    0    0    0  501 -0.00000000000E+00  0.00000000000E+00  0.46397684226E+03  0.46397684226E+03  0.00000000000E+00 0. -1.
          2   -1    0    0  501    0  0.00000000000E+00 -0.00000000000E+00 -0.17091711420E+04  0.17091711420E+04  0.00000000000E+00 0. -1.
   -9000010    2    1    2    0  502  0.22906970804E+03  0.10431340596E+03 -0.10880998869E+04  0.15073665579E+04  0.10123430043E+04 0.  0.
        -13    1    1    2    0    0 -0.24404400885E+03  0.16992236282E+03  0.74455874479E+02  0.30655305585E+03  0.10566000000E+00 0.  1.
         13    1    3    3    0    0  0.48256059309E+03  0.21474867507E+03 -0.11107500781E+04  0.12299379930E+04  0.10566000000E+00 0. -1.
          2    1    1    2  502    0  0.14974300808E+02 -0.27423576878E+03 -0.23155028731E+03  0.35922837043E+03  0.00000000000E+00 0. -1.
         -4    1    3    3    0  502 -0.25349088505E+03 -0.11043526911E+03  0.22650191267E+02  0.27742856491E+03  0.00000000000E+00 0. -1.
</event>
<event>
 7    1  0.9434649E-006  0.1005942E+04  0.7818608E-02  0.9112023E-01
          2   -1    0    0  502    0  0.00000000000E+00  0.00000000000E+00  0.19003212949E+04  0.19003212949E+04  0.00000000000E+00 0.  1.
          4   -1    0    0  501    0 -0.00000000000E+00 -0.00000000000E+00 -0.35132517022E+03  0.35132517022E+03  0.00000000000E+00 0.  1.
    9000010    2    1    2  502    0  0.21019832510E+03 -0.25043882302E+02  0.88997120760E+03  0.13167582421E+04  0.94709713640E+03 0.  0.
        -13    1    3    3    0    0  0.19045287459E+03  0.11881896453E+03 -0.14787202391E+03  0.26880548802E+03  0.10566000000E+00 0.  1.
         13    1    1    2    0    0  0.76352843500E+02 -0.23415028872E+03  0.12626587303E+03  0.27676559807E+03  0.10566000000E+00 0. -1.
          2    1    1    2  501    0 -0.28655116860E+03  0.25919417102E+03  0.53275904410E+03  0.65812262504E+03  0.00000000000E+00 0.  1.
          4    1    3    3  502    0  0.19745450507E+02 -0.14386284683E+03  0.10378432315E+04  0.10479527540E+04  0.00000000000E+00 0.  1.
</event>
<event>
 6    1  0.9434649E-006  0.5149869E+03  0.7818608E-02  0.9447589E-01
          2   -1    0    0  501    0  0.00000000000E+00  0.00000000000E+00  0.17615235803E+04  0.17615235803E+04  0.00000000000E+00 0.  1.
         -4   -1    0    0    0  501 -0.00000000000E+00 -0.00000000000E+00 -0.16022581043E+04  0.16022581043E+04  0.00000000000E+00 0. -1.
        -13    1    1    2    0    0  0.29990775384E+03 -0.38905489662E+03 -0.26976258721E+03  0.56042861992E+03  0.10566000000E+00 0.  1.
         13    1    1    2    0    0 -0.32514817796E+03  0.38763554978E+03 -0.11165869533E+04  0.12258666699E+04  0.10566000000E+00 0. -1.
          2    1    1    2  502    0  0.34971651407E+02 -0.82477714569E+01  0.15583530460E+04  0.15587672239E+04  0.00000000000E+00 0.  1.
         -4    1    1    2    0  502 -0.97312272877E+01  0.96671182983E+01 -0.12738029505E+02  0.18719170825E+02  0.00000000000E+00 0. -1.
</event>
<event>
 6    1  0.9434649E-006  0.5053486E+03  0.7818608E-02  0.9466326E-01
          1   -1    0    0  501    0  0.00000000000E+00  0.00000000000E+00  0.12715410220E+04  0.12715410220E+04  0.00000000000E+00 0. -1.
         -4   -1    0    0    0  501 -0.00000000000E+00 -0.00000000000E+00 -0.97949191959E+02  0.97949191959E+02  0.00000000000E+00 0. -1.
        -13    1    1    2    0    0  0.50957542088E+02  0.52626968188E+02  0.65703589025E+02  0.98403463613E+02  0.10566000000E+00 0.  1.
         13    1    1    2    0    0  0.11947501297E+03  0.10339056239E+03  0.29913506990E+03  0.33829822395E+03  0.10566000000E+00 0. -1.
          1    1    1    2  502    0  0.65056633964E+02 -0.61751468173E+02  0.59311893236E+03  0.59986304885E+03  0.00000000000E+00 0. -1.
         -4    1    1    2    0  502 -0.23548918902E+03 -0.94266062408E+02  0.21563423870E+03  0.33292547750E+03  0.00000000000E+00 0. -1.
</event>
<event>
 7    1  0.9434649E-006  0.1388190E+04  0.7818608E-02  0.8939648E-01
         -4   -1    0    0    0  501 -0.00000000000E+00  0.00000000000E+00  0.27082143194E+04  0.27082143194E+04  0.00000000000E+00 0. -1.
          2   -1    0    0  501    0  0.00000000000E+00 -0.00000000000E+00 -0.15638130507E+04  0.15638130507E+04  0.00000000000E+00 0. -1.
   -9000010    2    1    2    0  502 -0.94403928021E+03 -0.17675010053E+03  0.17124449769E+04  0.22457847909E+04  0.10902434441E+04 0.  0.
        -13    1    1    2    0    0  0.14425186067E+03 -0.11979924356E+03  0.57226201743E+03  0.60219953987E+03  0.10566000000E+00 0.  1.
         13    1    3    3    0    0 -0.25045152420E+03 -0.29303526919E+03 -0.96735582146E+01  0.38560241682E+03  0.10566000000E+00 0. -1.
          2    1    1    2  502    0  0.79978741954E+03  0.29654934409E+03 -0.11403057257E+04  0.14240430394E+04  0.00000000000E+00 0. -1.
         -4    1    3    3    0  502 -0.69358775601E+03  0.11628516866E+03  0.17221185351E+04  0.18601823741E+04  0.00000000000E+00 0. -1.
</event>
<event>
 6    1  0.9434649E-006  0.4154425E+03  0.7818608E-02  0.9685476E-01
         -4   -1    0    0    0  501 -0.00000000000E+00  0.00000000000E+00  0.15273665614E+04  0.15273665614E+04  0.00000000000E+00 0. -1.
          2   -1    0    0  501    0  0.00000000000E+00 -0.00000000000E+00 -0.33817425914E+03  0.33817425914E+03  0.00000000000E+00 0. -1.
        -13    1    1    2    0    0 -0.10741383081E+03  0.85853041700E+02  0.58672442449E+03  0.60262263257E+03  0.10566000000E+00 0.  1.
         13    1    1    2    0    0  0.13167716194E+03  0.63120275997E+01  0.79009389585E+03  0.80101628703E+03  0.10566000000E+00 0. -1.
          2    1    1    2  502    0 -0.22658461419E+02 -0.20695144335E+01 -0.30949892244E+03  0.31033412921E+03  0.00000000000E+00 0. -1.
         -4    1    1    2    0  502 -0.16048697134E+01 -0.90095554866E+02  0.12187290435E+03  0.15156777173E+03  0.00000000000E+00 0. -1.
</event>
<event>
 7    1  0.9434649E-006  0.1145059E+04  0.7818608E-02  0.8839436E-01
          2   -1    0    0  502    0  0.00000000000E+00  0.00000000000E+00  0.13553704184E+04  0.13553704184E+04  0.00000000000E+00 0.  1.
          4   -1    0    0  501    0 -0.00000000000E+00 -0.00000000000E+00 -0.68271745666E+03  0.68271745666E+03  0.00000000000E+00 0.  1.
    9000010    2    1    2  502    0 -0.38640874622E+03  0.33138569522E+03  0.40357797674E+02  0.11469497807E+04  0.10270038216E+04 0.  0.
        -13    1    3    3    0    0  0.37940052112E+02  0.62372910716E+03  0.80696299392E+02  0.63007090916E+03  0.10566000000E+00 0.  1.
         13    1    1    2    0    0  0.39294508304E+03 -0.31607317637E+03  0.36305383507E+03  0.62138248240E+03  0.10566000000E+00 0. -1.
          2    1    1    2  501    0 -0.65363368121E+01 -0.15312518852E+02  0.26924132897E+03  0.26975561191E+03  0.00000000000E+00 0.  1.
          4    1    3    3  502    0 -0.42434879834E+03 -0.29234341194E+03 -0.40338501718E+02  0.51687887157E+03  0.00000000000E+00 0.  1.
</event>
<event>
 7    1  0.9434649E-006  0.1025886E+04  0.7818608E-02  0.9015433E-01
         -2   -1    0    0    0  501  0.00000000000E+00  0.00000000000E+00  0.22042090847E+03  0.22042090847E+03  0.00000000000E+00 0. -1.
         -4   -1    0    0    0  502 -0.00000000000E+00 -0.00000000000E+00 -0.43628444073E+04  0.43628444073E+04  0.00000000000E+00 0. -1.
   -9000010    2    1    2    0  501 -0.23398489654E+03 -0.24231316442E+03 -0.31773688012E+04  0.33384208570E+04  0.96742788786E+03 0.  0.
        -13    1    1    2    0    0  0.24437255125E+03  0.24051364869E+03 -0.10780988342E+04  0.11313098013E+04  0.10566000000E+00 0.  1.
         13    1    3    3    0    0 -0.57707529779E+03 -0.13353131976E+03 -0.13244195396E+04  0.14508389437E+04  0.10566000000E+00 0. -1.
         -2    1    1    2    0  502 -0.10387654713E+02  0.17995157320E+01  0.11304413659E+03  0.11353465746E+03  0.00000000000E+00 0. -1.
         -4    1    3    3    0  501  0.34309040125E+03 -0.10878184466E+03 -0.18529492617E+04  0.18875819133E+04  0.00000000000E+00 0. -1.
</event>
<event>
 7    1  0.9434649E-006  0.9773881E+03  0.7818608E-02  0.9347841E-01
          2   -1    0    0  501    0  0.00000000000E+00  0.00000000000E+00  0.18733853776E+04  0.18733853776E+04  0.00000000000E+00 0. -1.
         -4   -1    0    0    0  501 -0.00000000000E+00 -0.00000000000E+00 -0.20785106257E+03  0.20785106257E+03  0.00000000000E+00 0. -1.
   -9000010    2    1    2    0  502  0.94464709522E+02 -0.12709597287E+03  0.13179670818E+04  0.16448907820E+04  0.97136578506E+03 0.  0.
        -13    1    1    2    0    0 -0.76972844087E+02  0.73113792203E+02  0.25319666408E+02  0.10914001103E+03  0.10566000000E+00 0.  1.
         13    1    3    3    0    0  0.30272619968E+03  0.34750962742E+03  0.70359973133E+03  0.84110563321E+03  0.10566000000E+00 0. -1.
          2    1    1    2  502    0 -0.17491865435E+02  0.53982180669E+02  0.32224756680E+03  0.32720564710E+03  0.00000000000E+00 0. -1.
         -4    1    3    3    0  502 -0.20826149016E+03 -0.47460560029E+03  0.61436735050E+03  0.80378514883E+03  0.00000000000E+00 0. -1.
</event>
<event>
 7    1  0.9434649E-006  0.1012151E+04  0.7818608E-02  0.9215628E-01
          2   -1    0    0  502    0  0.00000000000E+00  0.00000000000E+00  0.61179096676E+03  0.61179096676E+03  0.00000000000E+00 0. -1.
          4   -1    0    0  501    0 -0.00000000000E+00 -0.00000000000E+00 -0.25534516638E+04  0.25534516638E+04  0.00000000000E+00 0.  1.
    9000010    2    1    2  502    0  0.60249452741E+02 -0.97372816612E+02 -0.15023585001E+04  0.18079309079E+04  0.99921050979E+03 0.  0.
        -13    1    3    3    0    0 -0.31192081732E+02  0.38030167095E+03 -0.22939530327E+03  0.44522412695E+03  0.10566000000E+00 0.  1.
         13    1    1    2    0    0 -0.10428658762E+03  0.12614893347E+03 -0.88930656037E+03  0.90424300675E+03  0.10566000000E+00 0. -1.
          2    1    1    2  501    0  0.44037134881E+02 -0.28776116856E+02  0.45000436349E+03  0.45306871588E+03  0.00000000000E+00 0. -1.
          4    1    3    3  502    0  0.91441534473E+02 -0.47767448756E+03 -0.12729631969E+04  0.13627067810E+04  0.00000000000E+00 0.  1.
</event>
<event>
 6    1  0.9434649E-006  0.6767992E+03  0.7818608E-02  0.9171393E-01
          4   -1    0    0  501    0 -0.00000000000E+00  0.00000000000E+00  0.14233559805E+04  0.14233559805E+04  0.00000000000E+00 0.  1.
          2   -1    0    0  502    0  0.00000000000E+00 -0.00000000000E+00 -0.20097864826E+04  0.20097864826E+04  0.00000000000E+00 0.  1.
        -13    1    1    2    0    0 -0.32929153106E+03 -0.19962182582E+02 -0.41531710668E+03  0.53039580638E+03  0.10566000000E+00 0.  1.
         13    1    1    2    0    0 -0.28304960464E+03 -0.57472332307E+03  0.35437302834E+03  0.73212309836E+03  0.10566000000E+00 0. -1.
          2    1    1    2  501    0  0.75820849304E+03  0.77481073975E+03  0.44573263113E+03  0.11721302742E+04  0.00000000000E+00 0.  1.
          4    1    1    2  502    0 -0.14586735735E+03 -0.18012523410E+03 -0.97121905491E+03  0.99849328416E+03  0.00000000000E+00 0.  1.
</event>
<event>
 7    1  0.9434649E-006  0.1295355E+04  0.7818608E-02  0.8751568E-01
          2   -1    0    0  502    0  0.00000000000E+00  0.00000000000E+00  0.12582309529E+04  0.12582309529E+04  0.00000000000E+00 0. -1.
          4   -1    0    0  501    0 -0.00000000000E+00 -0.00000000000E+00 -0.14479101224E+04  0.14479101224E+04  0.00000000000E+00 0.  1.
    9000010    2    1    2  502    0  0.75526254065E+03 -0.60351360339E+03  0.88589301747E+02  0.13932013697E+04  0.99925563163E+03 0.  0.
        -13    1    3    3    0    0  0.73813530741E+03 -0.12628309537E+02  0.25170907887E+03  0.77997479305E+03  0.10566000000E+00 0.  1.
         13    1    1    2    0    0  0.71649954196E+01  0.50753587116E+03 -0.43569850571E+02  0.50945298185E+03  0.10566000000E+00 0. -1.
          2    1    1    2  501    0 -0.76242753607E+03  0.95977732230E+02 -0.23469862066E+03  0.80348672383E+03  0.00000000000E+00 0. -1.
          4    1    3    3  502    0  0.17127233239E+02 -0.59088529385E+03 -0.16311977712E+03  0.61322657664E+03  0.00000000000E+00 0.  1.
</event>
<event>
 7    1  0.9434649E-006  0.1070453E+04  0.7818608E-02  0.8955286E-01
          2   -1    0    0  501    0  0.00000000000E+00  0.00000000000E+00  0.28769626216E+04  0.28769626216E+04  0.00000000000E+00 0.  1.
         -4   -1    0    0    0  501 -0.00000000000E+00 -0.00000000000E+00 -0.28545809456E+03  0.28545809456E+03  0.00000000000E+00 0. -1.
   -9000010    2    1    2    0  502 -0.13868516825E+03  0.32574113199E+03  0.12236579977E+04  0.16190781580E+04  0.99936696230E+03 0.  0.
        -13    1    1    2    0    0  0.30046265950E+03 -0.26906220577E+03  0.42840707536E+03  0.58839180289E+03  0.10566000000E+00 0.  1.
         13    1    3    3    0    0 -0.10636665823E+03  0.68520304847E+03  0.88363725740E+03  0.11232238857E+04  0.10566000000E+00 0. -1.
          2    1    1    2  502    0 -0.16177749125E+03 -0.56678926221E+02  0.93943945396E+03  0.95495075528E+03  0.00000000000E+00 0.  1.
         -4    1    3    3    0  502 -0.32318510014E+02 -0.35946191648E+03  0.34002074032E+03  0.49585427227E+03  0.00000000000E+00 0. -1.
</event>
<event>
 7    1  0.9434649E-006  0.1001712E+04  0.7818608E-02  0.9211341E-01
         -4   -1    0    0    0  501 -0.00000000000E+00  0.00000000000E+00  0.11122731725E+04  0.11122731725E+04  0.00000000000E+00 0. -1.
          2   -1    0    0  501    0  0.00000000000E+00 -0.00000000000E+00 -0.47869351645E+03  0.47869351645E+03  0.00000000000E+00 0. -1.
   -9000010    2    1    2    0  502  0.17910603283E+03  0.15003807815E+02  0.78092467957E+02  0.10065772465E+04  0.98731719037E+03 0.  0.
        -13    1    1    2    0    0 -0.16782163124E+03 -0.19064509853E+02  0.50496473100E+03  0.53246309371E+03  0.10566000000E+00 0.  1.
         13    1    3    3    0    0 -0.12192853893E+03 -0.31454863920E+03 -0.27676651285E+03  0.43635665324E+03  0.10566000000E+00 0. -1.
          2    1    1    2  502    0 -0.11284401585E+02  0.40607020380E+01  0.50522457146E+02  0.51926348766E+02  0.00000000000E+00 0. -1.
         -4    1    3    3    0  502  0.30103457176E+03  0.32955244702E+03  0.35485898081E+03  0.57022059327E+03  0.00000000000E+00 0. -1.
</event>
<event>
 7    1  0.9434649E-006  0.1049557E+04  0.7818608E-02  0.9173760E-01
          4   -1    0    0  501    0 -0.00000000000E+00  0.00000000000E+00  0.23448071365E+04  0.23448071365E+04  0.00000000000E+00 0.  1.
          2   -1    0    0  502    0  0.00000000000E+00 -0.00000000000E+00 -0.98082800983E+03  0.98082800983E+03  0.00000000000E+00 0.  1.
    9000010    2    1    2  502    0  0.48431727901E+03 -0.12677270942E+02  0.18607629587E+04  0.21536115454E+04  0.96998966996E+03 0.  0.
        -13    1    3    3    0    0  0.76111774421E+03 -0.10415411589E+03  0.11256613805E+04  0.13628139473E+04  0.10566000000E+00 0.  1.
         13    1    1    2    0    0 -0.10397159411E+03  0.13475700090E+03  0.26320890552E+03  0.31344613697E+03  0.10566000000E+00 0. -1.
          2    1    1    2  501    0 -0.38034568490E+03 -0.12207972995E+03 -0.75999273758E+03  0.85857746398E+03  0.00000000000E+00 0.  1.
          4    1    3    3  502    0 -0.27680046520E+03  0.91476844946E+02  0.73510157826E+03  0.79079759804E+03  0.00000000000E+00 0.  1.
</event>
<event>
 7    1  0.9434649E-006  0.1054770E+04  0.7818608E-02  0.9036459E-01
          4   -1    0    0  501    0 -0.00000000000E+00  0.00000000000E+00  0.75047831001E+03  0.75047831001E+03  0.00000000000E+00 0.  1.
          2   -1    0    0  502    0  0.00000000000E+00 -0.00000000000E+00 -0.12904278591E+04  0.12904278591E+04  0.00000000000E+00 0.  1.
    9000010    2    1    2  502    0  0.34582192876E+02  0.27789584382E+03  0.13217755175E+02  0.10525413169E+04  0.10145178592E+04 0.  0.
        -13    1    3    3    0    0 -0.47708305513E+02  0.46162435597E+03 -0.38717827933E+03  0.60438411593E+03  0.10566000000E+00 0.  1.
         13    1    1    2    0    0 -0.46098579157E+02 -0.28654578020E+03  0.12071133491E+03  0.31433230934E+03  0.10566000000E+00 0. -1.
          2    1    1    2  501    0  0.11516386281E+02  0.86499363827E+01 -0.67387863916E+03  0.67403254288E+03  0.00000000000E+00 0.  1.
          4    1    3    3  502    0  0.82290498390E+02 -0.18372851215E+03  0.40039603451E+03  0.44815720094E+03  0.00000000000E+00 0.  1.
</event>
<event>
 7    1  0.9434649E-006  0.1290661E+04  0.7818608E-02  0.8665991E-01
          2   -1    0    0  501    0  0.00000000000E+00  0.00000000000E+00  0.15048752993E+04  0.15048752993E+04  0.00000000000E+00 0. -1.
         -4   -1    0    0    0  501 -0.00000000000E+00 -0.00000000000E+00 -0.14954661305E+04  0.14954661305E+04  0.00000000000E+00 0. -1.
   -9000010    2    1    2    0  502 -0.83435841473E+03 -0.41407263370E+03  0.30703552561E-01  0.13633542377E+04  0.99555244276E+03 0.  0.
        -13    1    1    2    0    0  0.60574822863E+03 -0.42980165396E+03 -0.12260334937E+03  0.75278945972E+03  0.10566000000E+00 0.  1.
         13    1    3    3    0    0  0.38384765766E+02  0.44977878272E+02  0.32094157705E+03  0.32634323468E+03  0.10566000000E+00 0. -1.
          2    1    1    2  502    0  0.22861018610E+03  0.84387428766E+03  0.13198181459E+03  0.88419773238E+03  0.00000000000E+00 0. -1.
         -4    1    3    3    0  502 -0.87274318049E+03 -0.45905051198E+03 -0.32091087350E+03  0.10370110030E+04  0.00000000000E+00 0. -1.
</event>
<event>
 7    1  0.9434649E-006  0.1044389E+04  0.7818608E-02  0.9027488E-01
          2   -1    0    0  502    0  0.00000000000E+00  0.00000000000E+00  0.20622299715E+04  0.20622299715E+04  0.00000000000E+00 0.  1.
          4   -1    0    0  501    0 -0.00000000000E+00 -0.00000000000E+00 -0.69755300229E+03  0.69755300229E+03  0.00000000000E+00 0.  1.
    9000010    2    1    2  502    0 -0.10204059103E+03 -0.27915869558E+03  0.21184438217E+03  0.10625329430E+04  0.99787592075E+03 0.  0.
        -13    1    3    3    0    0  0.42617544325E+03 -0.24882622215E+03  0.24115010186E+01  0.49350362082E+03  0.10566000000E+00 0.  1.
         13    1    1    2    0    0  0.85493535556E+02  0.29778944347E+03 -0.18389863781E+03  0.36028657679E+03  0.10566000000E+00 0. -1.
          2    1    1    2  501    0  0.16547055478E+02 -0.18630747883E+02  0.13367312249E+04  0.13369634540E+04  0.00000000000E+00 0.  1.
          4    1    3    3  502    0 -0.52821603428E+03 -0.30332473431E+02  0.20943288116E+03  0.56902932220E+03  0.00000000000E+00 0.  1.
</event>
<event>
 7    1  0.9434649E-006  0.1556647E+04  0.7818608E-02  0.8416414E-01
         -4   -1    0    0    0  501 -0.00000000000E+00  0.00000000000E+00  0.97151430959E+03  0.97151430959E+03  0.00000000000E+00 0. -1.
          4   -1    0    0  501    0  0.00000000000E+00 -0.00000000000E+00 -0.30022140173E+04  0.30022140173E+04  0.00000000000E+00 0.  1.
   -9000010    2    1    2    0  502 -0.96748109592E+03 -0.87389104893E+03 -0.30101241694E+03  0.15886712236E+04  0.85648265910E+03 0.  0.
        -13    1    1    2    0    0  0.97870384947E+03  0.84763527008E+03 -0.95253335431E+03  0.16073787912E+04  0.10566000000E+00 0.  1.
         13    1    3    3    0    0 -0.14727593162E+03 -0.13098063893E+03 -0.43148287844E+03  0.47436653904E+03  0.10566000000E+00 0. -1.
          4    1    1    2  502    0 -0.11222753549E+02  0.26255778845E+02 -0.77715393643E+03  0.77767831205E+03  0.00000000000E+00 0.  1.
         -4    1    3    3    0  502 -0.82020516430E+03 -0.74291041000E+03  0.13047046150E+03  0.11143046846E+04  0.00000000000E+00 0. -1.
</event>
<event>
 7    1  0.9434649E-006  0.1094683E+04  0.7818608E-02  0.9005830E-01
          4   -1    0    0  501    0 -0.00000000000E+00  0.00000000000E+00  0.15833484575E+04  0.15833484575E+04  0.00000000000E+00 0.  1.
          2   -1    0    0  502    0  0.00000000000E+00 -0.00000000000E+00 -0.15116341081E+04  0.15116341081E+04  0.00000000000E+00 0. -1.
    9000010    2    1    2  502    0  0.90140786696E+02  0.54520790918E+03  0.35774726639E+03  0.12028981874E+04  0.10067789812E+04 0.  0.
        -13    1    3    3    0    0  0.31359452929E+03  0.39284522179E+03  0.63879707178E+03  0.81285337372E+03  0.10566000000E+00 0.  1.
         13    1    1    2    0    0 -0.25096403191E+03 -0.14939441092E+03  0.73195702617E+03  0.78807533565E+03  0.10566000000E+00 0. -1.
          2    1    1    2  501    0  0.16082324522E+03 -0.39581349825E+03 -0.10179899432E+04  0.11040090425E+04  0.00000000000E+00 0. -1.
          4    1    3    3  502    0 -0.22345374259E+03  0.15236268738E+03 -0.28104980539E+03  0.39004481370E+03  0.00000000000E+00 0.  1.
</event>
<event>
 7    1  0.9434649E-006  0.1028875E+04  0.7818608E-02  0.9105992E-01
         -4   -1    0    0    0  501 -0.00000000000E+00  0.00000000000E+00  0.42284656442E+03  0.42284656442E+03  0.00000000000E+00 0. -1.
          2   -1    0    0  501    0  0.00000000000E+00 -0.00000000000E+00 -0.12559196665E+04  0.12559196665E+04  0.00000000000E+00 0. -1.
   -9000010    2    1    2    0  502  0.52112203163E+02  0.23113638846E+03 -0.51649823403E+03  0.11514882000E+04  0.10015063340E+04 0.  0.
        -13    1    1    2    0    0 -0.30864883090E+02 -0.23364172107E+03 -0.27339064246E+02  0.23725203989E+03  0.10566000000E+00 0.  1.
         13    1    3    3    0    0 -0.96495662084E+01  0.61917932499E+03 -0.21252974719E+03  0.65470990158E+03  0.10566000000E+00 0. -1.
          2    1    1    2  502    0 -0.21247320072E+02  0.25053326145E+01 -0.28923580385E+03  0.29002599113E+03  0.00000000000E+00 0. -1.
         -4    1    3    3    0  502  0.61761769371E+02 -0.38804293653E+03 -0.30396848683E+03  0.49677829837E+03  0.00000000000E+00 0. -1.
</event>
<event>
 7    1  0.9434649E-006  0.1053203E+04  0.7818608E-02  0.9050956E-01
         -4   -1    0    0    0  501 -0.00000000000E+00  0.00000000000E+00  0.30252845933E+04  0.30252845933E+04  0.00000000000E+00 0. -1.
          2   -1    0    0  501    0  0.00000000000E+00 -0.00000000000E+00 -0.54253973034E+03  0.54253973034E+03  0.00000000000E+00 0. -1.
   -9000010    2    1    2    0  502 -0.23364090472E+03  0.15859970273E+03  0.23250674929E+04  0.25534471902E+04  0.10170603563E+04 0.  0.
        -13    1    1    2    0    0  0.23107895201E+03 -0.14190379024E+03  0.55446816841E+03  0.61722696691E+03  0.10566000000E+00 0.  1.
         13    1    3    3    0    0 -0.25954480384E+02  0.56859225830E+03  0.99608072359E+03  0.11472347669E+04  0.10566000000E+00 0. -1.
          2    1    1    2  502    0  0.25619527083E+01 -0.16695912493E+02 -0.39679079837E+03  0.39715016652E+03  0.00000000000E+00 0. -1.
         -4    1    3    3    0  502 -0.20768642433E+03 -0.40999255557E+03  0.13289867693E+04  0.14062124233E+04  0.00000000000E+00 0. -1.
</event>
<event>
 7    1  0.9434649E-006  0.1016163E+04  0.7818608E-02  0.9239112E-01
          4   -1    0    0  501    0 -0.00000000000E+00  0.00000000000E+00  0.87168464912E+03  0.87168464912E+03  0.00000000000E+00 0.  1.
          2   -1    0    0  502    0  0.00000000000E+00 -0.00000000000E+00 -0.11193711635E+04  0.11193711635E+04  0.00000000000E+00 0.  1.
    9000010    2    1    2  502    0  0.19464761888E+03 -0.29652779191E+02  0.27899118244E+03  0.10620625589E+04  0.10056708290E+04 0.  0.
        -13    1    3    3    0    0  0.40625347650E+03 -0.37646402552E+03  0.34198459341E+03  0.65093818675E+03  0.10566000000E+00 0.  1.
         13    1    1    2    0    0 -0.12987625018E+03  0.59244656607E+02  0.17379763539E+03  0.22490753417E+03  0.10566000000E+00 0. -1.
          2    1    1    2  501    0 -0.64771368701E+02 -0.29591877417E+02 -0.70047533222E+03  0.70408571955E+03  0.00000000000E+00 0.  1.
          4    1    3    3  502    0 -0.21160585762E+03  0.34681124633E+03 -0.62993410967E+02  0.41112437216E+03  0.00000000000E+00 0.  1.
</event>
<event>
 7    1  0.9434649E-006  0.9993057E+03  0.7818608E-02  0.9278515E-01
         -4   -1    0    0    0  501 -0.00000000000E+00  0.00000000000E+00  0.56796455529E+03  0.56796455529E+03  0.00000000000E+00 0. -1.
          2   -1    0    0  501    0  0.00000000000E+00 -0.00000000000E+00 -0.26723278150E+04  0.26723278150E+04  0.00000000000E+00 0. -1.
   -9000010    2    1    2    0  502 -0.10324132901E+03  0.25464703255E+02 -0.28824114481E+03  0.10371367210E+04  0.99058689542E+03 0.  0.
        -13    1    1    2    0    0  0.13062390627E+03 -0.22787198677E+02  0.17069670817E+03  0.21614633621E+03  0.10566000000E+00 0.  1.
         13    1    3    3    0    0 -0.37610765169E+03 -0.26336049207E+03  0.11258171696E+03  0.47274767964E+03  0.10566000000E+00 0. -1.
          2    1    1    2  502    0 -0.27382577254E+02 -0.26775045782E+01 -0.19868188230E+04  0.19870093130E+04  0.00000000000E+00 0. -1.
         -4    1    3    3    0  502  0.27286632268E+03  0.28882519532E+03 -0.40082286177E+03  0.56438904137E+03  0.00000000000E+00 0. -1.
</event>
<event>
 7    1  0.9434649E-006  0.1017059E+04  0.7818608E-02  0.9131214E-01
         -4   -1    0    0    0  502 -0.00000000000E+00  0.00000000000E+00  0.31064225527E+04  0.31064225527E+04  0.00000000000E+00 0. -1.
         -2   -1    0    0    0  501  0.00000000000E+00 -0.00000000000E+00 -0.14748875135E+03  0.14748875135E+03  0.00000000000E+00 0. -1.
   -9000010    2    1    2    0  501 -0.20083974887E+03 -0.62150640911E+02  0.25346633264E+04  0.27302586494E+04  0.99277127673E+03 0.  0.
        -13    1    1    2    0    0  0.21050366803E+03  0.76304772839E+02  0.44415519888E+03  0.49740131128E+03  0.10566000000E+00 0.  1.
         13    1    3    3    0    0  0.24429643063E+03 -0.39091956051E+03  0.11913834307E+04  0.12774558071E+04  0.10566000000E+00 0. -1.
         -2    1    1    2    0  502 -0.96639191542E+01 -0.14154131928E+02 -0.19884723871E+02  0.26251343346E+02  0.00000000000E+00 0. -1.
         -4    1    3    3    0  501 -0.44513617950E+03  0.32876891960E+03  0.13432798956E+04  0.14528028424E+04  0.00000000000E+00 0. -1.
</event>
<event>
 6    1  0.9434649E-006  0.1205002E+04  0.7818608E-02  0.8602805E-01
          2   -1    0    0  502    0  0.00000000000E+00  0.00000000000E+00  0.53256747838E+03  0.53256747838E+03  0.00000000000E+00 0. -1.
          4   -1    0    0  501    0 -0.00000000000E+00 -0.00000000000E+00 -0.19960961393E+04  0.19960961393E+04  0.00000000000E+00 0.  1.
        -13    1    1    2    0    0 -0.24643734930E+02 -0.50347752068E+03 -0.94912218806E+03  0.10746766335E+04  0.10566000000E+00 0.  1.
         13    1    1    2    0    0  0.12327059609E+03  0.52753631586E+03 -0.82144418184E+03  0.98400241842E+03  0.10566000000E+00 0. -1.
          2    1    1    2  501    0  0.82802473376E+01  0.56350952896E+01  0.35063075914E+03  0.35077378187E+03  0.00000000000E+00 0. -1.
          4    1    1    2  502    0 -0.10690710850E+03 -0.29693890473E+02 -0.43593050160E+02  0.11921078391E+03  0.00000000000E+00 0.  1.
</event>
<event>
 7    1  0.9434649E-006  0.1162655E+04  0.7818608E-02  0.8797654E-01
          2   -1    0    0  502    0  0.00000000000E+00  0.00000000000E+00  0.84934011292E+03  0.84934011292E+03  0.00000000000E+00 0. -1.
          4   -1    0    0  501    0 -0.00000000000E+00 -0.00000000000E+00 -0.15532736768E+04  0.15532736768E+04  0.00000000000E+00 0.  1.
    9000010    2    1    2  502    0  0.10060166429E+03  0.55985476361E+03  0.31621013896E+03  0.12010319930E+04  0.10094210940E+04 0.  0.
        -13    1    3    3    0    0 -0.46199668887E+02  0.65609099721E+02 -0.34973654430E+03  0.35882394702E+03  0.10566000000E+00 0.  1.
         13    1    1    2    0    0 -0.46340540464E+02 -0.57619709553E+03 -0.93698462982E+03  0.11009499291E+04  0.10566000000E+00 0. -1.
          2    1    1    2  501    0 -0.54261123826E+02  0.16342331925E+02 -0.83159072981E+02  0.10063186767E+03  0.00000000000E+00 0. -1.
          4    1    3    3  502    0  0.14680133318E+03  0.49424566388E+03  0.66594668327E+03  0.84220804594E+03  0.00000000000E+00 0.  1.
</event>
<event>
 7    1  0.9434649E-006  0.1040479E+04  0.7818608E-02  0.9048372E-01
          1   -1    0    0  501    0  0.00000000000E+00  0.00000000000E+00  0.12430379285E+04  0.12430379285E+04  0.00000000000E+00 0. -1.
         -4   -1    0    0    0  501 -0.00000000000E+00 -0.00000000000E+00 -0.47365083446E+03  0.47365083446E+03  0.00000000000E+00 0. -1.
   -9000010    2    1    2    0  502 -0.27932537966E+03 -0.17723683452E+02  0.45743075640E+03  0.11349056144E+04  0.10002155068E+04 0.  0.
        -13    1    1    2    0    0  0.28599323632E+03 -0.41550569978E+02  0.26552768172E+02  0.29021309714E+03  0.10566000000E+00 0.  1.
         13    1    3    3    0    0  0.23370966271E+03  0.32308617035E+03  0.30051108758E+03  0.49931133057E+03  0.10566000000E+00 0. -1.
          1    1    1    2  502    0 -0.66678566645E+01  0.59274253431E+02  0.28540356947E+03  0.29157005144E+03  0.00000000000E+00 0. -1.
         -4    1    3    3    0  502 -0.51303504237E+03 -0.34080985380E+03  0.15691966882E+03  0.63559428381E+03  0.00000000000E+00 0. -1.
</event>
<event>
 7    1  0.9434649E-006  0.1004621E+04  0.7818608E-02  0.9668830E-01
         -4   -1    0    0    0  501 -0.00000000000E+00  0.00000000000E+00  0.26481678721E+03  0.26481678721E+03  0.00000000000E+00 0. -1.
          2   -1    0    0  501    0  0.00000000000E+00 -0.00000000000E+00 -0.11903336450E+04  0.11903336450E+04  0.00000000000E+00 0. -1.
   -9000010    2    1    2    0  502  0.82106143238E+01 -0.29208877758E+02 -0.88829043652E+03  0.13402408823E+04  0.10031276839E+04 0.  0.
        -13    1    1    2    0    0  0.27918709299E+02 -0.13794822824E+02  0.18142361165E+02  0.36040364848E+02  0.10566000000E+00 0.  1.
         13    1    3    3    0    0 -0.25940633677E+03  0.30910164025E+03 -0.62181009576E+02  0.40829151433E+03  0.10566000000E+00 0. -1.
          2    1    1    2  502    0 -0.36129323623E+02  0.43003700582E+02 -0.55368782423E+02  0.78869185086E+02  0.00000000000E+00 0. -1.
         -4    1    3    3    0  502  0.26761695109E+03 -0.33831051800E+03 -0.82610942695E+03  0.93194936793E+03  0.00000000000E+00 0. -1.
</event>
<event>
 6    1  0.9434649E-006  0.7046263E+03  0.7818608E-02  0.9116294E-01
          2   -1    0    0  502    0  0.00000000000E+00  0.00000000000E+00  0.11172316915E+04  0.11172316915E+04  0.00000000000E+00 0.  1.
          4   -1    0    0  501    0 -0.00000000000E+00 -0.00000000000E+00 -0.18922051241E+03  0.18922051241E+03  0.00000000000E+00 0.  1.
        -13    1    1    2    0    0  0.25149074951E+03  0.19209140347E+03  0.95797676201E+02  0.33064166450E+03  0.10566000000E+00 0.  1.
         13    1    1    2    0    0 -0.52108814617E+02 -0.36703472038E+02  0.89587314498E+02  0.10994713049E+03  0.10566000000E+00 0. -1.
          2    1    1    2  501    0  0.75828122330E+02 -0.11621921351E+03  0.40733348205E+03  0.43032240858E+03  0.00000000000E+00 0.  1.
          4    1    1    2  502    0 -0.27521005722E+03 -0.39168717915E+02  0.33529270636E+03  0.43554100036E+03  0.00000000000E+00 0.  1.
</event>
<event>
 7    1  0.9434649E-006  0.1067183E+04  0.7818608E-02  0.9099122E-01
          4   -1    0    0  501    0  0.00000000000E+00  0.00000000000E+00  0.39231885773E+04  0.39231885773E+04  0.00000000000E+00 0.  1.
         -4   -1    0    0    0  501 -0.00000000000E+00 -0.00000000000E+00 -0.14833669236E+04  0.14833669236E+04  0.00000000000E+00 0. -1.
   -9000010    2    1    2    0  502 -0.17559671143E+03  0.19448875176E+03 -0.12220403789E+04  0.16036413685E+04  0.10047999161E+04 0.  0.
        -13    1    1    2    0    0 -0.17798703111E+03 -0.12425047616E+03  0.13065547667E+03  0.25335435425E+03  0.10566000000E+00 0.  1.
         13    1    3    3    0    0  0.19131126056E+03 -0.33494761530E+03 -0.55951891510E+03  0.67959644712E+03  0.10566000000E+00 0. -1.
          4    1    1    2  502    0  0.35358374254E+03 -0.70238275602E+02  0.35312065559E+04  0.35495597782E+04  0.00000000000E+00 0.  1.
         -4    1    3    3    0  502 -0.36690797198E+03  0.52943636706E+03 -0.66252146383E+03  0.92404492137E+03  0.00000000000E+00 0. -1.
</event>
<event>
 7    1  0.9434649E-006  0.1142638E+04  0.7818608E-02  0.8823852E-01
         -4   -1    0    0    0  501 -0.00000000000E+00  0.00000000000E+00  0.19308491274E+04  0.19308491274E+04  0.00000000000E+00 0. -1.
          1   -1    0    0  501    0  0.00000000000E+00 -0.00000000000E+00 -0.27253492215E+04  0.27253492215E+04  0.00000000000E+00 0. -1.
   -9000010    2    1    2    0  502 -0.34923240683E+03  0.14931803369E+03  0.79609630574E+03  0.13370077650E+04  0.10047692703E+04 0.  0.
        -13    1    1    2    0    0  0.62865135913E+03  0.64676520925E+02  0.73372802809E+03  0.96837101055E+03  0.10566000000E+00 0.  1.
         13    1    3    3    0    0 -0.64817663335E+01 -0.30452135863E+03 -0.58804553555E+02  0.31021485754E+03  0.10566000000E+00 0. -1.
          1    1    1    2  502    0 -0.27941895230E+03 -0.21399455461E+03 -0.23243244279E+04  0.23508195734E+04  0.00000000000E+00 0. -1.
         -4    1    3    3    0  502 -0.34275064050E+03  0.45383939232E+03  0.85490085930E+03  0.10267929075E+04  0.00000000000E+00 0. -1.
</event>
<event>
 7    1  0.9434649E-006  0.1034978E+04  0.7818608E-02  0.9115318E-01
          2   -1    0    0  502    0  0.00000000000E+00  0.00000000000E+00  0.19025655324E+04  0.19025655324E+04  0.00000000000E+00 0.  1.
          4   -1    0    0  501    0 -0.00000000000E+00 -0.00000000000E+00 -0.26662569143E+04  0.26662569143E+04  0.00000000000E+00 0.  1.
    9000010    2    1    2  502    0 -0.37901629756E+02 -0.44091268572E+03 -0.16636802100E+04  0.19947158976E+04  0.10075808361E+04 0.  0.
        -13    1    3    3    0    0  0.34518336010E+02 -0.76172929571E+03 -0.10393825764E+04  0.12890846314E+04  0.10566000000E+00 0.  1.
         13    1    1    2    0    0  0.78918250317E+02  0.20879369271E+03 -0.81396739561E+03  0.84401767080E+03  0.10566000000E+00 0. -1.
          2    1    1    2  501    0 -0.41016620561E+02  0.23211899302E+03  0.17139562237E+04  0.17300888783E+04  0.00000000000E+00 0.  1.
          4    1    3    3  502    0 -0.72419965766E+02  0.32081660998E+03 -0.62429763356E+03  0.70563126628E+03  0.00000000000E+00 0.  1.
</event>
<event>
 6    1  0.9434649E-006  0.1184666E+03  0.7818608E-02  0.1138713E+00
          2   -1    0    0  502    0  0.00000000000E+00  0.00000000000E+00  0.59870465133E+03  0.59870465133E+03  0.00000000000E+00 0.  1.
          4   -1    0    0  501    0 -0.00000000000E+00 -0.00000000000E+00 -0.38731360803E+02  0.38731360803E+02  0.00000000000E+00 0.  1.
        -13    1    1    2    0    0 -0.58321427608E+02  0.44941215742E+02  0.15878378123E+03  0.17502400446E+03  0.10566000000E+00 0.  1.
         13    1    1    2    0    0  0.88348769407E+02 -0.72681359689E+02  0.11656845403E+03  0.16332881173E+03  0.10566000000E+00 0. -1.
          2    1    1    2  501    0 -0.96851106433E+01 -0.93207089365E+01  0.22812334557E+03  0.22851900966E+03  0.00000000000E+00 0.  1.
          4    1    1    2  502    0 -0.20342231155E+02  0.37060852884E+02  0.56497709701E+02  0.70564186287E+02  0.00000000000E+00 0.  1.
</event>
<event>
 7    1  0.9434649E-006  0.1086587E+04  0.7818608E-02  0.8904606E-01
          4   -1    0    0  501    0  0.00000000000E+00  0.00000000000E+00  0.89038822291E+03  0.89038822291E+03  0.00000000000E+00 0. -1.
         -4   -1    0    0    0  501 -0.00000000000E+00 -0.00000000000E+00 -0.10816524487E+04  0.10816524487E+04  0.00000000000E+00 0. -1.
   -9000010    2    1    2    0  502 -0.22957321781E+02  0.44735191685E+03  0.37406026521E+03  0.11476922255E+04  0.98824368778E+03 0.  0.
        -13    1    1    2    0    0  0.14535227247E+03 -0.42990865213E+03 -0.52578225843E+03  0.69454713788E+03  0.10566000000E+00 0.  1.
         13    1    3    3    0    0 -0.24409994453E+03 -0.22163914806E+03 -0.37288292560E+02  0.33181187863E+03  0.10566000000E+00 0. -1.
          4    1    1    2  502    0 -0.12239495069E+03 -0.17443264712E+02 -0.39542232529E+02  0.12980130813E+03  0.00000000000E+00 0. -1.
         -4    1    3    3    0  502  0.22114262275E+03  0.66899106490E+03  0.41134855777E+03  0.81588034692E+03  0.00000000000E+00 0. -1.
</event>
<event>
 6    1  0.9434649E-006  0.1509421E+04  0.7818608E-02  0.8404098E-01
          2   -1    0    0  501    0  0.00000000000E+00  0.00000000000E+00  0.35910811982E+03  0.35910811982E+03  0.00000000000E+00 0. -1.
         -4   -1    0    0    0  501 -0.00000000000E+00 -0.00000000000E+00 -0.50318801601E+04  0.50318801601E+04  0.00000000000E+00 0. -1.
        -13    1    1    2    0    0 -0.48878491603E+03  0.28248865661E+03 -0.30895890232E+04  0.31407436824E+04  0.10566000000E+00 0.  1.
         13    1    1    2    0    0  0.50854087903E+03 -0.33324215545E+03 -0.18454604070E+04  0.19430358424E+04  0.10566000000E+00 0. -1.
          2    1    1    2  502    0 -0.56286498214E+02  0.10209610731E+02  0.24250957777E+03  0.24916520894E+03  0.00000000000E+00 0. -1.
         -4    1    1    2    0  502  0.36530535212E+02  0.40543888111E+02  0.19767812074E+02  0.58043546241E+02  0.00000000000E+00 0. -1.
</event>
<event>
 7    1  0.9434649E-006  0.1165369E+04  0.7818608E-02  0.8999557E-01
         -4   -1    0    0    0  501 -0.00000000000E+00  0.00000000000E+00  0.85919939174E+03  0.85919939174E+03  0.00000000000E+00 0. -1.
          2   -1    0    0  501    0  0.00000000000E+00 -0.00000000000E+00 -0.28806830766E+04  0.28806830766E+04  0.00000000000E+00 0.  1.
   -9000010    2    1    2    0  502  0.57709841513E+03 -0.32400371964E+02  0.69253336147E+02  0.11617348768E+04  0.10053554270E+04 0.  0.
        -13    1    1    2    0    0 -0.51662612479E+02 -0.24286139254E+03  0.12950094786E+03  0.28003783348E+03  0.10566000000E+00 0.  1.
         13    1    3    3    0    0  0.41333182655E+03 -0.29625449008E+03 -0.36635958678E+03  0.62676094304E+03  0.10566000000E+00 0. -1.
          2    1    1    2  502    0 -0.52543580265E+03  0.27526176451E+03 -0.22202379689E+04  0.22981097581E+04  0.00000000000E+00 0.  1.
         -4    1    3    3    0  502  0.16376658858E+03  0.26385411812E+03  0.43561292292E+03  0.53497393376E+03  0.00000000000E+00 0. -1.
</event>
<event>
 7    1  0.9434649E-006  0.1158576E+04  0.7818608E-02  0.8861673E-01
         -4   -1    0    0    0  501 -0.00000000000E+00  0.00000000000E+00  0.21736421853E+04  0.21736421853E+04  0.00000000000E+00 0. -1.
          1   -1    0    0  501    0  0.00000000000E+00 -0.00000000000E+00 -0.19617145482E+04  0.19617145482E+04  0.00000000000E+00 0. -1.
   -9000010    2    1    2    0  502  0.58788945140E+02  0.46397546361E+03  0.13329127442E+01  0.11673192818E+04  0.10695340846E+04 0.  0.
        -13    1    1    2    0    0 -0.48254975949E+02 -0.44160353791E+03  0.15581584364E+04  0.16202468798E+04  0.10566000000E+00 0.  1.
         13    1    3    3    0    0 -0.49557188395E+03  0.30520783117E+03  0.71606306567E+02  0.58640496815E+03  0.10566000000E+00 0. -1.
          1    1    1    2  502    0 -0.10533969191E+02 -0.22371925702E+02 -0.13475637120E+04  0.13477905719E+04  0.00000000000E+00 0. -1.
         -4    1    3    3    0  502  0.55436082909E+03  0.15876763244E+03 -0.70273393822E+02  0.58091431366E+03  0.00000000000E+00 0. -1.
</event>
<event>
 7    1  0.9434649E-006  0.1032205E+04  0.7818608E-02  0.9363360E-01
          4   -1    0    0  501    0 -0.00000000000E+00  0.00000000000E+00  0.23993341759E+04  0.23993341759E+04  0.00000000000E+00 0.  1.
          2   -1    0    0  502    0  0.00000000000E+00 -0.00000000000E+00 -0.20539540450E+04  0.20539540450E+04  0.00000000000E+00 0.  1.
    9000010    2    1    2  502    0 -0.51758980814E+02 -0.14056107141E+03  0.21762530531E+04  0.24056775352E+04  0.10142833162E+04 0.  0.
        -13    1    3    3    0    0  0.23041093045E+03  0.22788966541E+03  0.21178993299E+03  0.38714065061E+03  0.10566000000E+00 0.  1.
         13    1    1    2    0    0  0.70849695170E+02 -0.50115573443E+02  0.85414376383E+02  0.12176566373E+03  0.10566000000E+00 0. -1.
          2    1    1    2  501    0 -0.19090714356E+02  0.19067664486E+03 -0.19162872985E+04  0.19258450220E+04  0.00000000000E+00 0.  1.
          4    1    3    3  502    0 -0.28216991126E+03 -0.36845073683E+03  0.19644631201E+04  0.20185368846E+04  0.00000000000E+00 0.  1.
</event>
<event>
 7    1  0.9434649E-006  0.1057321E+04  0.7818608E-02  0.9456393E-01
          1   -1    0    0  501    0  0.00000000000E+00  0.00000000000E+00  0.11801522319E+04  0.11801522319E+04  0.00000000000E+00 0. -1.
         -4   -1    0    0    0  501 -0.00000000000E+00 -0.00000000000E+00 -0.97209702986E+03  0.97209702986E+03  0.00000000000E+00 0. -1.
   -9000010    2    1    2    0  502 -0.21473045547E+02  0.36255395127E+03 -0.13092206274E+03  0.10815071203E+04  0.10102527433E+04 0.  0.
        -13    1    1    2    0    0  0.20439180546E+02 -0.53444360061E+02 -0.32940743245E+03  0.33434013734E+03  0.10566000000E+00 0.  1.
         13    1    3    3    0    0  0.28727150900E+03  0.14178751120E+03  0.34629801333E+03  0.47175305342E+03  0.10566000000E+00 0. -1.
          1    1    1    2  502    0  0.10338650014E+01 -0.30910959120E+03  0.66838469724E+03  0.73640200418E+03  0.00000000000E+00 0. -1.
         -4    1    3    3    0  502 -0.30874455454E+03  0.22076644006E+03 -0.47722007607E+03  0.60975406684E+03  0.00000000000E+00 0. -1.
</event>
<event>
 7    1  0.9434649E-006  0.1293343E+04  0.7818608E-02  0.8637049E-01
         -4   -1    0    0    0  501  0.00000000000E+00  0.00000000000E+00  0.22144791222E+04  0.22144791222E+04  0.00000000000E+00 0.  1.
         -4   -1    0    0    0  502 -0.00000000000E+00 -0.00000000000E+00 -0.19375972419E+04  0.19375972419E+04  0.00000000000E+00 0. -1.
   -9000010    2    1    2    0  501  0.49921375511E+03  0.68236576483E+03 -0.63377177255E+03  0.14447097505E+04  0.98523205039E+03 0.  0.
        -13    1    1    2    0    0 -0.52551929085E+03 -0.64835821693E+03 -0.70417159532E+03  0.10919691156E+04  0.10566000000E+00 0.  1.
         13    1    3    3    0    0 -0.21094331968E+03  0.24324830188E+03  0.95792913022E+02  0.33592129113E+03  0.10566000000E+00 0. -1.
         -4    1    1    2    0  502  0.26305535732E+02 -0.34007547902E+02  0.16148252482E+04  0.16153974981E+04  0.00000000000E+00 0.  1.
         -4    1    3    3    0  501  0.71015707479E+03  0.43911746296E+03 -0.72956468557E+03  0.11087884593E+04  0.00000000000E+00 0. -1.
</event>
<event>
 6    1  0.9434649E-006  0.5818584E+03  0.7818608E-02  0.9314619E-01
          2   -1    0    0  502    0  0.00000000000E+00  0.00000000000E+00  0.98327689370E+03  0.98327689370E+03  0.00000000000E+00 0.  1.
          4   -1    0    0  501    0 -0.00000000000E+00 -0.00000000000E+00 -0.67387713755E+03  0.67387713755E+03  0.00000000000E+00 0.  1.
        -13    1    1    2    0    0 -0.16371233693E+02 -0.10927830691E+03 -0.57831997100E+03  0.58878159421E+03  0.10566000000E+00 0.  1.
         13    1    1    2    0    0  0.30114192528E+02  0.10295899755E+03 -0.57975393548E+02  0.12193677537E+03  0.10566000000E+00 0. -1.
          2    1    1    2  501    0 -0.11419618721E+02 -0.41822528645E+01  0.85762453457E+03  0.85771075615E+03  0.00000000000E+00 0.  1.
          4    1    1    2  502    0 -0.23233401134E+01  0.10501562227E+02  0.88070586130E+02  0.88724905521E+02  0.00000000000E+00 0.  1.
</event>
<event>
 7    1  0.9434649E-006  0.1117246E+04  0.7818608E-02  0.8862725E-01
          4   -1    0    0  501    0  0.00000000000E+00  0.00000000000E+00  0.42387667719E+03  0.42387667719E+03  0.00000000000E+00 0. -1.
         -4   -1    0    0    0  501 -0.00000000000E+00 -0.00000000000E+00 -0.28866487246E+04  0.28866487246E+04  0.00000000000E+00 0. -1.
   -9000010    2    1    2    0  502 -0.45965602846E+03  0.14056581992E+03 -0.47267772777E+03  0.12075404594E+04  0.10018419598E+04 0.  0.
        -13    1    1    2    0    0  0.44330952633E+03 -0.22298750838E+03 -0.19456369736E+04  0.20079218135E+04  0.10566000000E+00 0.  1.
         13    1    3    3    0    0 -0.20127181284E+03  0.22801201069E+03 -0.75561269959E+03  0.81452463597E+03  0.10566000000E+00 0. -1.
          4    1    1    2  502    0  0.16346502123E+02  0.82421688458E+02 -0.44457346072E+02  0.95063128918E+02  0.00000000000E+00 0. -1.
         -4    1    3    3    0  502 -0.25838421562E+03 -0.87446190772E+02  0.28293497182E+03  0.39301582340E+03  0.00000000000E+00 0. -1.
</event>
<event>
 7    1  0.9434649E-006  0.1033680E+04  0.7818608E-02  0.9055730E-01
          1   -1    0    0  501    0  0.00000000000E+00  0.00000000000E+00  0.24327090529E+04  0.24327090529E+04  0.00000000000E+00 0.  1.
         -4   -1    0    0    0  501 -0.00000000000E+00 -0.00000000000E+00 -0.15852803796E+04  0.15852803796E+04  0.00000000000E+00 0. -1.
   -9000010    2    1    2    0  502  0.20064454722E+03  0.19486916758E+03 -0.11626334251E+04  0.15549483187E+04  0.99393941762E+03 0.  0.
        -13    1    1    2    0    0 -0.17083578851E+03 -0.23058209653E+03 -0.13523450768E+03  0.31724021357E+03  0.10566000000E+00 0.  1.
         13    1    3    3    0    0  0.24116358854E+03 -0.84791738693E+02  0.89863097856E+02  0.27097029894E+03  0.10566000000E+00 0. -1.
          1    1    1    2  502    0 -0.29808758710E+02  0.35712928950E+02  0.21452966060E+04  0.21458009002E+04  0.00000000000E+00 0.  1.
         -4    1    3    3    0  502 -0.40519041320E+02  0.27966090627E+03 -0.12524965230E+04  0.12839780198E+04  0.00000000000E+00 0. -1.
</event>
<event>
 7    1  0.9434649E-006  0.1024164E+04  0.7818608E-02  0.9086894E-01
         -4   -1    0    0    0  501 -0.00000000000E+00  0.00000000000E+00  0.69686090688E+03  0.69686090688E+03  0.00000000000E+00 0. -1.
          2   -1    0    0  501    0  0.00000000000E+00 -0.00000000000E+00 -0.79581738169E+03  0.79581738169E+03  0.00000000000E+00 0. -1.
   -9000010    2    1    2    0  502  0.87710571757E+02 -0.21618097508E+03 -0.11751581872E+03  0.10250350704E+04  0.99119098535E+03 0.  0.
        -13    1    1    2    0    0 -0.12413620832E+03  0.22955955832E+03  0.16990085485E+03  0.31140600617E+03  0.10566000000E+00 0.  1.
         13    1    3    3    0    0  0.31693865684E+03 -0.35119894455E+03  0.27775203316E+03  0.54857726342E+03  0.10566000000E+00 0. -1.
          2    1    1    2  502    0  0.36425636567E+02 -0.13378583242E+02 -0.15134151095E+03  0.15623721203E+03  0.00000000000E+00 0. -1.
         -4    1    3    3    0  502 -0.22922808508E+03  0.13501796947E+03 -0.39526785188E+03  0.47645780695E+03  0.00000000000E+00 0. -1.
</event>
<event>
 7    1  0.9434649E-006  0.1083110E+04  0.7818608E-02  0.9294960E-01
         -4   -1    0    0    0  501 -0.00000000000E+00  0.00000000000E+00  0.10315333955E+04  0.10315333955E+04  0.00000000000E+00 0. -1.
          2   -1    0    0  501    0  0.00000000000E+00 -0.00000000000E+00 -0.18117737646E+04  0.18117737646E+04  0.00000000000E+00 0. -1.
   -9000010    2    1    2    0  502 -0.62950055550E+02 -0.31463949460E+03 -0.52585470044E+02  0.10830211662E+04  0.10330580301E+04 0.  0.
        -13    1    1    2    0    0 -0.93021587048E+02  0.28122234274E+02  0.49007505930E+03  0.49961730417E+03  0.10566000000E+00 0.  1.
         13    1    3    3    0    0 -0.31919149223E+03 -0.39039901954E+03 -0.40076076740E+03  0.64413027178E+03  0.10566000000E+00 0. -1.
          2    1    1    2  502    0  0.15597164260E+03  0.28651726032E+03 -0.12177299583E+04  0.12606686897E+04  0.00000000000E+00 0. -1.
         -4    1    3    3    0  502  0.25624143668E+03  0.75759524944E+02  0.34817529735E+03  0.43889089439E+03  0.00000000000E+00 0. -1.
</event>
<event>
 7    1  0.9434649E-006  0.1050935E+04  0.7818608E-02  0.9187700E-01
         -4   -1    0    0    0  501 -0.00000000000E+00  0.00000000000E+00  0.37002218257E+03  0.37002218257E+03  0.00000000000E+00 0. -1.
          1   -1    0    0  501    0  0.00000000000E+00 -0.00000000000E+00 -0.16767472843E+04  0.16767472843E+04  0.00000000000E+00 0.  1.
   -9000010    2    1    2    0  502 -0.36928050557E+03 -0.11032404962E+03 -0.85719483673E+03  0.13713916015E+04  0.99869537339E+03 0.  0.
        -13    1    1    2    0    0  0.12670344960E+03 -0.98661900932E+02 -0.60679922381E+02  0.17166828181E+03  0.10566000000E+00 0.  1.
         13    1    3    3    0    0 -0.21017255031E+03  0.18681485846E+03  0.14332915406E+03  0.31561931154E+03  0.10566000000E+00 0. -1.
          1    1    1    2  502    0  0.24257705597E+03  0.20898595055E+03 -0.38885034266E+03  0.50370958359E+03  0.00000000000E+00 0.  1.
         -4    1    3    3    0  502 -0.15910795526E+03 -0.29713890809E+03 -0.10005239908E+04  0.10557722900E+04  0.00000000000E+00 0. -1.
</event>
<event>
 7    1  0.9434649E-006  0.1282280E+04  0.7818608E-02  0.9009322E-01
          1   -1    0    0  501    0  0.00000000000E+00  0.00000000000E+00  0.19076109288E+04  0.19076109288E+04  0.00000000000E+00 0. -1.
         -4   -1    0    0    0  501 -0.00000000000E+00 -0.00000000000E+00 -0.16622372426E+04  0.16622372426E+04  0.00000000000E+00 0. -1.
   -9000010    2    1    2    0  502  0.71445551715E+03 -0.35410267932E+03  0.12225031937E+04  0.17775013654E+04  0.10144760480E+04 0.  0.
        -13    1    1    2    0    0  0.42429859946E+02  0.17407512746E+03 -0.99810896747E+03  0.10140630972E+04  0.10566000000E+00 0.  1.
         13    1    3    3    0    0  0.44278499615E+03  0.67778156316E+02 -0.86413843380E+01  0.44802579834E+03  0.10566000000E+00 0. -1.
          1    1    1    2  502    0 -0.75688537709E+03  0.18002755185E+03  0.20979459982E+02  0.77828370870E+03  0.00000000000E+00 0. -1.
         -4    1    3    3    0  502  0.27167052100E+03 -0.42188083563E+03  0.12311445781E+04  0.13294755671E+04  0.00000000000E+00 0. -1.
</event>
<event>
 7    1  0.9434649E-006  0.1484351E+04  0.7818608E-02  0.8592834E-01
         -4   -1    0    0    0  501 -0.00000000000E+00  0.00000000000E+00  0.20413806806E+04  0.20413806806E+04  0.00000000000E+00 0. -1.
          2   -1    0    0  501    0  0.00000000000E+00 -0.00000000000E+00 -0.16564250315E+04  0.16564250315E+04  0.00000000000E+00 0.  1.
   -9000010    2    1    2    0  502 -0.10290771262E+03 -0.15545203512E+04 -0.17097905549E+03  0.18525127959E+04  0.98764685084E+03 0.  0.
        -13    1    1    2    0    0  0.14207121041E+03  0.65868191686E+03  0.65922626350E+03  0.94266928139E+03  0.10566000000E+00 0.  1.
         13    1    3    3    0    0  0.24959557425E+03 -0.78070151713E+03  0.30915589102E+03  0.87599668130E+03  0.10566000000E+00 0. -1.
          2    1    1    2  502    0 -0.39163497786E+02  0.89583843434E+03 -0.10329155886E+03  0.90262363482E+03  0.00000000000E+00 0.  1.
         -4    1    3    3    0  502 -0.35250328688E+03 -0.77381883407E+03 -0.48013494652E+03  0.97651611461E+03  0.00000000000E+00 0. -1.
</event>
<event>
 7    1  0.9434649E-006  0.1264526E+04  0.7818608E-02  0.8676501E-01
         -4   -1    0    0    0  501 -0.00000000000E+00  0.00000000000E+00  0.17995634423E+04  0.17995634423E+04  0.00000000000E+00 0. -1.
          2   -1    0    0  501    0  0.00000000000E+00 -0.00000000000E+00 -0.25995717460E+04  0.25995717460E+04  0.00000000000E+00 0. -1.
   -9000010    2    1    2    0  502 -0.24025465633E+03 -0.10339821606E+04  0.50633249814E+03  0.15534307401E+04  0.10148561756E+04 0.  0.
        -13    1    1    2    0    0 -0.42872797733E+02  0.67235597848E+03  0.58938363764E+03  0.89513894008E+03  0.10566000000E+00 0.  1.
         13    1    3    3    0    0 -0.57133336018E+03 -0.73484201314E+03  0.76632387655E+02  0.93396312921E+03  0.10566000000E+00 0. -1.
          2    1    1    2  502    0  0.28312745406E+03  0.36162618214E+03 -0.18957244395E+04  0.19505655081E+04  0.00000000000E+00 0. -1.
         -4    1    3    3    0  502  0.33107870385E+03 -0.29914014748E+03  0.42970011048E+03  0.61946761087E+03  0.00000000000E+00 0. -1.
</event>
<event>
 7    1  0.9434649E-006  0.1279145E+04  0.7818608E-02  0.8854839E-01
          2   -1    0    0  502    0  0.00000000000E+00  0.00000000000E+00  0.26256779739E+04  0.26256779739E+04  0.00000000000E+00 0.  1.
          4   -1    0    0  501    0 -0.00000000000E+00 -0.00000000000E+00 -0.10174877332E+04  0.10174877332E+04  0.00000000000E+00 0.  1.
    9000010    2    1    2  502    0  0.50634789860E+03  0.17067282671E+03 -0.32637928561E+03  0.13066526818E+04  0.11468654606E+04 0.  0.
        -13    1    3    3    0    0  0.50238475102E+03  0.45810201128E+02  0.35311159890E+03  0.61577335524E+03  0.10566000000E+00 0.  1.
         13    1    1    2    0    0 -0.17135955205E+03  0.29429572604E+03  0.23489352797E+02  0.34135880141E+03  0.10566000000E+00 0. -1.
          2    1    1    2  501    0 -0.33498834656E+03 -0.46496855275E+03  0.19110801736E+04  0.19951542239E+04  0.00000000000E+00 0.  1.
          4    1    3    3  502    0  0.39631475869E+01  0.12486262558E+03 -0.67949088451E+03  0.69087932661E+03  0.00000000000E+00 0.  1.
</event>
<event>
 7    1  0.9434649E-006  0.1063024E+04  0.7818608E-02  0.9097267E-01
          2   -1    0    0  502    0  0.00000000000E+00  0.00000000000E+00  0.17910121231E+04  0.17910121231E+04  0.00000000000E+00 0.  1.
          4   -1    0    0  501    0 -0.00000000000E+00 -0.00000000000E+00 -0.65213652840E+03  0.65213652840E+03  0.00000000000E+00 0.  1.
    9000010    2    1    2  502    0 -0.12110715299E+03  0.25894153704E+03  0.45086320238E+03  0.11687885467E+04  0.10397458235E+04 0.  0.
        -13    1    3    3    0    0 -0.53118187658E+03  0.31956310661E+03  0.10459569987E+03  0.62866130524E+03  0.10566000000E+00 0.  1.
         13    1    1    2    0    0  0.15798435879E+03 -0.15147277271E+03 -0.24840713944E+03  0.33107276630E+03  0.10566000000E+00 0. -1.
          2    1    1    2  501    0 -0.36877205806E+02 -0.10746876432E+03  0.93641953172E+03  0.94328733851E+03  0.00000000000E+00 0.  1.
          4    1    3    3  502    0  0.41007472359E+03 -0.60621569575E+02  0.34626750250E+03  0.54012724142E+03  0.00000000000E+00 0.  1.
</event>
<event>
 7    1  0.9434649E-006  0.9951901E+03  0.7818608E-02  0.9268126E-01
          4   -1    0    0  501    0 -0.00000000000E+00  0.00000000000E+00  0.94680091246E+03  0.94680091246E+03  0.00000000000E+00 0.  1.
          2   -1    0    0  502    0  0.00000000000E+00 -0.00000000000E+00 -0.44718341481E+03  0.44718341481E+03  0.00000000000E+00 0.  1.
    9000010    2    1    2  502    0 -0.86070924303E+02 -0.64978837256E+02  0.29962812372E+03  0.10356447443E+04  0.98547073551E+03 0.  0.
        -13    1    3    3    0    0 -0.20275107213E+03 -0.48083610313E+03  0.30357070992E+03  0.60371064461E+03  0.10566000000E+00 0.  1.
         13    1    1    2    0    0  0.13949874405E+03  0.20663931333E+02  0.23989347049E+03  0.27827286249E+03  0.10566000000E+00 0. -1.
          2    1    1    2  501    0 -0.53427819749E+02  0.44314905923E+02 -0.39904096559E+02  0.80066720504E+02  0.00000000000E+00 0.  1.
          4    1    3    3  502    0  0.11668014782E+03  0.41585726588E+03 -0.39425862082E+01  0.43193409968E+03  0.00000000000E+00 0.  1.
</event>
<event>
 7    1  0.9434649E-006  0.1656043E+04  0.7818608E-02  0.8371291E-01
          4   -1    0    0  501    0  0.00000000000E+00  0.00000000000E+00  0.16123469255E+04  0.16123469255E+04  0.00000000000E+00 0.  1.
         -4   -1    0    0    0  501 -0.00000000000E+00 -0.00000000000E+00 -0.27234563062E+04  0.27234563062E+04  0.00000000000E+00 0. -1.
   -9000010    2    1    2    0  502 -0.39245320814E+03 -0.14646102659E+04 -0.16533475837E+04  0.24498460010E+04  0.98442086736E+03 0.  0.
        -13    1    1    2    0    0  0.43502375969E+03  0.10141266705E+04 -0.91475006154E+02  0.11072787650E+04  0.10566000000E+00 0.  1.
         13    1    3    3    0    0 -0.41001447356E+03 -0.10185587315E+04 -0.48728497489E+03  0.12012578474E+04  0.10566000000E+00 0. -1.
          4    1    1    2  502    0 -0.42570551547E+02  0.45048359540E+03  0.63371320920E+03  0.77867846580E+03  0.00000000000E+00 0.  1.
         -4    1    3    3    0  502  0.17561265419E+02 -0.44605153443E+03 -0.11660626089E+04  0.12485881536E+04  0.00000000000E+00 0. -1.
</event>
<event>
 7    1  0.9434649E-006  0.1414090E+04  0.7818608E-02  0.8540400E-01
          2   -1    0    0  501    0  0.00000000000E+00  0.00000000000E+00  0.18815941167E+04  0.18815941167E+04  0.00000000000E+00 0.  1.
         -4   -1    0    0    0  501 -0.00000000000E+00 -0.00000000000E+00 -0.16515790256E+04  0.16515790256E+04  0.00000000000E+00 0. -1.
   -9000010    2    1    2    0  502 -0.89435751989E+03  0.30676511016E+03  0.11019122745E+03  0.13911740276E+04  0.10145160730E+04 0.  0.
        -13    1    1    2    0    0  0.96093680493E+03 -0.27121130902E+03 -0.76257750812E+03  0.12563755745E+04  0.10566000000E+00 0.  1.
         13    1    3    3    0    0  0.10634159356E+03  0.33058114136E+03 -0.11380200391E+03  0.36543581214E+03  0.10566000000E+00 0. -1.
          2    1    1    2  502    0 -0.66579285040E+02 -0.35553801142E+02  0.88240137179E+03  0.88562354017E+03  0.00000000000E+00 0.  1.
         -4    1    3    3    0  502 -0.10006991134E+04 -0.23816031195E+02  0.22399323136E+03  0.10257382155E+04  0.00000000000E+00 0. -1.
</event>
<event>
 7    1  0.9434649E-006  0.1024014E+04  0.7818608E-02  0.9149650E-01
         -4   -1    0    0    0  501 -0.00000000000E+00  0.00000000000E+00  0.20431509883E+04  0.20431509883E+04  0.00000000000E+00 0. -1.
          2   -1    0    0  501    0  0.00000000000E+00 -0.00000000000E+00 -0.13215626317E+04  0.13215626317E+04  0.00000000000E+00 0.  1.
   -9000010    2    1    2    0  502 -0.15932476728E+03 -0.96054944238E+02  0.14344230387E+04  0.17607496095E+04  0.10040213143E+04 0.  0.
        -13    1    1    2    0    0  0.16572800028E+03  0.11829451573E+03  0.42217827879E+03  0.46871512966E+03  0.10566000000E+00 0.  1.
         13    1    3    3    0    0 -0.94858993252E+02  0.41865405364E+03  0.98475484600E+03  0.10742493021E+04  0.10566000000E+00 0. -1.
          2    1    1    2  502    0 -0.64032330001E+01 -0.22239571494E+02 -0.11350129609E+04  0.11352488808E+04  0.00000000000E+00 0.  1.
         -4    1    3    3    0  502 -0.64465774028E+02 -0.51470899788E+03  0.44966819273E+03  0.68650030740E+03  0.00000000000E+00 0. -1.
</event>
<event>
 7    1  0.9434649E-006  0.1005898E+04  0.7818608E-02  0.9294053E-01
         -4   -1    0    0    0  502 -0.00000000000E+00  0.00000000000E+00  0.12673434665E+04  0.12673434665E+04  0.00000000000E+00 0. -1.
         -2   -1    0    0    0  501  0.00000000000E+00 -0.00000000000E+00 -0.12800940779E+04  0.12800940779E+04  0.00000000000E+00 0. -1.
   -9000010    2    1    2    0  501 -0.10971835702E+03 -0.83945394701E+02  0.32339564662E+03  0.10586223799E+04  0.99850470791E+03 0.  0.
        -13    1    1    2    0    0  0.10518304101E+03  0.60760701859E+02  0.56977824151E+03  0.58258268998E+03  0.10566000000E+00 0.  1.
         13    1    3    3    0    0  0.42341508378E+03 -0.18855193641E+03  0.17483567211E+03  0.49537832947E+03  0.10566000000E+00 0. -1.
         -2    1    1    2    0  502  0.45353160087E+01  0.23184692842E+02 -0.90592449954E+03  0.90623247456E+03  0.00000000000E+00 0. -1.
         -4    1    3    3    0  501 -0.53313344080E+03  0.10460654171E+03  0.14855997451E+03  0.56324405039E+03  0.00000000000E+00 0. -1.
</event>
<event>
 6    1  0.9434649E-006  0.6733189E+03  0.7818608E-02  0.9162608E-01
          2   -1    0    0  501    0  0.00000000000E+00  0.00000000000E+00  0.45625270492E+03  0.45625270492E+03  0.00000000000E+00 0. -1.
         -4   -1    0    0    0  501 -0.00000000000E+00 -0.00000000000E+00 -0.69976274442E+03  0.69976274442E+03  0.00000000000E+00 0. -1.
        -13    1    1    2    0    0  0.22536133485E+03 -0.10493279805E+03 -0.34657542218E+02  0.25099756921E+03  0.10566000000E+00 0.  1.
         13    1    1    2    0    0 -0.24497413275E+03  0.21675158607E+02 -0.27863583068E+03  0.37164509350E+03  0.10566000000E+00 0. -1.
          2    1    1    2  502    0  0.14612651279E+02  0.96802262398E+00  0.29405968374E+03  0.29442412307E+03  0.00000000000E+00 0. -1.
         -4    1    1    2    0  502  0.50001466232E+01  0.82289616816E+02 -0.22427635034E+03  0.23894866357E+03  0.00000000000E+00 0. -1.
</event>
<event>
 7    1  0.9434649E-006  0.1126484E+04  0.7818608E-02  0.8865051E-01
          4   -1    0    0  501    0  0.00000000000E+00  0.00000000000E+00  0.24296945106E+04  0.24296945106E+04  0.00000000000E+00 0. -1.
         -4   -1    0    0    0  501 -0.00000000000E+00 -0.00000000000E+00 -0.95789901250E+03  0.95789901250E+03  0.00000000000E+00 0. -1.
   -9000010    2    1    2    0  502 -0.32910862837E+02  0.42037182158E+03  0.65051282514E+03  0.12812659633E+04  0.10201372162E+04 0.  0.
        -13    1    1    2    0    0  0.29634035617E+03 -0.38954724818E+03 -0.53455878574E+03  0.72478808754E+03  0.10566000000E+00 0.  1.
         13    1    3    3    0    0 -0.32283812073E+03  0.39656029534E+02  0.72719061541E+03  0.79661989378E+03  0.10566000000E+00 0. -1.
          4    1    1    2  502    0 -0.26342949333E+03 -0.30824573393E+02  0.13558414587E+04  0.13815394723E+04  0.00000000000E+00 0. -1.
         -4    1    3    3    0  502  0.28992725789E+03  0.38071579204E+03 -0.76677790266E+02  0.48464606952E+03  0.00000000000E+00 0. -1.
</event>
<event>
 7    1  0.9434649E-006  0.9877987E+03  0.7818608E-02  0.9003911E-01
         -4   -1    0    0    0  502 -0.00000000000E+00  0.00000000000E+00  0.32878778609E+04  0.32878778609E+04  0.00000000000E+00 0. -1.
         -2   -1    0    0    0  501  0.00000000000E+00 -0.00000000000E+00 -0.32600749775E+03  0.32600749775E+03  0.00000000000E+00 0.  1.
   -9000010    2    1    2    0  501 -0.38882248002E+03 -0.41714756578E+02  0.20028289469E+04  0.22314829562E+04  0.90292267192E+03 0.  0.
        -13    1    1    2    0    0  0.39836572244E+03  0.65042820601E+02  0.11350054817E+04  0.12046423834E+04  0.10566000000E+00 0.  1.
         13    1    3    3    0    0  0.20088014044E+03 -0.95793754884E+02  0.11013415426E+03  0.24831193567E+03  0.10566000000E+00 0. -1.
         -2    1    1    2    0  502 -0.95432424229E+01 -0.23328064023E+02 -0.17596406542E+03  0.17776001903E+03  0.00000000000E+00 0.  1.
         -4    1    3    3    0  501 -0.58970262046E+03  0.54078998306E+02  0.18926947926E+04  0.19831710205E+04  0.00000000000E+00 0. -1.
</event>
<event>
 7    1  0.9434649E-006  0.1150712E+04  0.7818608E-02  0.8821964E-01
          2   -1    0    0  502    0  0.00000000000E+00  0.00000000000E+00  0.14585479342E+04  0.14585479342E+04  0.00000000000E+00 0.  1.
          4   -1    0    0  501    0 -0.00000000000E+00 -0.00000000000E+00 -0.52957970652E+03  0.52957970652E+03  0.00000000000E+00 0.  1.
    9000010    2    1    2  502    0  0.34443770517E+03 -0.42392707514E+03  0.56079836303E+03  0.12839877340E+04  0.10177318897E+04 0.  0.
        -13    1    3    3    0    0 -0.23641681973E+03  0.11457116597E+03 -0.69483508211E+02  0.27174884324E+03  0.10566000000E+00 0.  1.
         13    1    1    2    0    0 -0.29170642961E+03  0.44663949112E+03  0.29012025834E+03  0.60724727382E+03  0.10566000000E+00 0. -1.
          2    1    1    2  501    0 -0.52731275563E+02 -0.22712415974E+02  0.78049606281E+02  0.96892632860E+02  0.00000000000E+00 0.  1.
          4    1    3    3  502    0  0.58085452491E+03 -0.53849824112E+03  0.63028187125E+03  0.10122388908E+04  0.00000000000E+00 0.  1.
</event>
<event>
 6    1  0.9434649E-006  0.1930981E+03  0.7818608E-02  0.1086610E+00
          2   -1    0    0  502    0  0.00000000000E+00  0.00000000000E+00  0.20380402948E+04  0.20380402948E+04  0.00000000000E+00 0. -1.
          4   -1    0    0  501    0 -0.00000000000E+00 -0.00000000000E+00 -0.44356884073E+02  0.44356884073E+02  0.00000000000E+00 0.  1.
        -13    1    1    2    0    0 -0.27784417036E+01 -0.25442648750E+02 -0.17901090867E+02  0.31233128757E+02  0.10566000000E+00 0.  1.
         13    1    1    2    0    0 -0.12775269483E+03 -0.21352840122E+02  0.39877738521E+03  0.41928523577E+03  0.10566000000E+00 0. -1.
          2    1    1    2  501    0  0.47186527753E+02  0.88304937285E+02  0.13377165340E+04  0.13414581080E+04  0.00000000000E+00 0. -1.
          4    1    1    2  502    0  0.83344608782E+02 -0.41509448414E+02  0.27509058241E+03  0.29042070631E+03  0.00000000000E+00 0.  1.
</event>
<event>
 7    1  0.9434649E-006  0.1142473E+04  0.7818608E-02  0.8820922E-01
         -4   -1    0    0    0  501 -0.00000000000E+00  0.00000000000E+00  0.14148047256E+04  0.14148047256E+04  0.00000000000E+00 0. -1.
          1   -1    0    0  501    0  0.00000000000E+00 -0.00000000000E+00 -0.23042217414E+04  0.23042217414E+04  0.00000000000E+00 0. -1.
   -9000010    2    1    2    0  502 -0.21017705641E+03  0.38376705200E+03 -0.44095151360E+03  0.11778852357E+04  0.10007616330E+04 0.  0.
        -13    1    1    2    0    0  0.24531706092E+03 -0.50536717905E+03  0.96791144801E+03  0.11191197561E+04  0.10566000000E+00 0.  1.
         13    1    3    3    0    0 -0.38891036719E+03  0.28168525855E+03 -0.69884152468E+03  0.84792531886E+03  0.10566000000E+00 0. -1.
          1    1    1    2  502    0 -0.35140004503E+02  0.12160012705E+03 -0.14163769502E+04  0.14220214752E+04  0.00000000000E+00 0. -1.
         -4    1    3    3    0  502  0.17873331077E+03  0.10208179345E+03  0.25789001108E+03  0.32995991688E+03  0.00000000000E+00 0. -1.
</event>
<event>
 7    1  0.9434649E-006  0.1099455E+04  0.7818608E-02  0.8888541E-01
          4   -1    0    0  501    0 -0.00000000000E+00  0.00000000000E+00  0.22854150898E+04  0.22854150898E+04  0.00000000000E+00 0.  1.
          2   -1    0    0  502    0  0.00000000000E+00 -0.00000000000E+00 -0.84265567454E+03  0.84265567454E+03  0.00000000000E+00 0.  1.
    9000010    2    1    2  502    0  0.38560834930E+01  0.29330289441E+03  0.52797735085E+02  0.10394376395E+04  0.99579192019E+03 0.  0.
        -13    1    3    3    0    0  0.36501011364E+02  0.49148776346E+03 -0.33967273420E+03  0.59855669989E+03  0.10566000000E+00 0.  1.
         13    1    1    2    0    0 -0.19357943117E+03 -0.43866104977E+03  0.16600919283E+04  0.17279472602E+04  0.10566000000E+00 0. -1.
          2    1    1    2  501    0  0.18972334768E+03  0.14535815536E+03 -0.27013024809E+03  0.36068586460E+03  0.00000000000E+00 0.  1.
          4    1    3    3  502    0 -0.32644927871E+02 -0.19818486905E+03  0.39247046929E+03  0.44088093960E+03  0.00000000000E+00 0.  1.
</event>
<event>
 7    1  0.9434649E-006  0.1101852E+04  0.7818608E-02  0.9314806E-01
         -4   -1    0    0    0  501 -0.00000000000E+00  0.00000000000E+00  0.45165893590E+03  0.45165893590E+03  0.00000000000E+00 0. -1.
          1   -1    0    0  501    0  0.00000000000E+00 -0.00000000000E+00 -0.38680453877E+04  0.38680453877E+04  0.00000000000E+00 0. -1.
   -9000010    2    1    2    0  502 -0.42542084378E+03  0.24028811838E+03 -0.76027652001E+03  0.13326923738E+04  0.97945255222E+03 0.  0.
        -13    1    1    2    0    0 -0.51147008286E+02 -0.68668261812E+02  0.12976222840E+03  0.15546573166E+03  0.10566000000E+00 0.  1.
         13    1    3    3    0    0 -0.21354997158E+03  0.41437957684E+03  0.57930867997E+02  0.46975527746E+03  0.10566000000E+00 0. -1.
          1    1    1    2  502    0  0.47656785207E+03 -0.17161985657E+03 -0.27858721602E+04  0.28315462182E+04  0.00000000000E+00 0. -1.
         -4    1    3    3    0  502 -0.21187087220E+03 -0.17409145847E+03 -0.81820738801E+03  0.86293709631E+03  0.00000000000E+00 0. -1.
</event>
<event>
 7    1  0.9434649E-006  0.1004994E+04  0.7818608E-02  0.9408717E-01
         -4   -1    0    0    0  501 -0.00000000000E+00  0.00000000000E+00  0.22224289432E+03  0.22224289432E+03  0.00000000000E+00 0. -1.
          2   -1    0    0  501    0  0.00000000000E+00 -0.00000000000E+00 -0.32210067185E+04  0.32210067185E+04  0.00000000000E+00 0. -1.
   -9000010    2    1    2    0  502 -0.83900426260E+02 -0.73954644207E+02 -0.19377616570E+04  0.21842921800E+04  0.10018500473E+04 0.  0.
        -13    1    1    2    0    0  0.57667802003E+02  0.54253337534E+02  0.82870323586E+02  0.11461457899E+03  0.10566000000E+00 0.  1.
         13    1    3    3    0    0  0.52112730320E+02 -0.24350433400E+03 -0.15199623005E+02  0.24948173689E+03  0.10566000000E+00 0. -1.
          2    1    1    2  502    0  0.26232624257E+02  0.19701306673E+02 -0.11438724907E+04  0.11443428538E+04  0.00000000000E+00 0. -1.
         -4    1    3    3    0  502 -0.13601315658E+03  0.16954968979E+03 -0.19225620340E+04  0.19348104431E+04  0.00000000000E+00 0. -1.
</event>
<event>
 7    1  0.9434649E-006  0.7727840E+03  0.7818608E-02  0.9332501E-01
          2   -1    0    0  502    0  0.00000000000E+00  0.00000000000E+00  0.20570321636E+04  0.20570321636E+04  0.00000000000E+00 0. -1.
          4   -1    0    0  501    0 -0.00000000000E+00 -0.00000000000E+00 -0.27016467298E+03  0.27016467298E+03  0.00000000000E+00 0.  1.
    9000010    2    1    2  502    0  0.36298817000E+02  0.21532895939E+03  0.44763786744E+03  0.88958086462E+03  0.73708228134E+03 0.  0.
        -13    1    3    3    0    0 -0.18219967551E+02  0.30344861651E+03 -0.10932882960E+03  0.32305701389E+03  0.10566000000E+00 0.  1.
         13    1    1    2    0    0 -0.29183471296E+02 -0.23641424910E+03  0.23995128806E+03  0.33811241324E+03  0.10566000000E+00 0. -1.
          2    1    1    2  501    0 -0.71153457049E+01  0.21085289712E+02  0.10992783351E+04  0.10995035588E+04  0.00000000000E+00 0. -1.
          4    1    3    3  502    0  0.54518784552E+02 -0.88119657113E+02  0.55696669704E+03  0.56652385073E+03  0.00000000000E+00 0.  1.
</event>
<event>
 7    1  0.9434649E-006  0.1033723E+04  0.7818608E-02  0.9125595E-01
         -4   -1    0    0    0  502 -0.00000000000E+00  0.00000000000E+00  0.21637462098E+04  0.21637462098E+04  0.00000000000E+00 0. -1.
         -2   -1    0    0    0  501  0.00000000000E+00 -0.00000000000E+00 -0.35005579133E+03  0.35005579133E+03  0.00000000000E+00 0. -1.
   -9000010    2    1    2    0  501  0.16071453628E+03 -0.10376958067E+03  0.88085269127E+03  0.13545481631E+04  0.10110894987E+04 0.  0.
        -13    1    1    2    0    0 -0.11836350855E+03  0.18195085363E+03  0.10151443387E+04  0.10380915532E+04  0.10566000000E+00 0.  1.
         13    1    3    3    0    0  0.40272999596E+03 -0.26873188784E+03  0.65973901136E+02  0.48863160354E+03  0.10566000000E+00 0. -1.
         -2    1    1    2    0  502 -0.42351027733E+02 -0.78181272962E+02 -0.82306611430E+02  0.12116228488E+03  0.00000000000E+00 0. -1.
         -4    1    3    3    0  501 -0.24201545967E+03  0.16496230717E+03  0.81487879013E+03  0.86591655956E+03  0.00000000000E+00 0. -1.
</event>
<event>
 7    1  0.9434649E-006  0.1117684E+04  0.7818608E-02  0.8914934E-01
          2   -1    0    0  502    0  0.00000000000E+00  0.00000000000E+00  0.22483010184E+04  0.22483010184E+04  0.00000000000E+00 0.  1.
          4   -1    0    0  501    0 -0.00000000000E+00 -0.00000000000E+00 -0.64811365418E+03  0.64811365418E+03  0.00000000000E+00 0.  1.
    9000010    2    1    2  502    0 -0.63474438947E+03 -0.27879293036E+02  0.43186179364E+03  0.11945436010E+04  0.91474155422E+03 0.  0.
        -13    1    3    3    0    0 -0.66923133703E+03 -0.47942928871E+02 -0.84852967969E+02  0.67629072463E+03  0.10566000000E+00 0.  1.
         13    1    1    2    0    0  0.10856966003E+03 -0.38261158326E+03  0.51760506005E+02  0.40107126033E+03  0.10566000000E+00 0. -1.
          2    1    1    2  501    0  0.52617472945E+03  0.41049087629E+03  0.11165650645E+04  0.13007998112E+04  0.00000000000E+00 0.  1.
          4    1    3    3  502    0  0.34486947554E+02  0.20063635836E+02  0.51671476160E+03  0.51825287640E+03  0.00000000000E+00 0.  1.
</event>
<event>
 7    1  0.9434649E-006  0.1036434E+04  0.7818608E-02  0.9053466E-01
          2   -1    0    0  501    0  0.00000000000E+00  0.00000000000E+00  0.18609049926E+04  0.18609049926E+04  0.00000000000E+00 0. -1.
         -4   -1    0    0    0  501 -0.00000000000E+00 -0.00000000000E+00 -0.17454759069E+04  0.17454759069E+04  0.00000000000E+00 0. -1.
   -9000010    2    1    2    0  502 -0.26298223102E+03  0.34710595290E+02 -0.71150465680E+03  0.12530152409E+04  0.99671652847E+03 0.  0.
        -13    1    1    2    0    0  0.27791151677E+03 -0.68316349370E+02 -0.73616420385E+03  0.78983522392E+03  0.10566000000E+00 0.  1.
         13    1    3    3    0    0 -0.76379828520E+02 -0.44828048038E+03 -0.12697844918E+03  0.47213642628E+03  0.10566000000E+00 0. -1.
          2    1    1    2  502    0 -0.14929285750E+02  0.33605754080E+02  0.15630979463E+04  0.15635304346E+04  0.00000000000E+00 0. -1.
         -4    1    3    3    0  502 -0.18660240250E+03  0.48299107567E+03 -0.58452620762E+03  0.78087881466E+03  0.00000000000E+00 0. -1.
</event>
<event>
 7    1  0.9434649E-006  0.1070818E+04  0.7818608E-02  0.8988836E-01
          2   -1    0    0  502    0  0.00000000000E+00  0.00000000000E+00  0.19983899537E+04  0.19983899537E+04  0.00000000000E+00 0.  1.
          4   -1    0    0  501    0 -0.00000000000E+00 -0.00000000000E+00 -0.34486633181E+03  0.34486633181E+03  0.00000000000E+00 0.  1.
    9000010    2    1    2  502    0 -0.26586735309E+03 -0.21591735674E+03  0.74840021299E+03  0.13085618683E+04  0.10173128967E+04 0.  0.
        -13    1    3    3    0    0 -0.41480177792E+03  0.21820272356E+02  0.89888131299E+03  0.99021425220E+03  0.10566000000E+00 0.  1.
         13    1    1    2    0    0  0.25551295361E+03  0.21020499050E+03  0.35813965398E+03  0.48758284466E+03  0.10566000000E+00 0. -1.
          2    1    1    2  501    0  0.10354399478E+02  0.57123662412E+01  0.54698375496E+03  0.54711157263E+03  0.00000000000E+00 0.  1.
          4    1    3    3  502    0  0.14893442483E+03 -0.23773762910E+03 -0.15048110000E+03  0.31834761605E+03  0.00000000000E+00 0.  1.
</event>
<event>
 7    1  0.9434649E-006  0.1087345E+04  0.7818608E-02  0.8921167E-01
          2   -1    0    0  501    0  0.00000000000E+00  0.00000000000E+00  0.27769749709E+04  0.27769749709E+04  0.00000000000E+00 0.  1.
         -4   -1    0    0    0  501 -0.00000000000E+00 -0.00000000000E+00 -0.19969380312E+04  0.19969380312E+04  0.00000000000E+00 0. -1.
   -9000010    2    1    2    0  502  0.37875566634E+03 -0.86877187825E+02 -0.47994961029E+02  0.10762878030E+04  0.10025409807E+04 0.  0.
        -13    1    1    2    0    0 -0.39397859354E+03  0.15452815495E+03 -0.14030400801E+04  0.14654758819E+04  0.10566000000E+00 0.  1.
         13    1    3    3    0    0  0.25081877447E+03 -0.29743206849E+03 -0.45614761063E+03  0.59953861163E+03  0.10566000000E+00 0. -1.
          2    1    1    2  502    0  0.15222927202E+02 -0.67650967123E+02  0.22310719808E+04  0.22321493172E+04  0.00000000000E+00 0.  1.
         -4    1    3    3    0  502  0.12793689187E+03  0.21055488066E+03  0.40815264960E+03  0.47674919134E+03  0.00000000000E+00 0. -1.
</event>
<event>
 7    1  0.9434649E-006  0.1171070E+04  0.7818608E-02  0.8758362E-01
          2   -1    0    0  502    0  0.00000000000E+00  0.00000000000E+00  0.10073982410E+04  0.10073982410E+04  0.00000000000E+00 0. -1.
          4   -1    0    0  501    0 -0.00000000000E+00 -0.00000000000E+00 -0.18155324997E+04  0.18155324997E+04  0.00000000000E+00 0.  1.
    9000010    2    1    2  502    0 -0.60209158041E+03  0.31174792261E+03 -0.68162344313E+03  0.13603106409E+04  0.96235829249E+03 0.  0.
        -13    1    3    3    0    0  0.25872270502E+03  0.81300859223E+02 -0.71929680401E+02  0.28057291011E+03  0.10566000000E+00 0.  1.
         13    1    1    2    0    0  0.54503628875E+03 -0.38024547638E+03 -0.65118501283E+03  0.93042630577E+03  0.10566000000E+00 0. -1.
          2    1    1    2  501    0  0.57055291655E+02  0.68497553770E+02  0.52467419726E+03  0.53219379407E+03  0.00000000000E+00 0. -1.
          4    1    3    3  502    0 -0.86081428542E+03  0.23044706339E+03 -0.60969376273E+03  0.10797377308E+04  0.00000000000E+00 0.  1.
</event>
<event>
 7    1  0.9434649E-006  0.1119001E+04  0.7818608E-02  0.9117532E-01
          2   -1    0    0  501    0  0.00000000000E+00  0.00000000000E+00  0.24612357586E+04  0.24612357586E+04  0.00000000000E+00 0. -1.
         -4   -1    0    0    0  501 -0.00000000000E+00 -0.00000000000E+00 -0.17078627874E+04  0.17078627874E+04  0.00000000000E+00 0. -1.
   -9000010    2    1    2    0  502 -0.48627492346E+03 -0.79253948025E+02 -0.23520427711E+03  0.11179903279E+04  0.97562125426E+03 0.  0.
        -13    1    1    2    0    0 -0.59515820151E+02  0.16464815048E+03 -0.98563386159E+03  0.10010620693E+04  0.10566000000E+00 0.  1.
         13    1    3    3    0    0 -0.94353691264E+02 -0.49282944124E+03 -0.53967236812E+00  0.50178060905E+03  0.10566000000E+00 0. -1.
          2    1    1    2  502    0  0.54579074361E+03 -0.85394202452E+02  0.19742111100E+04  0.20500461488E+04  0.00000000000E+00 0. -1.
         -4    1    3    3    0  502 -0.39192123220E+03  0.41357549322E+03 -0.23466460474E+03  0.61620971881E+03  0.00000000000E+00 0. -1.
</event>
<event>
 7    1  0.9434649E-006  0.1153455E+04  0.7818608E-02  0.8805488E-01
         -4   -1    0    0    0  501 -0.00000000000E+00  0.00000000000E+00  0.34876111643E+04  0.34876111643E+04  0.00000000000E+00 0. -1.
          2   -1    0    0  501    0  0.00000000000E+00 -0.00000000000E+00 -0.10432241768E+04  0.10432241768E+04  0.00000000000E+00 0.  1.
   -9000010    2    1    2    0  502 -0.44181568629E+03 -0.41867785600E+03  0.98375964999E+03  0.15303746228E+04  0.10018838204E+04 0.  0.
        -13    1    1    2    0    0  0.19506795809E+03  0.54013590808E+03  0.21673335533E+04  0.22421269032E+04  0.10566000000E+00 0.  1.
         13    1    3    3    0    0 -0.29363713653E+03  0.31054702283E+03  0.33233074656E+03  0.54139260949E+03  0.10566000000E+00 0. -1.
          2    1    1    2  502    0  0.24674772820E+03 -0.12145805208E+03 -0.70670621575E+03  0.75833381513E+03  0.00000000000E+00 0.  1.
         -4    1    3    3    0  502 -0.14817854976E+03 -0.72922487883E+03  0.65142890344E+03  0.98898201335E+03  0.00000000000E+00 0. -1.
</event>
<event>
 7    1  0.9434649E-006  0.1087165E+04  0.7818608E-02  0.8990373E-01
         -2   -1    0    0    0  501  0.00000000000E+00  0.00000000000E+00  0.20147097546E+04  0.20147097546E+04  0.00000000000E+00 0.  1.
         -4   -1    0    0    0  502 -0.00000000000E+00 -0.00000000000E+00 -0.63114744325E+03  0.63114744325E+03  0.00000000000E+00 0. -1.
   -9000010    2    1    2    0  501  0.30609828373E+03  0.65077261242E+02  0.35181784521E+03  0.10775160921E+04  0.96919240781E+03 0.  0.
        -13    1    1    2    0    0  0.67680229545E+02  0.31011748203E+03 -0.88238346100E+02  0.32945330932E+03  0.10566000000E+00 0.  1.
         13    1    3    3    0    0 -0.32218080769E+03  0.11694093643E+03  0.28085260599E+03  0.44311832834E+03  0.10566000000E+00 0. -1.
         -2    1    1    2    0  502 -0.37377851327E+03 -0.37519474328E+03  0.11199828122E+04  0.12388877964E+04  0.00000000000E+00 0.  1.
         -4    1    3    3    0  501  0.62827909142E+03 -0.51863675189E+02  0.70965239225E+02  0.63439776379E+03  0.00000000000E+00 0. -1.
</event>
<event>
 6    1  0.9434649E-006  0.2411164E+03  0.7818608E-02  0.1038826E+00
         -2   -1    0    0    0  501  0.00000000000E+00  0.00000000000E+00  0.27090693536E+03  0.27090693536E+03  0.00000000000E+00 0.  1.
         -4   -1    0    0    0  502 -0.00000000000E+00 -0.00000000000E+00 -0.41981734930E+03  0.41981734930E+03  0.00000000000E+00 0. -1.
        -13    1    1    2    0    0  0.22529654904E+03 -0.39163897685E+02 -0.23914015981E+03  0.33087818467E+03  0.10566000000E+00 0.  1.
         13    1    1    2    0    0 -0.78633948994E+02  0.18429519907E+02  0.43812631115E+02  0.91883093916E+02  0.10566000000E+00 0. -1.
         -2    1    1    2    0  502 -0.66671922931E+02 -0.78505440874E+02  0.86334835700E+02  0.13439476705E+03  0.00000000000E+00 0.  1.
         -4    1    1    2    0  501 -0.79990677118E+02  0.99239818652E+02 -0.39917720938E+02  0.13356823903E+03  0.00000000000E+00 0. -1.
</event>
<event>
 6    1  0.9434649E-006  0.6224547E+03  0.7818608E-02  0.9243764E-01
          2   -1    0    0  502    0  0.00000000000E+00  0.00000000000E+00  0.11876824924E+04  0.11876824924E+04  0.00000000000E+00 0. -1.
          4   -1    0    0  501    0 -0.00000000000E+00 -0.00000000000E+00 -0.28050553665E+03  0.28050553665E+03  0.00000000000E+00 0.  1.
        -13    1    1    2    0    0 -0.76227332158E+02  0.14127869334E+03 -0.18629936974E+03  0.24592222691E+03  0.10566000000E+00 0.  1.
         13    1    1    2    0    0  0.10397525280E+03 -0.51178901490E+02  0.23101895206E+03  0.25845676723E+03  0.10566000000E+00 0. -1.
          2    1    1    2  501    0  0.55462568180E+02 -0.41578932367E+01  0.84031381644E+03  0.84215241770E+03  0.00000000000E+00 0. -1.
          4    1    1    2  502    0 -0.83210488824E+02 -0.85941898612E+02  0.22143556976E+02  0.12165661718E+03  0.00000000000E+00 0.  1.
</event>
<event>
 7    1  0.9434649E-006  0.1356784E+04  0.7818608E-02  0.8548002E-01
          2   -1    0    0  502    0  0.00000000000E+00  0.00000000000E+00  0.12272692681E+04  0.12272692681E+04  0.00000000000E+00 0. -1.
          4   -1    0    0  501    0 -0.00000000000E+00 -0.00000000000E+00 -0.24210585765E+04  0.24210585765E+04  0.00000000000E+00 0.  1.
    9000010    2    1    2  502    0  0.90366815483E+03 -0.58485909251E+03 -0.12809112758E+04  0.18650911142E+04  0.82410853390E+03 0.  0.
        -13    1    3    3    0    0 -0.13945396378E+03 -0.18938800789E-02 -0.48041874670E+02  0.14749725727E+03  0.10566000000E+00 0.  1.
         13    1    1    2    0    0 -0.91914167077E+03  0.56636201478E+03 -0.50410684583E+03  0.11915162886E+04  0.10566000000E+00 0. -1.
          2    1    1    2  501    0  0.15473515937E+02  0.18497077731E+02  0.59122881326E+03  0.59172044178E+03  0.00000000000E+00 0. -1.
          4    1    3    3  502    0  0.10431221186E+04 -0.58485719863E+03 -0.12328694011E+04  0.17175938569E+04  0.00000000000E+00 0.  1.
</event>
<event>
 7    1  0.9434649E-006  0.9880126E+03  0.7818608E-02  0.9222900E-01
          2   -1    0    0  502    0  0.00000000000E+00  0.00000000000E+00  0.20854827620E+04  0.20854827620E+04  0.00000000000E+00 0.  1.
          4   -1    0    0  501    0 -0.00000000000E+00 -0.00000000000E+00 -0.16725019101E+04  0.16725019101E+04  0.00000000000E+00 0.  1.
    9000010    2    1    2  502    0  0.14499886371E+03  0.85419069600E+02 -0.14305180809E+04  0.17385132438E+04  0.97351180337E+03 0.  0.
        -13    1    3    3    0    0  0.44724188600E+03  0.35697552690E+03 -0.71634676480E+03  0.91684760457E+03  0.10566000000E+00 0.  1.
         13    1    1    2    0    0 -0.13113985579E+03 -0.10745283174E+03 -0.61383405104E+01  0.16965100417E+03  0.10566000000E+00 0. -1.
          2    1    1    2  501    0 -0.13859007923E+02  0.22033762143E+02  0.18496372733E+04  0.18498204241E+04  0.00000000000E+00 0.  1.
          4    1    3    3  502    0 -0.30224302229E+03 -0.27155645730E+03 -0.71417131608E+03  0.82166563926E+03  0.00000000000E+00 0.  1.
</event>
<event>
 7    1  0.9434649E-006  0.1101326E+04  0.7818608E-02  0.8896286E-01
         -4   -1    0    0    0  501 -0.00000000000E+00  0.00000000000E+00  0.36129501751E+04  0.36129501751E+04  0.00000000000E+00 0. -1.
          1   -1    0    0  501    0  0.00000000000E+00 -0.00000000000E+00 -0.42745131078E+03  0.42745131078E+03  0.00000000000E+00 0. -1.
   -9000010    2    1    2    0  502  0.39989545743E+03 -0.16956362184E+03  0.28153241814E+04  0.30209301435E+04  0.10056343704E+04 0.  0.
        -13    1    1    2    0    0 -0.43222975980E+03  0.15784520147E+03  0.61731742518E+03  0.76994706797E+03  0.10566000000E+00 0.  1.
         13    1    3    3    0    0  0.55312944533E+02  0.40640683547E+03  0.84194762367E+03  0.93653715886E+03  0.10566000000E+00 0. -1.
          1    1    1    2  502    0  0.32334302369E+02  0.11718420366E+02 -0.24714274224E+03  0.24952427443E+03  0.00000000000E+00 0. -1.
         -4    1    3    3    0  502  0.34458251290E+03 -0.57597045731E+03  0.19733765577E+04  0.20843929847E+04  0.00000000000E+00 0. -1.
</event>
<event>
 6    1  0.9434649E-006  0.2084076E+03  0.7818608E-02  0.1054520E+00
         -4   -1    0    0    0  501 -0.00000000000E+00  0.00000000000E+00  0.15933436867E+03  0.15933436867E+03  0.00000000000E+00 0. -1.
          1   -1    0    0  501    0  0.00000000000E+00 -0.00000000000E+00 -0.14749190404E+04  0.14749190404E+04  0.00000000000E+00 0.  1.
        -13    1    1    2    0    0  0.10640780590E+02 -0.11224689435E+02 -0.54962054512E+02  0.57096921674E+02  0.10566000000E+00 0.  1.
         13    1    1    2    0    0  0.15259239537E+02  0.13008750891E+02  0.11548214210E+03  0.11721010323E+03  0.10566000000E+00 0. -1.
          1    1    1    2  502    0 -0.53254702341E+02 -0.35812110049E+02 -0.14057236564E+04  0.14071878229E+04  0.00000000000E+00 0.  1.
         -4    1    1    2    0  502  0.27354682215E+02  0.34028048593E+02  0.29618897083E+02  0.52758561339E+02  0.00000000000E+00 0. -1.
</event>
<event>
 7    1  0.9434649E-006  0.1115120E+04  0.7818608E-02  0.9097948E-01
          2   -1    0    0  502    0  0.00000000000E+00  0.00000000000E+00  0.37673219724E+03  0.37673219724E+03  0.00000000000E+00 0.  1.
          4   -1    0    0  501    0 -0.00000000000E+00 -0.00000000000E+00 -0.26943367765E+04  0.26943367765E+04  0.00000000000E+00 0.  1.
    9000010    2    1    2  502    0 -0.43096101204E+03 -0.10792350154E+03 -0.82087863480E+03  0.13602786044E+04  0.98951567575E+03 0.  0.
        -13    1    3    3    0    0 -0.15638758321E+03  0.20737168266E+03  0.15230049897E+03  0.30109059119E+03  0.10566000000E+00 0.  1.
         13    1    1    2    0    0 -0.73580557176E+02 -0.17641504241E+03 -0.70117584015E+03  0.72676264045E+03  0.10566000000E+00 0. -1.
          2    1    1    2  501    0  0.50454156921E+03  0.28433854395E+03 -0.79555010427E+03  0.98402772880E+03  0.00000000000E+00 0.  1.
          4    1    3    3  502    0 -0.27457342882E+03 -0.31529518420E+03 -0.97317913378E+03  0.10591880133E+04  0.00000000000E+00 0.  1.
</event>
<event>
 7    1  0.9434649E-006  0.1026392E+04  0.7818608E-02  0.9375543E-01
         -4   -1    0    0    0  501 -0.00000000000E+00  0.00000000000E+00  0.12948306323E+04  0.12948306323E+04  0.00000000000E+00 0. -1.
          2   -1    0    0  501    0  0.00000000000E+00 -0.00000000000E+00 -0.99339907731E+03  0.99339907731E+03  0.00000000000E+00 0. -1.
   -9000010    2    1    2    0  502  0.53786545994E+02 -0.62916492348E+02  0.10387411366E+04  0.14602061534E+04  0.10229210058E+04 0.  0.
        -13    1    1    2    0    0 -0.63574840812E+02  0.56068330356E+02  0.56621359849E+01  0.84955806165E+02  0.10566000000E+00 0.  1.
         13    1    3    3    0    0 -0.36018074498E+03  0.27357470036E+03  0.68233487676E+03  0.81862945277E+03  0.10566000000E+00 0. -1.
          2    1    1    2  502    0  0.97882948179E+01  0.68481619922E+01 -0.74297171758E+03  0.74306775005E+03  0.00000000000E+00 0. -1.
         -4    1    3    3    0  502  0.41396729098E+03 -0.33649119270E+03  0.35640625988E+03  0.64157670067E+03  0.00000000000E+00 0. -1.
</event>
<event>
 7    1  0.9434649E-006  0.1198922E+04  0.7818608E-02  0.8742398E-01
          2   -1    0    0  501    0  0.00000000000E+00  0.00000000000E+00  0.10949551840E+04  0.10949551840E+04  0.00000000000E+00 0. -1.
         -4   -1    0    0    0  501 -0.00000000000E+00 -0.00000000000E+00 -0.16315545045E+04  0.16315545045E+04  0.00000000000E+00 0. -1.
   -9000010    2    1    2    0  502 -0.13679216152E+03 -0.65484600861E+03 -0.36830985020E+03  0.12558964710E+04  0.99703982356E+03 0.  0.
        -13    1    1    2    0    0  0.14924264655E+03  0.64793507773E+03 -0.68446221870E+03  0.95424408434E+03  0.10566000000E+00 0.  1.
         13    1    3    3    0    0  0.10218996987E+03 -0.71796664271E+03 -0.58144731389E+03  0.92951593853E+03  0.10566000000E+00 0. -1.
          2    1    1    2  502    0 -0.12450485029E+02  0.69109308804E+01  0.51617274834E+03  0.51636913315E+03  0.00000000000E+00 0. -1.
         -4    1    3    3    0  502 -0.23898213139E+03  0.63120634102E+02  0.21313746369E+03  0.32638053251E+03  0.00000000000E+00 0. -1.
</event>
<event>
 7    1  0.9434649E-006  0.1014286E+04  0.7818608E-02  0.9187016E-01
         -4   -1    0    0    0  501 -0.00000000000E+00  0.00000000000E+00  0.12673360363E+04  0.12673360363E+04  0.00000000000E+00 0. -1.
          2   -1    0    0  501    0  0.00000000000E+00 -0.00000000000E+00 -0.45227988103E+03  0.45227988103E+03  0.00000000000E+00 0. -1.
   -9000010    2    1    2    0  502  0.10931115205E+03  0.15336147794E+03  0.45311670250E+03  0.11124212007E+04  0.99834738979E+03 0.  0.
        -13    1    1    2    0    0 -0.87487370539E+02 -0.15581402904E+03  0.46691757538E+03  0.49994408189E+03  0.10566000000E+00 0.  1.
         13    1    3    3    0    0  0.14735235308E+03 -0.38747623127E+03  0.14095927538E+02  0.41478820149E+03  0.10566000000E+00 0. -1.
          2    1    1    2  502    0 -0.21823781513E+02  0.24525511080E+01 -0.10497812259E+03  0.10725063482E+03  0.00000000000E+00 0. -1.
         -4    1    3    3    0  502 -0.38041201027E+02  0.54083770921E+03  0.43902077497E+03  0.69763299917E+03  0.00000000000E+00 0. -1.
</event>
<event>
 7    1  0.9434649E-006  0.1009116E+04  0.7818608E-02  0.9444684E-01
         -4   -1    0    0    0  501 -0.00000000000E+00  0.00000000000E+00  0.42091831197E+03  0.42091831197E+03  0.00000000000E+00 0. -1.
          2   -1    0    0  501    0  0.00000000000E+00 -0.00000000000E+00 -0.17328436481E+04  0.17328436481E+04  0.00000000000E+00 0.  1.
   -9000010    2    1    2    0  502 -0.13431025944E+03  0.62605570046E+02 -0.80375965266E+03  0.12955124579E+04  0.10051687650E+04 0.  0.
        -13    1    1    2    0    0  0.46590336072E+02 -0.50498499974E+02  0.16528764096E+03  0.17899936685E+03  0.10566000000E+00 0.  1.
         13    1    3    3    0    0 -0.21095021781E+02  0.46566127738E+03 -0.73631294842E+03  0.87145980651E+03  0.10566000000E+00 0. -1.
          2    1    1    2  502    0  0.87719923371E+02 -0.12107070072E+02 -0.67345332439E+03  0.67925013525E+03  0.00000000000E+00 0.  1.
         -4    1    3    3    0  502 -0.11321523766E+03 -0.40305570733E+03 -0.67446704239E+02  0.42405265141E+03  0.00000000000E+00 0. -1.
</event>
<event>
 6    1  0.9434649E-006  0.7009396E+03  0.7818608E-02  0.9121616E-01
         -4   -1    0    0    0  501 -0.00000000000E+00  0.00000000000E+00  0.16865059592E+03  0.16865059592E+03  0.00000000000E+00 0. -1.
          2   -1    0    0  501    0  0.00000000000E+00 -0.00000000000E+00 -0.11697268603E+04  0.11697268603E+04  0.00000000000E+00 0.  1.
        -13    1    1    2    0    0 -0.17698859239E+03 -0.43202535210E+02 -0.59376340883E+02  0.19161675789E+03  0.10566000000E+00 0.  1.
         13    1    1    2    0    0  0.27153048936E+03  0.73805130766E+01 -0.11049985069E+03  0.29324649494E+03  0.10566000000E+00 0. -1.
          2    1    1    2  502    0 -0.26365695906E+02 -0.61465246975E+02 -0.42741512667E+03  0.43261624682E+03  0.00000000000E+00 0.  1.
         -4    1    1    2    0  502 -0.68176201064E+02  0.97287269108E+02 -0.40378494609E+03  0.42089795653E+03  0.00000000000E+00 0. -1.
</event>
<event>
 7    1  0.9434649E-006  0.1066212E+04  0.7818608E-02  0.8965560E-01
          2   -1    0    0  502    0  0.00000000000E+00  0.00000000000E+00  0.90661772878E+03  0.90661772878E+03  0.00000000000E+00 0.  1.
          4   -1    0    0  501    0 -0.00000000000E+00 -0.00000000000E+00 -0.12498042833E+04  0.12498042833E+04  0.00000000000E+00 0.  1.
    9000010    2    1    2  502    0 -0.54610230342E+03 -0.14088952561E+03  0.31786473859E+03  0.11905324781E+04  0.99912562025E+03 0.  0.
        -13    1    3    3    0    0  0.23327821561E+03  0.16107363042E+03 -0.30271906432E+02  0.28509619391E+03  0.10566000000E+00 0.  1.
         13    1    1    2    0    0  0.30141623061E+03  0.19954186628E+03 -0.61012609581E+03  0.70917033527E+03  0.10566000000E+00 0. -1.
          2    1    1    2  501    0  0.24468607281E+03 -0.58652340672E+02 -0.50925197306E+02  0.25671919876E+03  0.00000000000E+00 0.  1.
          4    1    3    3  502    0 -0.77938051903E+03 -0.30196315604E+03  0.34813664502E+03  0.90543628415E+03  0.00000000000E+00 0.  1.
</event>
<event>
 7    1  0.9434649E-006  0.1100748E+04  0.7818608E-02  0.8886336E-01
          3   -1    0    0  501    0  0.00000000000E+00  0.00000000000E+00  0.56455003563E+03  0.56455003563E+03  0.00000000000E+00 0. -1.
         -4   -1    0    0    0  501 -0.00000000000E+00 -0.00000000000E+00 -0.17365486224E+04  0.17365486224E+04  0.00000000000E+00 0. -1.
   -9000010    2    1    2    0  502  0.11205938367E+03  0.44677525422E+03 -0.13074723803E+03  0.11051006396E+04  0.99598551702E+03 0.  0.
        -13    1    1    2    0    0 -0.11889917442E+03 -0.45419129506E+03 -0.10684153656E+04  0.11670210584E+04  0.10566000000E+00 0.  1.
         13    1    3    3    0    0  0.11878322675E+02 -0.28713112246E+03 -0.21599541199E+03  0.35949882503E+03  0.10566000000E+00 0. -1.
          3    1    1    2  502    0  0.68397907534E+01  0.74160408362E+01  0.27164016868E+02  0.28976960014E+02  0.00000000000E+00 0. -1.
         -4    1    3    3    0  502  0.10018106100E+03  0.73390637668E+03  0.85248173956E+02  0.74560181456E+03  0.00000000000E+00 0. -1.
</event>
<event>
 7    1  0.9434649E-006  0.9983651E+03  0.7818608E-02  0.9306280E-01
         -4   -1    0    0    0  501 -0.00000000000E+00  0.00000000000E+00  0.65653218251E+03  0.65653218251E+03  0.00000000000E+00 0. -1.
          2   -1    0    0  501    0  0.00000000000E+00 -0.00000000000E+00 -0.39677367793E+04  0.39677367793E+04  0.00000000000E+00 0. -1.
   -9000010    2    1    2    0  502 -0.17937754272E+03 -0.15245613076E+03 -0.23504452403E+03  0.10450073859E+04  0.99064389853E+03 0.  0.
        -13    1    1    2    0    0  0.68979756425E+02  0.96815753626E+02  0.23628859610E+03  0.26450672724E+03  0.10566000000E+00 0.  1.
         13    1    3    3    0    0 -0.43026046836E+03  0.21651037938E+03  0.93828743781E+02  0.49071851334E+03  0.10566000000E+00 0. -1.
          2    1    1    2  502    0  0.11039778630E+03  0.55640377132E+02 -0.33124486689E+04  0.33147548487E+04  0.00000000000E+00 0. -1.
         -4    1    3    3    0  502  0.25088292563E+03 -0.36896651014E+03 -0.32887326781E+03  0.55428887258E+03  0.00000000000E+00 0. -1.
</event>
<event>
 6    1  0.9434649E-006  0.2880960E+03  0.7818608E-02  0.1012344E+00
         -4   -1    0    0    0  501 -0.00000000000E+00  0.00000000000E+00  0.38774633036E+03  0.38774633036E+03  0.00000000000E+00 0. -1.
          2   -1    0    0  501    0  0.00000000000E+00 -0.00000000000E+00 -0.53267234510E+03  0.53267234510E+03  0.00000000000E+00 0.  1.
        -13    1    1    2    0    0 -0.84531913027E+02 -0.30400809226E+02  0.14232394136E+03  0.16830320547E+03  0.10566000000E+00 0.  1.
         13    1    1    2    0    0  0.73411267418E+02  0.38026474551E+00  0.20155784410E+03  0.21451091922E+03  0.10566000000E+00 0. -1.
          2    1    1    2  502    0 -0.37565320331E+02  0.55716821908E+02 -0.47647346915E+03  0.48118861618E+03  0.00000000000E+00 0.  1.
         -4    1    1    2    0  502  0.48685965940E+02 -0.25696277427E+02 -0.12334331042E+02  0.56415934587E+02  0.00000000000E+00 0. -1.
</event>
<event>
 7    1  0.9434649E-006  0.1142230E+04  0.7818608E-02  0.8813295E-01
          2   -1    0    0  502    0  0.00000000000E+00  0.00000000000E+00  0.68503705869E+03  0.68503705869E+03  0.00000000000E+00 0.  1.
          4   -1    0    0  501    0 -0.00000000000E+00 -0.00000000000E+00 -0.37508413970E+04  0.37508413970E+04  0.00000000000E+00 0.  1.
    9000010    2    1    2  502    0 -0.52919467565E+03 -0.11840141582E+03 -0.87256351842E+03  0.14268168961E+04  0.99013810219E+03 0.  0.
        -13    1    3    3    0    0  0.20269605614E+03 -0.30230491714E+03 -0.19647435675E+03  0.41361351299E+03  0.10566000000E+00 0.  1.
         13    1    1    2    0    0  0.55246131440E+03  0.15068407860E+03 -0.25685699039E+04  0.26316288792E+04  0.10566000000E+00 0. -1.
          2    1    1    2  501    0 -0.23266638749E+02 -0.32282662780E+02  0.37532908408E+03  0.37743268029E+03  0.00000000000E+00 0.  1.
          4    1    3    3  502    0 -0.73189073179E+03  0.18390350132E+03 -0.67608916167E+03  0.10132033831E+04  0.00000000000E+00 0.  1.
</event>
<event>
 7    1  0.9434649E-006  0.1068432E+04  0.7818608E-02  0.9090498E-01
          1   -1    0    0  501    0  0.00000000000E+00  0.00000000000E+00  0.91046195700E+03  0.91046195700E+03  0.00000000000E+00 0. -1.
         -4   -1    0    0    0  501 -0.00000000000E+00 -0.00000000000E+00 -0.10923390408E+04  0.10923390408E+04  0.00000000000E+00 0. -1.
   -9000010    2    1    2    0  502  0.11589190439E+03 -0.16337502908E+03 -0.42072913015E+03  0.11439333842E+04  0.10447240080E+04 0.  0.
        -13    1    1    2    0    0 -0.58907565724E+02  0.22016790507E+03 -0.26448776803E+03  0.34913865200E+03  0.10566000000E+00 0.  1.
         13    1    3    3    0    0  0.96464040215E+02 -0.49775836156E+03  0.10766215550E+03  0.51832407666E+03  0.10566000000E+00 0. -1.
          1    1    1    2  502    0 -0.56984338669E+02 -0.56792875983E+02  0.50333981434E+03  0.50972896163E+03  0.00000000000E+00 0. -1.
         -4    1    3    3    0  502  0.19427864178E+02  0.33438333248E+03 -0.52839128564E+03  0.62560930755E+03  0.00000000000E+00 0. -1.
</event>
<event>
 7    1  0.9434649E-006  0.1043198E+04  0.7818608E-02  0.9157969E-01
          2   -1    0    0  501    0  0.00000000000E+00  0.00000000000E+00  0.16020947183E+04  0.16020947183E+04  0.00000000000E+00 0. -1.
         -4   -1    0    0    0  501 -0.00000000000E+00 -0.00000000000E+00 -0.59382923548E+03  0.59382923548E+03  0.00000000000E+00 0. -1.
   -9000010    2    1    2    0  502  0.11929663195E+03 -0.13849790497E+03  0.30292594081E+03  0.10860264556E+04  0.10267794216E+04 0.  0.
        -13    1    1    2    0    0 -0.14744473665E+03  0.11121971753E+03 -0.15958554731E+03  0.24408468614E+03  0.10566000000E+00 0.  1.
         13    1    3    3    0    0  0.27723092599E+03  0.90495943484E+02 -0.30223589054E+03  0.41999172231E+03  0.10566000000E+00 0. -1.
          2    1    1    2  502    0  0.28148104703E+02  0.27278187447E+02  0.86492508930E+03  0.86581281199E+03  0.00000000000E+00 0. -1.
         -4    1    3    3    0  502 -0.15793429404E+03 -0.22899384846E+03  0.60516183135E+03  0.66603473332E+03  0.00000000000E+00 0. -1.
</event>
<event>
 6    1  0.9434649E-006  0.5547889E+03  0.7818608E-02  0.9365345E-01
          4   -1    0    0  501    0 -0.00000000000E+00  0.00000000000E+00  0.10540830566E+03  0.10540830566E+03  0.00000000000E+00 0.  1.
          2   -1    0    0  502    0  0.00000000000E+00 -0.00000000000E+00 -0.22074571271E+04  0.22074571271E+04  0.00000000000E+00 0.  1.
        -13    1    1    2    0    0 -0.28067313310E+02 -0.80638070126E+02  0.75010825472E+02  0.11365257380E+03  0.10566000000E+00 0.  1.
         13    1    1    2    0    0  0.21895071186E+02  0.22281997513E+02 -0.80181683796E+02  0.86052281409E+02  0.10566000000E+00 0. -1.
          2    1    1    2  501    0 -0.50758555891E+02 -0.62632034576E+02 -0.14686179660E+04  0.14708289951E+04  0.00000000000E+00 0.  1.
          4    1    1    2  502    0  0.56930798015E+02  0.12098810719E+03 -0.62825999705E+03  0.64233158239E+03  0.00000000000E+00 0.  1.
</event>
<event>
 7    1  0.9434649E-006  0.1143949E+04  0.7818608E-02  0.8804107E-01
          2   -1    0    0  501    0  0.00000000000E+00  0.00000000000E+00  0.30118466102E+04  0.30118466102E+04  0.00000000000E+00 0.  1.
         -4   -1    0    0    0  501 -0.00000000000E+00 -0.00000000000E+00 -0.17069678995E+04  0.17069678995E+04  0.00000000000E+00 0. -1.
   -9000010    2    1    2    0  502 -0.19553964021E+03  0.62117296049E+03 -0.66842913250E+03  0.13535723465E+04  0.98044326418E+03 0.  0.
        -13    1    1    2    0    0 -0.50384903220E+02 -0.57781477103E+03 -0.56793306293E+03  0.81176137086E+03  0.10566000000E+00 0.  1.
         13    1    3    3    0    0  0.36626275709E+03  0.51922350188E+02 -0.28295162652E+03  0.46573165213E+03  0.10566000000E+00 0. -1.
          2    1    1    2  502    0  0.24592454343E+03 -0.43358189467E+02  0.25412409062E+04  0.25534807924E+04  0.00000000000E+00 0.  1.
         -4    1    3    3    0  502 -0.56180239731E+03  0.56925061031E+03 -0.38547750598E+03  0.88784069437E+03  0.00000000000E+00 0. -1.
</event>
<event>
 7    1  0.9434649E-006  0.1156233E+04  0.7818608E-02  0.8793916E-01
          2   -1    0    0  502    0  0.00000000000E+00  0.00000000000E+00  0.11082874126E+04  0.11082874126E+04  0.00000000000E+00 0.  1.
          4   -1    0    0  501    0 -0.00000000000E+00 -0.00000000000E+00 -0.20024538411E+04  0.20024538411E+04  0.00000000000E+00 0.  1.
    9000010    2    1    2  502    0 -0.53045564715E+03 -0.25088295564E+03 -0.12534400479E+04  0.17021028381E+04  0.99081616190E+03 0.  0.
        -13    1    3    3    0    0 -0.24993472924E+03  0.20092681378E+03  0.20778660013E+02  0.32135761583E+03  0.10566000000E+00 0.  1.
         13    1    1    2    0    0  0.53442008579E+03  0.27982393113E+03 -0.35088925594E+03  0.69787501863E+03  0.10566000000E+00 0. -1.
          2    1    1    2  501    0 -0.39644386429E+01 -0.28940975484E+02  0.71016287536E+03  0.71076339690E+03  0.00000000000E+00 0.  1.
          4    1    3    3  502    0 -0.28052091791E+03 -0.45180976943E+03 -0.12742187080E+04  0.13807452223E+04  0.00000000000E+00 0.  1.
</event>
<event>
 7    1  0.9434649E-006  0.1006670E+04  0.7818608E-02  0.9200618E-01
         -4   -1    0    0    0  501 -0.00000000000E+00  0.00000000000E+00  0.43313507814E+03  0.43313507814E+03  0.00000000000E+00 0. -1.
          1   -1    0    0  501    0  0.00000000000E+00 -0.00000000000E+00 -0.87298494930E+03  0.87298494930E+03  0.00000000000E+00 0. -1.
   -9000010    2    1    2    0  502 -0.61554225525E+02  0.14185747513E+03 -0.33999612064E+03  0.10595722676E+04  0.99155613168E+03 0.  0.
        -13    1    1    2    0    0  0.81609995077E+02 -0.15690376600E+03 -0.39532143379E+02  0.18122302449E+03  0.10566000000E+00 0.  1.
         13    1    3    3    0    0  0.25759808061E+03  0.28409039630E+03 -0.53590811495E+03  0.65898531337E+03  0.10566000000E+00 0. -1.
          1    1    1    2  502    0 -0.20055769552E+02  0.15046290873E+02 -0.60321607144E+02  0.65324735359E+02  0.00000000000E+00 0. -1.
         -4    1    3    3    0  502 -0.31915230614E+03 -0.14223292117E+03  0.19591199430E+03  0.40058695422E+03  0.00000000000E+00 0. -1.
</event>
<event>
 7    1  0.9434649E-006  0.1250464E+04  0.7818608E-02  0.8679060E-01
          2   -1    0    0  502    0  0.00000000000E+00  0.00000000000E+00  0.64775598600E+03  0.64775598600E+03  0.00000000000E+00 0. -1.
          4   -1    0    0  501    0 -0.00000000000E+00 -0.00000000000E+00 -0.19151176010E+04  0.19151176010E+04  0.00000000000E+00 0.  1.
    9000010    2    1    2  502    0 -0.60189923199E+03 -0.49491143974E+03 -0.98273921022E+03  0.15942017905E+04  0.98411532608E+03 0.  0.
        -13    1    3    3    0    0 -0.18048171929E+03 -0.20450333056E+03 -0.10437385187E+04  0.10787888439E+04  0.10566000000E+00 0.  1.
         13    1    1    2    0    0  0.59352272765E+03  0.48350516395E+03 -0.39220827389E+03  0.86015917892E+03  0.10566000000E+00 0. -1.
          2    1    1    2  501    0  0.83765043486E+01  0.11406275790E+02  0.10758586906E+03  0.10851261758E+03  0.00000000000E+00 0. -1.
          4    1    3    3  502    0 -0.42141751271E+03 -0.29040810918E+03  0.60999308489E+02  0.51541294661E+03  0.00000000000E+00 0.  1.
</event>
<event>
 7    1  0.9434649E-006  0.1007684E+04  0.7818608E-02  0.9101441E-01
          2   -1    0    0  501    0  0.00000000000E+00  0.00000000000E+00  0.75822408192E+03  0.75822408192E+03  0.00000000000E+00 0. -1.
         -4   -1    0    0    0  501 -0.00000000000E+00 -0.00000000000E+00 -0.15632912444E+04  0.15632912444E+04  0.00000000000E+00 0. -1.
   -9000010    2    1    2    0  502  0.40917821330E+02  0.25649415074E+03 -0.13217607192E+04  0.16627307436E+04  0.97476079601E+03 0.  0.
        -13    1    1    2    0    0 -0.42208637193E+02 -0.24639286500E+03  0.14914136078E+03  0.29109134242E+03  0.10566000000E+00 0.  1.
         13    1    3    3    0    0 -0.17685268735E+03  0.55452423581E+03 -0.52170928205E+03  0.78163584057E+03  0.10566000000E+00 0. -1.
          2    1    1    2  502    0  0.12908158638E+01 -0.10101285746E+02  0.36755219597E+03  0.36769324027E+03  0.00000000000E+00 0. -1.
         -4    1    3    3    0  502  0.21777050868E+03 -0.29803008507E+03 -0.80005143720E+03  0.88109490307E+03  0.00000000000E+00 0. -1.
</event>
<event>
 7    1  0.9434649E-006  0.1106611E+04  0.7818608E-02  0.8942252E-01
          2   -1    0    0  502    0  0.00000000000E+00  0.00000000000E+00  0.63651028998E+03  0.63651028998E+03  0.00000000000E+00 0.  1.
          4   -1    0    0  501    0 -0.00000000000E+00 -0.00000000000E+00 -0.98485756203E+03  0.98485756203E+03  0.00000000000E+00 0.  1.
    9000010    2    1    2  502    0  0.40333333544E+02  0.37788942767E+03 -0.46366286464E+03  0.12041085528E+04  0.10442542591E+04 0.  0.
        -13    1    3    3    0    0  0.14627516847E+03  0.40705024563E+03 -0.76751269275E+03  0.88100060844E+03  0.10566000000E+00 0.  1.
         13    1    1    2    0    0 -0.96453930327E+01 -0.35816913586E+03  0.81353214209E+02  0.36741872586E+03  0.10566000000E+00 0. -1.
          2    1    1    2  501    0 -0.30687940512E+02 -0.19720291817E+02  0.33962378375E+02  0.49840573302E+02  0.00000000000E+00 0.  1.
          4    1    3    3  502    0 -0.10594183493E+03 -0.29160817960E+02  0.30384982811E+03  0.32310794441E+03  0.00000000000E+00 0.  1.
</event>
<event>
 7    1  0.9434649E-006  0.1038795E+04  0.7818608E-02  0.9051548E-01
         -2   -1    0    0    0  501  0.00000000000E+00  0.00000000000E+00  0.97416960087E+03  0.97416960087E+03  0.00000000000E+00 0. -1.
         -4   -1    0    0    0  502 -0.00000000000E+00 -0.00000000000E+00 -0.18078368179E+04  0.18078368179E+04  0.00000000000E+00 0. -1.
   -9000010    2    1    2    0  501  0.28495293176E+03 -0.78098139912E+01 -0.61737986727E+03  0.12085635426E+04  0.99910398328E+03 0.  0.
        -13    1    1    2    0    0 -0.28427371647E+03 -0.80198862465E+01 -0.87217259131E+03  0.91736628706E+03  0.10566000000E+00 0.  1.
         13    1    3    3    0    0 -0.12949135769E+03  0.39144377445E+03 -0.77574039924E+02  0.41954020440E+03  0.10566000000E+00 0. -1.
         -2    1    1    2    0  502 -0.67921529447E+00  0.15829700238E+02  0.65588524154E+03  0.65607658914E+03  0.00000000000E+00 0. -1.
         -4    1    3    3    0  501  0.41444428945E+03 -0.39925358844E+03 -0.53980582734E+03  0.78902333817E+03  0.00000000000E+00 0. -1.
</event>
<event>
 7    1  0.9434649E-006  0.1014603E+04  0.7818608E-02  0.9136918E-01
          2   -1    0    0  501    0  0.00000000000E+00  0.00000000000E+00  0.21738521780E+04  0.21738521780E+04  0.00000000000E+00 0.  1.
         -4   -1    0    0    0  501 -0.00000000000E+00 -0.00000000000E+00 -0.88418107154E+03  0.88418107154E+03  0.00000000000E+00 0. -1.
   -9000010    2    1    2    0  502 -0.17673915840E+03 -0.26120864973E+02  0.11157937116E+03  0.10131299593E+04  0.99099108405E+03 0.  0.
        -13    1    1    2    0    0  0.20798531619E+03  0.70738651268E+02 -0.40506853481E+03  0.46080622564E+03  0.10566000000E+00 0.  1.
         13    1    3    3    0    0  0.74286447263E+01 -0.28729192423E+03 -0.34927696318E+03  0.45231210758E+03  0.10566000000E+00 0. -1.
          2    1    1    2  502    0 -0.31246157798E+02 -0.44617786295E+02  0.15831602701E+04  0.15840970646E+04  0.00000000000E+00 0.  1.
         -4    1    3    3    0  502 -0.18416780312E+03  0.26117105926E+03  0.46085633434E+03  0.56081785172E+03  0.00000000000E+00 0. -1.
</event>
<event>
 7    1  0.9434649E-006  0.1012565E+04  0.7818608E-02  0.9280881E-01
          2   -1    0    0  501    0  0.00000000000E+00  0.00000000000E+00  0.17677530256E+04  0.17677530256E+04  0.00000000000E+00 0. -1.
         -4   -1    0    0    0  501 -0.00000000000E+00 -0.00000000000E+00 -0.15859594691E+04  0.15859594691E+04  0.00000000000E+00 0. -1.
   -9000010    2    1    2    0  502 -0.39792074441E+02 -0.92154945730E+02 -0.65064333895E+03  0.12012307690E+04  0.10047600026E+04 0.  0.
        -13    1    1    2    0    0  0.12463253940E+03  0.24369148805E+02 -0.65191190214E+03  0.66416584119E+03  0.10566000000E+00 0.  1.
         13    1    3    3    0    0 -0.13943083477E+03  0.74751286567E+02 -0.88369982729E+03  0.89774946864E+03  0.10566000000E+00 0. -1.
          2    1    1    2  502    0 -0.84840464964E+02  0.67785796925E+02  0.14843487976E+04  0.14883158844E+04  0.00000000000E+00 0. -1.
         -4    1    3    3    0  502  0.99638760327E+02 -0.16690623230E+03  0.23305648834E+03  0.30348130041E+03  0.00000000000E+00 0. -1.
</event>
<event>
 7    1  0.9434649E-006  0.1334457E+04  0.7818608E-02  0.8623881E-01
          4   -1    0    0  501    0 -0.00000000000E+00  0.00000000000E+00  0.30026170474E+04  0.30026170474E+04  0.00000000000E+00 0.  1.
          2   -1    0    0  502    0  0.00000000000E+00 -0.00000000000E+00 -0.17602330108E+04  0.17602330108E+04  0.00000000000E+00 0.  1.
    9000010    2    1    2  502    0 -0.34383763704E+03  0.10607782382E+04  0.82673437059E+03  0.17075018358E+04  0.99428266028E+03 0.  0.
        -13    1    3    3    0    0 -0.21239242844E+02  0.99683627866E+03  0.92931898967E+03  0.13629994379E+04  0.10566000000E+00 0.  1.
         13    1    1    2    0    0  0.76351175263E+03 -0.26540049157E+03  0.14650959440E+04  0.16732883056E+04  0.10566000000E+00 0. -1.
          2    1    1    2  501    0 -0.41967411559E+03 -0.79537774666E+03 -0.10494462780E+04  0.13820599168E+04  0.00000000000E+00 0.  1.
          4    1    3    3  502    0 -0.32259839420E+03  0.63941959572E+02 -0.10258461909E+03  0.34450239797E+03  0.00000000000E+00 0.  1.
</event>
<event>
 7    1  0.9434649E-006  0.1132391E+04  0.7818608E-02  0.9350046E-01
         -4   -1    0    0    0  501 -0.00000000000E+00  0.00000000000E+00  0.16355021081E+04  0.16355021081E+04  0.00000000000E+00 0. -1.
          1   -1    0    0  501    0  0.00000000000E+00 -0.00000000000E+00 -0.56103345322E+03  0.56103345322E+03  0.00000000000E+00 0.  1.
   -9000010    2    1    2    0  502  0.30538079375E+03  0.35098598419E+03  0.75750708303E+03  0.13433408420E+04  0.10071241466E+04 0.  0.
        -13    1    1    2    0    0  0.59731924907E+02  0.34710546267E+02  0.31459134166E+03  0.32208764069E+03  0.10566000000E+00 0.  1.
         13    1    3    3    0    0 -0.24544459414E+03 -0.17943008740E+03  0.39116652849E+03  0.49542857127E+03  0.10566000000E+00 0. -1.
          1    1    1    2  502    0 -0.36511271866E+03 -0.38569653045E+03  0.23702301539E+01  0.53110707858E+03  0.00000000000E+00 0.  1.
         -4    1    3    3    0  502  0.55082538789E+03  0.53041607159E+03  0.36634055453E+03  0.84791227072E+03  0.00000000000E+00 0. -1.
</event>
<event>
 7    1  0.9434649E-006  0.1101667E+04  0.7818608E-02  0.8858682E-01
         -4   -1    0    0    0  501 -0.00000000000E+00  0.00000000000E+00  0.25180226696E+03  0.25180226696E+03  0.00000000000E+00 0. -1.
          1   -1    0    0  501    0  0.00000000000E+00 -0.00000000000E+00 -0.46106749963E+04  0.46106749963E+04  0.00000000000E+00 0. -1.
   -9000010    2    1    2    0  502 -0.23695089263E+03 -0.63036645961E+03 -0.15467146034E+04  0.19453326464E+04  0.96875458285E+03 0.  0.
        -13    1    1    2    0    0 -0.63268977615E+01  0.43305941636E+03 -0.12233483069E+04  0.12977525106E+04  0.10566000000E+00 0.  1.
         13    1    3    3    0    0  0.10892395588E+03 -0.60543290749E+03 -0.36835338619E+03  0.71700604036E+03  0.10566000000E+00 0. -1.
          1    1    1    2  502    0  0.24327779039E+03  0.19730704325E+03 -0.15888098191E+04  0.16193921063E+04  0.00000000000E+00 0. -1.
         -4    1    3    3    0  502 -0.34587484851E+03 -0.24933552120E+02 -0.11783612172E+04  0.12283266060E+04  0.00000000000E+00 0. -1.
</event>
<event>
 7    1  0.9434649E-006  0.1190879E+04  0.7818608E-02  0.8758426E-01
          1   -1    0    0  501    0  0.00000000000E+00  0.00000000000E+00  0.60784825773E+03  0.60784825773E+03  0.00000000000E+00 0.  1.
         -4   -1    0    0    0  501 -0.00000000000E+00 -0.00000000000E+00 -0.22574487038E+04  0.22574487038E+04  0.00000000000E+00 0. -1.
   -9000010    2    1    2    0  502  0.52730361203E+03  0.35280183794E+03 -0.48177578210E+03  0.12846789796E+04  0.10078561109E+04 0.  0.
        -13    1    1    2    0    0 -0.53481186390E+03 -0.34118541971E+03 -0.13006322444E+04  0.14470920727E+04  0.10566000000E+00 0.  1.
         13    1    3    3    0    0 -0.14681657176E+03  0.29785619389E+03 -0.50903442886E+03  0.60777420060E+03  0.10566000000E+00 0. -1.
          1    1    1    2  502    0  0.75082518692E+01 -0.11616418226E+02  0.13280758046E+03  0.13352590927E+03  0.00000000000E+00 0.  1.
         -4    1    3    3    0  502  0.67412018379E+03  0.54945644046E+02  0.27258646764E+02  0.67690477899E+03  0.00000000000E+00 0. -1.
</event>
<event>
 7    1  0.9434649E-006  0.1126337E+04  0.7818608E-02  0.8849030E-01
          2   -1    0    0  501    0  0.00000000000E+00  0.00000000000E+00  0.57611504417E+04  0.57611504417E+04  0.00000000000E+00 0.  1.
         -4   -1    0    0    0  501 -0.00000000000E+00 -0.00000000000E+00 -0.23689135645E+03  0.23689135645E+03  0.00000000000E+00 0. -1.
   -9000010    2    1    2    0  502  0.41476273873E+03 -0.43440201812E+03  0.29359595428E+04  0.31603828633E+04  0.10037072098E+04 0.  0.
        -13    1    1    2    0    0 -0.52981128988E+03 -0.29384657897E+02  0.63873933715E+03  0.83039232474E+03  0.10566000000E+00 0.  1.
         13    1    3    3    0    0  0.38922050710E+03 -0.17610683914E+03  0.32557718150E+03  0.53712822884E+03  0.10566000000E+00 0. -1.
          2    1    1    2  502    0  0.11504855115E+03  0.46378667602E+03  0.19495602053E+04  0.20072666101E+04  0.00000000000E+00 0.  1.
         -4    1    3    3    0  502  0.25542231639E+02 -0.25829517898E+03  0.26103823613E+04  0.26232546344E+04  0.00000000000E+00 0. -1.
</event>
<event>
 7    1  0.9434649E-006  0.9255789E+03  0.7818608E-02  0.9322360E-01
          2   -1    0    0  502    0  0.00000000000E+00  0.00000000000E+00  0.38462171239E+03  0.38462171239E+03  0.00000000000E+00 0.  1.
          4   -1    0    0  501    0 -0.00000000000E+00 -0.00000000000E+00 -0.16791433266E+04  0.16791433266E+04  0.00000000000E+00 0.  1.
    9000010    2    1    2  502    0 -0.60309417710E+02 -0.13980393285E+02 -0.94482275369E+03  0.13166280407E+04  0.91486976366E+03 0.  0.
        -13    1    3    3    0    0 -0.52657891302E+02 -0.37360907844E+03 -0.87129553372E+03  0.94948012894E+03  0.10566000000E+00 0.  1.
         13    1    1    2    0    0  0.13941092385E+03 -0.39583869500E+02 -0.52655215094E+03  0.54613136445E+03  0.10566000000E+00 0. -1.
          2    1    1    2  501    0 -0.79101506140E+02  0.53564262785E+02  0.17685329039E+03  0.20100563386E+03  0.00000000000E+00 0.  1.
          4    1    3    3  502    0 -0.76515264082E+01  0.35962868516E+03 -0.73527219969E+02  0.36714791177E+03  0.00000000000E+00 0.  1.
</event>
<event>
 7    1  0.9434649E-006  0.1051935E+04  0.7818608E-02  0.9056765E-01
         -4   -1    0    0    0  501 -0.00000000000E+00  0.00000000000E+00  0.16304576657E+04  0.16304576657E+04  0.00000000000E+00 0. -1.
          2   -1    0    0  501    0  0.00000000000E+00 -0.00000000000E+00 -0.89307730250E+03  0.89307730250E+03  0.00000000000E+00 0.  1.
   -9000010    2    1    2    0  502 -0.20623366842E+03  0.22446090187E+03  0.69373640310E+03  0.12683867648E+04  0.10171626053E+04 0.  0.
        -13    1    1    2    0    0  0.14179591300E+03 -0.22409342199E+03  0.62045412319E+03  0.67474978538E+03  0.10566000000E+00 0.  1.
         13    1    3    3    0    0 -0.40129932690E+03 -0.24773691482E+02 -0.99628144307E+02  0.41422296394E+03  0.10566000000E+00 0. -1.
          2    1    1    2  502    0  0.64437755424E+02 -0.36747987989E+00 -0.57681016310E+03  0.58039841800E+03  0.00000000000E+00 0.  1.
         -4    1    3    3    0  502  0.19506565848E+03  0.24923459335E+03  0.79336454741E+03  0.85416380087E+03  0.00000000000E+00 0. -1.
</event>
<event>
 7    1  0.9434649E-006  0.1027942E+04  0.7818608E-02  0.9127367E-01
         -2   -1    0    0    0  501  0.00000000000E+00  0.00000000000E+00  0.11574145952E+04  0.11574145952E+04  0.00000000000E+00 0. -1.
         -4   -1    0    0    0  502 -0.00000000000E+00 -0.00000000000E+00 -0.23244296936E+04  0.23244296936E+04  0.00000000000E+00 0. -1.
   -9000010    2    1    2    0  501 -0.18649086382E+03 -0.16992885368E+03 -0.18494004765E+04  0.21197642107E+04  0.10047206223E+04 0.  0.
        -13    1    1    2    0    0  0.18810832787E+03  0.94553009989E+02 -0.30566627552E+03  0.37115616372E+03  0.10566000000E+00 0.  1.
         13    1    3    3    0    0 -0.56295955451E+03 -0.25115017760E+03 -0.86052372589E+03  0.10585371820E+04  0.10566000000E+00 0. -1.
         -2    1    1    2    0  502 -0.16174640476E+01  0.75375843694E+02  0.98805165354E+03  0.99092391436E+03  0.00000000000E+00 0. -1.
         -4    1    3    3    0  501  0.37646869069E+03  0.81221323921E+02 -0.98887675057E+03  0.10612270287E+04  0.00000000000E+00 0. -1.
</event>
<event>
 7    1  0.9434649E-006  0.1021111E+04  0.7818608E-02  0.8907231E-01
          1   -1    0    0  501    0  0.00000000000E+00  0.00000000000E+00  0.90486747244E+03  0.90486747244E+03  0.00000000000E+00 0. -1.
         -4   -1    0    0    0  501 -0.00000000000E+00 -0.00000000000E+00 -0.27044318553E+04  0.27044318553E+04  0.00000000000E+00 0. -1.
   -9000010    2    1    2    0  502  0.19167465904E+03  0.50992149668E+03 -0.12683759984E+04  0.16304298573E+04  0.86762015801E+03 0.  0.
        -13    1    1    2    0    0 -0.29164967519E+03 -0.45369482708E+03 -0.11919122169E+04  0.13082634571E+04  0.10566000000E+00 0.  1.
         13    1    3    3    0    0  0.41224525814E+03  0.64508865746E+03 -0.93360795844E+03  0.12073563517E+04  0.10566000000E+00 0. -1.
          1    1    1    2  502    0  0.99975016147E+02 -0.56226669602E+02  0.66072383251E+03  0.67060601330E+03  0.00000000000E+00 0. -1.
         -4    1    3    3    0  502 -0.22057059910E+03 -0.13516716078E+03 -0.33476804000E+03  0.42307350561E+03  0.00000000000E+00 0. -1.
</event>
<event>
 7    1  0.9434649E-006  0.1209816E+04  0.7818608E-02  0.8747082E-01
          2   -1    0    0  502    0  0.00000000000E+00  0.00000000000E+00  0.26133379938E+04  0.26133379938E+04  0.00000000000E+00 0.  1.
          4   -1    0    0  501    0 -0.00000000000E+00 -0.00000000000E+00 -0.69529240804E+03  0.69529240804E+03  0.00000000000E+00 0.  1.
    9000010    2    1    2  502    0  0.59041967823E+03 -0.19530574599E+03  0.19546151477E+03  0.12186943723E+04  0.10296946336E+04 0.  0.
        -13    1    3    3    0    0 -0.12750061257E+03 -0.41808390205E+03 -0.17419432604E+02  0.43744028525E+03  0.10566000000E+00 0.  1.
         13    1    1    2    0    0 -0.62321630609E+03  0.17068837310E+03  0.38591421191E+03  0.75263727984E+03  0.10566000000E+00 0. -1.
          2    1    1    2  501    0  0.32796627865E+02  0.24617372887E+02  0.13366698591E+04  0.13372987497E+04  0.00000000000E+00 0.  1.
          4    1    3    3  502    0  0.71792029079E+03  0.22277815606E+03  0.21288094738E+03  0.78125408703E+03  0.00000000000E+00 0.  1.
</event>
<event>
 7    1  0.9434649E-006  0.1415044E+04  0.7818608E-02  0.8538464E-01
          2   -1    0    0  501    0  0.00000000000E+00  0.00000000000E+00  0.65136330180E+03  0.65136330180E+03  0.00000000000E+00 0.  1.
         -4   -1    0    0    0  501 -0.00000000000E+00 -0.00000000000E+00 -0.37885650114E+04  0.37885650114E+04  0.00000000000E+00 0. -1.
   -9000010    2    1    2    0  502 -0.74736250598E+03  0.69956162662E+03 -0.23229482389E+04  0.27318331172E+04  0.10093990661E+04 0.  0.
        -13    1    1    2    0    0  0.70551067599E+03 -0.65525329066E+03 -0.10733438204E+04  0.14419324384E+04  0.10566000000E+00 0.  1.
         13    1    3    3    0    0 -0.49930368142E+02  0.49932341008E+03 -0.17095995300E+04  0.17817259817E+04  0.10566000000E+00 0. -1.
          2    1    1    2  502    0  0.41851829987E+02 -0.44308335963E+02  0.25909034964E+03  0.26616275770E+03  0.00000000000E+00 0.  1.
         -4    1    3    3    0  502 -0.69743213784E+03  0.20023821654E+03 -0.61334870885E+03  0.95010713548E+03  0.00000000000E+00 0. -1.
</event>
<event>
 7    1  0.9434649E-006  0.1009265E+04  0.7818608E-02  0.9068181E-01
         -4   -1    0    0    0  501 -0.00000000000E+00  0.00000000000E+00  0.28141543822E+04  0.28141543822E+04  0.00000000000E+00 0. -1.
          2   -1    0    0  501    0  0.00000000000E+00 -0.00000000000E+00 -0.86715319068E+03  0.86715319068E+03  0.00000000000E+00 0. -1.
   -9000010    2    1    2    0  502  0.10993047350E+03  0.28490113293E+03  0.87297541335E+03  0.13378151792E+04  0.96664885917E+03 0.  0.
        -13    1    1    2    0    0 -0.97672070599E+02 -0.27240576901E+03  0.16963828710E+04  0.17208891866E+04  0.10566000000E+00 0.  1.
         13    1    3    3    0    0 -0.42703149098E+02 -0.21549077186E+03  0.77504239162E+03  0.80557467169E+03  0.10566000000E+00 0. -1.
          2    1    1    2  502    0 -0.12258402902E+02 -0.12495363923E+02 -0.62235709278E+03  0.62260320710E+03  0.00000000000E+00 0. -1.
         -4    1    3    3    0  502  0.15263362260E+03  0.50039190479E+03  0.97933021734E+02  0.53224050755E+03  0.00000000000E+00 0. -1.
</event>
<event>
 7    1  0.9434649E-006  0.1063828E+04  0.7818608E-02  0.9017302E-01
         -4   -1    0    0    0  501 -0.00000000000E+00  0.00000000000E+00  0.23210470613E+04  0.23210470613E+04  0.00000000000E+00 0. -1.
          2   -1    0    0  501    0  0.00000000000E+00 -0.00000000000E+00 -0.26743727211E+04  0.26743727211E+04  0.00000000000E+00 0. -1.
   -9000010    2    1    2    0  502 -0.21569035839E+03  0.25798178325E+03  0.24159113247E+03  0.11003932329E+04  0.10195205052E+04 0.  0.
        -13    1    1    2    0    0  0.25007584100E+03 -0.17137635389E+03  0.16351487411E+04  0.16630150924E+04  0.10566000000E+00 0.  1.
         13    1    3    3    0    0  0.25541290346E+03  0.46020053344E+03  0.26072703157E+03  0.58736605144E+03  0.10566000000E+00 0. -1.
          2    1    1    2  502    0 -0.34385482604E+02 -0.86605429366E+02 -0.22300655333E+04  0.22320114571E+04  0.00000000000E+00 0. -1.
         -4    1    3    3    0  502 -0.47110326185E+03 -0.20221875018E+03 -0.19135899105E+02  0.51302718143E+03  0.00000000000E+00 0. -1.
</event>
<event>
 7    1  0.9434649E-006  0.1293858E+04  0.7818608E-02  0.8634484E-01
          2   -1    0    0  501    0  0.00000000000E+00  0.00000000000E+00  0.16333102499E+04  0.16333102499E+04  0.00000000000E+00 0. -1.
         -4   -1    0    0    0  501 -0.00000000000E+00 -0.00000000000E+00 -0.17951033468E+04  0.17951033468E+04  0.00000000000E+00 0. -1.
   -9000010    2    1    2    0  502  0.36687186366E+03  0.77181980624E+03 -0.50766161186E+02  0.13002283442E+04  0.97862953475E+03 0.  0.
        -13    1    1    2    0    0 -0.34385178454E+03 -0.77115023068E+03 -0.96024083302E+03  0.12786591401E+04  0.10566000000E+00 0.  1.
         13    1    3    3    0    0 -0.22883865960E+03  0.63950240761E+03 -0.10628784117E+03  0.68747914718E+03  0.10566000000E+00 0. -1.
          2    1    1    2  502    0 -0.23020079120E+02 -0.66957555677E+00  0.84921389727E+03  0.84952611242E+03  0.00000000000E+00 0. -1.
         -4    1    3    3    0  502  0.59571052325E+03  0.13231739863E+03  0.55521679982E+02  0.61274919702E+03  0.00000000000E+00 0. -1.
</event>
<event>
 7    1  0.9434649E-006  0.1117538E+04  0.7818608E-02  0.8853352E-01
          2   -1    0    0  502    0  0.00000000000E+00  0.00000000000E+00  0.89977360455E+03  0.89977360455E+03  0.00000000000E+00 0. -1.
          4   -1    0    0  501    0 -0.00000000000E+00 -0.00000000000E+00 -0.15187635935E+04  0.15187635935E+04  0.00000000000E+00 0.  1.
    9000010    2    1    2  502    0  0.50606345229E+03  0.78818873272E+02 -0.89832444908E+03  0.14332221495E+04  0.99238414009E+03 0.  0.
        -13    1    3    3    0    0  0.50361035076E+03  0.61196958654E+02 -0.11101901217E+04  0.12206107368E+04  0.10566000000E+00 0.  1.
         13    1    1    2    0    0 -0.50717494037E+03 -0.90129096635E+02 -0.16494906141E+03  0.54088619711E+03  0.10566000000E+00 0. -1.
          2    1    1    2  501    0  0.11114880794E+01  0.11310223363E+02  0.44428352148E+03  0.44442885147E+03  0.00000000000E+00 0. -1.
          4    1    3    3  502    0  0.24531015372E+01  0.17621914618E+02  0.21186567266E+03  0.21261141275E+03  0.00000000000E+00 0.  1.
</event>
<event>
 7    1  0.9434649E-006  0.1020285E+04  0.7818608E-02  0.9280537E-01
          4   -1    0    0  501    0 -0.00000000000E+00  0.00000000000E+00  0.68649080075E+03  0.68649080075E+03  0.00000000000E+00 0.  1.
          2   -1    0    0  502    0  0.00000000000E+00 -0.00000000000E+00 -0.89597604613E+03  0.89597604613E+03  0.00000000000E+00 0. -1.
    9000010    2    1    2  502    0 -0.11573333443E+03  0.15478566234E+03  0.10821227061E+03  0.10354293676E+04  0.10114599714E+04 0.  0.
        -13    1    3    3    0    0  0.50465588813E+02  0.54966074158E+03 -0.96935835536E+02  0.56041973008E+03  0.10566000000E+00 0.  1.
         13    1    1    2    0    0  0.12094449890E+03 -0.21322370731E+02  0.66940839981E+02  0.13986887620E+03  0.10566000000E+00 0. -1.
          2    1    1    2  501    0 -0.52111644719E+01 -0.13346329161E+03 -0.38463835597E+03  0.40716860307E+03  0.00000000000E+00 0. -1.
          4    1    3    3  502    0 -0.16619892324E+03 -0.39487507924E+03  0.20514810615E+03  0.47500963753E+03  0.00000000000E+00 0.  1.
</event>
<event>
 7    1  0.9434649E-006  0.1023602E+04  0.7818608E-02  0.9125088E-01
         -2   -1    0    0    0  501  0.00000000000E+00  0.00000000000E+00  0.10881194560E+04  0.10881194560E+04  0.00000000000E+00 0.  1.
         -4   -1    0    0    0  502 -0.00000000000E+00 -0.00000000000E+00 -0.73766455780E+03  0.73766455780E+03  0.00000000000E+00 0. -1.
   -9000010    2    1    2    0  501 -0.20711069024E+03  0.79137267618E+02 -0.13538269544E+03  0.10324513185E+04  0.99923455992E+03 0.  0.
        -13    1    1    2    0    0  0.17744605624E+03 -0.13588589907E+03 -0.69700819179E+02  0.23411598792E+03  0.10566000000E+00 0.  1.
         13    1    3    3    0    0  0.39168720755E+03  0.14337646763E+03 -0.95570705430E+01  0.41721340917E+03  0.10566000000E+00 0. -1.
         -2    1    1    2    0  502  0.29664634002E+02  0.56748631455E+02  0.55553841284E+03  0.55921670738E+03  0.00000000000E+00 0.  1.
         -4    1    3    3    0  501 -0.59879789779E+03 -0.64239200010E+02 -0.12582562490E+03  0.61523790935E+03  0.00000000000E+00 0. -1.
</event>
<event>
 7    1  0.9434649E-006  0.1225912E+04  0.7818608E-02  0.8710275E-01
         -4   -1    0    0    0  501 -0.00000000000E+00  0.00000000000E+00  0.72082572152E+03  0.72082572152E+03  0.00000000000E+00 0. -1.
          4   -1    0    0  501    0  0.00000000000E+00 -0.00000000000E+00 -0.23450462644E+04  0.23450462644E+04  0.00000000000E+00 0.  1.
   -9000010    2    1    2    0  502  0.11719573781E+02  0.56781022991E+03 -0.30226947586E+03  0.11854780708E+04  0.99571362082E+03 0.  0.
        -13    1    1    2    0    0  0.18011009341E+03 -0.91660002713E+03 -0.84981821887E+03  0.12628484754E+04  0.10566000000E+00 0.  1.
         13    1    3    3    0    0  0.33276680806E+03  0.70685850104E+03 -0.11824604007E+03  0.79016759374E+03  0.10566000000E+00 0. -1.
          4    1    1    2  502    0 -0.19182966719E+03  0.34878979723E+03 -0.47213284817E+03  0.61754543977E+03  0.00000000000E+00 0.  1.
         -4    1    3    3    0  502 -0.32104723428E+03 -0.13904827113E+03 -0.18402343579E+03  0.39531047705E+03  0.00000000000E+00 0. -1.
</event>
<event>
 7    1  0.9434649E-006  0.1036289E+04  0.7818608E-02  0.9103155E-01
          1   -1    0    0  501    0  0.00000000000E+00  0.00000000000E+00  0.11777919961E+04  0.11777919961E+04  0.00000000000E+00 0. -1.
         -4   -1    0    0    0  501 -0.00000000000E+00 -0.00000000000E+00 -0.88893749167E+03  0.88893749167E+03  0.00000000000E+00 0. -1.
   -9000010    2    1    2    0  502  0.22420960074E+03  0.10871994911E+03 -0.38695130539E+03  0.11096316965E+04  0.10096837212E+04 0.  0.
        -13    1    1    2    0    0 -0.20741250677E+03 -0.97554769714E+02 -0.47026845554E+02  0.23398379522E+03  0.10566000000E+00 0.  1.
         13    1    3    3    0    0 -0.16585205273E+03  0.45951581059E+03 -0.31211049108E+03  0.57971946093E+03  0.10566000000E+00 0. -1.
          1    1    1    2  502    0 -0.16797093963E+02 -0.11165179393E+02  0.72283265533E+03  0.72311399600E+03  0.00000000000E+00 0. -1.
         -4    1    3    3    0  502  0.39006165346E+03 -0.35079586148E+03 -0.74840814306E+02  0.52991223558E+03  0.00000000000E+00 0. -1.
</event>
<event>
 7    1  0.9434649E-006  0.1287972E+04  0.7818608E-02  0.8662280E-01
         -4   -1    0    0    0  501 -0.00000000000E+00  0.00000000000E+00  0.18451242635E+04  0.18451242635E+04  0.00000000000E+00 0. -1.
          2   -1    0    0  501    0  0.00000000000E+00 -0.00000000000E+00 -0.32154587234E+04  0.32154587234E+04  0.00000000000E+00 0. -1.
   -9000010    2    1    2    0  502  0.10315212068E+04  0.46422460680E+03 -0.23736259753E+03  0.15294045198E+04  0.10015970732E+04 0.  0.
        -13    1    1    2    0    0 -0.26799494645E+03 -0.71076639275E+03  0.99797983200E+03  0.12541825675E+04  0.10566000000E+00 0.  1.
         13    1    3    3    0    0  0.76846539491E+03  0.28467345773E+03  0.32623015912E+03  0.88204544588E+03  0.10566000000E+00 0. -1.
          2    1    1    2  502    0 -0.76352626034E+03  0.24654178595E+03 -0.21309516944E+04  0.22769958995E+04  0.00000000000E+00 0. -1.
         -4    1    3    3    0  502  0.26305581188E+03  0.17955114907E+03 -0.56359275665E+03  0.64735907397E+03  0.00000000000E+00 0. -1.
</event>
<event>
 7    1  0.9434649E-006  0.1204562E+04  0.7818608E-02  0.8819689E-01
          1   -1    0    0  501    0  0.00000000000E+00  0.00000000000E+00  0.10222464966E+04  0.10222464966E+04  0.00000000000E+00 0. -1.
         -4   -1    0    0    0  501 -0.00000000000E+00 -0.00000000000E+00 -0.13449551709E+04  0.13449551709E+04  0.00000000000E+00 0. -1.
   -9000010    2    1    2    0  502  0.22034019206E+03 -0.29112862371E+03 -0.25911866120E+03  0.11464064954E+04  0.10553670908E+04 0.  0.
        -13    1    1    2    0    0  0.47150523828E+03  0.32972213614E+02  0.43395158680E+02  0.47464461184E+03  0.10566000000E+00 0.  1.
         13    1    3    3    0    0  0.29466933398E+03  0.30748335026E+03  0.10917355527E+03  0.43965316263E+03  0.10566000000E+00 0. -1.
          1    1    1    2  502    0 -0.69184543034E+03  0.25815641009E+03 -0.10698517183E+03  0.74615056024E+03  0.00000000000E+00 0. -1.
         -4    1    3    3    0  502 -0.74329141916E+02 -0.59861197397E+03 -0.36829221647E+03  0.70675333280E+03  0.00000000000E+00 0. -1.
</event>
<event>
 7    1  0.9434649E-006  0.1108628E+04  0.7818608E-02  0.9464988E-01
          4   -1    0    0  501    0 -0.00000000000E+00  0.00000000000E+00  0.42193065063E+03  0.42193065063E+03  0.00000000000E+00 0.  1.
          2   -1    0    0  502    0  0.00000000000E+00 -0.00000000000E+00 -0.18018103141E+04  0.18018103141E+04  0.00000000000E+00 0.  1.
    9000010    2    1    2  502    0 -0.16541825861E+03 -0.43939199350E+03 -0.88360776635E+03  0.14148187769E+04  0.10002604474E+04 0.  0.
        -13    1    3    3    0    0 -0.32298506728E+03 -0.69522366675E+03 -0.78836086510E+03  0.10996218283E+04  0.10566000000E+00 0.  1.
         13    1    1    2    0    0  0.40660440651E+02 -0.25694115533E+02  0.57571869491E+02  0.75019932869E+02  0.10566000000E+00 0. -1.
          2    1    1    2  501    0  0.12475781796E+03  0.46508610903E+03 -0.55384376660E+03  0.73390225490E+03  0.00000000000E+00 0.  1.
          4    1    3    3  502    0  0.15756680868E+03  0.25583167325E+03 -0.95246901251E+02  0.31519694864E+03  0.00000000000E+00 0.  1.
</event>
<event>
 7    1  0.9434649E-006  0.1000324E+04  0.7818608E-02  0.9263999E-01
          2   -1    0    0  502    0  0.00000000000E+00  0.00000000000E+00  0.12794680469E+04  0.12794680469E+04  0.00000000000E+00 0.  1.
          4   -1    0    0  501    0 -0.00000000000E+00 -0.00000000000E+00 -0.22122651475E+04  0.22122651475E+04  0.00000000000E+00 0.  1.
    9000010    2    1    2  502    0 -0.27559445845E+01 -0.14560446012E+03 -0.18903964919E+04  0.21392035029E+04  0.99064851295E+03 0.  0.
        -13    1    3    3    0    0  0.38598632639E+03 -0.36611322862E+03 -0.79970988034E+03  0.96049999699E+03  0.10566000000E+00 0.  1.
         13    1    1    2    0    0 -0.48140942670E+02  0.13048496923E+03 -0.17227391145E+03  0.22140955103E+03  0.10566000000E+00 0. -1.
          2    1    1    2  501    0  0.50896887254E+02  0.15119490892E+02  0.11298733027E+04  0.11311201406E+04  0.00000000000E+00 0.  1.
          4    1    3    3  502    0 -0.38874227098E+03  0.22050876850E+03 -0.10906866115E+04  0.11787035059E+04  0.00000000000E+00 0.  1.
</event>
<event>
 7    1  0.9434649E-006  0.1009300E+04  0.7818608E-02  0.9029789E-01
         -4   -1    0    0    0  501 -0.00000000000E+00  0.00000000000E+00  0.14623346005E+04  0.14623346005E+04  0.00000000000E+00 0. -1.
          2   -1    0    0  501    0  0.00000000000E+00 -0.00000000000E+00 -0.91724561992E+03  0.91724561992E+03  0.00000000000E+00 0.  1.
   -9000010    2    1    2    0  502 -0.26334973028E+03  0.27810171438E+02  0.51175736529E+03  0.11118612600E+04  0.95090134843E+03 0.  0.
        -13    1    1    2    0    0  0.34512878587E+03  0.68304421845E+02  0.59544317349E+03  0.69161546895E+03  0.10566000000E+00 0.  1.
         13    1    3    3    0    0 -0.15513186503E+03  0.18592053961E+03 -0.23709298337E+03  0.33888853112E+03  0.10566000000E+00 0. -1.
          2    1    1    2  502    0 -0.81779055587E+02 -0.96114593283E+02 -0.56211155822E+03  0.57610349145E+03  0.00000000000E+00 0.  1.
         -4    1    3    3    0  502 -0.10821786525E+03 -0.15811036818E+03  0.74885034865E+03  0.77297272886E+03  0.00000000000E+00 0. -1.
</event>
<event>
 7    1  0.9434649E-006  0.1034695E+04  0.7818608E-02  0.9045182E-01
         -4   -1    0    0    0  501 -0.00000000000E+00  0.00000000000E+00  0.94100422034E+03  0.94100422034E+03  0.00000000000E+00 0. -1.
          1   -1    0    0  501    0  0.00000000000E+00 -0.00000000000E+00 -0.11176425286E+04  0.11176425286E+04  0.00000000000E+00 0.  1.
   -9000010    2    1    2    0  502 -0.21723490006E+03  0.27329272066E+03  0.24726895879E+03  0.10800262249E+04  0.99168280991E+03 0.  0.
        -13    1    1    2    0    0  0.26741501674E+03 -0.11573748570E+03  0.18666855296E+03  0.34605074281E+03  0.10566000000E+00 0.  1.
         13    1    3    3    0    0  0.19316570647E+03 -0.23562627141E+03 -0.12311673606E+03  0.32861903748E+03  0.10566000000E+00 0. -1.
          1    1    1    2  502    0 -0.50180116682E+02 -0.15755523496E+03 -0.61057582005E+03  0.63256978130E+03  0.00000000000E+00 0.  1.
         -4    1    3    3    0  502 -0.41040060653E+03  0.50891899206E+03  0.37038569485E+03  0.75140718740E+03  0.00000000000E+00 0. -1.
</event>
<event>
 7    1  0.9434649E-006  0.1088608E+04  0.7818608E-02  0.8922136E-01
          4   -1    0    0  501    0  0.00000000000E+00  0.00000000000E+00  0.12872070156E+04  0.12872070156E+04  0.00000000000E+00 0. -1.
          4   -1    0    0  502    0 -0.00000000000E+00 -0.00000000000E+00 -0.11637446571E+04  0.11637446571E+04  0.00000000000E+00 0.  1.
    9000010    2    1    2  501    0 -0.41628229927E+03  0.12704059353E+03 -0.61401521909E+03  0.12557510617E+04  0.10052192669E+04 0.  0.
        -13    1    3    3    0    0 -0.12050128164E+03 -0.43198048818E+03 -0.15583019841E+03  0.47477443376E+03  0.10566000000E+00 0.  1.
         13    1    1    2    0    0  0.41697699017E+03  0.28390932782E+02 -0.23411860613E+02  0.41859763709E+03  0.10566000000E+00 0. -1.
          4    1    3    3  501    0 -0.29578101763E+03  0.55902108171E+03 -0.45818502068E+03  0.78097662793E+03  0.00000000000E+00 0.  1.
          4    1    1    2  502    0 -0.69469090268E+00 -0.15543152631E+03  0.76088943817E+03  0.77660297391E+03  0.00000000000E+00 0. -1.
</event>
<event>
 7    1  0.9434649E-006  0.1009227E+04  0.7818608E-02  0.9127760E-01
          2   -1    0    0  502    0  0.00000000000E+00  0.00000000000E+00  0.28706617204E+04  0.28706617204E+04  0.00000000000E+00 0. -1.
          4   -1    0    0  501    0 -0.00000000000E+00 -0.00000000000E+00 -0.51383443743E+03  0.51383443743E+03  0.00000000000E+00 0.  1.
    9000010    2    1    2  502    0 -0.24328372940E+03  0.16015147876E+02  0.44755905107E+03  0.11071364187E+04  0.98285222056E+03 0.  0.
        -13    1    3    3    0    0  0.27342121484E+03 -0.10112195068E+03  0.49577306098E+03  0.57513107097E+03  0.10566000000E+00 0.  1.
         13    1    1    2    0    0  0.22767319321E+03  0.12977293452E+02 -0.11322089391E+03  0.25460258254E+03  0.10566000000E+00 0. -1.
          2    1    1    2  501    0  0.15610536184E+02 -0.28992441328E+02  0.20224891258E+04  0.20227571566E+04  0.00000000000E+00 0. -1.
          4    1    3    3  502    0 -0.51670494424E+03  0.11713709856E+03 -0.48214009911E+02  0.53200534773E+03  0.00000000000E+00 0.  1.
</event>
<event>
 7    1  0.9434649E-006  0.9795537E+03  0.7818608E-02  0.9212887E-01
         -4   -1    0    0    0  501 -0.00000000000E+00  0.00000000000E+00  0.32385056881E+04  0.32385056881E+04  0.00000000000E+00 0. -1.
          2   -1    0    0  501    0  0.00000000000E+00 -0.00000000000E+00 -0.58810071870E+03  0.58810071870E+03  0.00000000000E+00 0.  1.
   -9000010    2    1    2    0  502 -0.17570805151E+03 -0.72039560370E+02  0.30001535516E+04  0.31566048031E+04  0.96289642858E+03 0.  0.
        -13    1    1    2    0    0  0.15393894666E+03  0.81382271039E+02  0.11239526410E+03  0.20725100698E+03  0.10566000000E+00 0.  1.
         13    1    3    3    0    0 -0.19604363881E+03  0.24355730787E+03  0.28488383152E+03  0.42297999854E+03  0.10566000000E+00 0. -1.
          2    1    1    2  502    0  0.21769104846E+02 -0.93427106697E+01 -0.46214384625E+03  0.46275059676E+03  0.00000000000E+00 0.  1.
         -4    1    3    3    0  502  0.20335587303E+02 -0.31559686824E+03  0.27152697201E+04  0.27336248046E+04  0.00000000000E+00 0. -1.
</event>
<event>
 7    1  0.9434649E-006  0.1149168E+04  0.7818608E-02  0.8799268E-01
         -4   -1    0    0    0  501 -0.00000000000E+00  0.00000000000E+00  0.11273293644E+04  0.11273293644E+04  0.00000000000E+00 0. -1.
          1   -1    0    0  501    0  0.00000000000E+00 -0.00000000000E+00 -0.17552555662E+04  0.17552555662E+04  0.00000000000E+00 0. -1.
   -9000010    2    1    2    0  502 -0.54403476001E+02  0.60228648033E+03  0.27962825178E+03  0.11884295746E+04  0.98410576263E+03 0.  0.
        -13    1    1    2    0    0  0.70309630497E+02 -0.58378206801E+03  0.17331425490E+03  0.61301124720E+03  0.10566000000E+00 0.  1.
         13    1    3    3    0    0  0.20253485082E+01  0.69153746462E+03 -0.18182883250E+03  0.71504538492E+03  0.10566000000E+00 0. -1.
          1    1    1    2  502    0 -0.15906154496E+02 -0.18504412320E+02 -0.10808687085E+04  0.10811441088E+04  0.00000000000E+00 0. -1.
         -4    1    3    3    0  502 -0.56428824510E+02 -0.89250984283E+02  0.46145708427E+03  0.47338418970E+03  0.00000000000E+00 0. -1.
</event>
<event>
 7    1  0.9434649E-006  0.1034520E+04  0.7818608E-02  0.9583623E-01
          1   -1    0    0  501    0  0.00000000000E+00  0.00000000000E+00  0.15948775806E+04  0.15948775806E+04  0.00000000000E+00 0. -1.
         -4   -1    0    0    0  501 -0.00000000000E+00 -0.00000000000E+00 -0.66619645808E+03  0.66619645808E+03  0.00000000000E+00 0. -1.
   -9000010    2    1    2    0  502 -0.31816989596E+03 -0.15411508753E+01  0.17676373206E+03  0.10539772936E+04  0.98913510735E+03 0.  0.
        -13    1    1    2    0    0  0.17927534195E+02 -0.34128248641E+02 -0.20239430889E+03  0.20603301016E+03  0.10566000000E+00 0.  1.
         13    1    3    3    0    0 -0.61619449217E+03  0.14144390194E+03 -0.77494059695E+02  0.63695162299E+03  0.10566000000E+00 0. -1.
          1    1    1    2  502    0  0.30024236176E+03  0.35669399517E+02  0.95431169938E+03  0.10010637350E+04  0.00000000000E+00 0. -1.
         -4    1    3    3    0  502  0.29802459621E+03 -0.14298505281E+03  0.25425779176E+03  0.41702567061E+03  0.00000000000E+00 0. -1.
</event>
<event>
 7    1  0.9434649E-006  0.9981369E+03  0.7818608E-02  0.9096462E-01
          4   -1    0    0  501    0 -0.00000000000E+00  0.00000000000E+00  0.18177401597E+04  0.18177401597E+04  0.00000000000E+00 0.  1.
          2   -1    0    0  502    0  0.00000000000E+00 -0.00000000000E+00 -0.12984163410E+04  0.12984163410E+04  0.00000000000E+00 0.  1.
    9000010    2    1    2  502    0 -0.22589264215E+03  0.13176101598E+03  0.48093347222E+03  0.11063812018E+04  0.96145405911E+03 0.  0.
        -13    1    3    3    0    0  0.12999956565E+01  0.17294719924E+03  0.73965760353E+03  0.75960898186E+03  0.10566000000E+00 0.  1.
         13    1    1    2    0    0  0.22139944919E+03 -0.15193772826E+03  0.10063687835E+04  0.10415761753E+04  0.10566000000E+00 0. -1.
          2    1    1    2  501    0  0.44931929593E+01  0.20176712280E+02 -0.96797843702E+03  0.96819912365E+03  0.00000000000E+00 0.  1.
          4    1    3    3  502    0 -0.22719263781E+03 -0.41186183257E+02 -0.25872413131E+03  0.34677221989E+03  0.00000000000E+00 0.  1.
</event>
<event>
 7    1  0.9434649E-006  0.1018019E+04  0.7818608E-02  0.9186537E-01
          2   -1    0    0  502    0  0.00000000000E+00  0.00000000000E+00  0.23928498444E+04  0.23928498444E+04  0.00000000000E+00 0.  1.
          4   -1    0    0  501    0 -0.00000000000E+00 -0.00000000000E+00 -0.21285816666E+03  0.21285816666E+03  0.00000000000E+00 0.  1.
    9000010    2    1    2  502    0 -0.29699137089E+02 -0.94449064193E+02  0.20145668853E+04  0.22523651699E+04  0.10024302763E+04 0.  0.
        -13    1    3    3    0    0  0.82358582150E+02  0.85307345985E+02 -0.82611580675E+02  0.14451630966E+03  0.10566000000E+00 0.  1.
         13    1    1    2    0    0 -0.32572013901E+02  0.17914515137E+03  0.34306489704E+02  0.18528590812E+03  0.10566000000E+00 0. -1.
          2    1    1    2  501    0  0.62271150991E+02 -0.84696087178E+02  0.13111830276E+03  0.16805693305E+03  0.00000000000E+00 0.  1.
          4    1    3    3  502    0 -0.11205771924E+03 -0.17975641018E+03  0.20971784660E+04  0.21078488602E+04  0.00000000000E+00 0.  1.
</event>
<event>
 7    1  0.9434649E-006  0.1274295E+04  0.7818608E-02  0.8654300E-01
         -4   -1    0    0    0  501 -0.00000000000E+00  0.00000000000E+00  0.21273025032E+04  0.21273025032E+04  0.00000000000E+00 0. -1.
          4   -1    0    0  501    0  0.00000000000E+00 -0.00000000000E+00 -0.10188504665E+04  0.10188504665E+04  0.00000000000E+00 0.  1.
   -9000010    2    1    2    0  502 -0.71474875246E+03  0.19031701471E+03  0.13818003306E+04  0.18494971312E+04  0.98192725781E+03 0.  0.
        -13    1    1    2    0    0  0.94930650534E+03 -0.20687801072E+03 -0.50825989539E+02  0.97291553836E+03  0.10566000000E+00 0.  1.
         13    1    3    3    0    0 -0.59077590192E+03 -0.30950080195E+03  0.52056589421E+03  0.84604714649E+03  0.10566000000E+00 0. -1.
          4    1    1    2  502    0 -0.23455775288E+03  0.16560996011E+02 -0.22252230428E+03  0.32374030013E+03  0.00000000000E+00 0.  1.
         -4    1    3    3    0  502 -0.12397285054E+03  0.49981781666E+03  0.86123443634E+03  0.10034499847E+04  0.00000000000E+00 0. -1.
</event>
<event>
 7    1  0.9434649E-006  0.1020771E+04  0.7818608E-02  0.9081847E-01
          2   -1    0    0  501    0  0.00000000000E+00  0.00000000000E+00  0.87101279753E+03  0.87101279753E+03  0.00000000000E+00 0. -1.
         -4   -1    0    0    0  501 -0.00000000000E+00 -0.00000000000E+00 -0.51438966714E+03  0.51438966714E+03  0.00000000000E+00 0. -1.
   -9000010    2    1    2    0  502  0.21836532144E+03  0.12904956893E+03  0.16334290462E+03  0.10307428144E+04  0.98560267862E+03 0.  0.
        -13    1    1    2    0    0 -0.22270242378E+03 -0.15434395441E+03  0.18324313925E+03  0.32710317190E+03  0.10566000000E+00 0.  1.
         13    1    3    3    0    0  0.29423514613E+03 -0.35225637996E+03  0.26924185839E+03  0.53211847169E+03  0.10566000000E+00 0. -1.
          2    1    1    2  502    0  0.43371023424E+01  0.25294385481E+02  0.10037086521E+02  0.27556478357E+02  0.00000000000E+00 0. -1.
         -4    1    3    3    0  502 -0.75869824690E+02  0.48130594889E+03 -0.10589895377E+03  0.49862434271E+03  0.00000000000E+00 0. -1.
</event>
<event>
 7    1  0.9434649E-006  0.1051792E+04  0.7818608E-02  0.9050260E-01
          2   -1    0    0  501    0  0.00000000000E+00  0.00000000000E+00  0.13664067756E+04  0.13664067756E+04  0.00000000000E+00 0. -1.
         -4   -1    0    0    0  501 -0.00000000000E+00 -0.00000000000E+00 -0.77339897246E+03  0.77339897246E+03  0.00000000000E+00 0. -1.
   -9000010    2    1    2    0  502 -0.95537246258E+02 -0.26402759642E+03 -0.51217284274E+02  0.10544562165E+04  0.10150944613E+04 0.  0.
        -13    1    1    2    0    0  0.85092884044E+02  0.26099230817E+03 -0.13509400299E+03  0.30595454671E+03  0.10566000000E+00 0.  1.
         13    1    3    3    0    0 -0.22776889649E+03  0.27972894905E+03  0.23035394436E+03  0.42800689946E+03  0.10566000000E+00 0. -1.
          2    1    1    2  502    0  0.10444362214E+02  0.30352882481E+01  0.77931909041E+03  0.77939498481E+03  0.00000000000E+00 0. -1.
         -4    1    3    3    0  502  0.13223165023E+03 -0.54375654547E+03 -0.28157122863E+03  0.62644931707E+03  0.00000000000E+00 0. -1.
</event>
<event>
 7    1  0.9434649E-006  0.1030716E+04  0.7818608E-02  0.9051595E-01
          2   -1    0    0  502    0  0.00000000000E+00  0.00000000000E+00  0.99218372799E+03  0.99218372799E+03  0.00000000000E+00 0. -1.
          4   -1    0    0  501    0 -0.00000000000E+00 -0.00000000000E+00 -0.13584736410E+04  0.13584736410E+04  0.00000000000E+00 0.  1.
    9000010    2    1    2  502    0 -0.12113997043E+03  0.33392162017E+03 -0.43511826880E+03  0.11371659874E+04  0.98875681249E+03 0.  0.
        -13    1    3    3    0    0  0.35371827838E+02  0.65846116553E+03 -0.14643672266E+03  0.67547464617E+03  0.10566000000E+00 0.  1.
         13    1    1    2    0    0  0.15100163584E+03 -0.24201657863E+03 -0.53268923312E+03  0.60426099378E+03  0.10566000000E+00 0. -1.
          2    1    1    2  501    0 -0.29861665415E+02 -0.91905041538E+02  0.60151758887E+03  0.60923038782E+03  0.00000000000E+00 0. -1.
          4    1    3    3  502    0 -0.15651179827E+03 -0.32453954536E+03 -0.28868154613E+03  0.46169134124E+03  0.00000000000E+00 0.  1.
</event>
<event>
 7    1  0.9434649E-006  0.1231139E+04  0.7818608E-02  0.8821593E-01
          4   -1    0    0  501    0 -0.00000000000E+00  0.00000000000E+00  0.28317508729E+04  0.28317508729E+04  0.00000000000E+00 0.  1.
          2   -1    0    0  502    0  0.00000000000E+00 -0.00000000000E+00 -0.10345437029E+04  0.10345437029E+04  0.00000000000E+00 0.  1.
    9000010    2    1    2  502    0  0.25289677856E+03  0.84938628984E+03  0.17954248531E+04  0.22018547504E+04  0.91607864781E+03 0.  0.
        -13    1    3    3    0    0  0.56739273933E+03  0.32991226980E+03  0.10762691955E+04  0.12606077973E+04  0.10566000000E+00 0.  1.
         13    1    1    2    0    0 -0.43703248315E+03 -0.43218168838E+02  0.52609138107E+03  0.68530092211E+03  0.10566000000E+00 0. -1.
          2    1    1    2  501    0  0.18413570460E+03 -0.80616812100E+03 -0.52430906415E+03  0.97913890321E+03  0.00000000000E+00 0.  1.
          4    1    3    3  502    0 -0.31449596078E+03  0.51947402004E+03  0.71915565759E+03  0.94124695308E+03  0.00000000000E+00 0.  1.
</event>
<event>
 7    1  0.9434649E-006  0.1106091E+04  0.7818608E-02  0.9079796E-01
         -4   -1    0    0    0  501 -0.00000000000E+00  0.00000000000E+00  0.24899140372E+04  0.24899140372E+04  0.00000000000E+00 0. -1.
          2   -1    0    0  501    0  0.00000000000E+00 -0.00000000000E+00 -0.24631916712E+04  0.24631916712E+04  0.00000000000E+00 0. -1.
   -9000010    2    1    2    0  502 -0.35907256413E+03  0.45520037863E+03  0.18395481677E+04  0.21824522402E+04  0.10212834222E+04 0.  0.
        -13    1    1    2    0    0  0.13799166180E+02 -0.21003968518E+03  0.43501962460E+03  0.48326925341E+03  0.10566000000E+00 0.  1.
         13    1    3    3    0    0  0.34752209732E+03  0.19788006541E+03  0.85199760320E+03  0.94118438972E+03  0.10566000000E+00 0. -1.
          2    1    1    2  502    0  0.34527339795E+03 -0.24516069345E+03 -0.22478454264E+04  0.22873842147E+04  0.00000000000E+00 0. -1.
         -4    1    3    3    0  502 -0.70659466146E+03  0.25732031322E+03  0.98755056455E+03  0.12412678505E+04  0.00000000000E+00 0. -1.
</event>
<event>
 6    1  0.9434649E-006  0.1128645E+03  0.7818608E-02  0.1144865E+00
          1   -1    0    0  501    0  0.00000000000E+00  0.00000000000E+00  0.13330631715E+03  0.13330631715E+03  0.00000000000E+00 0. -1.
         -4   -1    0    0    0  501 -0.00000000000E+00 -0.00000000000E+00 -0.80352077930E+02  0.80352077930E+02  0.00000000000E+00 0. -1.
        -13    1    1    2    0    0  0.10618443785E+02 -0.36257813970E+00  0.11797461000E+02  0.15876840410E+02  0.10566000000E+00 0.  1.
         13    1    1    2    0    0  0.15962569990E+02  0.13969227341E+02 -0.48677460198E+02  0.53098486311E+02  0.10566000000E+00 0. -1.
          1    1    1    2  502    0  0.13348273935E+02 -0.41011233113E+02  0.85869695728E+02  0.96092155262E+02  0.00000000000E+00 0. -1.
         -4    1    1    2    0  502 -0.39929287710E+02  0.27404583912E+02  0.39645426868E+01  0.48590913092E+02  0.00000000000E+00 0. -1.
</event>
<event>
 7    1  0.9434649E-006  0.1193885E+04  0.7818608E-02  0.8756927E-01
          2   -1    0    0  502    0  0.00000000000E+00  0.00000000000E+00  0.30054613724E+04  0.30054613724E+04  0.00000000000E+00 0. -1.
          4   -1    0    0  501    0 -0.00000000000E+00 -0.00000000000E+00 -0.20867814242E+04  0.20867814242E+04  0.00000000000E+00 0.  1.
    9000010    2    1    2  502    0 -0.57600202972E+03 -0.17236833009E+03 -0.12746586434E+04  0.17349686405E+04  0.10118657751E+04 0.  0.
        -13    1    3    3    0    0 -0.85972234874E+03 -0.11708980942E+03 -0.80553401540E+03  0.11839415533E+04  0.10566000000E+00 0.  1.
         13    1    1    2    0    0  0.61257581899E+03  0.24942136166E+03 -0.39311469411E+03  0.76941492288E+03  0.10566000000E+00 0. -1.
          2    1    1    2  501    0 -0.36573789275E+02 -0.77053031571E+02  0.25864532857E+04  0.25878592332E+04  0.00000000000E+00 0. -1.
          4    1    3    3  502    0  0.28372031902E+03 -0.55278520672E+02 -0.46912462795E+03  0.55102708720E+03  0.00000000000E+00 0.  1.
</event>
<event>
 7    1  0.9434649E-006  0.1007608E+04  0.7818608E-02  0.9180652E-01
         -4   -1    0    0    0  501 -0.00000000000E+00  0.00000000000E+00  0.10889462319E+04  0.10889462319E+04  0.00000000000E+00 0. -1.
          2   -1    0    0  501    0  0.00000000000E+00 -0.00000000000E+00 -0.15789874535E+04  0.15789874535E+04  0.00000000000E+00 0.  1.
   -9000010    2    1    2    0  502 -0.19483356496E+03  0.95943385969E+02  0.53100670120E+03  0.11442637032E+04  0.99005356140E+03 0.  0.
        -13    1    1    2    0    0  0.16768726112E+03 -0.75719512095E+02  0.21737285076E+03  0.28478663850E+03  0.10566000000E+00 0.  1.
         13    1    3    3    0    0 -0.15868721567E+03 -0.40713344029E+03  0.46077803287E+03  0.63502415494E+03  0.10566000000E+00 0. -1.
          2    1    1    2  502    0  0.27146303837E+02 -0.20223873873E+02 -0.12384207736E+04  0.12388833437E+04  0.00000000000E+00 0.  1.
         -4    1    3    3    0  502 -0.36146349291E+02  0.50307682626E+03  0.70228668339E+02  0.50923954829E+03  0.00000000000E+00 0. -1.
</event>
<event>
 7    1  0.9434649E-006  0.1566312E+04  0.7818608E-02  0.8430800E-01
          4   -1    0    0  501    0 -0.00000000000E+00  0.00000000000E+00  0.20885684719E+04  0.20885684719E+04  0.00000000000E+00 0.  1.
          2   -1    0    0  502    0  0.00000000000E+00 -0.00000000000E+00 -0.13700003285E+04  0.13700003285E+04  0.00000000000E+00 0.  1.
    9000010    2    1    2  502    0  0.77192776705E+03 -0.88003974531E+03  0.42792889840E+03  0.16066545055E+04  0.10138407800E+04 0.  0.
        -13    1    3    3    0    0  0.82584201279E+03 -0.19223861064E+03  0.14149527755E+03  0.85964622854E+03  0.10566000000E+00 0.  1.
         13    1    1    2    0    0 -0.78186968943E+03  0.92011555065E+03  0.72976788260E+03  0.14108486848E+04  0.10566000000E+00 0. -1.
          2    1    1    2  501    0  0.99419223844E+01 -0.40075805344E+02 -0.43912863762E+03  0.44106561005E+03  0.00000000000E+00 0.  1.
          4    1    3    3  502    0 -0.53914245741E+02 -0.68780113467E+03  0.28643362085E+03  0.74700827699E+03  0.00000000000E+00 0.  1.
</event>
<event>
 7    1  0.9434649E-006  0.1004156E+04  0.7818608E-02  0.9426076E-01
          4   -1    0    0  501    0 -0.00000000000E+00  0.00000000000E+00  0.20429331983E+03  0.20429331983E+03  0.00000000000E+00 0.  1.
          2   -1    0    0  502    0  0.00000000000E+00 -0.00000000000E+00 -0.20678515488E+04  0.20678515488E+04  0.00000000000E+00 0.  1.
    9000010    2    1    2  502    0  0.60744948334E+02 -0.56008616874E+02 -0.12014521080E+04  0.15662270033E+04  0.10013755261E+04 0.  0.
        -13    1    3    3    0    0  0.11232251691E+02  0.22746819664E+03  0.88671854938E+02  0.24439855356E+03  0.10566000000E+00 0.  1.
         13    1    1    2    0    0 -0.44834438404E+02  0.59336162671E+02 -0.41630177840E+02  0.85229043985E+02  0.10566000000E+00 0. -1.
          2    1    1    2  501    0 -0.15910509930E+02 -0.33275457967E+01 -0.62047594309E+03  0.62068882126E+03  0.00000000000E+00 0.  1.
          4    1    3    3  502    0  0.49512696643E+02 -0.28347681351E+03 -0.12901239629E+04  0.13218284498E+04  0.00000000000E+00 0.  1.
</event>
<event>
 7    1  0.9434649E-006  0.1032680E+04  0.7818608E-02  0.9079856E-01
          4   -1    0    0  501    0  0.00000000000E+00  0.00000000000E+00  0.24003170403E+03  0.24003170403E+03  0.00000000000E+00 0.  1.
          4   -1    0    0  502    0 -0.00000000000E+00 -0.00000000000E+00 -0.21985178105E+04  0.21985178105E+04  0.00000000000E+00 0.  1.
    9000010    2    1    2  501    0 -0.16028812106E+03  0.17403256795E+03 -0.10111806089E+04  0.14415363772E+04  0.99978061910E+03 0.  0.
        -13    1    3    3    0    0  0.41041101914E+03  0.64163942796E+02 -0.25353360451E+03  0.48665543864E+03  0.10566000000E+00 0.  1.
         13    1    1    2    0    0  0.18653995465E+03 -0.18175729917E+03 -0.92712262696E+03  0.96301051243E+03  0.10566000000E+00 0. -1.
          4    1    3    3  501    0 -0.57069914020E+03  0.10986862515E+03 -0.75764700444E+03  0.95488093852E+03  0.00000000000E+00 0.  1.
          4    1    1    2  502    0 -0.26251833592E+02  0.77247312185E+01 -0.20182870616E+02  0.34002624982E+02  0.00000000000E+00 0.  1.
</event>
<event>
 7    1  0.9434649E-006  0.1017158E+04  0.7818608E-02  0.9371443E-01
          2   -1    0    0  502    0  0.00000000000E+00  0.00000000000E+00  0.14980738420E+04  0.14980738420E+04  0.00000000000E+00 0.  1.
          4   -1    0    0  501    0 -0.00000000000E+00 -0.00000000000E+00 -0.38280218717E+03  0.38280218717E+03  0.00000000000E+00 0.  1.
    9000010    2    1    2  502    0  0.10196891519E+03  0.11326015644E+03  0.49943378804E+03  0.11243397898E+04  0.99573105384E+03 0.  0.
        -13    1    3    3    0    0 -0.33473844864E+03  0.27134888959E+03 -0.15130772631E+02  0.43117165993E+03  0.10566000000E+00 0.  1.
         13    1    1    2    0    0 -0.26300952647E+02  0.83972707616E+02 -0.16778438093E+02  0.89580594346E+02  0.10566000000E+00 0. -1.
          2    1    1    2  501    0 -0.75667962543E+02 -0.19723286405E+03  0.63261630490E+03  0.66695564503E+03  0.00000000000E+00 0.  1.
          4    1    3    3  502    0  0.43670736383E+03 -0.15808873315E+03  0.51456456067E+03  0.69316812987E+03  0.00000000000E+00 0.  1.
</event>
<event>
 7    1  0.9434649E-006  0.1306220E+04  0.7818608E-02  0.8662221E-01
         -2   -1    0    0    0  501  0.00000000000E+00  0.00000000000E+00  0.32286592590E+03  0.32286592590E+03  0.00000000000E+00 0.  1.
         -4   -1    0    0    0  502 -0.00000000000E+00 -0.00000000000E+00 -0.43267093828E+04  0.43267093828E+04  0.00000000000E+00 0. -1.
   -9000010    2    1    2    0  501 -0.78203464878E+03  0.30092955377E+03 -0.28895977891E+04  0.31980541315E+04  0.10842684432E+04 0.  0.
        -13    1    1    2    0    0  0.58448390934E+03 -0.31243121453E+03 -0.10533097108E+04  0.12444661755E+04  0.10566000000E+00 0.  1.
         13    1    3    3    0    0 -0.10510794490E+04  0.30398716310E+03 -0.24400365802E+04  0.26741269094E+04  0.10566000000E+00 0. -1.
         -2    1    1    2    0  502  0.19755073944E+03  0.11501660762E+02 -0.60935956990E+02  0.20705500165E+03  0.00000000000E+00 0.  1.
         -4    1    3    3    0  501  0.26904480025E+03 -0.30576093218E+01 -0.44956120885E+03  0.52392722207E+03  0.00000000000E+00 0. -1.
</event>
<event>
 7    1  0.9434649E-006  0.1052488E+04  0.7818608E-02  0.9045043E-01
          2   -1    0    0  501    0  0.00000000000E+00  0.00000000000E+00  0.93950442366E+03  0.93950442366E+03  0.00000000000E+00 0. -1.
         -4   -1    0    0    0  501 -0.00000000000E+00 -0.00000000000E+00 -0.75646515499E+03  0.75646515499E+03  0.00000000000E+00 0. -1.
   -9000010    2    1    2    0  502 -0.18902207791E+03  0.21113623707E+03  0.52617631197E+03  0.11773393939E+04  0.10143760055E+04 0.  0.
        -13    1    1    2    0    0  0.14815612152E+03 -0.23845996506E+03 -0.36854655909E+03  0.46329253033E+03  0.10566000000E+00 0.  1.
         13    1    3    3    0    0 -0.30424882774E+03 -0.39558038300E+02  0.75750963214E+03  0.81728394180E+03  0.10566000000E+00 0. -1.
          2    1    1    2  502    0  0.40865956396E+02  0.27323727990E+02  0.25409515780E+02  0.55337654410E+02  0.00000000000E+00 0. -1.
         -4    1    3    3    0  502  0.11522674983E+03  0.25069427537E+03 -0.23133332017E+03  0.36005545212E+03  0.00000000000E+00 0. -1.
</event>
<event>
 7    1  0.9434649E-006  0.1057634E+04  0.7818608E-02  0.9094681E-01
         -4   -1    0    0    0  501 -0.00000000000E+00  0.00000000000E+00  0.15252344567E+04  0.15252344567E+04  0.00000000000E+00 0. -1.
          2   -1    0    0  501    0  0.00000000000E+00 -0.00000000000E+00 -0.11123016690E+04  0.11123016690E+04  0.00000000000E+00 0. -1.
   -9000010    2    1    2    0  502  0.13284268109E+03 -0.19791729317E+03  0.69034666289E+03  0.12328260886E+04  0.99320854650E+03 0.  0.
        -13    1    1    2    0    0 -0.14721415343E+03 -0.17273396422E+03  0.49682163615E+03  0.54620580249E+03  0.10566000000E+00 0.  1.
         13    1    3    3    0    0 -0.35516590027E+03  0.39121415586E+02  0.57685205912E+03  0.67855111167E+03  0.10566000000E+00 0. -1.
          2    1    1    2  502    0  0.14371472338E+02  0.37065125739E+03 -0.77423551131E+03  0.85850423458E+03  0.00000000000E+00 0. -1.
         -4    1    3    3    0  502  0.48800858136E+03 -0.23703870876E+03  0.11349460377E+03  0.55427497690E+03  0.00000000000E+00 0. -1.
</event>
<event>
 6    1  0.9434649E-006  0.1358247E+03  0.7818608E-02  0.1115999E+00
         -4   -1    0    0    0  501 -0.00000000000E+00  0.00000000000E+00  0.89638027225E+02  0.89638027225E+02  0.00000000000E+00 0. -1.
          2   -1    0    0  501    0  0.00000000000E+00 -0.00000000000E+00 -0.12121428148E+04  0.12121428148E+04  0.00000000000E+00 0.  1.
        -13    1    1    2    0    0 -0.24601512669E+02  0.15122453102E+02 -0.24907455306E+02  0.38135488817E+02  0.10566000000E+00 0.  1.
         13    1    1    2    0    0  0.44559264959E+02 -0.34999929407E+02  0.59361729432E+02  0.82063080843E+02  0.10566000000E+00 0. -1.
          2    1    1    2  502    0  0.52198734553E+00  0.18240411656E+02 -0.11605775419E+04  0.11607209897E+04  0.00000000000E+00 0.  1.
         -4    1    1    2    0  502 -0.20479739635E+02  0.16370646496E+01  0.36184802132E+01  0.20861282684E+02  0.00000000000E+00 0. -1.
</event>
<event>
 7    1  0.9434649E-006  0.1426430E+04  0.7818608E-02  0.9002979E-01
          2   -1    0    0  501    0  0.00000000000E+00  0.00000000000E+00  0.23096570798E+04  0.23096570798E+04  0.00000000000E+00 0.  1.
         -4   -1    0    0    0  501 -0.00000000000E+00 -0.00000000000E+00 -0.74803501621E+03  0.74803501621E+03  0.00000000000E+00 0. -1.
   -9000010    2    1    2    0  502 -0.10242820036E+04 -0.37935054803E+02  0.94149758112E+03  0.17141073049E+04  0.10005765668E+04 0.  0.
        -13    1    1    2    0    0  0.25168287732E+02 -0.13114193738E+03  0.21329670748E+03  0.25164885661E+03  0.10566000000E+00 0.  1.
         13    1    3    3    0    0 -0.24053501102E+03  0.44819164589E+03  0.37206782231E+03  0.63021212186E+03  0.10566000000E+00 0. -1.
          2    1    1    2  502    0  0.99911371589E+03  0.16907699218E+03  0.40682777496E+03  0.10919359345E+04  0.00000000000E+00 0.  1.
         -4    1    3    3    0  502 -0.78374699260E+03 -0.48612670069E+03  0.56942975882E+03  0.10838951830E+04  0.00000000000E+00 0. -1.
</event>
<event>
 7    1  0.9434649E-006  0.1022228E+04  0.7818608E-02  0.9126465E-01
          4   -1    0    0  501    0 -0.00000000000E+00  0.00000000000E+00  0.22169372983E+04  0.22169372983E+04  0.00000000000E+00 0.  1.
          2   -1    0    0  502    0  0.00000000000E+00 -0.00000000000E+00 -0.32743803578E+03  0.32743803578E+03  0.00000000000E+00 0.  1.
    9000010    2    1    2  502    0 -0.14811412720E+03  0.20534092970E+03  0.12803026833E+04  0.16428851006E+04  0.99789468427E+03 0.  0.
        -13    1    3    3    0    0  0.33486571877E+03 -0.13110224534E+03  0.82090724289E+03  0.89622070995E+03  0.10566000000E+00 0.  1.
         13    1    1    2    0    0  0.21976330737E+02 -0.22057884217E+03  0.70713751024E+03  0.74106777981E+03  0.10566000000E+00 0. -1.
          2    1    1    2  501    0  0.12613779646E+03  0.15237912469E+02 -0.97940931007E+02  0.16042245366E+03  0.00000000000E+00 0.  1.
          4    1    3    3  502    0 -0.48297984597E+03  0.33644317504E+03  0.45939544044E+03  0.74666439070E+03  0.00000000000E+00 0.  1.
</event>
<event>
 6    1  0.9434649E-006  0.1450171E+03  0.7818608E-02  0.1106132E+00
          1   -1    0    0  501    0  0.00000000000E+00  0.00000000000E+00  0.95092210843E+03  0.95092210843E+03  0.00000000000E+00 0.  1.
         -4   -1    0    0    0  501 -0.00000000000E+00 -0.00000000000E+00 -0.12790293723E+02  0.12790293723E+02  0.00000000000E+00 0. -1.
        -13    1    1    2    0    0  0.13223214679E+01 -0.53759688586E+02  0.29336982214E+03  0.29825780183E+03  0.10566000000E+00 0.  1.
         13    1    1    2    0    0  0.15771375109E+02  0.43088369182E+02  0.43992931307E+02  0.63566760186E+02  0.10566000000E+00 0. -1.
          1    1    1    2  502    0 -0.58826125061E+01  0.10030768854E+02  0.53777631062E+03  0.53790201870E+03  0.00000000000E+00 0.  1.
         -4    1    1    2    0  502 -0.11211084071E+02  0.64055055009E+00  0.62992750645E+02  0.63985821436E+02  0.00000000000E+00 0. -1.
</event>
<event>
 6    1  0.9434649E-006  0.7904698E+03  0.7818608E-02  0.9001161E-01
         -2   -1    0    0    0  501  0.00000000000E+00  0.00000000000E+00  0.13230172963E+03  0.13230172963E+03  0.00000000000E+00 0. -1.
         -4   -1    0    0    0  502 -0.00000000000E+00 -0.00000000000E+00 -0.13163467922E+04  0.13163467922E+04  0.00000000000E+00 0. -1.
        -13    1    1    2    0    0  0.64710451631E+02 -0.26082012656E+03 -0.64667511655E+03  0.70028801111E+03  0.10566000000E+00 0.  1.
         13    1    1    2    0    0 -0.10832223308E+02  0.29576720288E+03 -0.58742222184E+03  0.65776930092E+03  0.10566000000E+00 0. -1.
         -2    1    1    2    0  502 -0.11924157496E+02  0.88449669420E+01  0.90989971743E+01  0.17412946958E+02  0.00000000000E+00 0. -1.
         -4    1    1    2    0  501 -0.41954070827E+02 -0.43792043263E+02  0.40953278687E+02  0.73178262806E+02  0.00000000000E+00 0. -1.
</event>
<event>
 7    1  0.9434649E-006  0.1356980E+04  0.7818608E-02  0.8584333E-01
          2   -1    0    0  502    0  0.00000000000E+00  0.00000000000E+00  0.18250756253E+04  0.18250756253E+04  0.00000000000E+00 0.  1.
          4   -1    0    0  501    0 -0.00000000000E+00 -0.00000000000E+00 -0.10842401463E+04  0.10842401463E+04  0.00000000000E+00 0.  1.
    9000010    2    1    2  502    0  0.57246629416E+03  0.70906306484E+03  0.12240510021E+03  0.13594053507E+04  0.10012551178E+04 0.  0.
        -13    1    3    3    0    0 -0.48970381509E+02  0.55314731288E+03 -0.26010678293E+03  0.61320926094E+03  0.10566000000E+00 0.  1.
         13    1    1    2    0    0 -0.56277927220E+03 -0.72625449748E+03 -0.12303931996E+02  0.91886751071E+03  0.10566000000E+00 0. -1.
          2    1    1    2  501    0 -0.96870219645E+01  0.17191432637E+02  0.63073431076E+03  0.63104291021E+03  0.00000000000E+00 0.  1.
          4    1    3    3  502    0  0.62143667567E+03  0.15591575196E+03  0.38251188313E+03  0.74619608972E+03  0.00000000000E+00 0.  1.
</event>
<event>
 6    1  0.1316672E-005  0.6797190E+03  0.7818608E-02  0.9152929E-01
          2   -1    0    0  501    0  0.00000000000E+00  0.00000000000E+00  0.84706951531E+03  0.84706951531E+03  0.00000000000E+00 0.  1.
         -4   -1    0    0    0  501 -0.00000000000E+00 -0.00000000000E+00 -0.39978022194E+03  0.39978022194E+03  0.00000000000E+00 0. -1.
        -13    1    1    2    0    0  0.13931464996E+02 -0.10963818295E+03  0.15870854439E+03  0.19339863005E+03  0.10566000000E+00 0.  1.
         13    1    1    2    0    0 -0.91089227053E+01  0.11632088023E+03 -0.36273603257E+03  0.38103931574E+03  0.10566000000E+00 0. -1.
          2    1    1    2  502    0  0.40379605306E+02  0.36011377022E+02  0.55588382915E+03  0.55851066535E+03  0.00000000000E+00 0.  1.
         -4    1    1    2    0  502 -0.45202147597E+02 -0.42694074294E+02  0.95432952393E+02  0.11390112611E+03  0.00000000000E+00 0. -1.
</event>
<event>
 7    1  0.9434649E-006  0.1056792E+04  0.7818608E-02  0.9077144E-01
          4   -1    0    0  501    0 -0.00000000000E+00  0.00000000000E+00  0.16595878553E+04  0.16595878553E+04  0.00000000000E+00 0.  1.
          2   -1    0    0  502    0  0.00000000000E+00 -0.00000000000E+00 -0.98853760576E+03  0.98853760576E+03  0.00000000000E+00 0.  1.
    9000010    2    1    2  502    0 -0.25984999870E+03  0.52056044932E+03  0.86009481827E+03  0.14334543551E+04  0.98819182776E+03 0.  0.
        -13    1    3    3    0    0  0.73624833276E+02 -0.17590381321E+03 -0.88563950398E+02  0.21025306669E+03  0.10566000000E+00 0.  1.
         13    1    1    2    0    0  0.20926254027E+02 -0.24300586035E+03  0.43060757078E+03  0.49488649956E+03  0.10566000000E+00 0. -1.
          2    1    1    2  501    0  0.23892374468E+03 -0.27755458897E+03 -0.61965213951E+03  0.71978460641E+03  0.00000000000E+00 0.  1.
          4    1    3    3  502    0 -0.33347483198E+03  0.69646426253E+03  0.94865876867E+03  0.12232012884E+04  0.00000000000E+00 0.  1.
</event>
<event>
 7    1  0.9434649E-006  0.9983857E+03  0.7818608E-02  0.9200797E-01
          2   -1    0    0  501    0  0.00000000000E+00  0.00000000000E+00  0.94725485829E+03  0.94725485829E+03  0.00000000000E+00 0. -1.
         -4   -1    0    0    0  501 -0.00000000000E+00 -0.00000000000E+00 -0.15903427853E+04  0.15903427853E+04  0.00000000000E+00 0. -1.
   -9000010    2    1    2    0  502  0.72180372233E+02 -0.16348256282E+03 -0.13373467076E+04  0.16689860024E+04  0.98238561945E+03 0.  0.
        -13    1    1    2    0    0 -0.50319699007E+02  0.17092515249E+03  0.42627082887E+01  0.17822923921E+03  0.10566000000E+00 0.  1.
         13    1    3    3    0    0  0.18524750812E+03 -0.29336974491E+03 -0.14313442856E+04  0.14727962933E+04  0.10566000000E+00 0. -1.
          2    1    1    2  502    0 -0.21860673226E+02 -0.74425896727E+01  0.68999607231E+03  0.69038240199E+03  0.00000000000E+00 0. -1.
         -4    1    3    3    0  502 -0.11306713588E+03  0.12988718209E+03  0.93997577975E+02  0.19618970909E+03  0.00000000000E+00 0. -1.
</event>
<event>
 7    1  0.9434649E-006  0.1123649E+04  0.7818608E-02  0.9116222E-01
          2   -1    0    0  501    0  0.00000000000E+00  0.00000000000E+00  0.11255701956E+04  0.11255701956E+04  0.00000000000E+00 0.  1.
         -4   -1    0    0    0  501 -0.00000000000E+00 -0.00000000000E+00 -0.11195768734E+04  0.11195768734E+04  0.00000000000E+00 0. -1.
   -9000010    2    1    2    0  502  0.29378677010E+02 -0.55447957812E+02 -0.72764712448E+03  0.13239585647E+04  0.11042908858E+04 0.  0.
        -13    1    1    2    0    0 -0.99206420167E+02 -0.14271251389E+03  0.17292758286E+02  0.17466489652E+03  0.10566000000E+00 0.  1.
         13    1    3    3    0    0  0.33811388534E+03 -0.30719651813E+03 -0.79792414272E+03  0.91944203129E+03  0.10566000000E+00 0. -1.
          2    1    1    2  502    0  0.69827743157E+02  0.19816047170E+03  0.71634768840E+03  0.74652360776E+03  0.00000000000E+00 0.  1.
         -4    1    3    3    0  502 -0.30873520833E+03  0.25174856031E+03  0.70277018242E+02  0.40451653338E+03  0.00000000000E+00 0. -1.
</event>
<event>
 7    1  0.9434649E-006  0.1041450E+04  0.7818608E-02  0.9040241E-01
          2   -1    0    0  501    0  0.00000000000E+00  0.00000000000E+00  0.17524021470E+04  0.17524021470E+04  0.00000000000E+00 0. -1.
         -4   -1    0    0    0  501 -0.00000000000E+00 -0.00000000000E+00 -0.29868584537E+03  0.29868584537E+03  0.00000000000E+00 0. -1.
   -9000010    2    1    2    0  502  0.17964358334E+03 -0.25274471164E+03  0.86531004872E+03  0.13573219403E+04  0.99870399166E+03 0.  0.
        -13    1    1    2    0    0 -0.14972359523E+03  0.24851452025E+03  0.35530201214E+03  0.45871140463E+03  0.10566000000E+00 0.  1.
         13    1    3    3    0    0  0.10218963060E+02  0.82145186393E+02 -0.20608775112E+03  0.22209104254E+03  0.10566000000E+00 0. -1.
          2    1    1    2  502    0 -0.29919988114E+02  0.42301913974E+01  0.23310424080E+03  0.23505464745E+03  0.00000000000E+00 0. -1.
         -4    1    3    3    0  502  0.16942462028E+03 -0.33488989804E+03  0.10713977998E+04  0.11352308978E+04  0.00000000000E+00 0. -1.
</event>
<event>
 7    1  0.9434649E-006  0.1039117E+04  0.7818608E-02  0.9068548E-01
          4   -1    0    0  501    0 -0.00000000000E+00  0.00000000000E+00  0.37750134156E+04  0.37750134156E+04  0.00000000000E+00 0.  1.
          2   -1    0    0  502    0  0.00000000000E+00 -0.00000000000E+00 -0.72916209451E+03  0.72916209451E+03  0.00000000000E+00 0. -1.
    9000010    2    1    2  502    0  0.24067697424E+03 -0.22768285665E+03  0.31719531221E+04  0.33436995672E+04  0.10046269446E+04 0.  0.
        -13    1    3    3    0    0  0.50887487625E+03 -0.33924816060E+03  0.28285731085E+04  0.28939365570E+04  0.10566000000E+00 0.  1.
         13    1    1    2    0    0 -0.28302305493E+02  0.25921157814E+03  0.46415532349E+03  0.53238316862E+03  0.10566000000E+00 0. -1.
          2    1    1    2  501    0 -0.21237466875E+03 -0.31528721490E+02 -0.59025712445E+03  0.62809277433E+03  0.00000000000E+00 0. -1.
          4    1    3    3  502    0 -0.26819790201E+03  0.11156530395E+03  0.34338001355E+03  0.44976301026E+03  0.00000000000E+00 0.  1.
</event>
<event>
 7    1  0.9434649E-006  0.1101012E+04  0.7818608E-02  0.8860525E-01
         -4   -1    0    0    0  501 -0.00000000000E+00  0.00000000000E+00  0.22018631933E+04  0.22018631933E+04  0.00000000000E+00 0. -1.
          2   -1    0    0  501    0  0.00000000000E+00 -0.00000000000E+00 -0.33116984161E+04  0.33116984161E+04  0.00000000000E+00 0. -1.
   -9000010    2    1    2    0  502 -0.54220316398E+03  0.10601490410E+03 -0.50813055491E+03  0.12262534652E+04  0.96967905470E+03 0.  0.
        -13    1    1    2    0    0  0.50931713669E+03 -0.10573767067E+03  0.18059789112E+04  0.18793999680E+04  0.10566000000E+00 0.  1.
         13    1    3    3    0    0 -0.35910736271E+03 -0.16879112674E+03 -0.72829329036E+03  0.82937305863E+03  0.10566000000E+00 0. -1.
          2    1    1    2  502    0  0.32886027294E+02 -0.27723342567E+00 -0.24076835792E+04  0.24079081762E+04  0.00000000000E+00 0. -1.
         -4    1    3    3    0  502 -0.18309580127E+03  0.27480603084E+03  0.22016273545E+03  0.39688040656E+03  0.00000000000E+00 0. -1.
</event>
<event>
 7    1  0.9434649E-006  0.1115937E+04  0.7818608E-02  0.8889868E-01
          4   -1    0    0  501    0 -0.00000000000E+00  0.00000000000E+00  0.16854231881E+04  0.16854231881E+04  0.00000000000E+00 0.  1.
          2   -1    0    0  502    0  0.00000000000E+00 -0.00000000000E+00 -0.87108076600E+03  0.87108076600E+03  0.00000000000E+00 0.  1.
    9000010    2    1    2  502    0 -0.43688196065E+03  0.84108715505E+02  0.88636262079E+03  0.14256297751E+04  0.10241295995E+04 0.  0.
        -13    1    3    3    0    0  0.25094317461E+03  0.70282796977E+02  0.64650496259E+03  0.69705152339E+03  0.10566000000E+00 0.  1.
         13    1    1    2    0    0  0.43276075904E+03 -0.93353300111E+02  0.43681651531E+03  0.62193680742E+03  0.10566000000E+00 0. -1.
          2    1    1    2  501    0  0.41212016121E+01  0.92445846065E+01 -0.50883671400E+03  0.50893737155E+03  0.00000000000E+00 0.  1.
          4    1    3    3  502    0 -0.68782513526E+03  0.13825918528E+02  0.23985765819E+03  0.72857825175E+03  0.00000000000E+00 0.  1.
</event>
<event>
 7    1  0.9434649E-006  0.1026132E+04  0.7818608E-02  0.9422136E-01
          4   -1    0    0  501    0 -0.00000000000E+00  0.00000000000E+00  0.20440555435E+04  0.20440555435E+04  0.00000000000E+00 0.  1.
          2   -1    0    0  502    0  0.00000000000E+00 -0.00000000000E+00 -0.10477171712E+04  0.10477171712E+04  0.00000000000E+00 0. -1.
    9000010    2    1    2  502    0  0.27712018435E+02  0.15515318687E+03  0.16722896855E+04  0.19552943806E+04  0.10008910305E+04 0.  0.
        -13    1    3    3    0    0 -0.14348343436E+03  0.39824470750E+03  0.22816490348E+03  0.48088000305E+03  0.10566000000E+00 0.  1.
         13    1    1    2    0    0  0.31131911096E+02  0.63817533734E+02  0.21015292961E+03  0.22182456691E+03  0.10566000000E+00 0. -1.
          2    1    1    2  501    0 -0.58843929532E+02 -0.21897072060E+03 -0.88610424293E+03  0.91465376720E+03  0.00000000000E+00 0. -1.
          4    1    3    3  502    0  0.17119545280E+03 -0.24309152064E+03  0.14441247821E+04  0.14744143775E+04  0.00000000000E+00 0.  1.
</event>
<event>
 7    1  0.9434649E-006  0.1212375E+04  0.7818608E-02  0.8720189E-01
          2   -1    0    0  501    0  0.00000000000E+00  0.00000000000E+00  0.59091350053E+03  0.59091350053E+03  0.00000000000E+00 0. -1.
         -4   -1    0    0    0  501 -0.00000000000E+00 -0.00000000000E+00 -0.27030375692E+04  0.27030375692E+04  0.00000000000E+00 0. -1.
   -9000010    2    1    2    0  502  0.14591312777E+03  0.68636236673E+03 -0.82822433413E+03  0.14650470521E+04  0.98388179065E+03 0.  0.
        -13    1    1    2    0    0 -0.18892525736E+03 -0.68477864932E+03 -0.14728002074E+04  0.16351620756E+04  0.10566000000E+00 0.  1.
         13    1    3    3    0    0  0.34204055571E+03 -0.30635458116E+02  0.11471241711E+02  0.34360132945E+03  0.10566000000E+00 0. -1.
          2    1    1    2  502    0  0.43012129591E+02 -0.15837174087E+01  0.18890047285E+03  0.19374194201E+03  0.00000000000E+00 0. -1.
         -4    1    3    3    0  502 -0.19612742795E+03  0.71699782484E+03 -0.83969557584E+03  0.11214457227E+04  0.00000000000E+00 0. -1.
</event>
<event>
 7    1  0.9434649E-006  0.1217896E+04  0.7818608E-02  0.8699667E-01
         -4   -1    0    0    0  501 -0.00000000000E+00  0.00000000000E+00  0.31648879390E+03  0.31648879390E+03  0.00000000000E+00 0. -1.
          2   -1    0    0  501    0  0.00000000000E+00 -0.00000000000E+00 -0.33953606798E+04  0.33953606798E+04  0.00000000000E+00 0.  1.
   -9000010    2    1    2    0  502 -0.49003708533E+03 -0.58125653945E+03 -0.15029990409E+04  0.19331868704E+04  0.94879389187E+03 0.  0.
        -13    1    1    2    0    0  0.50154641352E+03  0.57952719361E+03 -0.13491894076E+04  0.15516805863E+04  0.10566000000E+00 0.  1.
         13    1    3    3    0    0 -0.71202005273E+03 -0.28401871882E+03 -0.13028955160E+04  0.15116798354E+04  0.10566000000E+00 0. -1.
          2    1    1    2  502    0 -0.11509328193E+02  0.17293458445E+01 -0.22668343739E+03  0.22698201704E+03  0.00000000000E+00 0.  1.
         -4    1    3    3    0  502  0.22198296740E+03 -0.29723782064E+03 -0.20010352491E+03  0.42150703495E+03  0.00000000000E+00 0. -1.
</event>
<event>
 7    1  0.9434649E-006  0.1051498E+04  0.7818608E-02  0.9079610E-01
          2   -1    0    0  502    0  0.00000000000E+00  0.00000000000E+00  0.11358084664E+04  0.11358084664E+04  0.00000000000E+00 0.  1.
          4   -1    0    0  501    0 -0.00000000000E+00 -0.00000000000E+00 -0.55068801417E+03  0.55068801417E+03  0.00000000000E+00 0.  1.
    9000010    2    1    2  502    0 -0.11989575931E+03  0.19913164059E+03  0.77978479351E+03  0.13067603171E+04  0.10225115153E+04 0.  0.
        -13    1    3    3    0    0  0.41527023030E+02  0.53971509237E+03  0.13178448771E+03  0.55712120489E+03  0.10566000000E+00 0.  1.
         13    1    1    2    0    0  0.12336944663E+03 -0.21264121355E+03 -0.23314148182E+03  0.33880860049E+03  0.10566000000E+00 0. -1.
          2    1    1    2  501    0 -0.34736873215E+01  0.13509572958E+02  0.38477140534E+02  0.40927562947E+02  0.00000000000E+00 0.  1.
          4    1    3    3  502    0 -0.16142278234E+03 -0.34058345178E+03  0.64800030580E+03  0.74963911224E+03  0.00000000000E+00 0.  1.
</event>
<event>
 7    1  0.9434649E-006  0.1409833E+04  0.7818608E-02  0.8562391E-01
          2   -1    0    0  501    0  0.00000000000E+00  0.00000000000E+00  0.14648516924E+04  0.14648516924E+04  0.00000000000E+00 0.  1.
         -4   -1    0    0    0  501 -0.00000000000E+00 -0.00000000000E+00 -0.29690860872E+04  0.29690860872E+04  0.00000000000E+00 0. -1.
   -9000010    2    1    2    0  502 -0.14720910494E+03  0.81178230098E+03 -0.69941043603E+03  0.15317306687E+04  0.10846026271E+04 0.  0.
        -13    1    1    2    0    0  0.15437749730E+03 -0.90855189119E+03 -0.17362867945E+04  0.19657036385E+04  0.10566000000E+00 0.  1.
         13    1    3    3    0    0 -0.16615932689E+03  0.48515898498E+03 -0.97651226982E+03  0.11029797763E+04  0.10566000000E+00 0. -1.
          2    1    1    2  502    0 -0.71683923652E+01  0.96769590208E+02  0.93146283575E+03  0.93650347241E+03  0.00000000000E+00 0.  1.
         -4    1    3    3    0  502  0.18950221950E+02  0.32662331600E+03  0.27710183380E+03  0.42875089243E+03  0.00000000000E+00 0. -1.
</event>
<event>
 7    1  0.9434649E-006  0.1046471E+04  0.7818608E-02  0.9049499E-01
          2   -1    0    0  502    0  0.00000000000E+00  0.00000000000E+00  0.22729984678E+04  0.22729984678E+04  0.00000000000E+00 0. -1.
          4   -1    0    0  501    0 -0.00000000000E+00 -0.00000000000E+00 -0.23201167920E+04  0.23201167920E+04  0.00000000000E+00 0.  1.
    9000010    2    1    2  502    0  0.96790637167E+02  0.11812182748E+03 -0.12550578506E+04  0.16098784394E+04  0.99660282357E+03 0.  0.
        -13    1    3    3    0    0  0.67487161448E+02  0.52575254727E+03 -0.98938729128E+03  0.11224337313E+04  0.10566000000E+00 0.  1.
         13    1    1    2    0    0  0.21952997098E+03 -0.17457655192E+03 -0.85272591433E+03  0.89767024946E+03  0.10566000000E+00 0. -1.
          2    1    1    2  501    0 -0.31632060815E+03  0.56454724436E+02  0.20606654407E+04  0.20855665709E+04  0.00000000000E+00 0. -1.
          4    1    3    3  502    0  0.29303475718E+02 -0.40763071978E+03 -0.26567055929E+03  0.48744470812E+03  0.00000000000E+00 0.  1.
</event>
<event>
 7    1  0.9434649E-006  0.1026757E+04  0.7818608E-02  0.9062301E-01
         -2   -1    0    0    0  501  0.00000000000E+00  0.00000000000E+00  0.70217870617E+03  0.70217870617E+03  0.00000000000E+00 0. -1.
         -4   -1    0    0    0  502 -0.00000000000E+00 -0.00000000000E+00 -0.98369446761E+03  0.98369446761E+03  0.00000000000E+00 0. -1.
   -9000010    2    1    2    0  501  0.21826068949E+03 -0.19014860593E+03 -0.52270331182E+03  0.11539661260E+04  0.98723089850E+03 0.  0.
        -13    1    1    2    0    0 -0.21787068034E+03  0.17443984724E+03 -0.10916674798E+02  0.27931358472E+03  0.10566000000E+00 0.  1.
         13    1    3    3    0    0 -0.38509567222E+03 -0.57976949532E+02 -0.31952842861E+03  0.50374441068E+03  0.10566000000E+00 0. -1.
         -2    1    1    2    0  502 -0.39000915382E+00  0.15708758697E+02  0.25210422517E+03  0.25259346302E+03  0.00000000000E+00 0. -1.
         -4    1    3    3    0  501  0.60335636171E+03 -0.13217165640E+03 -0.20317488321E+03  0.65022171537E+03  0.00000000000E+00 0. -1.
</event>
<event>
 7    1  0.9434649E-006  0.1005239E+04  0.7818608E-02  0.9244077E-01
          2   -1    0    0  501    0  0.00000000000E+00  0.00000000000E+00  0.40266470376E+03  0.40266470376E+03  0.00000000000E+00 0. -1.
         -4   -1    0    0    0  501 -0.00000000000E+00 -0.00000000000E+00 -0.14169464217E+04  0.14169464217E+04  0.00000000000E+00 0. -1.
   -9000010    2    1    2    0  502  0.15661834987E+03  0.10568175525E+03 -0.11054278316E+04  0.14987950123E+04  0.99434292733E+03 0.  0.
        -13    1    1    2    0    0 -0.11027562492E+03 -0.83884375525E+02 -0.67490490100E+02  0.15411774501E+03  0.10566000000E+00 0.  1.
         13    1    3    3    0    0 -0.20613031528E+03  0.26400109156E+03 -0.11137736559E+02  0.33512735425E+03  0.10566000000E+00 0. -1.
          2    1    1    2  502    0 -0.46342724947E+02 -0.21797379725E+02  0.15863660371E+03  0.16669836819E+03  0.00000000000E+00 0. -1.
         -4    1    3    3    0  502  0.36274866515E+03 -0.15831933631E+03 -0.10942900950E+04  0.11636676581E+04  0.00000000000E+00 0. -1.
</event>
<event>
 7    1  0.9434649E-006  0.1070772E+04  0.7818608E-02  0.8968781E-01
          1   -1    0    0  501    0  0.00000000000E+00  0.00000000000E+00  0.18146513392E+04  0.18146513392E+04  0.00000000000E+00 0.  1.
         -4   -1    0    0    0  501 -0.00000000000E+00 -0.00000000000E+00 -0.49801317924E+03  0.49801317924E+03  0.00000000000E+00 0. -1.
   -9000010    2    1    2    0  502 -0.17199795887E+03  0.31575406477E+03  0.57128644697E+03  0.12127044029E+04  0.10074720032E+04 0.  0.
        -13    1    1    2    0    0  0.16520873829E+03 -0.32365176180E+03  0.89547015991E+01  0.36348946060E+03  0.10566000000E+00 0.  1.
         13    1    3    3    0    0 -0.49638884961E+03 -0.13490847829E+03  0.26912464773E+03  0.58054308601E+03  0.10566000000E+00 0. -1.
          1    1    1    2  502    0  0.67892205791E+01  0.78976970300E+01  0.73639701137E+03  0.73647065487E+03  0.00000000000E+00 0.  1.
         -4    1    3    3    0  502  0.32439089074E+03  0.45066254305E+03  0.30216179923E+03  0.63216131693E+03  0.00000000000E+00 0. -1.
</event>
<event>
 7    1  0.9434649E-006  0.1068777E+04  0.7818608E-02  0.8973097E-01
         -4   -1    0    0    0  501 -0.00000000000E+00  0.00000000000E+00  0.12011256393E+04  0.12011256393E+04  0.00000000000E+00 0. -1.
          4   -1    0    0  501    0  0.00000000000E+00 -0.00000000000E+00 -0.99231328707E+03  0.99231328707E+03  0.00000000000E+00 0.  1.
   -9000010    2    1    2    0  502  0.12479943942E+03 -0.34509542505E+03  0.39486770002E+03  0.11421185383E+04  0.10069004432E+04 0.  0.
        -13    1    1    2    0    0 -0.12706157325E+03  0.33329927736E+03  0.35903252136E+03  0.50610020178E+03  0.10566000000E+00 0.  1.
         13    1    3    3    0    0  0.11684294194E+03  0.27253314348E+03 -0.13733673982E+03  0.32678429988E+03  0.10566000000E+00 0. -1.
          4    1    1    2  502    0  0.22621338339E+01  0.11796147690E+02 -0.54508786920E+03  0.54522018626E+03  0.00000000000E+00 0.  1.
         -4    1    3    3    0  502  0.79564974815E+01 -0.61762856853E+03  0.53220443985E+03  0.81533423841E+03  0.00000000000E+00 0. -1.
</event>
<event>
 7    1  0.9434649E-006  0.1026657E+04  0.7818608E-02  0.9311350E-01
         -4   -1    0    0    0  501 -0.00000000000E+00  0.00000000000E+00  0.28990218162E+03  0.28990218162E+03  0.00000000000E+00 0. -1.
          2   -1    0    0  501    0  0.00000000000E+00 -0.00000000000E+00 -0.20673272300E+04  0.20673272300E+04  0.00000000000E+00 0.  1.
   -9000010    2    1    2    0  502 -0.12872815639E+02 -0.96895123838E+02 -0.63985741588E+03  0.12089233877E+04  0.10210405821E+04 0.  0.
        -13    1    1    2    0    0  0.10766981723E+02  0.11307524699E+03 -0.60994650854E+03  0.62043266663E+03  0.10566000000E+00 0.  1.
         13    1    3    3    0    0  0.18628098678E+03  0.11929930690E+03 -0.82991433076E+03  0.85888924678E+03  0.10566000000E+00 0. -1.
          2    1    1    2  502    0  0.21058339155E+01 -0.16180123157E+02 -0.52762112398E+03  0.52787335734E+03  0.00000000000E+00 0.  1.
         -4    1    3    3    0  502 -0.19915380242E+03 -0.21619443074E+03  0.19005691488E+03  0.35003414090E+03  0.00000000000E+00 0. -1.
</event>
<event>
 7    1  0.9434649E-006  0.1042143E+04  0.7818608E-02  0.9188254E-01
          4   -1    0    0  501    0 -0.00000000000E+00  0.00000000000E+00  0.32870695608E+04  0.32870695608E+04  0.00000000000E+00 0.  1.
          2   -1    0    0  502    0  0.00000000000E+00 -0.00000000000E+00 -0.41284408822E+03  0.41284408822E+03  0.00000000000E+00 0. -1.
    9000010    2    1    2  502    0  0.96816861853E+02  0.83050287534E+02  0.29465563175E+04  0.31237033383E+04  0.10291052223E+04 0.  0.
        -13    1    3    3    0    0 -0.23781564418E+03  0.11647002759E+03  0.14474679678E+03  0.30178335654E+03  0.10566000000E+00 0.  1.
         13    1    1    2    0    0 -0.14591509426E+03 -0.10131990619E+03  0.21798727465E+03  0.28120348717E+03  0.10566000000E+00 0. -1.
          2    1    1    2  501    0  0.49098232411E+02  0.18269618659E+02 -0.29031811956E+03  0.29500682354E+03  0.00000000000E+00 0. -1.
          4    1    3    3  502    0  0.33463250604E+03 -0.33419740052E+02  0.28018095207E+04  0.28219199818E+04  0.00000000000E+00 0.  1.
</event>
<event>
 7    1  0.9434649E-006  0.9898800E+03  0.7818608E-02  0.9157835E-01
          2   -1    0    0  501    0  0.00000000000E+00  0.00000000000E+00  0.67076177157E+03  0.67076177157E+03  0.00000000000E+00 0.  1.
         -4   -1    0    0    0  501 -0.00000000000E+00 -0.00000000000E+00 -0.29976909184E+04  0.29976909184E+04  0.00000000000E+00 0. -1.
   -9000010    2    1    2    0  502 -0.16848714672E+03 -0.60296906998E+02 -0.19844671325E+04  0.22143592524E+04  0.96605044537E+03 0.  0.
        -13    1    1    2    0    0  0.22049994185E+03  0.14925707762E+02 -0.88245429262E+03  0.90970797009E+03  0.10566000000E+00 0.  1.
         13    1    3    3    0    0 -0.41017853939E+03  0.28817233479E+03 -0.14365202267E+04  0.15214730039E+04  0.10566000000E+00 0. -1.
          2    1    1    2  502    0 -0.52012795128E+02  0.45371199236E+02  0.53999227832E+03  0.54438546750E+03  0.00000000000E+00 0.  1.
         -4    1    3    3    0  502  0.24169139266E+03 -0.34846924179E+03 -0.54794690587E+03  0.69288624854E+03  0.00000000000E+00 0. -1.
</event>
<event>
 6    1  0.9434649E-006  0.9130004E+03  0.7818608E-02  0.8860931E-01
          2   -1    0    0  501    0  0.00000000000E+00  0.00000000000E+00  0.16641302762E+04  0.16641302762E+04  0.00000000000E+00 0.  1.
         -4   -1    0    0    0  501 -0.00000000000E+00 -0.00000000000E+00 -0.25479465325E+03  0.25479465325E+03  0.00000000000E+00 0. -1.
        -13    1    1    2    0    0 -0.22612164994E+03  0.24111919441E+02  0.54508172155E+03  0.59061533976E+03  0.10566000000E+00 0.  1.
         13    1    1    2    0    0  0.17227889945E+03 -0.21789580738E+03 -0.91425674551E+02  0.29243335514E+03  0.10566000000E+00 0. -1.
          2    1    1    2  502    0  0.46633688113E+02  0.39425715773E+02  0.84157345727E+03  0.84378609370E+03  0.00000000000E+00 0.  1.
         -4    1    1    2    0  502  0.72090623794E+01  0.15435817216E+03  0.11410611868E+03  0.19209014086E+03  0.00000000000E+00 0. -1.
</event>
<event>
 7    1  0.9434649E-006  0.1260475E+04  0.7818608E-02  0.8668961E-01
          4   -1    0    0  501    0 -0.00000000000E+00  0.00000000000E+00  0.51230295624E+03  0.51230295624E+03  0.00000000000E+00 0.  1.
          2   -1    0    0  502    0  0.00000000000E+00 -0.00000000000E+00 -0.26499945264E+04  0.26499945264E+04  0.00000000000E+00 0. -1.
    9000010    2    1    2  502    0 -0.50603759019E+03 -0.56594532220E+03 -0.17169539073E+04  0.21197952349E+04  0.98449630134E+03 0.  0.
        -13    1    3    3    0    0  0.12181381149E+03 -0.52217070367E+03 -0.11658359285E+04  0.12832280670E+04  0.10566000000E+00 0.  1.
         13    1    1    2    0    0  0.56433695363E+03  0.55982441014E+03 -0.20776826538E+03  0.82161257944E+03  0.10566000000E+00 0. -1.
          2    1    1    2  501    0 -0.58299363446E+02  0.61209120585E+01 -0.21296939740E+03  0.22088966832E+03  0.00000000000E+00 0. -1.
          4    1    3    3  502    0 -0.62785140168E+03 -0.43774618526E+02 -0.55111797884E+03  0.83656716790E+03  0.00000000000E+00 0.  1.
</event>
<event>
 7    1  0.9434649E-006  0.1014098E+04  0.7818608E-02  0.9220550E-01
         -4   -1    0    0    0  501 -0.00000000000E+00  0.00000000000E+00  0.20360204275E+03  0.20360204275E+03  0.00000000000E+00 0. -1.
          2   -1    0    0  501    0  0.00000000000E+00 -0.00000000000E+00 -0.30277598510E+04  0.30277598510E+04  0.00000000000E+00 0. -1.
   -9000010    2    1    2    0  502 -0.16481417214E+03  0.34549161422E+02 -0.11504986148E+04  0.15348055243E+04  0.10018101512E+04 0.  0.
        -13    1    1    2    0    0  0.15153085438E+03 -0.22795076394E+02 -0.50440275155E+03  0.52716540315E+03  0.10566000000E+00 0.  1.
         13    1    3    3    0    0  0.10700455454E+03  0.41649599848E+03 -0.91317869706E+03  0.10093632822E+04  0.10566000000E+00 0. -1.
          2    1    1    2  502    0  0.13283317768E+02 -0.11754085028E+02 -0.11692564419E+04  0.11693909663E+04  0.00000000000E+00 0. -1.
         -4    1    3    3    0  502 -0.27181872668E+03 -0.38194683705E+03 -0.23731991771E+03  0.52544224216E+03  0.00000000000E+00 0. -1.
</event>
<event>
 6    1  0.9434649E-006  0.1003780E+03  0.7818608E-02  0.1167661E+00
          4   -1    0    0  501    0 -0.00000000000E+00  0.00000000000E+00  0.37011182066E+03  0.37011182066E+03  0.00000000000E+00 0.  1.
          2   -1    0    0  502    0  0.00000000000E+00 -0.00000000000E+00 -0.11138846789E+04  0.11138846789E+04  0.00000000000E+00 0. -1.
        -13    1    1    2    0    0  0.69499077097E+01 -0.38231352236E+02 -0.43830741057E+01  0.39104475621E+02  0.10566000000E+00 0.  1.
         13    1    1    2    0    0 -0.32412697409E+02  0.89357845301E+02  0.29781672013E+03  0.31261832548E+03  0.10566000000E+00 0. -1.
          2    1    1    2  501    0  0.11404931948E+02 -0.13780187133E+02 -0.10762776990E+04  0.10764263334E+04  0.00000000000E+00 0. -1.
          4    1    1    2  502    0  0.14057857752E+02 -0.37346305933E+02  0.39071194666E+02  0.55847365059E+02  0.00000000000E+00 0.  1.
</event>
<event>
 7    1  0.9434649E-006  0.1613509E+04  0.7818608E-02  0.8405930E-01
          2   -1    0    0  502    0  0.00000000000E+00  0.00000000000E+00  0.11908230668E+04  0.11908230668E+04  0.00000000000E+00 0. -1.
          4   -1    0    0  501    0 -0.00000000000E+00 -0.00000000000E+00 -0.41055319659E+04  0.41055319659E+04  0.00000000000E+00 0.  1.
    9000010    2    1    2  502    0  0.47217843882E+03  0.11175250309E+04 -0.30488939288E+04  0.34452380847E+04  0.10498078865E+04 0.  0.
        -13    1    3    3    0    0  0.43710495327E+03  0.10694895567E+04 -0.31346964508E+04  0.33408367967E+04  0.10566000000E+00 0.  1.
         13    1    1    2    0    0 -0.75670871729E+03 -0.10329369858E+04 -0.30946481724E+03  0.13173212910E+04  0.10566000000E+00 0. -1.
          2    1    1    2  501    0  0.28453027847E+03 -0.84588045051E+02  0.44364984696E+03  0.53379565701E+03  0.00000000000E+00 0. -1.
          4    1    3    3  502    0  0.35073485546E+02  0.48035474145E+02  0.85802521999E+02  0.10440128805E+03  0.00000000000E+00 0.  1.
</event>
<event>
 7    1  0.9434649E-006  0.1281939E+04  0.7818608E-02  0.8631992E-01
         -4   -1    0    0    0  501 -0.00000000000E+00  0.00000000000E+00  0.17835931477E+04  0.17835931477E+04  0.00000000000E+00 0. -1.
          2   -1    0    0  501    0  0.00000000000E+00 -0.00000000000E+00 -0.20424699182E+04  0.20424699182E+04  0.00000000000E+00 0. -1.
   -9000010    2    1    2    0  502 -0.44017990716E+03 -0.80387414210E+03  0.10674579374E+04  0.16878289938E+04  0.93237775446E+03 0.  0.
        -13    1    1    2    0    0  0.90346623537E+03  0.32614600202E+03 -0.51832585887E+03  0.10914596466E+04  0.10566000000E+00 0.  1.
         13    1    3    3    0    0 -0.37434529216E+03 -0.25761806244E+03  0.10422903815E+04  0.11370447284E+04  0.10566000000E+00 0. -1.
          2    1    1    2  502    0 -0.46328632821E+03  0.47772814008E+03 -0.80800884909E+03  0.10467744255E+04  0.00000000000E+00 0. -1.
         -4    1    3    3    0  502 -0.65834614995E+02 -0.54625607965E+03  0.25167555923E+02  0.55078426535E+03  0.00000000000E+00 0. -1.
</event>
<event>
 7    1  0.9434649E-006  0.1535289E+04  0.7818608E-02  0.8750602E-01
          2   -1    0    0  501    0  0.00000000000E+00  0.00000000000E+00  0.11125297833E+04  0.11125297833E+04  0.00000000000E+00 0. -1.
         -4   -1    0    0    0  501 -0.00000000000E+00 -0.00000000000E+00 -0.22334146486E+04  0.22334146486E+04  0.00000000000E+00 0. -1.
   -9000010    2    1    2    0  502 -0.60606663704E+03  0.68884280924E+03 -0.87069192040E+03  0.16393422964E+04  0.10428411002E+04 0.  0.
        -13    1    1    2    0    0 -0.24342619225E+03  0.18562759365E+03 -0.37155561565E+03  0.48142237306E+03  0.10566000000E+00 0.  1.
         13    1    3    3    0    0 -0.68492509456E+03  0.14673393862E+02 -0.28199279328E+03  0.74084926960E+03  0.10566000000E+00 0. -1.
          2    1    1    2  502    0  0.84949282929E+03 -0.87447040290E+03  0.12136267077E+03  0.12251797625E+04  0.00000000000E+00 0. -1.
         -4    1    3    3    0  502  0.78858457520E+02  0.67416941538E+03 -0.58869912712E+03  0.89849302681E+03  0.00000000000E+00 0. -1.
</event>
<event>
 7    1  0.9434649E-006  0.1079803E+04  0.7818608E-02  0.8924854E-01
          2   -1    0    0  501    0  0.00000000000E+00  0.00000000000E+00  0.13341281018E+04  0.13341281018E+04  0.00000000000E+00 0. -1.
         -4   -1    0    0    0  501 -0.00000000000E+00 -0.00000000000E+00 -0.77216749464E+03  0.77216749464E+03  0.00000000000E+00 0. -1.
   -9000010    2    1    2    0  502 -0.38167111757E+03 -0.15213275661E+03  0.14111081397E+03  0.10841785190E+04  0.99333457688E+03 0.  0.
        -13    1    1    2    0    0  0.40154263168E+03  0.14386597198E+03 -0.14903616874E+03  0.45182484848E+03  0.10566000000E+00 0.  1.
         13    1    3    3    0    0 -0.56766831006E+03 -0.12151807939E+03 -0.26371342732E+03  0.63761958626E+03  0.10566000000E+00 0. -1.
          2    1    1    2  502    0 -0.19871514108E+02  0.82667846333E+01  0.56988596193E+03  0.57029222895E+03  0.00000000000E+00 0. -1.
         -4    1    3    3    0  502  0.18599719249E+03 -0.30614677220E+02  0.40482424129E+03  0.44655893274E+03  0.00000000000E+00 0. -1.
</event>
<event>
 7    1  0.9434649E-006  0.9672595E+03  0.7818608E-02  0.9297410E-01
          4   -1    0    0  501    0 -0.00000000000E+00  0.00000000000E+00  0.31804792168E+03  0.31804792168E+03  0.00000000000E+00 0.  1.
          2   -1    0    0  502    0  0.00000000000E+00 -0.00000000000E+00 -0.14432896669E+04  0.14432896669E+04  0.00000000000E+00 0.  1.
    9000010    2    1    2  502    0  0.76261961294E+02 -0.10843587670E+03 -0.11718659105E+04  0.15192629429E+04  0.95776612568E+03 0.  0.
        -13    1    3    3    0    0  0.48416932608E+03  0.65603394123E+01 -0.88082597615E+03  0.10051454550E+04  0.10566000000E+00 0.  1.
         13    1    1    2    0    0 -0.96555774173E+02  0.94777243805E+02  0.10985235497E+03  0.17427935771E+03  0.10566000000E+00 0. -1.
          2    1    1    2  501    0  0.20293812880E+02  0.13658632893E+02 -0.63228189709E+02  0.67795287945E+02  0.00000000000E+00 0.  1.
          4    1    3    3  502    0 -0.40790736478E+03 -0.11499621611E+03 -0.29103993430E+03  0.51411748786E+03  0.00000000000E+00 0.  1.
</event>
<event>
 7    1  0.9434649E-006  0.1293211E+04  0.7818608E-02  0.8649572E-01
          2   -1    0    0  501    0  0.00000000000E+00  0.00000000000E+00  0.17880964682E+04  0.17880964682E+04  0.00000000000E+00 0. -1.
         -4   -1    0    0    0  501 -0.00000000000E+00 -0.00000000000E+00 -0.17732017461E+04  0.17732017461E+04  0.00000000000E+00 0. -1.
   -9000010    2    1    2    0  502  0.41217006360E+03  0.73673854102E+03  0.13581574440E+04  0.18974429163E+04  0.10212884699E+04 0.  0.
        -13    1    1    2    0    0 -0.50147571635E+03 -0.61124771479E+03 -0.12632995749E+04  0.14903112058E+04  0.10566000000E+00 0.  1.
         13    1    3    3    0    0  0.53717231315E+03  0.91097480543E+03  0.12988682898E+04  0.16749591146E+04  0.10566000000E+00 0. -1.
          2    1    1    2  502    0  0.89305652751E+02 -0.12549082623E+03 -0.79963146956E+02  0.17354409224E+03  0.00000000000E+00 0. -1.
         -4    1    3    3    0  502 -0.12500224956E+03 -0.17423626441E+03  0.59289154221E+02  0.22248380174E+03  0.00000000000E+00 0. -1.
</event>
<event>
 7    1  0.9434649E-006  0.1036583E+04  0.7818608E-02  0.9084698E-01
          4   -1    0    0  501    0  0.00000000000E+00  0.00000000000E+00  0.35688044683E+04  0.35688044683E+04  0.00000000000E+00 0.  1.
          4   -1    0    0  502    0 -0.00000000000E+00 -0.00000000000E+00 -0.18291786667E+04  0.18291786667E+04  0.00000000000E+00 0.  1.
    9000010    2    1    2  501    0 -0.22320376299E+03  0.87146947828E+02 -0.11056384627E+04  0.15137540815E+04  0.10057835248E+04 0.  0.
        -13    1    3    3    0    0 -0.32243393888E+03 -0.37961503324E+03 -0.31206116817E+03  0.58775284112E+03  0.10566000000E+00 0.  1.
         13    1    1    2    0    0  0.12350014734E+03 -0.22962899496E+03 -0.48435362117E+03  0.55007290719E+03  0.10566000000E+00 0. -1.
          4    1    3    3  501    0  0.99230175887E+02  0.46676198107E+03 -0.79357729450E+03  0.92600124035E+03  0.00000000000E+00 0.  1.
          4    1    1    2  502    0  0.99703615652E+02  0.14248204714E+03  0.33296178854E+04  0.33341561463E+04  0.00000000000E+00 0.  1.
</event>
<event>
 7    1  0.9434649E-006  0.1076365E+04  0.7818608E-02  0.8941019E-01
          2   -1    0    0  502    0  0.00000000000E+00  0.00000000000E+00  0.19080787465E+04  0.19080787465E+04  0.00000000000E+00 0.  1.
          4   -1    0    0  501    0 -0.00000000000E+00 -0.00000000000E+00 -0.67672874318E+03  0.67672874318E+03  0.00000000000E+00 0.  1.
    9000010    2    1    2  502    0  0.39679013781E+03 -0.75336542756E+02  0.11832356949E+04  0.16005406620E+04  0.99928258910E+03 0.  0.
        -13    1    3    3    0    0  0.28610883883E+03  0.17531241373E+03 -0.48198041261E+02  0.33899228960E+03  0.10566000000E+00 0.  1.
         13    1    1    2    0    0 -0.39557141715E+03  0.57830649779E+02 -0.38250432141E+03  0.55329078899E+03  0.10566000000E+00 0. -1.
          2    1    1    2  501    0 -0.12187206650E+01  0.17505892976E+02  0.43061862986E+03  0.43097603872E+03  0.00000000000E+00 0.  1.
          4    1    3    3  502    0  0.11068129899E+03 -0.25064895649E+03  0.12314337362E+04  0.12615483724E+04  0.00000000000E+00 0.  1.
</event>
<event>
 6    1  0.9434649E-006  0.3632042E+03  0.7818608E-02  0.9841780E-01
          2   -1    0    0  502    0  0.00000000000E+00  0.00000000000E+00  0.80831913638E+03  0.80831913638E+03  0.00000000000E+00 0.  1.
          4   -1    0    0  501    0 -0.00000000000E+00 -0.00000000000E+00 -0.45444690249E+03  0.45444690249E+03  0.00000000000E+00 0.  1.
        -13    1    1    2    0    0  0.13625849783E+03  0.15686708580E+03 -0.26175788534E+03  0.33420182905E+03  0.10566000000E+00 0.  1.
         13    1    1    2    0    0 -0.58060069629E+02 -0.47813154556E+02 -0.10541811926E+03  0.12949926821E+03  0.10566000000E+00 0. -1.
          2    1    1    2  501    0 -0.81202663857E+02 -0.49421274472E+02  0.73218237144E+03  0.73832740707E+03  0.00000000000E+00 0.  1.
          4    1    1    2  502    0  0.30042356597E+01 -0.59632656773E+02 -0.11134132941E+02  0.60737534540E+02  0.00000000000E+00 0.  1.
</event>
<event>
 7    1  0.9434649E-006  0.1031178E+04  0.7818608E-02  0.9127323E-01
          4   -1    0    0  501    0 -0.00000000000E+00  0.00000000000E+00  0.55498632011E+03  0.55498632011E+03  0.00000000000E+00 0.  1.
          2   -1    0    0  502    0  0.00000000000E+00 -0.00000000000E+00 -0.11841736393E+04  0.11841736393E+04  0.00000000000E+00 0.  1.
    9000010    2    1    2  502    0  0.10945259728E+02  0.10349931926E+02 -0.25111052939E+03  0.10400682828E+04  0.10091871061E+04 0.  0.
        -13    1    3    3    0    0 -0.28142718954E+03  0.24754737719E+03  0.22185890799E+03  0.43554833622E+03  0.10566000000E+00 0.  1.
         13    1    1    2    0    0  0.21522083950E+03 -0.40464431956E+01  0.44450425585E+02  0.21980044348E+03  0.10566000000E+00 0. -1.
          2    1    1    2  501    0 -0.22616609922E+03 -0.63034887306E+01 -0.42252721535E+03  0.47929123309E+03  0.00000000000E+00 0.  1.
          4    1    3    3  502    0  0.29237244927E+03 -0.23719744527E+03 -0.47296943738E+03  0.60451994659E+03  0.00000000000E+00 0.  1.
</event>
<event>
 7    1  0.9434649E-006  0.1005188E+04  0.7818608E-02  0.9212346E-01
          2   -1    0    0  502    0  0.00000000000E+00  0.00000000000E+00  0.10725054969E+04  0.10725054969E+04  0.00000000000E+00 0.  1.
          4   -1    0    0  501    0 -0.00000000000E+00 -0.00000000000E+00 -0.80375084719E+03  0.80375084719E+03  0.00000000000E+00 0.  1.
    9000010    2    1    2  502    0 -0.78104321686E+02  0.13782186583E+03  0.34230677670E+03  0.10605869895E+04  0.99124955544E+03 0.  0.
        -13    1    3    3    0    0  0.30482912318E+03 -0.19239152652E+03  0.41505605897E+03  0.54973342364E+03  0.10566000000E+00 0.  1.
         13    1    1    2    0    0  0.10858656403E+03 -0.12696237923E+03 -0.42815422248E+03  0.45959388271E+03  0.10566000000E+00 0. -1.
          2    1    1    2  501    0 -0.30482242348E+02 -0.10859486599E+02  0.35460209552E+03  0.35607547191E+03  0.00000000000E+00 0.  1.
          4    1    3    3  502    0 -0.38293344487E+03  0.33021339235E+03 -0.72749282266E+02  0.51085356586E+03  0.00000000000E+00 0.  1.
</event>
<event>
 6    1  0.9434649E-006  0.1468078E+04  0.7818608E-02  0.8428111E-01
          4   -1    0    0  502    0  0.00000000000E+00  0.00000000000E+00  0.33661574742E+04  0.33661574742E+04  0.00000000000E+00 0. -1.
          4   -1    0    0  501    0 -0.00000000000E+00 -0.00000000000E+00 -0.23640344498E+04  0.23640344498E+04  0.00000000000E+00 0.  1.
        -13    1    1    2    0    0  0.25685381657E+03  0.33676979850E+03 -0.82012774926E+03  0.92303700713E+03  0.10566000000E+00 0.  1.
         13    1    1    2    0    0 -0.53762130585E+03 -0.41790222775E+03 -0.50944041475E+03  0.85041665541E+03  0.10566000000E+00 0. -1.
          4    1    1    2  501    0  0.14165427677E+03  0.56388005584E+02  0.31362059582E+04  0.31399097684E+04  0.00000000000E+00 0. -1.
          4    1    1    2  502    0  0.13911321250E+03  0.24744423670E+02 -0.80451476974E+03  0.81682849309E+03  0.00000000000E+00 0.  1.
</event>
<event>
 7    1  0.9434649E-006  0.1092504E+04  0.7818608E-02  0.9330345E-01
          4   -1    0    0  501    0 -0.00000000000E+00  0.00000000000E+00  0.34541953757E+03  0.34541953757E+03  0.00000000000E+00 0.  1.
          2   -1    0    0  502    0  0.00000000000E+00 -0.00000000000E+00 -0.14922265498E+04  0.14922265498E+04  0.00000000000E+00 0.  1.
    9000010    2    1    2  502    0  0.19916413132E+03 -0.13890462340E+03 -0.92655886242E+03  0.14418835149E+04  0.10777550276E+04 0.  0.
        -13    1    3    3    0    0 -0.25078252799E+03 -0.28897681494E+03  0.19990803092E+02  0.38314373190E+03  0.10566000000E+00 0.  1.
         13    1    1    2    0    0 -0.81982583238E+02  0.11891106202E+02  0.32999347536E+02  0.89171242354E+02  0.10566000000E+00 0. -1.
          2    1    1    2  501    0 -0.11718154808E+03  0.12701351720E+03 -0.25324749731E+03  0.30659133004E+03  0.00000000000E+00 0.  1.
          4    1    3    3  502    0  0.44994665931E+03  0.15007219154E+03 -0.94654966552E+03  0.10587397830E+04  0.00000000000E+00 0.  1.
</event>
<event>
 7    1  0.9434649E-006  0.8958250E+03  0.7818608E-02  0.9335868E-01
          2   -1    0    0  502    0  0.00000000000E+00  0.00000000000E+00  0.16572870376E+04  0.16572870376E+04  0.00000000000E+00 0.  1.
          4   -1    0    0  501    0 -0.00000000000E+00 -0.00000000000E+00 -0.20696536918E+03  0.20696536918E+03  0.00000000000E+00 0.  1.
    9000010    2    1    2  502    0 -0.10044522259E+03  0.16489752296E+03  0.89902296132E+03  0.12752905710E+04  0.88365339342E+03 0.  0.
        -13    1    3    3    0    0 -0.81553323562E+02 -0.36502832734E+03  0.38547824347E+03  0.53711275510E+03  0.10566000000E+00 0.  1.
         13    1    1    2    0    0  0.72192456532E+02 -0.11410458438E+03  0.27188684481E+03  0.30356889580E+03  0.10566000000E+00 0. -1.
          2    1    1    2  501    0  0.28252766058E+02 -0.50792938573E+02  0.27941186225E+03  0.28539293994E+03  0.00000000000E+00 0.  1.
          4    1    3    3  502    0 -0.18891899029E+02  0.52992585029E+03  0.51354471786E+03  0.73817781591E+03  0.00000000000E+00 0.  1.
</event>
<event>
 7    1  0.9434649E-006  0.1046364E+04  0.7818608E-02  0.9021345E-01
         -4   -1    0    0    0  501 -0.00000000000E+00  0.00000000000E+00  0.11514200179E+04  0.11514200179E+04  0.00000000000E+00 0. -1.
          1   -1    0    0  501    0  0.00000000000E+00 -0.00000000000E+00 -0.14599889938E+04  0.14599889938E+04  0.00000000000E+00 0. -1.
   -9000010    2    1    2    0  502  0.25278562424E+03 -0.13150106096E+03  0.65659787106E+03  0.12282149960E+04  0.99809729548E+03 0.  0.
        -13    1    1    2    0    0 -0.29181841137E+03  0.14809839874E+03  0.80228325428E+02  0.33693874264E+03  0.10566000000E+00 0.  1.
         13    1    3    3    0    0  0.45369035075E+03 -0.41930929308E+03  0.19399054319E+03  0.64752417687E+03  0.10566000000E+00 0. -1.
          1    1    1    2  502    0  0.39032787129E+02 -0.16597337777E+02 -0.10453951723E+04  0.10462552731E+04  0.00000000000E+00 0. -1.
         -4    1    3    3    0  502 -0.20090472651E+03  0.28780823212E+03  0.46260732787E+03  0.58069081912E+03  0.00000000000E+00 0. -1.
</event>
<event>
 7    1  0.9434649E-006  0.9953049E+03  0.7818608E-02  0.9367156E-01
         -2   -1    0    0    0  501  0.00000000000E+00  0.00000000000E+00  0.79765476874E+03  0.79765476874E+03  0.00000000000E+00 0. -1.
         -4   -1    0    0    0  502 -0.00000000000E+00 -0.00000000000E+00 -0.73399722779E+03  0.73399722779E+03  0.00000000000E+00 0. -1.
   -9000010    2    1    2    0  501  0.85781989725E+01  0.68050570398E+02  0.78052761427E+02  0.99615295990E+03  0.99071894113E+03 0.  0.
        -13    1    1    2    0    0 -0.98428325469E+01 -0.95346776667E+02 -0.26583009106E+03  0.28258368256E+03  0.10566000000E+00 0.  1.
         13    1    3    3    0    0  0.83470472805E+02 -0.32126029657E+03  0.37501887923E+03  0.50081400632E+03  0.10566000000E+00 0. -1.
         -2    1    1    2    0  502  0.12646335744E+01  0.27296206270E+02  0.25143487058E+03  0.25291535406E+03  0.00000000000E+00 0. -1.
         -4    1    3    3    0  501 -0.74892273832E+02  0.38931086696E+03 -0.29696611780E+03  0.49533895358E+03  0.00000000000E+00 0. -1.
</event>
<event>
 6    1  0.9434649E-006  0.8543850E+03  0.7818608E-02  0.8924945E-01
         -4   -1    0    0    0  501 -0.00000000000E+00  0.00000000000E+00  0.62206452043E+03  0.62206452043E+03  0.00000000000E+00 0. -1.
          2   -1    0    0  501    0  0.00000000000E+00 -0.00000000000E+00 -0.13240431099E+04  0.13240431099E+04  0.00000000000E+00 0. -1.
        -13    1    1    2    0    0 -0.29965273722E+03  0.51146497720E+02  0.10797048468E+03  0.32259163641E+03  0.10566000000E+00 0.  1.
         13    1    1    2    0    0  0.34731477211E+03 -0.11820605448E+03  0.30546349052E+03  0.47739729518E+03  0.10566000000E+00 0. -1.
          2    1    1    2  502    0 -0.31070895451E+02 -0.89481454235E+01 -0.10303024524E+04  0.10308096882E+04  0.00000000000E+00 0. -1.
         -4    1    1    2    0  502 -0.16591139432E+02  0.76007702187E+02 -0.85110112208E+02  0.11530901049E+03  0.00000000000E+00 0. -1.
</event>
<event>
 7    1  0.9434649E-006  0.1085532E+04  0.7818608E-02  0.8869326E-01
          2   -1    0    0  502    0  0.00000000000E+00  0.00000000000E+00  0.15106706704E+04  0.15106706704E+04  0.00000000000E+00 0.  1.
          4   -1    0    0  501    0 -0.00000000000E+00 -0.00000000000E+00 -0.56190350122E+03  0.56190350122E+03  0.00000000000E+00 0.  1.
    9000010    2    1    2  502    0 -0.54960012568E+03  0.11627136771E+03  0.73588973390E+03  0.13267993942E+04  0.95041233316E+03 0.  0.
        -13    1    3    3    0    0 -0.61458154666E+03 -0.72839721933E+02  0.88318660923E+03  0.10784408655E+04  0.10566000000E+00 0.  1.
         13    1    1    2    0    0  0.49568710899E+03 -0.14197130595E+03 -0.93083693429E+01  0.51570167600E+03  0.10566000000E+00 0. -1.
          2    1    1    2  501    0  0.53913016691E+02  0.25699938248E+02  0.22218580461E+03  0.23007310135E+03  0.00000000000E+00 0.  1.
          4    1    3    3  502    0  0.64981420980E+02  0.18911108964E+03 -0.14729687534E+03  0.24835852870E+03  0.00000000000E+00 0.  1.
</event>
<event>
 6    1  0.1457498E-005  0.2230632E+03  0.7818608E-02  0.1053078E+00
         -4   -1    0    0    0  501 -0.00000000000E+00  0.00000000000E+00  0.40111369377E+02  0.40111369377E+02  0.00000000000E+00 0. -1.
          2   -1    0    0  501    0  0.00000000000E+00 -0.00000000000E+00 -0.30199943101E+04  0.30199943101E+04  0.00000000000E+00 0. -1.
        -13    1    1    2    0    0 -0.59634825280E+00  0.14998084889E+03 -0.60985439721E+03  0.62802627940E+03  0.10566000000E+00 0.  1.
         13    1    1    2    0    0  0.17840082160E+02 -0.18843296135E+03 -0.26528786744E+03  0.32588788445E+03  0.10566000000E+00 0. -1.
          2    1    1    2  502    0 -0.29960756447E+02  0.46770416770E+02 -0.19276499689E+04  0.19284500309E+04  0.00000000000E+00 0. -1.
         -4    1    1    2    0  502  0.12717022539E+02 -0.83183043044E+01 -0.17709070711E+03  0.17774148473E+03  0.00000000000E+00 0. -1.
</event>
<event>
 7    1  0.9434649E-006  0.1018302E+04  0.7818608E-02  0.9144669E-01
         -4   -1    0    0    0  501 -0.00000000000E+00  0.00000000000E+00  0.24812009347E+04  0.24812009347E+04  0.00000000000E+00 0. -1.
          2   -1    0    0  501    0  0.00000000000E+00 -0.00000000000E+00 -0.80823573664E+03  0.80823573664E+03  0.00000000000E+00 0. -1.
   -9000010    2    1    2    0  502  0.22043121425E+03 -0.23061534886E+02  0.11104999820E+04  0.15085329164E+04  0.99666423391E+03 0.  0.
        -13    1    1    2    0    0 -0.20610086195E+03  0.29601783696E+02  0.11623299510E+04  0.11808322307E+04  0.10566000000E+00 0.  1.
         13    1    3    3    0    0 -0.12114510583E+03  0.37373732661E+03  0.82122487288E+03  0.91036587643E+03  0.10566000000E+00 0. -1.
          2    1    1    2  502    0 -0.14330352298E+02 -0.65402488100E+01 -0.59986473502E+03  0.60007152421E+03  0.00000000000E+00 0. -1.
         -4    1    3    3    0  502  0.34157632008E+03 -0.39679886150E+03  0.28927510913E+03  0.59816703995E+03  0.00000000000E+00 0. -1.
</event>
<event>
 7    1  0.9434649E-006  0.1128918E+04  0.7818608E-02  0.8846546E-01
         -4   -1    0    0    0  501 -0.00000000000E+00  0.00000000000E+00  0.97247950289E+03  0.97247950289E+03  0.00000000000E+00 0. -1.
          2   -1    0    0  501    0  0.00000000000E+00 -0.00000000000E+00 -0.17987848650E+04  0.17987848650E+04  0.00000000000E+00 0. -1.
   -9000010    2    1    2    0  502 -0.41097164557E+03  0.18680476779E+03  0.85987207702E+02  0.11057042417E+04  0.10056810406E+04 0.  0.
        -13    1    1    2    0    0  0.47610526662E+03 -0.24659848162E+03  0.18311903489E+03  0.56658594065E+03  0.10566000000E+00 0.  1.
         13    1    3    3    0    0 -0.39437796561E+03 -0.66813611809E+02  0.48744500271E+03  0.63055585027E+03  0.10566000000E+00 0. -1.
          2    1    1    2  502    0 -0.65133621047E+02  0.59793713836E+02 -0.10954116047E+04  0.10989741855E+04  0.00000000000E+00 0. -1.
         -4    1    3    3    0  502 -0.16593679967E+02  0.25361837960E+03 -0.40145779501E+03  0.47514839141E+03  0.00000000000E+00 0. -1.
</event>
<event>
 7    1  0.9434649E-006  0.1300046E+04  0.7818608E-02  0.8717956E-01
          4   -1    0    0  501    0 -0.00000000000E+00  0.00000000000E+00  0.30623532258E+04  0.30623532258E+04  0.00000000000E+00 0.  1.
          2   -1    0    0  502    0  0.00000000000E+00 -0.00000000000E+00 -0.82339086500E+03  0.82339086500E+03  0.00000000000E+00 0. -1.
    9000010    2    1    2  502    0 -0.42269645974E+03  0.93401963643E+03  0.12272841678E+03  0.14281189009E+04  0.98660851032E+03 0.  0.
        -13    1    3    3    0    0  0.26894166026E+03  0.54752146315E+03  0.17346799369E+03  0.63419281393E+03  0.10566000000E+00 0.  1.
         13    1    1    2    0    0  0.50972937963E+03 -0.27690925063E+03  0.11147613760E+04  0.12566605390E+04  0.10566000000E+00 0. -1.
          2    1    1    2  501    0 -0.87032919888E+02 -0.65711038580E+03  0.10014725680E+04  0.12009646509E+04  0.00000000000E+00 0. -1.
          4    1    3    3  502    0 -0.69163812000E+03  0.38649817327E+03 -0.50739576907E+02  0.79392608701E+03  0.00000000000E+00 0.  1.
</event>
<event>
 7    1  0.9434649E-006  0.1051204E+04  0.7818608E-02  0.9100259E-01
         -4   -1    0    0    0  501 -0.00000000000E+00  0.00000000000E+00  0.16016805777E+04  0.16016805777E+04  0.00000000000E+00 0. -1.
          2   -1    0    0  501    0  0.00000000000E+00 -0.00000000000E+00 -0.65861106957E+03  0.65861106957E+03  0.00000000000E+00 0.  1.
   -9000010    2    1    2    0  502  0.19919513452E+03 -0.97895813833E+02  0.62978200443E+03  0.12246628851E+04  0.10266019272E+04 0.  0.
        -13    1    1    2    0    0 -0.22780025594E+03 -0.12015264382E+02  0.64545608262E+03  0.68458081257E+03  0.10566000000E+00 0.  1.
         13    1    3    3    0    0 -0.32420265470E+03 -0.33303539341E+03  0.19172974273E+03  0.50277255294E+03  0.10566000000E+00 0. -1.
          2    1    1    2  502    0  0.28605121414E+02  0.10991107822E+03 -0.33216857894E+03  0.35104794961E+03  0.00000000000E+00 0.  1.
         -4    1    3    3    0  502  0.52339778922E+03  0.23513957958E+03  0.43805226169E+03  0.72189033213E+03  0.00000000000E+00 0. -1.
</event>
<event>
 7    1  0.9434649E-006  0.1444432E+04  0.7818608E-02  0.8902789E-01
          2   -1    0    0  501    0  0.00000000000E+00  0.00000000000E+00  0.96114010203E+03  0.96114010203E+03  0.00000000000E+00 0. -1.
         -4   -1    0    0    0  501 -0.00000000000E+00 -0.00000000000E+00 -0.19640225236E+04  0.19640225236E+04  0.00000000000E+00 0. -1.
   -9000010    2    1    2    0  502 -0.17681201706E+03 -0.10817492855E+04 -0.71020804464E+03  0.16622871639E+04  0.10282797005E+04 0.  0.
        -13    1    1    2    0    0 -0.12471318631E+03  0.14826963347E+03 -0.19852559406E+03  0.27739806364E+03  0.10566000000E+00 0.  1.
         13    1    3    3    0    0 -0.49999546901E+03 -0.10366049866E+04 -0.67460243665E+03  0.13340291698E+04  0.10566000000E+00 0. -1.
          2    1    1    2  502    0  0.30152520338E+03  0.93347965198E+03 -0.94148782893E+02  0.98547739815E+03  0.00000000000E+00 0. -1.
         -4    1    3    3    0  502  0.32318345195E+03 -0.45144298855E+02 -0.35605607991E+02  0.32825799404E+03  0.00000000000E+00 0. -1.
</event>
<event>
 7    1  0.9434649E-006  0.1072081E+04  0.7818608E-02  0.8995844E-01
         -4   -1    0    0    0  501 -0.00000000000E+00  0.00000000000E+00  0.18189047552E+04  0.18189047552E+04  0.00000000000E+00 0. -1.
          2   -1    0    0  501    0  0.00000000000E+00 -0.00000000000E+00 -0.42254986315E+03  0.42254986315E+03  0.00000000000E+00 0. -1.
   -9000010    2    1    2    0  502  0.16138388279E+03 -0.22629842041E+03  0.11282525251E+04  0.15474997175E+04  0.10220302748E+04 0.  0.
        -13    1    1    2    0    0 -0.18987848810E+03  0.27816590129E+03  0.41565568142E+03  0.53497641588E+03  0.10566000000E+00 0.  1.
         13    1    3    3    0    0  0.22738419869E+03  0.68747314494E+02  0.12109710803E+04  0.12340505401E+04  0.10566000000E+00 0. -1.
          2    1    1    2  502    0  0.28494605319E+02 -0.51867480881E+02 -0.14755331441E+03  0.15897848502E+03  0.00000000000E+00 0. -1.
         -4    1    3    3    0  502 -0.66000315908E+02 -0.29504573491E+03 -0.82718555266E+02  0.31344917733E+03  0.00000000000E+00 0. -1.
</event>
<event>
 6    1  0.9434649E-006  0.7857064E+02  0.7818608E-02  0.1205881E+00
         -4   -1    0    0    0  501  0.00000000000E+00  0.00000000000E+00  0.18034178828E+02  0.18034178828E+02  0.00000000000E+00 0. -1.
         -4   -1    0    0    0  502 -0.00000000000E+00 -0.00000000000E+00 -0.14245858767E+03  0.14245858767E+03  0.00000000000E+00 0. -1.
        -13    1    1    2    0    0 -0.10924141427E+02 -0.75173627802E+01 -0.17977328559E+02  0.22339272935E+02  0.10566000000E+00 0.  1.
         13    1    1    2    0    0  0.29807382216E+02  0.28284908897E+02 -0.95447431889E+02  0.10391698381E+03  0.10566000000E+00 0. -1.
         -4    1    1    2    0  502 -0.12857976438E+02 -0.41300954976E+01 -0.20034412971E+00  0.13506494166E+02  0.00000000000E+00 0. -1.
         -4    1    1    2    0  501 -0.60252643515E+01 -0.16637450619E+02 -0.10799304263E+02  0.20730015586E+02  0.00000000000E+00 0. -1.
</event>
<event>
 7    1  0.9434649E-006  0.1014354E+04  0.7818608E-02  0.9171972E-01
          2   -1    0    0  501    0  0.00000000000E+00  0.00000000000E+00  0.26446526226E+04  0.26446526226E+04  0.00000000000E+00 0.  1.
         -4   -1    0    0    0  501 -0.00000000000E+00 -0.00000000000E+00 -0.20029284949E+04  0.20029284949E+04  0.00000000000E+00 0. -1.
   -9000010    2    1    2    0  502  0.38897140692E+01  0.68382190194E+02 -0.10479375533E+04  0.14476634378E+04  0.99642614363E+03 0.  0.
        -13    1    1    2    0    0 -0.12694266791E+03 -0.15284826524E+03 -0.73972834419E+03  0.76594717017E+03  0.10566000000E+00 0.  1.
         13    1    3    3    0    0 -0.42492470616E+03  0.14447073712E+03 -0.86656457247E+03  0.97589290868E+03  0.10566000000E+00 0. -1.
          2    1    1    2  502    0  0.12305295384E+03  0.84466075045E+02  0.24293900251E+04  0.24339705096E+04  0.00000000000E+00 0.  1.
         -4    1    3    3    0  502  0.42881442023E+03 -0.76088546922E+02 -0.18137298082E+03  0.47177052911E+03  0.00000000000E+00 0. -1.
</event>
<event>
 7    1  0.9434649E-006  0.1092326E+04  0.7818608E-02  0.9015093E-01
          2   -1    0    0  502    0  0.00000000000E+00  0.00000000000E+00  0.10724915776E+04  0.10724915776E+04  0.00000000000E+00 0.  1.
          4   -1    0    0  501    0 -0.00000000000E+00 -0.00000000000E+00 -0.21246754763E+04  0.21246754763E+04  0.00000000000E+00 0.  1.
    9000010    2    1    2  502    0 -0.90259873794E+02 -0.26554972353E+03 -0.15165499373E+04  0.18361610391E+04  0.99644375091E+03 0.  0.
        -13    1    3    3    0    0 -0.51408129704E+03 -0.54097230207E+02 -0.52225743369E+03  0.73481897669E+03  0.10566000000E+00 0.  1.
         13    1    1    2    0    0  0.22739341606E+03 -0.16875356522E+03 -0.33644097049E+03  0.43974773363E+03  0.10566000000E+00 0. -1.
          2    1    1    2  501    0 -0.13713354226E+03  0.43430328875E+03  0.80080700899E+03  0.92125828120E+03  0.00000000000E+00 0.  1.
          4    1    3    3  502    0  0.42382142325E+03 -0.21145249332E+03 -0.99429250356E+03  0.11013420624E+04  0.00000000000E+00 0.  1.
</event>
<event>
 7    1  0.9434649E-006  0.9643666E+03  0.7818608E-02  0.9381630E-01
         -4   -1    0    0    0  501 -0.00000000000E+00  0.00000000000E+00  0.57786665026E+03  0.57786665026E+03  0.00000000000E+00 0. -1.
          2   -1    0    0  501    0  0.00000000000E+00 -0.00000000000E+00 -0.94465511300E+03  0.94465511300E+03  0.00000000000E+00 0. -1.
   -9000010    2    1    2    0  502  0.11070903629E+03  0.11317602717E+03 -0.28763639334E+03  0.10138646824E+04  0.95922968862E+03 0.  0.
        -13    1    1    2    0    0 -0.51640183701E+02 -0.83798018602E+02  0.19941480411E+03  0.22238500794E+03  0.10566000000E+00 0.  1.
         13    1    3    3    0    0  0.14854198570E+03 -0.37753524544E+03 -0.32564328060E+03  0.52023181413E+03  0.10566000000E+00 0. -1.
          2    1    1    2  502    0 -0.59068852593E+02 -0.29378008572E+02 -0.27856687351E+03  0.28627207295E+03  0.00000000000E+00 0. -1.
         -4    1    3    3    0  502 -0.37832949409E+02  0.49071127261E+03  0.38006887264E+02  0.49363286824E+03  0.00000000000E+00 0. -1.
</event>
<event>
 7    1  0.9434649E-006  0.1008087E+04  0.7818608E-02  0.9213452E-01
          4   -1    0    0  501    0 -0.00000000000E+00  0.00000000000E+00  0.26995379109E+04  0.26995379109E+04  0.00000000000E+00 0.  1.
          2   -1    0    0  502    0  0.00000000000E+00 -0.00000000000E+00 -0.74588335491E+03  0.74588335491E+03  0.00000000000E+00 0. -1.
    9000010    2    1    2  502    0  0.57927541482E+02  0.14647059652E+03  0.22837368777E+04  0.24958736140E+04  0.99454599431E+03 0.  0.
        -13    1    3    3    0    0 -0.20054882813E+02  0.32935563170E+03  0.16699844942E+03  0.36981863627E+03  0.10566000000E+00 0.  1.
         13    1    1    2    0    0 -0.85204347906E+02 -0.14309612214E+03  0.28701736926E+03  0.33183619829E+03  0.10566000000E+00 0. -1.
          2    1    1    2  501    0  0.27276806424E+02 -0.33744743728E+01 -0.61709969095E+03  0.61771145353E+03  0.00000000000E+00 0. -1.
          4    1    3    3  502    0  0.77982424294E+02 -0.18288503519E+03  0.21167384282E+04  0.21260549777E+04  0.00000000000E+00 0.  1.
</event>
<event>
 7    1  0.9434649E-006  0.1184005E+04  0.7818608E-02  0.8702330E-01
         -4   -1    0    0    0  501 -0.00000000000E+00  0.00000000000E+00  0.17133764300E+04  0.17133764300E+04  0.00000000000E+00 0. -1.
          2   -1    0    0  501    0  0.00000000000E+00 -0.00000000000E+00 -0.13147732905E+04  0.13147732905E+04  0.00000000000E+00 0. -1.
   -9000010    2    1    2    0  502  0.34888870960E+02  0.54694715560E+03 -0.13120587642E+03  0.11433192332E+04  0.99478412866E+03 0.  0.
        -13    1    1    2    0    0 -0.82053986321E+03  0.40303307426E+02  0.16253913813E+03  0.83745388309E+03  0.10566000000E+00 0.  1.
         13    1    3    3    0    0  0.47766967136E+03  0.74647137575E+02 -0.10867527382E+03  0.49553086321E+03  0.10566000000E+00 0. -1.
          2    1    1    2  502    0  0.78565099225E+03 -0.58725046302E+03  0.36726987784E+03  0.10473766042E+04  0.00000000000E+00 0. -1.
         -4    1    3    3    0  502 -0.44278080040E+03  0.47230001802E+03 -0.22530602600E+02  0.64778836998E+03  0.00000000000E+00 0. -1.
</event>
<event>
 6    1  0.9434649E-006  0.1254757E+04  0.7818608E-02  0.8566431E-01
          4   -1    0    0  501    0 -0.00000000000E+00  0.00000000000E+00  0.53060173270E+03  0.53060173270E+03  0.00000000000E+00 0.  1.
          2   -1    0    0  502    0  0.00000000000E+00 -0.00000000000E+00 -0.96384079434E+03  0.96384079434E+03  0.00000000000E+00 0. -1.
        -13    1    1    2    0    0  0.18717143626E+03 -0.48362968150E+03 -0.23082748117E+03  0.56763734250E+03  0.10566000000E+00 0.  1.
         13    1    1    2    0    0 -0.13368584824E+03  0.28139763132E+03  0.20266804156E+03  0.37165962811E+03  0.10566000000E+00 0. -1.
          2    1    1    2  501    0  0.13275497592E+03  0.64999008095E+02 -0.14488297722E+03  0.20697785334E+03  0.00000000000E+00 0. -1.
          4    1    1    2  502    0 -0.18624056395E+03  0.13723304208E+03 -0.26019664482E+03  0.34816770308E+03  0.00000000000E+00 0.  1.
</event>
<event>
 7    1  0.9434649E-006  0.1056842E+04  0.7818608E-02  0.9001665E-01
         -4   -1    0    0    0  501 -0.00000000000E+00  0.00000000000E+00  0.20701883803E+03  0.20701883803E+03  0.00000000000E+00 0. -1.
          2   -1    0    0  501    0  0.00000000000E+00 -0.00000000000E+00 -0.26010670522E+04  0.26010670522E+04  0.00000000000E+00 0. -1.
   -9000010    2    1    2    0  502  0.25982083699E+03  0.19018350661E+03 -0.17354415632E+04  0.20306141300E+04  0.10039719579E+04 0.  0.
        -13    1    1    2    0    0 -0.24219375485E+03 -0.22803276623E+03 -0.42268595849E+03  0.53788492080E+03  0.10566000000E+00 0.  1.
         13    1    3    3    0    0  0.98735074382E+02 -0.28355162590E+03 -0.13912760397E+04  0.14233057189E+04  0.10566000000E+00 0. -1.
          2    1    1    2  502    0 -0.17627082133E+02  0.37849259612E+02 -0.23592069249E+03  0.23958683942E+03  0.00000000000E+00 0. -1.
         -4    1    3    3    0  502  0.16108576260E+03  0.47373513251E+03 -0.34416552346E+03  0.60730841113E+03  0.00000000000E+00 0. -1.
</event>
<event>
 6    1  0.9434649E-006  0.3245716E+03  0.7818608E-02  0.9976494E-01
         -4   -1    0    0    0  501 -0.00000000000E+00  0.00000000000E+00  0.25721444152E+02  0.25721444152E+02  0.00000000000E+00 0. -1.
          2   -1    0    0  501    0  0.00000000000E+00 -0.00000000000E+00 -0.15971756105E+04  0.15971756105E+04  0.00000000000E+00 0.  1.
        -13    1    1    2    0    0  0.82667876130E+02  0.93072553285E+02 -0.51149120146E+03  0.52642163544E+03  0.10566000000E+00 0.  1.
         13    1    1    2    0    0 -0.98697356571E+02 -0.11818402962E+03 -0.35597323159E+03  0.38784737439E+03  0.10566000000E+00 0. -1.
          2    1    1    2  502    0 -0.16762312123E+02  0.14283167313E+02 -0.56442183569E+03  0.56485130130E+03  0.00000000000E+00 0.  1.
         -4    1    1    2    0  502  0.32791792564E+02  0.10828309020E+02 -0.13956789756E+03  0.14377674348E+03  0.00000000000E+00 0. -1.
</event>
<event>
 7    1  0.9434649E-006  0.1095096E+04  0.7818608E-02  0.8995151E-01
          2   -1    0    0  502    0  0.00000000000E+00  0.00000000000E+00  0.53264731657E+03  0.53264731657E+03  0.00000000000E+00 0.  1.
          4   -1    0    0  501    0 -0.00000000000E+00 -0.00000000000E+00 -0.23746096239E+04  0.23746096239E+04  0.00000000000E+00 0.  1.
    9000010    2    1    2  502    0 -0.29134845942E+03 -0.83362927498E+01 -0.10225875410E+04  0.14956888209E+04  0.10518775362E+04 0.  0.
        -13    1    3    3    0    0 -0.31395336004E+03  0.27025789022E+03  0.21523641430E+02  0.41481238869E+03  0.10566000000E+00 0.  1.
         13    1    1    2    0    0  0.30505745204E+03  0.21284400951E+02 -0.10941840643E+04  0.11361126055E+04  0.10566000000E+00 0. -1.
          2    1    1    2  501    0 -0.13708992613E+02 -0.12948108201E+02  0.27480929797E+03  0.27545551408E+03  0.00000000000E+00 0.  1.
          4    1    3    3  502    0  0.22604900617E+02 -0.27859418297E+03 -0.10441111825E+04  0.10808764322E+04  0.00000000000E+00 0.  1.
</event>
<event>
 7    1  0.9434649E-006  0.1101144E+04  0.7818608E-02  0.8890712E-01
         -4   -1    0    0    0  501 -0.00000000000E+00  0.00000000000E+00  0.45051694789E+03  0.45051694789E+03  0.00000000000E+00 0. -1.
          2   -1    0    0  501    0  0.00000000000E+00 -0.00000000000E+00 -0.17495690130E+04  0.17495690130E+04  0.00000000000E+00 0.  1.
   -9000010    2    1    2    0  502  0.86850599980E+02  0.45556369097E+03 -0.43975852726E+03  0.11872751180E+04  0.10005765040E+04 0.  0.
        -13    1    1    2    0    0 -0.73861391258E+02 -0.45043359094E+03 -0.60369611206E+03  0.75683216888E+03  0.10566000000E+00 0.  1.
         13    1    3    3    0    0  0.50154347085E+03  0.47032808858E+03 -0.28770743736E+03  0.74533881205E+03  0.10566000000E+00 0. -1.
          2    1    1    2  502    0 -0.12989208722E+02 -0.51301000275E+01 -0.25559742579E+03  0.25597867400E+03  0.00000000000E+00 0.  1.
         -4    1    3    3    0  502 -0.41469287088E+03 -0.14764397612E+02 -0.15205108990E+03  0.44193630596E+03  0.00000000000E+00 0. -1.
</event>
<event>
 6    1  0.9434649E-006  0.4136308E+03  0.7818608E-02  0.9690483E-01
          4   -1    0    0  501    0 -0.00000000000E+00  0.00000000000E+00  0.30287443209E+03  0.30287443209E+03  0.00000000000E+00 0.  1.
          2   -1    0    0  502    0  0.00000000000E+00 -0.00000000000E+00 -0.20742638513E+04  0.20742638513E+04  0.00000000000E+00 0. -1.
        -13    1    1    2    0    0  0.19178602156E+01 -0.61869111514E+02  0.28242166088E+03  0.28912535490E+03  0.10566000000E+00 0.  1.
         13    1    1    2    0    0  0.85533165928E+00  0.35311060765E+02 -0.47541247362E+01  0.35640082360E+02  0.10566000000E+00 0. -1.
          2    1    1    2  501    0 -0.16721138046E+01  0.51433553304E+02 -0.19325391610E+04  0.19332242020E+04  0.00000000000E+00 0. -1.
          4    1    1    2  502    0 -0.11010780702E+01 -0.24875502555E+02 -0.11651779431E+03  0.11914864410E+03  0.00000000000E+00 0.  1.
</event>
<event>
 6    1  0.9434649E-006  0.3091474E+03  0.7818608E-02  0.1003599E+00
          2   -1    0    0  501    0  0.00000000000E+00  0.00000000000E+00  0.22170756128E+04  0.22170756128E+04  0.00000000000E+00 0. -1.
         -4   -1    0    0    0  501 -0.00000000000E+00 -0.00000000000E+00 -0.19861479601E+02  0.19861479601E+02  0.00000000000E+00 0. -1.
        -13    1    1    2    0    0  0.31060782542E+02 -0.76396441554E+02  0.26154889823E+03  0.27424264041E+03  0.10566000000E+00 0.  1.
         13    1    1    2    0    0 -0.11448712494E+03  0.11343179959E+03  0.54020157094E+03  0.56373027535E+03  0.10566000000E+00 0. -1.
          2    1    1    2  502    0  0.57971314767E+02 -0.77106524346E+01  0.95656338045E+03  0.95834942913E+03  0.00000000000E+00 0. -1.
         -4    1    1    2    0  502  0.25455027629E+02 -0.29324705605E+02  0.43890028359E+03  0.44061474752E+03  0.00000000000E+00 0. -1.
</event>
<event>
 7    1  0.9434649E-006  0.1121092E+04  0.7818608E-02  0.8847468E-01
          4   -1    0    0  501    0 -0.00000000000E+00  0.00000000000E+00  0.11236514112E+04  0.11236514112E+04  0.00000000000E+00 0.  1.
          2   -1    0    0  502    0  0.00000000000E+00 -0.00000000000E+00 -0.98615565079E+03  0.98615565079E+03  0.00000000000E+00 0.  1.
    9000010    2    1    2  502    0  0.10224345172E+03  0.66617489129E+03  0.26453483427E+03  0.12283750038E+04  0.99231233095E+03 0.  0.
        -13    1    3    3    0    0  0.44933487678E+03  0.64231340947E+03  0.36721291092E+03  0.86562906639E+03  0.10566000000E+00 0.  1.
         13    1    1    2    0    0 -0.18258486512E+03 -0.43661355981E+03  0.16517055534E+03  0.50124839860E+03  0.10566000000E+00 0. -1.
          2    1    1    2  501    0  0.80341413400E+02 -0.22956133148E+03 -0.29220962921E+03  0.38018365960E+03  0.00000000000E+00 0.  1.
          4    1    3    3  502    0 -0.34709142505E+03  0.23861481817E+02 -0.10267807666E+03  0.36274593738E+03  0.00000000000E+00 0.  1.
</event>
<event>
 7    1  0.9434649E-006  0.1049173E+04  0.7818608E-02  0.9125944E-01
         -4   -1    0    0    0  501 -0.00000000000E+00  0.00000000000E+00  0.48141206464E+03  0.48141206464E+03  0.00000000000E+00 0. -1.
          2   -1    0    0  501    0  0.00000000000E+00 -0.00000000000E+00 -0.16698359363E+04  0.16698359363E+04  0.00000000000E+00 0.  1.
   -9000010    2    1    2    0  502 -0.29760296426E+03 -0.93886434392E+02 -0.58642803887E+03  0.11930280312E+04  0.99097722054E+03 0.  0.
        -13    1    1    2    0    0  0.80138612420E+02 -0.18921243813E+03  0.53046040199E+02  0.21222025702E+03  0.10566000000E+00 0.  1.
         13    1    3    3    0    0  0.17962139666E+03  0.11262611217E+03 -0.63626188044E+03  0.67065466445E+03  0.10566000000E+00 0. -1.
          2    1    1    2  502    0  0.21746435184E+03  0.28309887253E+03 -0.65504187302E+03  0.74599971271E+03  0.00000000000E+00 0.  1.
         -4    1    3    3    0  502 -0.47722436093E+03 -0.20651254657E+03  0.49833841579E+02  0.52237336678E+03  0.00000000000E+00 0. -1.
</event>
<event>
 7    1  0.9434649E-006  0.1030913E+04  0.7818608E-02  0.9112959E-01
         -4   -1    0    0    0  501 -0.00000000000E+00  0.00000000000E+00  0.99968818930E+03  0.99968818930E+03  0.00000000000E+00 0. -1.
          2   -1    0    0  501    0  0.00000000000E+00 -0.00000000000E+00 -0.35132166724E+04  0.35132166724E+04  0.00000000000E+00 0. -1.
   -9000010    2    1    2    0  502  0.29328222511E+03 -0.21306894598E+03 -0.29040523384E+02  0.10618966330E+04  0.99768144607E+03 0.  0.
        -13    1    1    2    0    0 -0.34202288878E+02  0.22539338813E+03  0.45033242856E+03  0.50474873289E+03  0.10566000000E+00 0.  1.
         13    1    3    3    0    0  0.29954343920E+03 -0.58806600219E+03  0.95228611985E+02  0.66679561682E+03  0.10566000000E+00 0. -1.
          2    1    1    2  502    0 -0.25907993623E+03 -0.12324442152E+02 -0.29348203883E+04  0.29462594958E+04  0.00000000000E+00 0. -1.
         -4    1    3    3    0  502 -0.62612140873E+01  0.37499705621E+03 -0.12426913537E+03  0.39510101616E+03  0.00000000000E+00 0. -1.
</event>
<event>
 7    1  0.9434649E-006  0.9959672E+03  0.7818608E-02  0.9327893E-01
          2   -1    0    0  502    0  0.00000000000E+00  0.00000000000E+00  0.94889287675E+03  0.94889287675E+03  0.00000000000E+00 0.  1.
          4   -1    0    0  501    0 -0.00000000000E+00 -0.00000000000E+00 -0.78997737130E+03  0.78997737130E+03  0.00000000000E+00 0.  1.
    9000010    2    1    2  502    0  0.14094841378E+03  0.96747678875E+02  0.49332260625E+03  0.11190917559E+04  0.98983463047E+03 0.  0.
        -13    1    3    3    0    0  0.15549244477E+03  0.41234296151E+03  0.63492912107E+03  0.77287749238E+03  0.10566000000E+00 0.  1.
         13    1    1    2    0    0 -0.10016970454E+03 -0.45190207730E+02 -0.46272934310E+03  0.47559918073E+03  0.10566000000E+00 0. -1.
          2    1    1    2  501    0 -0.40778709248E+02 -0.51557471145E+02  0.12832224230E+03  0.14417931137E+03  0.00000000000E+00 0.  1.
          4    1    3    3  502    0 -0.14544030985E+02 -0.31559528263E+03 -0.14160651482E+03  0.34621426356E+03  0.00000000000E+00 0.  1.
</event>
<event>
 6    1  0.9434649E-006  0.9336747E+03  0.7818608E-02  0.8839536E-01
          1   -1    0    0  501    0  0.00000000000E+00  0.00000000000E+00  0.23091381407E+03  0.23091381407E+03  0.00000000000E+00 0.  1.
         -4   -1    0    0    0  501 -0.00000000000E+00 -0.00000000000E+00 -0.25602485794E+04  0.25602485794E+04  0.00000000000E+00 0. -1.
        -13    1    1    2    0    0  0.21288579469E+03 -0.24390882940E+03 -0.14990932663E+04  0.15336533216E+04  0.10566000000E+00 0.  1.
         13    1    1    2    0    0 -0.24758267003E+03  0.26019997858E+03 -0.94660437216E+03  0.10124529895E+04  0.10566000000E+00 0. -1.
          1    1    1    2  502    0  0.99528254011E+02 -0.57793213321E+02  0.12219041756E+03  0.16785835396E+03  0.00000000000E+00 0.  1.
         -4    1    1    2    0  502 -0.64831378670E+02  0.41502064141E+02 -0.58275443530E+01  0.77197728344E+02  0.00000000000E+00 0. -1.
</event>
<event>
 7    1  0.9434649E-006  0.1091573E+04  0.7818608E-02  0.9292544E-01
          2   -1    0    0  502    0  0.00000000000E+00  0.00000000000E+00  0.23938805708E+04  0.23938805708E+04  0.00000000000E+00 0.  1.
          4   -1    0    0  501    0 -0.00000000000E+00 -0.00000000000E+00 -0.86711724029E+03  0.86711724029E+03  0.00000000000E+00 0.  1.
    9000010    2    1    2  502    0 -0.21697448561E+03 -0.57229858245E+03 -0.23399588464E+03  0.11302297593E+04  0.92090262244E+03 0.  0.
        -13    1    3    3    0    0 -0.46814874131E+03 -0.63842357622E+03 -0.32390953917E+03  0.85537436682E+03  0.10566000000E+00 0.  1.
         13    1    1    2    0    0 -0.71614384739E+02  0.63648829906E+02 -0.12437817390E+03  0.15700234061E+03  0.10566000000E+00 0. -1.
          2    1    1    2  501    0  0.28858887035E+03  0.50864975254E+03  0.18851373890E+04  0.19737657111E+04  0.00000000000E+00 0.  1.
          4    1    3    3  502    0  0.25117425571E+03  0.66124993778E+02  0.89913654536E+02  0.27485539253E+03  0.00000000000E+00 0.  1.
</event>
<event>
 7    1  0.9434649E-006  0.1096043E+04  0.7818608E-02  0.8898563E-01
         -4   -1    0    0    0  501 -0.00000000000E+00  0.00000000000E+00  0.71165408112E+03  0.71165408112E+03  0.00000000000E+00 0. -1.
          2   -1    0    0  501    0  0.00000000000E+00 -0.00000000000E+00 -0.15728100364E+04  0.15728100364E+04  0.00000000000E+00 0. -1.
   -9000010    2    1    2    0  502 -0.98428196324E+02  0.39621470149E+03 -0.13040032348E+03  0.10868980050E+04  0.99883373460E+03 0.  0.
        -13    1    1    2    0    0  0.27427050904E+03 -0.39139047081E+03 -0.34204218721E+02  0.47914585724E+03  0.10566000000E+00 0.  1.
         13    1    3    3    0    0 -0.44246638010E+03  0.48281996731E+03  0.10198608652E+03  0.66279166512E+03  0.10566000000E+00 0. -1.
          2    1    1    2  502    0 -0.17584231271E+03 -0.48242306775E+01 -0.69655141303E+03  0.71842025524E+03  0.00000000000E+00 0. -1.
         -4    1    3    3    0  502  0.34403818377E+03 -0.86605265815E+02 -0.23238641000E+03  0.42410633987E+03  0.00000000000E+00 0. -1.
</event>
<event>
 6    1  0.9434649E-006  0.7937784E+03  0.7818608E-02  0.8997033E-01
          4   -1    0    0  501    0 -0.00000000000E+00  0.00000000000E+00  0.53765541308E+03  0.53765541308E+03  0.00000000000E+00 0.  1.
          2   -1    0    0  502    0  0.00000000000E+00 -0.00000000000E+00 -0.16550831684E+04  0.16550831684E+04  0.00000000000E+00 0.  1.
        -13    1    1    2    0    0  0.10476251633E+03  0.15462072981E+03  0.43571321217E+03  0.47405566059E+03  0.10566000000E+00 0.  1.
         13    1    1    2    0    0 -0.10311377632E+03 -0.18114957645E+03 -0.22663736809E+03  0.30791578019E+03  0.10566000000E+00 0. -1.
          2    1    1    2  501    0  0.18539154855E+02  0.12720434802E+00 -0.13620080306E+04  0.13621342048E+04  0.00000000000E+00 0.  1.
          4    1    1    2  502    0 -0.20187894868E+02  0.26401642291E+02  0.35504431225E+02  0.48632935871E+02  0.00000000000E+00 0.  1.
</event>
<event>
 7    1  0.9434649E-006  0.1542154E+04  0.7818608E-02  0.8456557E-01
          2   -1    0    0  501    0  0.00000000000E+00  0.00000000000E+00  0.19892128845E+04  0.19892128845E+04  0.00000000000E+00 0. -1.
         -4   -1    0    0    0  501 -0.00000000000E+00 -0.00000000000E+00 -0.34559390566E+04  0.34559390566E+04  0.00000000000E+00 0. -1.
   -9000010    2    1    2    0  502 -0.41493416854E+03  0.16716052063E+03 -0.25452612043E+04  0.27671299159E+04  0.98921199413E+03 0.  0.
        -13    1    1    2    0    0  0.23212681801E+02  0.11110108033E+04  0.55710270643E+03  0.12430797522E+04  0.10566000000E+00 0.  1.
         13    1    3    3    0    0 -0.28901013687E+03 -0.26833034760E+03 -0.20817822695E+04  0.21188075570E+04  0.10566000000E+00 0. -1.
          2    1    1    2  502    0  0.39172148674E+03 -0.12781713239E+04  0.52143232572E+03  0.14349422730E+04  0.00000000000E+00 0. -1.
         -4    1    3    3    0  502 -0.12592403167E+03  0.43549086823E+03 -0.46347893479E+03  0.64832235890E+03  0.00000000000E+00 0. -1.
</event>
<event>
 7    1  0.9434649E-006  0.1512860E+04  0.7818608E-02  0.8462825E-01
          4   -1    0    0  501    0 -0.00000000000E+00  0.00000000000E+00  0.28116115364E+04  0.28116115364E+04  0.00000000000E+00 0.  1.
          2   -1    0    0  502    0  0.00000000000E+00 -0.00000000000E+00 -0.21233763185E+04  0.21233763185E+04  0.00000000000E+00 0. -1.
    9000010    2    1    2  502    0 -0.10726970600E+04 -0.31565938476E+03  0.20552322798E+04  0.25406437850E+04  0.99023799604E+03 0.  0.
        -13    1    3    3    0    0 -0.45562721087E+03  0.28872668023E+03  0.12429761093E+04  0.13549719076E+04  0.10566000000E+00 0.  1.
         13    1    1    2    0    0  0.12048567890E+04  0.22761569881E+03 -0.23154236300E+03  0.12478383971E+04  0.10566000000E+00 0. -1.
          2    1    1    2  501    0 -0.13215972903E+03  0.88043685944E+02 -0.11354546988E+04  0.11465056728E+04  0.00000000000E+00 0. -1.
          4    1    3    3  502    0 -0.61706984909E+03 -0.60438606499E+03  0.81225617051E+03  0.11856718774E+04  0.00000000000E+00 0.  1.
</event>
<event>
 7    1  0.9434649E-006  0.1183107E+04  0.7818608E-02  0.8780177E-01
         -4   -1    0    0    0  501 -0.00000000000E+00  0.00000000000E+00  0.26718092767E+04  0.26718092767E+04  0.00000000000E+00 0. -1.
          2   -1    0    0  501    0  0.00000000000E+00 -0.00000000000E+00 -0.41617797416E+03  0.41617797416E+03  0.00000000000E+00 0. -1.
   -9000010    2    1    2    0  502 -0.44375022829E+03  0.37740981770E+02  0.80696650824E+03  0.13789736365E+04  0.10256874270E+04 0.  0.
        -13    1    1    2    0    0  0.61154109683E+03 -0.12741014253E+03  0.13650692788E+04  0.15012095139E+04  0.10566000000E+00 0.  1.
         13    1    3    3    0    0  0.26374451299E+02  0.36230283273E+03 -0.31240683745E+02  0.36460244893E+03  0.10566000000E+00 0. -1.
          2    1    1    2  502    0 -0.16779086854E+03  0.89669160757E+02  0.83595515468E+02  0.20780410045E+03  0.00000000000E+00 0. -1.
         -4    1    3    3    0  502 -0.47012467959E+03 -0.32456185096E+03  0.83820719198E+03  0.10143711876E+04  0.00000000000E+00 0. -1.
</event>
<event>
 7    1  0.9434649E-006  0.9242199E+03  0.7818608E-02  0.9433869E-01
          2   -1    0    0  502    0  0.00000000000E+00  0.00000000000E+00  0.21657653328E+04  0.21657653328E+04  0.00000000000E+00 0.  1.
          4   -1    0    0  501    0 -0.00000000000E+00 -0.00000000000E+00 -0.56717199554E+03  0.56717199554E+03  0.00000000000E+00 0.  1.
    9000010    2    1    2  502    0  0.47451386751E+03 -0.10284437256E+03  0.10123117040E+04  0.13937443642E+04  0.82583775114E+03 0.  0.
        -13    1    3    3    0    0 -0.12530999738E+03 -0.29898143052E+03  0.29462262061E+03  0.43805820501E+03  0.10566000000E+00 0.  1.
         13    1    1    2    0    0 -0.78205264237E+02  0.50448127212E+02 -0.32820738473E+03  0.34114685320E+03  0.10566000000E+00 0. -1.
          2    1    1    2  501    0 -0.39630860327E+03  0.52396245344E+02  0.91448901797E+03  0.99804611093E+03  0.00000000000E+00 0.  1.
          4    1    3    3  502    0  0.59982386489E+03  0.19613705797E+03  0.71768908337E+03  0.95568615915E+03  0.00000000000E+00 0.  1.
</event>
<event>
 7    1  0.9434649E-006  0.1010839E+04  0.7818608E-02  0.9183108E-01
         -4   -1    0    0    0  501 -0.00000000000E+00  0.00000000000E+00  0.11644972796E+04  0.11644972796E+04  0.00000000000E+00 0. -1.
          1   -1    0    0  501    0  0.00000000000E+00 -0.00000000000E+00 -0.57535081962E+03  0.57535081962E+03  0.00000000000E+00 0. -1.
   -9000010    2    1    2    0  502  0.58404321403E+01 -0.17705460830E+03  0.38907371586E+03  0.10820375920E+04  0.99400430032E+03 0.  0.
        -13    1    1    2    0    0 -0.19942105719E+02  0.18303260838E+03  0.40889107898E+03  0.44843120871E+03  0.10566000000E+00 0.  1.
         13    1    3    3    0    0  0.28588928452E+03  0.32586420717E+03  0.14973075906E+03  0.45862781849E+03  0.10566000000E+00 0. -1.
          1    1    1    2  502    0  0.14101673579E+02 -0.59780000866E+01 -0.20881833487E+03  0.20937929855E+03  0.00000000000E+00 0. -1.
         -4    1    3    3    0  502 -0.28004885238E+03 -0.50291881547E+03  0.23934295680E+03  0.62340977346E+03  0.00000000000E+00 0. -1.
</event>
<event>
 7    1  0.9434649E-006  0.7947623E+03  0.7818608E-02  0.9305865E-01
          1   -1    0    0  501    0  0.00000000000E+00  0.00000000000E+00  0.22122714613E+03  0.22122714613E+03  0.00000000000E+00 0. -1.
         -4   -1    0    0    0  501 -0.00000000000E+00 -0.00000000000E+00 -0.19498278609E+04  0.19498278609E+04  0.00000000000E+00 0. -1.
   -9000010    2    1    2    0  502  0.20070166703E+03 -0.13085609111E+01 -0.66847922347E+03  0.10310640389E+04  0.75891087000E+03 0.  0.
        -13    1    1    2    0    0 -0.23514759673E+03  0.41564701672E+02 -0.10604548382E+04  0.10870080458E+04  0.10566000000E+00 0.  1.
         13    1    3    3    0    0 -0.25510066523E+03  0.15983095481E+03 -0.27485652486E+03  0.40763758896E+03  0.10566000000E+00 0. -1.
          1    1    1    2  502    0  0.34445929708E+02 -0.40256140761E+02  0.33334683554E+00  0.52982922367E+02  0.00000000000E+00 0. -1.
         -4    1    3    3    0  502  0.45580233225E+03 -0.16113951572E+03 -0.39362269861E+03  0.62342644993E+03  0.00000000000E+00 0. -1.
</event>
<event>
 7    1  0.9434649E-006  0.1141415E+04  0.7818608E-02  0.8828463E-01
          2   -1    0    0  502    0  0.00000000000E+00  0.00000000000E+00  0.18571509060E+04  0.18571509060E+04  0.00000000000E+00 0.  1.
          4   -1    0    0  501    0 -0.00000000000E+00 -0.00000000000E+00 -0.59211259481E+03  0.59211259481E+03  0.00000000000E+00 0.  1.
    9000010    2    1    2  502    0 -0.47522758941E+03  0.57684799725E+03  0.66819576543E+03  0.14217193797E+04  0.10080702059E+04 0.  0.
        -13    1    3    3    0    0 -0.46591822990E+02  0.77938434763E+03  0.42232541260E+03  0.88767647518E+03  0.10566000000E+00 0.  1.
         13    1    1    2    0    0  0.28027502229E+03 -0.37939654792E+03  0.13824573275E+03  0.49153608462E+03  0.10566000000E+00 0. -1.
          2    1    1    2  501    0  0.19495256712E+03 -0.19745144934E+03  0.45859681304E+03  0.53600803651E+03  0.00000000000E+00 0.  1.
          4    1    3    3  502    0 -0.42863576642E+03 -0.20253635038E+03  0.24587035283E+03  0.53404290453E+03  0.00000000000E+00 0.  1.
</event>
<event>
 6    1  0.9434649E-006  0.3938388E+03  0.7818608E-02  0.9747010E-01
          4   -1    0    0  501    0  0.00000000000E+00  0.00000000000E+00  0.38595682895E+03  0.38595682895E+03  0.00000000000E+00 0. -1.
         -4   -1    0    0    0  501 -0.00000000000E+00 -0.00000000000E+00 -0.52212478008E+03  0.52212478008E+03  0.00000000000E+00 0. -1.
        -13    1    1    2    0    0  0.25735136712E+02  0.91938040732E+02 -0.13089104498E+03  0.16201042378E+03  0.10566000000E+00 0.  1.
         13    1    1    2    0    0 -0.45494436502E+02 -0.21072337869E+03 -0.32192155118E+03  0.38743719796E+03  0.10566000000E+00 0. -1.
          4    1    1    2  502    0 -0.10476368567E+02  0.12409198569E+03  0.29735280949E+03  0.32237752484E+03  0.00000000000E+00 0. -1.
         -4    1    1    2    0  502  0.30235668356E+02 -0.53066477269E+01  0.19291835539E+02  0.36256462452E+02  0.00000000000E+00 0. -1.
</event>
<event>
 7    1  0.9434649E-006  0.1200943E+04  0.7818608E-02  0.8723487E-01
         -4   -1    0    0    0  502 -0.00000000000E+00  0.00000000000E+00  0.30270196674E+04  0.30270196674E+04  0.00000000000E+00 0. -1.
         -2   -1    0    0    0  501  0.00000000000E+00 -0.00000000000E+00 -0.12153377034E+04  0.12153377034E+04  0.00000000000E+00 0. -1.
   -9000010    2    1    2    0  501 -0.34507799985E+03  0.61767822853E+03  0.50725810381E+03  0.12976424552E+04  0.96226812147E+03 0.  0.
        -13    1    1    2    0    0  0.35394636459E+03 -0.62727564739E+03  0.20634694269E+04  0.21855568750E+04  0.10566000000E+00 0.  1.
         13    1    3    3    0    0 -0.60843232993E+03  0.66143817990E+03  0.50455621355E+03  0.10306635483E+04  0.10566000000E+00 0. -1.
         -2    1    1    2    0  502 -0.88683647438E+01  0.95974188580E+01 -0.75904556672E+03  0.75915804066E+03  0.00000000000E+00 0. -1.
         -4    1    3    3    0  501  0.26335433009E+03 -0.43759951370E+02  0.27018902600E+01  0.26697890690E+03  0.00000000000E+00 0. -1.
</event>
<event>
 7    1  0.9434649E-006  0.1095913E+04  0.7818608E-02  0.9007572E-01
          4   -1    0    0  501    0 -0.00000000000E+00  0.00000000000E+00  0.94226381072E+03  0.94226381072E+03  0.00000000000E+00 0.  1.
          2   -1    0    0  502    0  0.00000000000E+00 -0.00000000000E+00 -0.11380972031E+04  0.11380972031E+04  0.00000000000E+00 0.  1.
    9000010    2    1    2  502    0 -0.26782311687E+02  0.24552605519E+03  0.32850104866E+03  0.11341936163E+04  0.10571101571E+04 0.  0.
        -13    1    3    3    0    0 -0.10348513926E+03 -0.37675075220E+03  0.32340062040E+03  0.50718662815E+03  0.10566000000E+00 0.  1.
         13    1    1    2    0    0  0.38500465143E+03 -0.13797716459E+03 -0.22276295916E+03  0.46571410405E+03  0.10566000000E+00 0. -1.
          2    1    1    2  501    0 -0.35822233975E+03 -0.10754889059E+03 -0.30157148189E+03  0.48045329352E+03  0.00000000000E+00 0.  1.
          4    1    3    3  502    0  0.76702827576E+02  0.62227680739E+03  0.51004282622E+01  0.62700698811E+03  0.00000000000E+00 0.  1.
</event>
<event>
 6    1  0.9434649E-006  0.1438717E+04  0.7818608E-02  0.8445665E-01
          2   -1    0    0  501    0  0.00000000000E+00  0.00000000000E+00  0.17314688900E+04  0.17314688900E+04  0.00000000000E+00 0.  1.
         -4   -1    0    0    0  501 -0.00000000000E+00 -0.00000000000E+00 -0.18795142965E+04  0.18795142965E+04  0.00000000000E+00 0. -1.
        -13    1    1    2    0    0 -0.68791046555E+02  0.20563807002E+03 -0.10666895410E+04  0.10885062297E+04  0.10566000000E+00 0.  1.
         13    1    1    2    0    0  0.70566633784E+02  0.22749990832E+03 -0.11478347230E+03  0.26440710045E+03  0.10566000000E+00 0. -1.
          2    1    1    2  502    0 -0.64649042354E+03 -0.34368762130E+03  0.13488695132E+04  0.15347703452E+04  0.00000000000E+00 0.  1.
         -4    1    1    2    0  502  0.64471483631E+03 -0.89450357044E+02 -0.31544190638E+03  0.72329951115E+03  0.00000000000E+00 0. -1.
</event>
<event>
 6    1  0.9434649E-006  0.6511664E+03  0.7818608E-02  0.9196997E-01
          2   -1    0    0  501    0  0.00000000000E+00  0.00000000000E+00  0.50869622404E+03  0.50869622404E+03  0.00000000000E+00 0.  1.
         -4   -1    0    0    0  501 -0.00000000000E+00 -0.00000000000E+00 -0.16429800616E+04  0.16429800616E+04  0.00000000000E+00 0. -1.
        -13    1    1    2    0    0 -0.22204765675E+03 -0.99876139531E+02 -0.91303209794E+03  0.94493810810E+03  0.10566000000E+00 0.  1.
         13    1    1    2    0    0  0.23714125036E+03  0.60979416075E+02 -0.68301305694E+03  0.72557653554E+03  0.10566000000E+00 0. -1.
          2    1    1    2  502    0 -0.19109827116E+02  0.69993266847E+01  0.44393435614E+03  0.44440059477E+03  0.00000000000E+00 0.  1.
         -4    1    1    2    0  502  0.40162335034E+01  0.31897396770E+02  0.17826961142E+02  0.36761047263E+02  0.00000000000E+00 0. -1.
</event>
<event>
 7    1  0.9434649E-006  0.1044162E+04  0.7818608E-02  0.9176769E-01
          4   -1    0    0  501    0 -0.00000000000E+00  0.00000000000E+00  0.26466801376E+04  0.26466801376E+04  0.00000000000E+00 0.  1.
          2   -1    0    0  502    0  0.00000000000E+00 -0.00000000000E+00 -0.40849884011E+03  0.40849884011E+03  0.00000000000E+00 0.  1.
    9000010    2    1    2  502    0 -0.10351425172E+03 -0.13819484335E+03  0.18729538924E+04  0.21444946257E+04  0.10300912103E+04 0.  0.
        -13    1    3    3    0    0  0.22848539313E+03 -0.97224596390E+02  0.65995328467E+01  0.24839839374E+03  0.10566000000E+00 0.  1.
         13    1    1    2    0    0  0.70402650556E+02  0.15584387428E+03  0.62512437087E+03  0.64809284564E+03  0.10566000000E+00 0. -1.
          2    1    1    2  501    0  0.33111601160E+02 -0.17649030932E+02 -0.25989696576E+03  0.26259150641E+03  0.00000000000E+00 0.  1.
          4    1    3    3  502    0 -0.33199964484E+03 -0.40970246957E+02  0.18663543596E+04  0.18960962319E+04  0.00000000000E+00 0.  1.
</event>
<event>
 7    1  0.9434649E-006  0.1053482E+04  0.7818608E-02  0.9027177E-01
          4   -1    0    0  501    0 -0.00000000000E+00  0.00000000000E+00  0.14817315785E+04  0.14817315785E+04  0.00000000000E+00 0.  1.
          2   -1    0    0  502    0  0.00000000000E+00 -0.00000000000E+00 -0.13175499512E+04  0.13175499512E+04  0.00000000000E+00 0. -1.
    9000010    2    1    2  502    0  0.25747596805E+03  0.75783715155E+02  0.78961159965E+03  0.13095590006E+04  0.10096639303E+04 0.  0.
        -13    1    3    3    0    0  0.60279057939E+03  0.19094668660E+03  0.68189249026E+03  0.92994327739E+03  0.10566000000E+00 0.  1.
         13    1    1    2    0    0 -0.30558188874E+03 -0.39325644251E+02  0.37620615032E+03  0.48626934484E+03  0.10566000000E+00 0. -1.
          2    1    1    2  501    0  0.48105920692E+02 -0.36458070904E+02 -0.10016361227E+04  0.10034531842E+04  0.00000000000E+00 0. -1.
          4    1    3    3  502    0 -0.34531461134E+03 -0.11516297145E+03  0.10771910940E+03  0.37961572324E+03  0.00000000000E+00 0.  1.
</event>
<event>
 7    1  0.9434649E-006  0.1056377E+04  0.7818608E-02  0.9019163E-01
          2   -1    0    0  501    0  0.00000000000E+00  0.00000000000E+00  0.32088771883E+03  0.32088771883E+03  0.00000000000E+00 0. -1.
         -4   -1    0    0    0  501 -0.00000000000E+00 -0.00000000000E+00 -0.42297968931E+04  0.42297968931E+04  0.00000000000E+00 0. -1.
   -9000010    2    1    2    0  502  0.21252662619E+03 -0.34743532519E+03 -0.25550825423E+04  0.27776618429E+04  0.10104848556E+04 0.  0.
        -13    1    1    2    0    0 -0.50354255303E+02  0.29392917226E+03 -0.15114734196E+04  0.15406108589E+04  0.10566000000E+00 0.  1.
         13    1    3    3    0    0  0.48716435723E+03 -0.32513851614E+03 -0.74965479973E+03  0.95132880518E+03  0.10566000000E+00 0. -1.
          2    1    1    2  502    0 -0.16217237089E+03  0.53506152934E+02  0.15764678766E+03  0.23241191007E+03  0.00000000000E+00 0. -1.
         -4    1    3    3    0  502 -0.27463773104E+03 -0.22296809047E+02 -0.18054277426E+04  0.18263330378E+04  0.00000000000E+00 0. -1.
</event>
<event>
 7    1  0.9434649E-006  0.1294769E+04  0.7818608E-02  0.8638872E-01
          4   -1    0    0  501    0 -0.00000000000E+00  0.00000000000E+00  0.33092721462E+04  0.33092721462E+04  0.00000000000E+00 0.  1.
          2   -1    0    0  502    0  0.00000000000E+00 -0.00000000000E+00 -0.91732482126E+03  0.91732482126E+03  0.00000000000E+00 0. -1.
    9000010    2    1    2  502    0  0.80629255884E+03 -0.15841860375E+03  0.16989596419E+04  0.21334846154E+04  0.99503195679E+03 0.  0.
        -13    1    3    3    0    0  0.99396063103E+03 -0.30998943006E+03  0.12794154624E+04  0.16495317880E+04  0.10566000000E+00 0.  1.
         13    1    1    2    0    0 -0.84054244249E+03 -0.17073189178E+03  0.12076471601E+04  0.14812402408E+04  0.10566000000E+00 0. -1.
          2    1    1    2  501    0  0.34249883652E+02  0.32915049553E+03 -0.51465947703E+03  0.61187211126E+03  0.00000000000E+00 0. -1.
          4    1    3    3  502    0 -0.18766807219E+03  0.15157082631E+03  0.41954417944E+03  0.48395282746E+03  0.00000000000E+00 0.  1.
</event>
<event>
 7    1  0.9434649E-006  0.1546457E+04  0.7818608E-02  0.8817843E-01
          1   -1    0    0  501    0  0.00000000000E+00  0.00000000000E+00  0.11646936132E+04  0.11646936132E+04  0.00000000000E+00 0. -1.
         -4   -1    0    0    0  501 -0.00000000000E+00 -0.00000000000E+00 -0.23564575935E+04  0.23564575935E+04  0.00000000000E+00 0. -1.
   -9000010    2    1    2    0  502  0.85171308887E+03 -0.72169494115E+03 -0.34673213429E+02  0.15191093869E+04  0.10296758343E+04 0.  0.
        -13    1    1    2    0    0 -0.83128291607E+02 -0.20920166835E+03 -0.65855628899E+03  0.69596842446E+03  0.10566000000E+00 0.  1.
         13    1    3    3    0    0  0.45989146739E+03  0.15167397468E+03  0.21501554393E+03  0.52984606413E+03  0.10566000000E+00 0. -1.
          1    1    1    2  502    0 -0.76858479727E+03  0.93089660951E+03 -0.49853447787E+03  0.13060733953E+04  0.00000000000E+00 0. -1.
         -4    1    3    3    0  502  0.39182162148E+03 -0.87336891584E+03 -0.24968875736E+03  0.98926332276E+03  0.00000000000E+00 0. -1.
</event>
<event>
 7    1  0.9434649E-006  0.1028972E+04  0.7818608E-02  0.9161698E-01
         -4   -1    0    0    0  501 -0.00000000000E+00  0.00000000000E+00  0.91984999145E+03  0.91984999145E+03  0.00000000000E+00 0. -1.
          2   -1    0    0  501    0  0.00000000000E+00 -0.00000000000E+00 -0.99231941802E+03  0.99231941802E+03  0.00000000000E+00 0. -1.
   -9000010    2    1    2    0  502  0.71999549933E+02 -0.21699572463E+03  0.25483329339E+03  0.10677772992E+04  0.10114036155E+04 0.  0.
        -13    1    1    2    0    0  0.43566102044E+00  0.18692682183E+03  0.22160210146E+03  0.28991262314E+03  0.10566000000E+00 0.  1.
         13    1    3    3    0    0  0.26852794149E+03 -0.36939421619E+03  0.52817427104E+03  0.69823163354E+03  0.10566000000E+00 0. -1.
          2    1    1    2  502    0 -0.72435210954E+02  0.30068902794E+02 -0.54890482142E+03  0.55447948716E+03  0.00000000000E+00 0. -1.
         -4    1    3    3    0  502 -0.19652839155E+03  0.15239849156E+03 -0.27334097766E+03  0.36954566563E+03  0.00000000000E+00 0. -1.
</event>
<event>
 7    1  0.9434649E-006  0.1012661E+04  0.7818608E-02  0.9191343E-01
          2   -1    0    0  501    0  0.00000000000E+00  0.00000000000E+00  0.74612844115E+03  0.74612844115E+03  0.00000000000E+00 0. -1.
         -4   -1    0    0    0  501 -0.00000000000E+00 -0.00000000000E+00 -0.77633737097E+03  0.77633737097E+03  0.00000000000E+00 0. -1.
   -9000010    2    1    2    0  502  0.54505608514E+02 -0.13836049475E+03  0.36810422322E+03  0.10732093502E+04  0.99707728005E+03 0.  0.
        -13    1    1    2    0    0 -0.58744031910E+02  0.16785991003E+03 -0.33497952917E+03  0.37926126458E+03  0.10566000000E+00 0.  1.
         13    1    3    3    0    0 -0.33376156712E+03 -0.13350779070E+03 -0.17958747656E+03  0.40183676632E+03  0.10566000000E+00 0. -1.
          2    1    1    2  502    0  0.42384233959E+01 -0.29499415284E+02 -0.63333623862E+02  0.69995197311E+02  0.00000000000E+00 0. -1.
         -4    1    3    3    0  502  0.38826717564E+03 -0.48527040495E+01  0.54769169978E+03  0.67137258391E+03  0.00000000000E+00 0. -1.
</event>
<event>
 7    1  0.9434649E-006  0.1008430E+04  0.7818608E-02  0.9157684E-01
          4   -1    0    0  501    0 -0.00000000000E+00  0.00000000000E+00  0.13330779686E+04  0.13330779686E+04  0.00000000000E+00 0.  1.
          2   -1    0    0  502    0  0.00000000000E+00 -0.00000000000E+00 -0.87458238582E+03  0.87458238582E+03  0.00000000000E+00 0.  1.
    9000010    2    1    2  502    0 -0.16719502698E+03 -0.11270006611E+02  0.83439347543E+03  0.13036412738E+04  0.98751552334E+03 0.  0.
        -13    1    3    3    0    0 -0.30961344697E+03  0.34100334085E+03  0.92044240890E+02  0.46969768837E+03  0.10566000000E+00 0.  1.
         13    1    1    2    0    0  0.17021852601E+03 -0.13905968650E+03  0.20706763135E+03  0.30197509520E+03  0.10566000000E+00 0. -1.
          2    1    1    2  501    0 -0.30234990232E+01  0.15032969311E+03 -0.58296552401E+03  0.60204398540E+03  0.00000000000E+00 0.  1.
          4    1    3    3  502    0  0.14241841998E+03 -0.35227334746E+03  0.74234923454E+03  0.83394358545E+03  0.00000000000E+00 0.  1.
</event>
<event>
 7    1  0.9434649E-006  0.1069134E+04  0.7818608E-02  0.8962647E-01
         -4   -1    0    0    0  501 -0.00000000000E+00  0.00000000000E+00  0.19934623210E+04  0.19934623210E+04  0.00000000000E+00 0. -1.
          2   -1    0    0  501    0  0.00000000000E+00 -0.00000000000E+00 -0.86435512130E+03  0.86435512130E+03  0.00000000000E+00 0. -1.
   -9000010    2    1    2    0  502  0.32357724054E+03  0.24359594719E+02 -0.12957919932E+03  0.10609232547E+04  0.10017343775E+04 0.  0.
        -13    1    1    2    0    0 -0.36597835615E+03  0.86693539556E+02  0.14900474784E+04  0.15367815154E+04  0.10566000000E+00 0.  1.
         13    1    3    3    0    0 -0.36449406825E+03  0.53462641308E+00 -0.43846743373E+02  0.36712226803E+03  0.10566000000E+00 0. -1.
          2    1    1    2  502    0  0.42401115613E+02 -0.11105313428E+03 -0.23136107934E+03  0.26011267226E+03  0.00000000000E+00 0. -1.
         -4    1    3    3    0  502  0.68807130879E+03  0.23824968306E+02 -0.85732455952E+02  0.69380098667E+03  0.00000000000E+00 0. -1.
</event>
<event>
 7    1  0.9434649E-006  0.1088649E+04  0.7818608E-02  0.8918100E-01
          2   -1    0    0  501    0  0.00000000000E+00  0.00000000000E+00  0.10198900182E+04  0.10198900182E+04  0.00000000000E+00 0.  1.
         -4   -1    0    0    0  501 -0.00000000000E+00 -0.00000000000E+00 -0.23242020620E+04  0.23242020620E+04  0.00000000000E+00 0. -1.
   -9000010    2    1    2    0  502  0.26217820177E+02 -0.29441081752E+03 -0.54842599174E+03  0.11801808784E+04  0.10023426230E+04 0.  0.
        -13    1    1    2    0    0 -0.18389526634E+03  0.39996420780E+03 -0.14129815184E+04  0.14799681142E+04  0.10566000000E+00 0.  1.
         13    1    3    3    0    0  0.43201626876E+03 -0.21515588001E+03 -0.59270748855E+03  0.76435089280E+03  0.10566000000E+00 0. -1.
          2    1    1    2  502    0  0.15767744616E+03 -0.10555339028E+03  0.65709546632E+03  0.68394308761E+03  0.00000000000E+00 0.  1.
         -4    1    3    3    0  502 -0.40579844859E+03 -0.79254937504E+02  0.44281496810E+02  0.41582998564E+03  0.00000000000E+00 0. -1.
</event>
<event>
 7    1  0.9434649E-006  0.1344765E+04  0.7818608E-02  0.8599827E-01
         -4   -1    0    0    0  501 -0.00000000000E+00  0.00000000000E+00  0.18716922221E+04  0.18716922221E+04  0.00000000000E+00 0. -1.
          2   -1    0    0  501    0  0.00000000000E+00 -0.00000000000E+00 -0.23775045677E+04  0.23775045677E+04  0.00000000000E+00 0. -1.
   -9000010    2    1    2    0  502 -0.12605454976E+04  0.46720025394E+03 -0.24338167842E+03  0.17038501556E+04  0.10181452168E+04 0.  0.
        -13    1    1    2    0    0  0.58457828235E+03 -0.57122133473E+03  0.88805591159E+03  0.12069253890E+04  0.10566000000E+00 0.  1.
         13    1    3    3    0    0 -0.59924791102E+03 -0.60911676158E+02  0.32498079664E+03  0.68441275595E+03  0.10566000000E+00 0. -1.
          2    1    1    2  502    0  0.67596721529E+03  0.10402108078E+03 -0.11504865788E+04  0.13384212451E+04  0.00000000000E+00 0. -1.
         -4    1    3    3    0  502 -0.66129758662E+03  0.52811193010E+03 -0.56836247506E+03  0.10194373997E+04  0.00000000000E+00 0. -1.
</event>
<event>
 7    1  0.9434649E-006  0.1195616E+04  0.7818608E-02  0.8832582E-01
         -4   -1    0    0    0  501 -0.00000000000E+00  0.00000000000E+00  0.41044625546E+03  0.41044625546E+03  0.00000000000E+00 0. -1.
          1   -1    0    0  501    0  0.00000000000E+00 -0.00000000000E+00 -0.29665808789E+04  0.29665808789E+04  0.00000000000E+00 0. -1.
   -9000010    2    1    2    0  502 -0.58511971391E+03 -0.86047716515E+02 -0.17965232665E+04  0.21902441860E+04  0.11044928510E+04 0.  0.
        -13    1    1    2    0    0  0.39366302737E+03  0.20647524729E+03 -0.56396418962E+02  0.44808835524E+03  0.10566000000E+00 0.  1.
         13    1    3    3    0    0 -0.14049955432E+03  0.33930768141E+03 -0.92768299983E+02  0.37878199017E+03  0.10566000000E+00 0. -1.
          1    1    1    2  502    0  0.19145668654E+03 -0.12042753078E+03 -0.70321493798E+03  0.73869459318E+03  0.00000000000E+00 0. -1.
         -4    1    3    3    0  502 -0.44462015958E+03 -0.42535539792E+03 -0.17037549665E+04  0.18114621958E+04  0.00000000000E+00 0. -1.
</event>
<event>
 7    1  0.9434649E-006  0.1013695E+04  0.7818608E-02  0.9281137E-01
         -4   -1    0    0    0  502 -0.00000000000E+00  0.00000000000E+00  0.44201265156E+03  0.44201265156E+03  0.00000000000E+00 0. -1.
         -2   -1    0    0    0  501  0.00000000000E+00 -0.00000000000E+00 -0.33249180642E+04  0.33249180642E+04  0.00000000000E+00 0.  1.
   -9000010    2    1    2    0  501  0.11649918487E+00  0.22695225492E+03 -0.46658138092E+03  0.11318894254E+04  0.10059662751E+04 0.  0.
        -13    1    1    2    0    0 -0.22324953955E+02 -0.11870076344E+03  0.74406045793E+02  0.14186100812E+03  0.10566000000E+00 0.  1.
         13    1    3    3    0    0  0.85902892241E+02  0.60481666811E+03 -0.14380989688E+03  0.62758569656E+03  0.10566000000E+00 0. -1.
         -2    1    1    2    0  502  0.22208454770E+02 -0.10825149148E+03 -0.24907300775E+04  0.24931802823E+04  0.00000000000E+00 0.  1.
         -4    1    3    3    0  501 -0.85786393056E+02 -0.37786441319E+03 -0.32277148404E+03  0.50430372882E+03  0.00000000000E+00 0. -1.
</event>
<event>
 6    1  0.9434649E-006  0.5042202E+03  0.7818608E-02  0.9468770E-01
         -4   -1    0    0    0  501 -0.00000000000E+00  0.00000000000E+00  0.14444115891E+04  0.14444115891E+04  0.00000000000E+00 0. -1.
          4   -1    0    0  501    0  0.00000000000E+00 -0.00000000000E+00 -0.11792286831E+04  0.11792286831E+04  0.00000000000E+00 0. -1.
        -13    1    1    2    0    0 -0.78528215772E+02 -0.19338773319E+03  0.44301758235E+03  0.48972449955E+03  0.10566000000E+00 0.  1.
         13    1    1    2    0    0  0.12431064650E+03  0.23337827627E+03  0.94895441683E+03  0.98510560503E+03  0.10566000000E+00 0. -1.
          4    1    1    2  502    0 -0.35618859675E+02 -0.42005320695E+02 -0.11345366150E+04  0.11358725636E+04  0.00000000000E+00 0. -1.
         -4    1    1    2    0  502 -0.10163571056E+02  0.20147776200E+01  0.77475217617E+01  0.12937604064E+02  0.00000000000E+00 0. -1.
</event>
<event>
 7    1  0.9434649E-006  0.1028359E+04  0.7818608E-02  0.9061130E-01
          2   -1    0    0  501    0  0.00000000000E+00  0.00000000000E+00  0.97328400523E+03  0.97328400523E+03  0.00000000000E+00 0. -1.
         -4   -1    0    0    0  501 -0.00000000000E+00 -0.00000000000E+00 -0.15780917327E+04  0.15780917327E+04  0.00000000000E+00 0. -1.
   -9000010    2    1    2    0  502  0.19428906509E+03  0.20943873385E+03  0.11162093292E+03  0.10353701208E+04  0.98889798778E+03 0.  0.
        -13    1    1    2    0    0 -0.21939811260E+03 -0.17735821939E+03 -0.10972873115E+04  0.11329743708E+04  0.10566000000E+00 0.  1.
         13    1    3    3    0    0 -0.17850617931E+03  0.46799859043E+03  0.25167509386E+03  0.56055998852E+03  0.10566000000E+00 0. -1.
          2    1    1    2  502    0  0.25109047514E+02 -0.32080514469E+02  0.38085865103E+03  0.38303124643E+03  0.00000000000E+00 0. -1.
         -4    1    3    3    0  502  0.37279524440E+03 -0.25855985657E+03 -0.14005416094E+03  0.47481013224E+03  0.00000000000E+00 0. -1.
</event>
<event>
 7    1  0.9434649E-006  0.1091599E+04  0.7818608E-02  0.8921118E-01
          4   -1    0    0  501    0  0.00000000000E+00  0.00000000000E+00  0.18759528553E+04  0.18759528553E+04  0.00000000000E+00 0.  1.
         -4   -1    0    0    0  501 -0.00000000000E+00 -0.00000000000E+00 -0.60628685968E+03  0.60628685968E+03  0.00000000000E+00 0. -1.
   -9000010    2    1    2    0  502 -0.15545056772E+03  0.23185992222E+03  0.47554906121E+03  0.11499835712E+04  0.10091538048E+04 0.  0.
        -13    1    1    2    0    0  0.12996878569E+03 -0.43327595319E+03 -0.58213564330E+02  0.45607978151E+03  0.10566000000E+00 0.  1.
         13    1    3    3    0    0 -0.32296517826E+03 -0.28939308947E+03  0.41310647187E+03  0.59892556705E+03  0.10566000000E+00 0. -1.
          4    1    1    2  502    0  0.25481782024E+02  0.20141603096E+03  0.85233049872E+03  0.87617636227E+03  0.00000000000E+00 0.  1.
         -4    1    3    3    0  502  0.16751461054E+03  0.52125301170E+03  0.62442589338E+02  0.55105800413E+03  0.00000000000E+00 0. -1.
</event>
<event>
 7    1  0.9434649E-006  0.1119268E+04  0.7818608E-02  0.9079144E-01
         -4   -1    0    0    0  501 -0.00000000000E+00  0.00000000000E+00  0.95892963029E+03  0.95892963029E+03  0.00000000000E+00 0. -1.
          2   -1    0    0  501    0  0.00000000000E+00 -0.00000000000E+00 -0.18872937042E+04  0.18872937042E+04  0.00000000000E+00 0. -1.
   -9000010    2    1    2    0  502  0.54421624805E+03  0.42676004417E+03 -0.41041403336E+03  0.12772349392E+04  0.99226707650E+03 0.  0.
        -13    1    1    2    0    0 -0.13066035634E+03 -0.15623742715E+03  0.44346685752E+03  0.48800115497E+03  0.10566000000E+00 0.  1.
         13    1    3    3    0    0 -0.45704372076E+02  0.38618472543E+03  0.19148930924E+03  0.43346937435E+03  0.10566000000E+00 0. -1.
          2    1    1    2  502    0 -0.41355589171E+03 -0.27052261702E+03 -0.96141689805E+03  0.10809872403E+04  0.00000000000E+00 0. -1.
         -4    1    3    3    0  502  0.58992062013E+03  0.40575318744E+02 -0.60190334260E+03  0.84376556482E+03  0.00000000000E+00 0. -1.
</event>
<event>
 7    1  0.9434649E-006  0.1021488E+04  0.7818608E-02  0.9128867E-01
          4   -1    0    0  501    0 -0.00000000000E+00  0.00000000000E+00  0.80168694711E+03  0.80168694711E+03  0.00000000000E+00 0.  1.
          2   -1    0    0  502    0  0.00000000000E+00 -0.00000000000E+00 -0.61524826880E+03  0.61524826880E+03  0.00000000000E+00 0. -1.
    9000010    2    1    2  502    0  0.15191292922E+03 -0.14869486267E+03  0.30742623373E+03  0.10652187824E+04  0.99749309016E+03 0.  0.
        -13    1    3    3    0    0  0.95326284255E+02  0.35771615330E+02 -0.35809646132E+03  0.37228993501E+03  0.10566000000E+00 0.  1.
         13    1    1    2    0    0 -0.15022194790E+03  0.16387207631E+03  0.73932267493E+01  0.22243057791E+03  0.10566000000E+00 0. -1.
          2    1    1    2  501    0 -0.16909813238E+01 -0.15177213644E+02 -0.12838078217E+03  0.12928585562E+03  0.00000000000E+00 0. -1.
          4    1    3    3  502    0  0.56586644969E+02 -0.18446647800E+03  0.66552269505E+03  0.69292884737E+03  0.00000000000E+00 0.  1.
</event>
<event>
 7    1  0.9434649E-006  0.1039352E+04  0.7818608E-02  0.9091199E-01
          2   -1    0    0  501    0  0.00000000000E+00  0.00000000000E+00  0.85929447133E+03  0.85929447133E+03  0.00000000000E+00 0. -1.
         -4   -1    0    0    0  501 -0.00000000000E+00 -0.00000000000E+00 -0.24677678398E+04  0.24677678398E+04  0.00000000000E+00 0. -1.
   -9000010    2    1    2    0  502 -0.16176199601E+03 -0.18124244801E+03 -0.14737032877E+04  0.18034072561E+04  0.10106733313E+04 0.  0.
        -13    1    1    2    0    0  0.17985099326E+03  0.16274443020E+03 -0.81122262562E+03  0.84670791234E+03  0.10566000000E+00 0.  1.
         13    1    3    3    0    0 -0.29177443961E+03 -0.16670303942E+03 -0.15919705901E+04  0.16270502752E+04  0.10566000000E+00 0. -1.
          2    1    1    2  502    0 -0.18088997260E+02  0.18498017815E+02  0.67645254492E+03  0.67694714270E+03  0.00000000000E+00 0. -1.
         -4    1    3    3    0  502  0.13001244361E+03 -0.14539408591E+02  0.11826730238E+03  0.17635698088E+03  0.00000000000E+00 0. -1.
</event>
<event>
 7    1  0.9434649E-006  0.1032837E+04  0.7818608E-02  0.9164472E-01
          1   -1    0    0  501    0  0.00000000000E+00  0.00000000000E+00  0.24281849282E+04  0.24281849282E+04  0.00000000000E+00 0. -1.
         -4   -1    0    0    0  501 -0.00000000000E+00 -0.00000000000E+00 -0.62170393286E+03  0.62170393286E+03  0.00000000000E+00 0. -1.
   -9000010    2    1    2    0  502  0.18424848467E+03  0.16877624103E+03  0.10198754222E+04  0.14611754979E+04  0.10160979457E+04 0.  0.
        -13    1    1    2    0    0 -0.14951754398E+03 -0.10744383386E+03 -0.37880128977E+03  0.42117704317E+03  0.10566000000E+00 0.  1.
         13    1    3    3    0    0 -0.13013655526E+03 -0.92527771274E+02 -0.15174707671E+03  0.22028186018E+03  0.10566000000E+00 0. -1.
          1    1    1    2  502    0 -0.34730940683E+02 -0.61332407166E+02  0.11654068629E+04  0.11675363200E+04  0.00000000000E+00 0. -1.
         -4    1    3    3    0  502  0.31438503992E+03  0.26130401230E+03  0.11716224989E+04  0.12408936377E+04  0.00000000000E+00 0. -1.
</event>
<event>
 7    1  0.9434649E-006  0.1010533E+04  0.7818608E-02  0.9238915E-01
         -4   -1    0    0    0  501 -0.00000000000E+00  0.00000000000E+00  0.43051952016E+03  0.43051952016E+03  0.00000000000E+00 0. -1.
          1   -1    0    0  501    0  0.00000000000E+00 -0.00000000000E+00 -0.81676674280E+03  0.81676674280E+03  0.00000000000E+00 0. -1.
   -9000010    2    1    2    0  502  0.18763929186E+02  0.14943767280E+03 -0.25793875469E+03  0.10432778941E+04  0.99960625256E+03 0.  0.
        -13    1    1    2    0    0 -0.83912943690E+01 -0.14747104693E+03 -0.11615596332E+03  0.18791046401E+03  0.10566000000E+00 0.  1.
         13    1    3    3    0    0 -0.15345862066E+03  0.52354899368E+03 -0.31105195597E+03  0.62801785605E+03  0.10566000000E+00 0. -1.
          1    1    1    2  502    0 -0.10372634817E+02 -0.19666258730E+01 -0.12152504625E+02  0.16097904802E+02  0.00000000000E+00 0. -1.
         -4    1    3    3    0  502  0.17222254985E+03 -0.37411132088E+03  0.53113201277E+02  0.41526003810E+03  0.00000000000E+00 0. -1.
</event>
<event>
 7    1  0.9434649E-006  0.1108155E+04  0.7818608E-02  0.9526251E-01
          4   -1    0    0  501    0 -0.00000000000E+00  0.00000000000E+00  0.23922042801E+03  0.23922042801E+03  0.00000000000E+00 0.  1.
          2   -1    0    0  502    0  0.00000000000E+00 -0.00000000000E+00 -0.33670795847E+04  0.33670795847E+04  0.00000000000E+00 0.  1.
    9000010    2    1    2  502    0  0.83760914441E+02  0.48637901970E+03 -0.14669295478E+04  0.18461234938E+04  0.10063345441E+04 0.  0.
        -13    1    3    3    0    0 -0.25188274184E+03  0.21112538928E+01  0.14003711762E+02  0.25228057424E+03  0.10566000000E+00 0.  1.
         13    1    1    2    0    0  0.10737733268E+02 -0.37015769446E+02 -0.17010906345E+01  0.38579411307E+02  0.10566000000E+00 0. -1.
          2    1    1    2  501    0 -0.94498647709E+02 -0.44936325025E+03 -0.16592285182E+04  0.17215971075E+04  0.00000000000E+00 0.  1.
          4    1    3    3  502    0  0.33564365628E+03  0.48426776580E+03 -0.14809332596E+04  0.15938429196E+04  0.00000000000E+00 0.  1.
</event>
<event>
 6    1  0.9434649E-006  0.4277893E+03  0.7818608E-02  0.9652058E-01
         -4   -1    0    0    0  501 -0.00000000000E+00  0.00000000000E+00  0.72473918829E+02  0.72473918829E+02  0.00000000000E+00 0. -1.
          5   -1    0    0  501    0  0.00000000000E+00 -0.00000000000E+00 -0.19823937708E+04  0.19823937708E+04  0.00000000000E+00 0. -1.
        -13    1    1    2    0    0  0.99137566067E+02  0.61399798900E+02 -0.14170349806E+03  0.18351589805E+03  0.10566000000E+00 0.  1.
         13    1    1    2    0    0 -0.93227629207E+02 -0.11474711698E+03 -0.12487375888E+03  0.19352456827E+03  0.10566000000E+00 0. -1.
          5    1    1    2  502    0 -0.11480230468E+03  0.12466463765E+03 -0.12934701857E+04  0.13045251865E+04  0.00000000000E+00 0. -1.
         -4    1    1    2    0  502  0.10889236782E+03 -0.71317319565E+02 -0.34987240933E+03  0.37330203676E+03  0.00000000000E+00 0. -1.
</event>
<event>
 7    1  0.9434649E-006  0.1307729E+04  0.7818608E-02  0.8625255E-01
         -4   -1    0    0    0  501 -0.00000000000E+00  0.00000000000E+00  0.14336542865E+04  0.14336542865E+04  0.00000000000E+00 0. -1.
          1   -1    0    0  501    0  0.00000000000E+00 -0.00000000000E+00 -0.14290464345E+04  0.14290464345E+04  0.00000000000E+00 0.  1.
   -9000010    2    1    2    0  502 -0.65932164324E+03  0.51895974046E+03  0.42345576577E+01  0.12982143955E+04  0.99061518448E+03 0.  0.
        -13    1    1    2    0    0  0.76185245751E+03 -0.40502783753E+03  0.53035220080E+03  0.10127883215E+04  0.10566000000E+00 0.  1.
         13    1    3    3    0    0 -0.81754112289E+03  0.54835601072E+03  0.23954453329E+03  0.10131383897E+04  0.10566000000E+00 0. -1.
          1    1    1    2  502    0 -0.10253081427E+03 -0.11393190292E+03 -0.52997890639E+03  0.55169800398E+03  0.00000000000E+00 0.  1.
         -4    1    3    3    0  502  0.15821947964E+03 -0.29396270269E+02 -0.23530997563E+03  0.28507600579E+03  0.00000000000E+00 0. -1.
</event>
<event>
 6    1  0.9434649E-006  0.4393298E+04  0.7818608E-02  0.7574303E-01
         -4   -1    0    0    0  501 -0.00000000000E+00  0.00000000000E+00  0.34910417214E+04  0.34910417214E+04  0.00000000000E+00 0. -1.
          2   -1    0    0  501    0  0.00000000000E+00 -0.00000000000E+00 -0.21270114620E+04  0.21270114620E+04  0.00000000000E+00 0.  1.
        -13    1    1    2    0    0  0.83504115715E+03 -0.72630709368E+02 -0.80338188913E+03  0.11610303291E+04  0.10566000000E+00 0.  1.
         13    1    1    2    0    0 -0.13476987527E+04  0.33239112417E+02  0.29036013893E+04  0.32012962696E+04  0.10566000000E+00 0. -1.
          2    1    1    2  502    0  0.20903443225E+01  0.30428520190E+02 -0.74439022786E+03  0.74501481576E+03  0.00000000000E+00 0.  1.
         -4    1    1    2    0  502  0.51056725121E+03  0.89630767603E+01  0.82009870508E+01  0.51071176894E+03  0.00000000000E+00 0. -1.
</event>
<event>
 7    1  0.9434649E-006  0.1131198E+04  0.7818608E-02  0.8833688E-01
          4   -1    0    0  501    0 -0.00000000000E+00  0.00000000000E+00  0.88953482828E+03  0.88953482828E+03  0.00000000000E+00 0.  1.
          2   -1    0    0  502    0  0.00000000000E+00 -0.00000000000E+00 -0.27817221764E+04  0.27817221764E+04  0.00000000000E+00 0. -1.
    9000010    2    1    2  502    0 -0.39737010653E+03 -0.50310648038E+03  0.28195888573E+01  0.11836918118E+04  0.99503729737E+03 0.  0.
        -13    1    3    3    0    0 -0.41302263982E+03 -0.34525522341E+03  0.45477672160E+03  0.70470614299E+03  0.10566000000E+00 0.  1.
         13    1    1    2    0    0  0.54029533887E+03  0.75148084169E+02 -0.61124833663E+01  0.54553062368E+03  0.10566000000E+00 0. -1.
          2    1    1    2  501    0 -0.14292523234E+03  0.42795839621E+03 -0.18888944536E+04  0.19420345691E+04  0.00000000000E+00 0. -1.
          4    1    3    3  502    0  0.15652533289E+02 -0.15785125697E+03 -0.45195713274E+03  0.47898566885E+03  0.00000000000E+00 0.  1.
</event>
<event>
 7    1  0.9434649E-006  0.1023214E+04  0.7818608E-02  0.9051574E-01
         -4   -1    0    0    0  501 -0.00000000000E+00  0.00000000000E+00  0.24126061542E+04  0.24126061542E+04  0.00000000000E+00 0. -1.
          2   -1    0    0  501    0  0.00000000000E+00 -0.00000000000E+00 -0.23724493905E+04  0.23724493905E+04  0.00000000000E+00 0. -1.
   -9000010    2    1    2    0  502 -0.26007864476E+03  0.20789641613E+03  0.17024465458E+03  0.10479816526E+04  0.97898952016E+03 0.  0.
        -13    1    1    2    0    0  0.21494455744E+03 -0.20440131693E+03  0.17910286266E+04  0.18154240864E+04  0.10566000000E+00 0.  1.
         13    1    3    3    0    0  0.24807911951E+03  0.40293637050E+03 -0.13865552003E+02  0.47338486763E+03  0.10566000000E+00 0. -1.
          2    1    1    2  502    0  0.45134087323E+02 -0.34950992060E+01 -0.19211165175E+04  0.19216498056E+04  0.00000000000E+00 0. -1.
         -4    1    3    3    0  502 -0.50815776427E+03 -0.19503995437E+03  0.18411020658E+03  0.57459678502E+03  0.00000000000E+00 0. -1.
</event>
<event>
 7    1  0.9434649E-006  0.1050843E+04  0.7818608E-02  0.8990339E-01
         -4   -1    0    0    0  501 -0.00000000000E+00  0.00000000000E+00  0.15917327939E+04  0.15917327939E+04  0.00000000000E+00 0. -1.
          1   -1    0    0  501    0  0.00000000000E+00 -0.00000000000E+00 -0.95465069905E+03  0.95465069905E+03  0.00000000000E+00 0. -1.
   -9000010    2    1    2    0  502  0.34281163005E+03 -0.34001226799E+01  0.64048815595E+03  0.12281915605E+04  0.99030200281E+03 0.  0.
        -13    1    1    2    0    0 -0.35274349997E+03 -0.13104467647E+02  0.60984677678E+03  0.70463664833E+03  0.10566000000E+00 0.  1.
         13    1    3    3    0    0 -0.13315103090E+03 -0.39174231932E+03  0.14315506228E+03  0.43781802703E+03  0.10566000000E+00 0. -1.
          1    1    1    2  502    0  0.99318699274E+01  0.16504590327E+02 -0.61325283788E+03  0.61355528415E+03  0.00000000000E+00 0. -1.
         -4    1    3    3    0  502  0.47596266094E+03  0.38834219664E+03  0.49733309367E+03  0.79037353344E+03  0.00000000000E+00 0. -1.
</event>
<event>
 7    1  0.9434649E-006  0.1012165E+04  0.7818608E-02  0.9413959E-01
         -4   -1    0    0    0  501 -0.00000000000E+00  0.00000000000E+00  0.23561162544E+03  0.23561162544E+03  0.00000000000E+00 0. -1.
          1   -1    0    0  501    0  0.00000000000E+00 -0.00000000000E+00 -0.14088111352E+04  0.14088111352E+04  0.00000000000E+00 0. -1.
   -9000010    2    1    2    0  502  0.86172088494E+02 -0.45932816269E+02 -0.98423904560E+03  0.14131256030E+04  0.10092878770E+04 0.  0.
        -13    1    1    2    0    0 -0.41204852371E+02  0.63284851985E+02 -0.70108687174E+02  0.10304393010E+03  0.10566000000E+00 0.  1.
         13    1    3    3    0    0  0.54124406660E+03  0.43728201190E+02 -0.44664529578E+03  0.70309979848E+03  0.10566000000E+00 0. -1.
          1    1    1    2  502    0 -0.44967236123E+02 -0.17352035717E+02 -0.11885177696E+03  0.12825322746E+03  0.00000000000E+00 0. -1.
         -4    1    3    3    0  502 -0.45507197811E+03 -0.89661017459E+02 -0.53759374982E+03  0.71002580457E+03  0.00000000000E+00 0. -1.
</event>
<event>
 7    1  0.9434649E-006  0.1030446E+04  0.7818608E-02  0.9120741E-01
          1   -1    0    0  501    0  0.00000000000E+00  0.00000000000E+00  0.90692486022E+03  0.90692486022E+03  0.00000000000E+00 0. -1.
         -4   -1    0    0    0  501 -0.00000000000E+00 -0.00000000000E+00 -0.11763750576E+04  0.11763750576E+04  0.00000000000E+00 0. -1.
   -9000010    2    1    2    0  502 -0.32496366782E+03  0.48752952871E+02 -0.70566825151E+02  0.10610209049E+04  0.10063833504E+04 0.  0.
        -13    1    1    2    0    0  0.21623913319E+03  0.23573591017E+02 -0.57998105396E+03  0.61942966593E+03  0.10566000000E+00 0.  1.
         13    1    3    3    0    0 -0.23603291346E+02  0.29214439160E+03  0.37152961192E+03  0.47322270085E+03  0.10566000000E+00 0. -1.
          1    1    1    2  502    0  0.10872453464E+03 -0.72326543888E+02  0.38109768173E+03  0.40284934703E+03  0.00000000000E+00 0. -1.
         -4    1    3    3    0  502 -0.30136037648E+03 -0.24339143873E+03 -0.44209643707E+03  0.58779820400E+03  0.00000000000E+00 0. -1.
</event>
<event>
 7    1  0.9434649E-006  0.9980192E+03  0.7818608E-02  0.9090095E-01
          2   -1    0    0  502    0  0.00000000000E+00  0.00000000000E+00  0.42663310553E+03  0.42663310553E+03  0.00000000000E+00 0.  1.
          4   -1    0    0  501    0 -0.00000000000E+00 -0.00000000000E+00 -0.15113455258E+04  0.15113455258E+04  0.00000000000E+00 0.  1.
    9000010    2    1    2  502    0 -0.27015478035E+03 -0.85849576471E+02 -0.63472668361E+03  0.11847426282E+04  0.95936613290E+03 0.  0.
        -13    1    3    3    0    0  0.49511259611E+02 -0.48563100027E+03 -0.29418817668E+03  0.56994344255E+03  0.10566000000E+00 0.  1.
         13    1    1    2    0    0  0.25431743761E+03  0.10247492525E+03 -0.56921799994E+03  0.63181295649E+03  0.10566000000E+00 0. -1.
          2    1    1    2  501    0  0.15837342737E+02 -0.16625348777E+02  0.11923226331E+03  0.12142304666E+03  0.00000000000E+00 0.  1.
          4    1    3    3  502    0 -0.31966603996E+03  0.39978142380E+03 -0.34053850693E+03  0.61479918560E+03  0.00000000000E+00 0.  1.
</event>
<event>
 6    1  0.9434649E-006  0.3578719E+03  0.7818608E-02  0.9859287E-01
          4   -1    0    0  501    0 -0.00000000000E+00  0.00000000000E+00  0.12035960308E+03  0.12035960308E+03  0.00000000000E+00 0.  1.
          2   -1    0    0  502    0  0.00000000000E+00 -0.00000000000E+00 -0.82517843019E+03  0.82517843019E+03  0.00000000000E+00 0.  1.
        -13    1    1    2    0    0  0.11926023718E+03  0.22894377288E+02  0.41410983327E+02  0.12830447142E+03  0.10566000000E+00 0.  1.
         13    1    1    2    0    0 -0.96306050318E+02  0.49025771383E+02 -0.84525798437E+02  0.13719695096E+03  0.10566000000E+00 0. -1.
          2    1    1    2  501    0 -0.10120838930E+02 -0.94721721273E+01 -0.55888227216E+03  0.55905415441E+03  0.00000000000E+00 0.  1.
          4    1    1    2  502    0 -0.12833347929E+02 -0.62447976544E+02 -0.10282173984E+03  0.12098245648E+03  0.00000000000E+00 0.  1.
</event>
<event>
 7    1  0.9434649E-006  0.1385417E+04  0.7818608E-02  0.8565631E-01
          2   -1    0    0  502    0  0.00000000000E+00  0.00000000000E+00  0.21229887262E+04  0.21229887262E+04  0.00000000000E+00 0.  1.
          4   -1    0    0  501    0 -0.00000000000E+00 -0.00000000000E+00 -0.27115971388E+04  0.27115971388E+04  0.00000000000E+00 0.  1.
    9000010    2    1    2  502    0  0.54683236963E+03 -0.14484740015E+03 -0.35934121421E+03  0.12220164458E+04  0.10218569742E+04 0.  0.
        -13    1    3    3    0    0 -0.22082463736E+03 -0.18123874480E+03  0.12689893331E+03  0.31259295181E+03  0.10566000000E+00 0.  1.
         13    1    1    2    0    0 -0.68627728625E+03  0.88891103183E+03 -0.16539959423E+04  0.19992103252E+04  0.10566000000E+00 0. -1.
          2    1    1    2  501    0  0.13944491662E+03 -0.74406363167E+03  0.14247287438E+04  0.16133590940E+04  0.00000000000E+00 0.  1.
          4    1    3    3  502    0  0.76765700699E+03  0.36391344647E+02 -0.48624014753E+03  0.90942349398E+03  0.00000000000E+00 0.  1.
</event>
<event>
 6    1  0.1503965E-005  0.7472600E+03  0.7818608E-02  0.9057102E-01
         -4   -1    0    0    0  501 -0.00000000000E+00  0.00000000000E+00  0.22304860623E+04  0.22304860623E+04  0.00000000000E+00 0. -1.
          2   -1    0    0  501    0  0.00000000000E+00 -0.00000000000E+00 -0.20248532045E+03  0.20248532045E+03  0.00000000000E+00 0.  1.
        -13    1    1    2    0    0  0.24346431063E+03 -0.15931415021E+03  0.42365860279E+03  0.51394794667E+03  0.10566000000E+00 0.  1.
         13    1    1    2    0    0 -0.27053228197E+03  0.12134561374E+03  0.16635576972E+04  0.16897741556E+04  0.10566000000E+00 0. -1.
          2    1    1    2  502    0 -0.75348237140E+01  0.21562294624E+02 -0.13893969292E+03  0.14080463198E+03  0.00000000000E+00 0.  1.
         -4    1    1    2    0  502  0.34602795059E+02  0.16406241847E+02  0.79724134699E+02  0.88444648515E+02  0.00000000000E+00 0. -1.
</event>
<event>
 7    1  0.9434649E-006  0.1272339E+04  0.7818608E-02  0.8655593E-01
         -4   -1    0    0    0  501 -0.00000000000E+00  0.00000000000E+00  0.23292581697E+04  0.23292581697E+04  0.00000000000E+00 0. -1.
          2   -1    0    0  501    0  0.00000000000E+00 -0.00000000000E+00 -0.11358935278E+04  0.11358935278E+04  0.00000000000E+00 0.  1.
   -9000010    2    1    2    0  502  0.52274669794E+03 -0.61474492189E+03  0.89711120907E+03  0.15545298438E+04  0.98009136539E+03 0.  0.
        -13    1    1    2    0    0 -0.54031307034E+03  0.60800774688E+03  0.95338688276E+03  0.12532191323E+04  0.10566000000E+00 0.  1.
         13    1    3    3    0    0  0.34909530604E+02 -0.48468176012E+03  0.92924230802E+03  0.10486307082E+04  0.10566000000E+00 0. -1.
          2    1    1    2  502    0  0.17566372404E+02  0.67371750148E+01 -0.65713344997E+03  0.65740272135E+03  0.00000000000E+00 0.  1.
         -4    1    3    3    0  502  0.48783716734E+03 -0.13006316177E+03 -0.32131098950E+02  0.50589913560E+03  0.00000000000E+00 0. -1.
</event>
<event>
 7    1  0.9434649E-006  0.1033453E+04  0.7818608E-02  0.9073389E-01
         -4   -1    0    0    0  501 -0.00000000000E+00  0.00000000000E+00  0.15010207207E+04  0.15010207207E+04  0.00000000000E+00 0. -1.
          1   -1    0    0  501    0  0.00000000000E+00 -0.00000000000E+00 -0.31606402019E+03  0.31606402019E+03  0.00000000000E+00 0.  1.
   -9000010    2    1    2    0  502 -0.88481364229E+02 -0.26155936155E+03  0.81797286761E+03  0.13203272751E+04  0.99897059503E+03 0.  0.
        -13    1    1    2    0    0  0.13965929517E+03  0.22377856720E+03  0.33241131756E+03  0.42435699720E+03  0.10566000000E+00 0.  1.
         13    1    3    3    0    0  0.35423749958E+02 -0.37263974179E+03  0.10035385526E+04  0.10710764944E+04  0.10566000000E+00 0. -1.
          1    1    1    2  502    0 -0.51177930942E+02  0.37780794350E+02  0.34572515301E+02  0.72400468586E+02  0.00000000000E+00 0.  1.
         -4    1    3    3    0  502 -0.12390511419E+03  0.11108038024E+03 -0.18556568500E+03  0.24925078063E+03  0.00000000000E+00 0. -1.
</event>
<event>
 7    1  0.9434649E-006  0.1058716E+04  0.7818608E-02  0.9125072E-01
         -4   -1    0    0    0  501 -0.00000000000E+00  0.00000000000E+00  0.11910176656E+04  0.11910176656E+04  0.00000000000E+00 0. -1.
          2   -1    0    0  501    0  0.00000000000E+00 -0.00000000000E+00 -0.12652140065E+04  0.12652140065E+04  0.00000000000E+00 0.  1.
   -9000010    2    1    2    0  502 -0.11344524934E+03 -0.15697147741E+03  0.65803317193E+03  0.12454438028E+04  0.10395252480E+04 0.  0.
        -13    1    1    2    0    0  0.67238769096E+02  0.19124202209E+03  0.19529169287E+03  0.28148431493E+03  0.10566000000E+00 0.  1.
         13    1    3    3    0    0 -0.49108559611E+03 -0.32018633853E+03  0.58389319055E+03  0.82741502478E+03  0.10566000000E+00 0. -1.
          2    1    1    2  502    0  0.46206480245E+02 -0.34270544681E+02 -0.92752120569E+03  0.92930355431E+03  0.00000000000E+00 0.  1.
         -4    1    3    3    0  502  0.37764034677E+03  0.16321486112E+03  0.74139981376E+02  0.41802877800E+03  0.00000000000E+00 0. -1.
</event>
<event>
 7    1  0.9434649E-006  0.1365480E+04  0.7818608E-02  0.8578293E-01
          2   -1    0    0  501    0  0.00000000000E+00  0.00000000000E+00  0.12926167717E+04  0.12926167717E+04  0.00000000000E+00 0.  1.
         -4   -1    0    0    0  501 -0.00000000000E+00 -0.00000000000E+00 -0.18027690289E+04  0.18027690289E+04  0.00000000000E+00 0. -1.
   -9000010    2    1    2    0  502  0.71212946697E+03 -0.56385052029E+03 -0.11681181772E+04  0.17892463642E+04  0.10059059045E+04 0.  0.
        -13    1    1    2    0    0 -0.66221974309E+03  0.71112197609E+03  0.54687277275E+03  0.11150333151E+04  0.10566000000E+00 0.  1.
         13    1    3    3    0    0  0.67912856308E+03 -0.38903669025E+03 -0.20394872141E+03  0.80880173323E+03  0.10566000000E+00 0. -1.
          2    1    1    2  502    0 -0.49909723877E+02 -0.14727145580E+03  0.11109314732E+03  0.19110612134E+03  0.00000000000E+00 0.  1.
         -4    1    3    3    0  502  0.33000903895E+02 -0.17481383004E+03 -0.96416945581E+03  0.98044463094E+03  0.00000000000E+00 0. -1.
</event>
<event>
 7    1  0.9434649E-006  0.1043396E+04  0.7818608E-02  0.9009789E-01
          2   -1    0    0  502    0  0.00000000000E+00  0.00000000000E+00  0.90731756178E+03  0.90731756178E+03  0.00000000000E+00 0. -1.
          4   -1    0    0  501    0 -0.00000000000E+00 -0.00000000000E+00 -0.20715725789E+04  0.20715725789E+04  0.00000000000E+00 0.  1.
    9000010    2    1    2  502    0  0.60285579797E+02  0.31875146459E+03 -0.18551391115E+04  0.21272688262E+04  0.98918890436E+03 0.  0.
        -13    1    3    3    0    0 -0.37236886032E+03  0.11738226518E+03 -0.27742198000E+03  0.47895733679E+03  0.10566000000E+00 0.  1.
         13    1    1    2    0    0 -0.50871187691E+02 -0.35025274325E+03  0.31349985335E+03  0.47280760475E+03  0.10566000000E+00 0. -1.
          2    1    1    2  501    0 -0.94143921065E+01  0.31501278661E+02  0.37738424102E+03  0.37881370976E+03  0.00000000000E+00 0. -1.
          4    1    3    3  502    0  0.43265444012E+03  0.20136919941E+03 -0.15777171315E+04  0.16483114894E+04  0.00000000000E+00 0.  1.
</event>
<event>
 7    1  0.9434649E-006  0.1040652E+04  0.7818608E-02  0.9074416E-01
          2   -1    0    0  501    0  0.00000000000E+00  0.00000000000E+00  0.11858740188E+04  0.11858740188E+04  0.00000000000E+00 0.  1.
         -4   -1    0    0    0  501 -0.00000000000E+00 -0.00000000000E+00 -0.19133571302E+04  0.19133571302E+04  0.00000000000E+00 0. -1.
   -9000010    2    1    2    0  502 -0.25960575465E+03 -0.89157498718E+01 -0.16869645998E+04  0.19823227853E+04  0.10081068524E+04 0.  0.
        -13    1    1    2    0    0  0.25534809293E+03  0.21068898147E+02  0.12996756762E+03  0.28729449495E+03  0.10566000000E+00 0.  1.
         13    1    3    3    0    0 -0.73733497385E+02  0.35497102551E+03 -0.15065707494E+03  0.39260491971E+03  0.10566000000E+00 0. -1.
          2    1    1    2  502    0  0.42576617162E+01 -0.12153148275E+02  0.82951392074E+03  0.82961386886E+03  0.00000000000E+00 0.  1.
         -4    1    3    3    0  502 -0.18587225726E+03 -0.36388677538E+03 -0.15363075248E+04  0.15897178656E+04  0.00000000000E+00 0. -1.
</event>
<event>
 6    1  0.9434649E-006  0.7075777E+03  0.7818608E-02  0.9112058E-01
         -4   -1    0    0    0  501 -0.00000000000E+00  0.00000000000E+00  0.55564719367E+03  0.55564719367E+03  0.00000000000E+00 0. -1.
          4   -1    0    0  501    0  0.00000000000E+00 -0.00000000000E+00 -0.16783224997E+04  0.16783224997E+04  0.00000000000E+00 0. -1.
        -13    1    1    2    0    0 -0.62420497618E+02  0.61171549781E+02 -0.26040789193E+02  0.91194357782E+02  0.10566000000E+00 0.  1.
         13    1    1    2    0    0  0.97719362452E+02 -0.78500222347E+02  0.50607111453E+03  0.52136296649E+03  0.10566000000E+00 0. -1.
          4    1    1    2  502    0 -0.13231988701E+02 -0.54280264502E+02 -0.14523047759E+04  0.14533790266E+04  0.00000000000E+00 0. -1.
         -4    1    1    2    0  502 -0.22066876133E+02  0.71608937068E+02 -0.15040085539E+03  0.16803334250E+03  0.00000000000E+00 0. -1.
</event>
<event>
 7    1  0.9434649E-006  0.8779848E+03  0.7818608E-02  0.9498609E-01
          2   -1    0    0  501    0  0.00000000000E+00  0.00000000000E+00  0.99208481859E+03  0.99208481859E+03  0.00000000000E+00 0.  1.
         -4   -1    0    0    0  501 -0.00000000000E+00 -0.00000000000E+00 -0.63076353729E+03  0.63076353729E+03  0.00000000000E+00 0. -1.
   -9000010    2    1    2    0  502  0.10007280663E+03 -0.19509221500E+02 -0.21675908471E+03  0.90603506484E+03  0.87379623572E+03 0.  0.
        -13    1    1    2    0    0 -0.80872994714E+02  0.24407226210E+02 -0.43430821442E+02  0.94986322070E+02  0.10566000000E+00 0.  1.
         13    1    3    3    0    0 -0.15496619379E+03 -0.22827012781E+03 -0.43185959199E+03  0.51246901450E+03  0.10566000000E+00 0. -1.
          2    1    1    2  502    0 -0.19199811919E+02 -0.48980047098E+01  0.62151118744E+03  0.62182696897E+03  0.00000000000E+00 0.  1.
         -4    1    3    3    0  502  0.25503900043E+03  0.20876090631E+03  0.21510050728E+03  0.39356605033E+03  0.00000000000E+00 0. -1.
</event>
<event>
 7    1  0.9434649E-006  0.9933511E+03  0.7818608E-02  0.9360985E-01
          4   -1    0    0  501    0  0.00000000000E+00  0.00000000000E+00  0.28912054569E+03  0.28912054569E+03  0.00000000000E+00 0.  1.
          4   -1    0    0  502    0 -0.00000000000E+00 -0.00000000000E+00 -0.18429889861E+04  0.18429889861E+04  0.00000000000E+00 0.  1.
    9000010    2    1    2  501    0  0.13144280641E+02 -0.97806791908E+02 -0.11626573105E+04  0.15292503561E+04  0.98848150672E+03 0.  0.
        -13    1    3    3    0    0 -0.22858811324E+03 -0.39623188559E+03 -0.21245242543E+03  0.50436918711E+03  0.10566000000E+00 0.  1.
         13    1    1    2    0    0  0.15774361656E+01  0.98241930305E+02 -0.49163699490E+03  0.50135906404E+03  0.10566000000E+00 0. -1.
          4    1    3    3  501    0  0.24173239388E+03  0.29842509368E+03 -0.95020488510E+03  0.10248811690E+04  0.00000000000E+00 0.  1.
          4    1    1    2  502    0 -0.14721716807E+02 -0.43513839677E+00  0.10042586506E+03  0.10150011165E+03  0.00000000000E+00 0.  1.
</event>
<event>
 7    1  0.9434649E-006  0.1065536E+04  0.7818608E-02  0.9007007E-01
         -4   -1    0    0    0  501 -0.00000000000E+00  0.00000000000E+00  0.14401261448E+04  0.14401261448E+04  0.00000000000E+00 0. -1.
          1   -1    0    0  501    0  0.00000000000E+00 -0.00000000000E+00 -0.60514899934E+03  0.60514899934E+03  0.00000000000E+00 0. -1.
   -9000010    2    1    2    0  502  0.27374647372E+03  0.40123646249E+03  0.15465698354E+03  0.11383620983E+04  0.10178514889E+04 0.  0.
        -13    1    1    2    0    0 -0.21515408595E+03 -0.21452499961E+03  0.63807030500E+03  0.70671492233E+03  0.10566000000E+00 0.  1.
         13    1    3    3    0    0  0.45805533778E+03  0.23019836696E+03 -0.31780075973E+03  0.60316110175E+03  0.10566000000E+00 0. -1.
          1    1    1    2  502    0 -0.58592387777E+02 -0.18671146288E+03  0.42249856958E+02  0.20019812359E+03  0.00000000000E+00 0. -1.
         -4    1    3    3    0  502 -0.18430886406E+03  0.17103809553E+03  0.47245774327E+03  0.53520099651E+03  0.00000000000E+00 0. -1.
</event>
<event>
 7    1  0.9434649E-006  0.1127953E+04  0.7818608E-02  0.8991460E-01
          1   -1    0    0  501    0  0.00000000000E+00  0.00000000000E+00  0.86260858406E+03  0.86260858406E+03  0.00000000000E+00 0. -1.
         -4   -1    0    0    0  501 -0.00000000000E+00 -0.00000000000E+00 -0.19568881106E+04  0.19568881106E+04  0.00000000000E+00 0. -1.
   -9000010    2    1    2    0  502  0.66837799744E+03  0.92449881501E+02 -0.11171447136E+04  0.16398842425E+04  0.99294103031E+03 0.  0.
        -13    1    1    2    0    0 -0.21772831105E+03  0.18072869814E+03 -0.40964094966E+03  0.49786966022E+03  0.10566000000E+00 0.  1.
         13    1    3    3    0    0  0.17518313658E+03 -0.35189463776E+03 -0.68845576419E+02  0.39907228917E+03  0.10566000000E+00 0. -1.
          1    1    1    2  502    0 -0.45064968638E+03 -0.27317857964E+03  0.43250613664E+03  0.68174279200E+03  0.00000000000E+00 0. -1.
         -4    1    3    3    0  502  0.49319486086E+03  0.44434451926E+03 -0.10482991371E+04  0.12408119533E+04  0.00000000000E+00 0. -1.
</event>
<event>
 6    1  0.9434649E-006  0.2958207E+03  0.7818608E-02  0.1009046E+00
          2   -1    0    0  501    0  0.00000000000E+00  0.00000000000E+00  0.20624758602E+03  0.20624758602E+03  0.00000000000E+00 0.  1.
         -4   -1    0    0    0  501 -0.00000000000E+00 -0.00000000000E+00 -0.46835180613E+03  0.46835180613E+03  0.00000000000E+00 0. -1.
        -13    1    1    2    0    0 -0.43032653530E+02  0.63441029654E+02 -0.59386861794E+02  0.96971047386E+02  0.10566000000E+00 0.  1.
         13    1    1    2    0    0 -0.42979508105E+02  0.24913820908E+02 -0.22495257903E+03  0.23037276437E+03  0.10566000000E+00 0. -1.
          2    1    1    2  502    0  0.38947533692E+01  0.98163791812E+01  0.15934373182E+03  0.15969331631E+03  0.00000000000E+00 0.  1.
         -4    1    1    2    0  502  0.82117408266E+02 -0.98171229744E+02 -0.13710851110E+03  0.18756226408E+03  0.00000000000E+00 0. -1.
</event>
<event>
 7    1  0.9434649E-006  0.1109799E+04  0.7818608E-02  0.8862803E-01
          2   -1    0    0  502    0  0.00000000000E+00  0.00000000000E+00  0.25344418887E+04  0.25344418887E+04  0.00000000000E+00 0. -1.
          4   -1    0    0  501    0 -0.00000000000E+00 -0.00000000000E+00 -0.58321240584E+03  0.58321240584E+03  0.00000000000E+00 0.  1.
    9000010    2    1    2  502    0  0.42581361397E+03 -0.27816180558E+03  0.36040484899E+03  0.11686918385E+04  0.98856347001E+03 0.  0.
        -13    1    3    3    0    0  0.13480004761E+03 -0.60930438657E+03  0.43092095315E+02  0.62552364317E+03  0.10566000000E+00 0.  1.
         13    1    1    2    0    0 -0.35382031748E+03  0.36208099827E+03  0.18530519470E+03  0.53910063319E+03  0.10566000000E+00 0. -1.
          2    1    1    2  501    0 -0.71993296499E+02 -0.83919192691E+02  0.14055194392E+04  0.14098618229E+04  0.00000000000E+00 0. -1.
          4    1    3    3  502    0  0.29101356637E+03  0.33114258099E+03  0.31731275368E+03  0.54316819532E+03  0.00000000000E+00 0.  1.
</event>
<event>
 7    1  0.9434649E-006  0.1044043E+04  0.7818608E-02  0.9008655E-01
         -4   -1    0    0    0  501 -0.00000000000E+00  0.00000000000E+00  0.15890197985E+04  0.15890197985E+04  0.00000000000E+00 0. -1.
          1   -1    0    0  501    0  0.00000000000E+00 -0.00000000000E+00 -0.56105569680E+03  0.56105569680E+03  0.00000000000E+00 0. -1.
   -9000010    2    1    2    0  502  0.28795766190E+03  0.62126137173E+02  0.79458412733E+03  0.13028382417E+04  0.98956772206E+03 0.  0.
        -13    1    1    2    0    0 -0.31895531338E+03 -0.12249936237E+03  0.48127298067E+03  0.59022222831E+03  0.10566000000E+00 0.  1.
         13    1    3    3    0    0  0.16572086033E+03 -0.31764448567E+03  0.82829345024E+03  0.90245857174E+03  0.10566000000E+00 0. -1.
          1    1    1    2  502    0  0.30997651477E+02  0.60373225194E+02 -0.24789300626E+03  0.25701502537E+03  0.00000000000E+00 0. -1.
         -4    1    3    3    0  502  0.12223680157E+03  0.37977062284E+03 -0.33709322911E+02  0.40037966992E+03  0.00000000000E+00 0. -1.
</event>
<event>
 7    1  0.9434649E-006  0.1008786E+04  0.7818608E-02  0.9307165E-01
          3   -1    0    0  501    0  0.00000000000E+00  0.00000000000E+00  0.46891588251E+03  0.46891588251E+03  0.00000000000E+00 0. -1.
         -4   -1    0    0    0  501 -0.00000000000E+00 -0.00000000000E+00 -0.22391029653E+04  0.22391029653E+04  0.00000000000E+00 0. -1.
   -9000010    2    1    2    0  502 -0.11023507409E+03  0.38519084788E+02 -0.19992980980E+04  0.22394837801E+04  0.10022271326E+04 0.  0.
        -13    1    1    2    0    0  0.99788236801E+02 -0.56665802053E+02 -0.91791391832E+02  0.14695025044E+03  0.10566000000E+00 0.  1.
         13    1    3    3    0    0  0.38958148574E+03  0.25341972762E+03 -0.94309943034E+03  0.10513951869E+04  0.10566000000E+00 0. -1.
          3    1    1    2  502    0  0.10446837287E+02  0.18146717265E+02  0.32090240710E+03  0.32158481718E+03  0.00000000000E+00 0. -1.
         -4    1    3    3    0  502 -0.49981655983E+03 -0.21490064283E+03 -0.10561986677E+04  0.11880885932E+04  0.00000000000E+00 0. -1.
</event>
<event>
 7    1  0.9434649E-006  0.1102648E+04  0.7818608E-02  0.8892446E-01
          4   -1    0    0  501    0 -0.00000000000E+00  0.00000000000E+00  0.36599579189E+04  0.36599579189E+04  0.00000000000E+00 0.  1.
          2   -1    0    0  502    0  0.00000000000E+00 -0.00000000000E+00 -0.31336263054E+03  0.31336263054E+03  0.00000000000E+00 0.  1.
    9000010    2    1    2  502    0  0.76587793452E+01 -0.19099196873E+03  0.15469412320E+04  0.18543861401E+04  0.10045816007E+04 0.  0.
        -13    1    3    3    0    0 -0.43698358361E+03 -0.14495281673E+03  0.35497592470E+03  0.58135521818E+03  0.10566000000E+00 0.  1.
         13    1    1    2    0    0  0.42069252355E+02  0.52096735829E+03  0.16879741578E+04  0.17670409104E+04  0.10566000000E+00 0. -1.
          2    1    1    2  501    0 -0.49728031700E+02 -0.32997538957E+03  0.11167989859E+03  0.35189349895E+03  0.00000000000E+00 0.  1.
          4    1    3    3  502    0  0.44464236295E+03 -0.46039151993E+02  0.11919653073E+04  0.12730309219E+04  0.00000000000E+00 0.  1.
</event>
<event>
 7    1  0.9434649E-006  0.1159352E+04  0.7818608E-02  0.8807119E-01
         -4   -1    0    0    0  501 -0.00000000000E+00  0.00000000000E+00  0.30556355286E+04  0.30556355286E+04  0.00000000000E+00 0. -1.
          1   -1    0    0  501    0  0.00000000000E+00 -0.00000000000E+00 -0.89269102352E+03  0.89269102352E+03  0.00000000000E+00 0.  1.
   -9000010    2    1    2    0  502  0.23294076021E+03  0.64995918101E+03  0.19693573129E+04  0.23209195370E+04  0.10156726522E+04 0.  0.
        -13    1    1    2    0    0 -0.44308827771E+03 -0.30134227708E+03  0.75999188165E+03  0.92990432903E+03  0.10566000000E+00 0.  1.
         13    1    3    3    0    0  0.38262097193E+02  0.77857099966E+03  0.75798137550E+03  0.10872775940E+04  0.10566000000E+00 0. -1.
          1    1    1    2  502    0  0.21014751751E+03 -0.34861690393E+03 -0.56640468951E+03  0.69750268610E+03  0.00000000000E+00 0.  1.
         -4    1    3    3    0  502  0.19467866302E+03 -0.12861181865E+03  0.12113759374E+04  0.12336419430E+04  0.00000000000E+00 0. -1.
</event>
<event>
 7    1  0.9434649E-006  0.1019328E+04  0.7818608E-02  0.9097491E-01
         -4   -1    0    0    0  501 -0.00000000000E+00  0.00000000000E+00  0.10760907388E+04  0.10760907388E+04  0.00000000000E+00 0. -1.
          4   -1    0    0  501    0  0.00000000000E+00 -0.00000000000E+00 -0.23029431913E+04  0.23029431913E+04  0.00000000000E+00 0.  1.
   -9000010    2    1    2    0  502  0.18594839242E+03 -0.17388989978E+02  0.52490083206E+03  0.11342722429E+04  0.98801490673E+03 0.  0.
        -13    1    1    2    0    0 -0.26557806153E+03 -0.21786924073E+02  0.17316862847E+03  0.31779515710E+03  0.10566000000E+00 0.  1.
         13    1    3    3    0    0  0.38659077811E+03 -0.35987286763E+03  0.51430106694E+03  0.73720181036E+03  0.10566000000E+00 0. -1.
          4    1    1    2  502    0  0.79629669108E+02  0.39175914051E+02 -0.19249219131E+04  0.19269665301E+04  0.00000000000E+00 0.  1.
         -4    1    3    3    0  502 -0.20064238568E+03  0.34248387766E+03  0.10599765119E+02  0.39707043255E+03  0.00000000000E+00 0. -1.
</event>
<event>
 7    1  0.9434649E-006  0.1352970E+04  0.7818608E-02  0.8585824E-01
         -4   -1    0    0    0  501 -0.00000000000E+00  0.00000000000E+00  0.34848886127E+04  0.34848886127E+04  0.00000000000E+00 0. -1.
          2   -1    0    0  501    0  0.00000000000E+00 -0.00000000000E+00 -0.67899754023E+03  0.67899754023E+03  0.00000000000E+00 0.  1.
   -9000010    2    1    2    0  502 -0.73792198379E+03 -0.53341043061E+03  0.75381709524E+03  0.15443975696E+04  0.99391553885E+03 0.  0.
        -13    1    1    2    0    0  0.74149237732E+03  0.54404628629E+03  0.22450859028E+04  0.24261508670E+04  0.10566000000E+00 0.  1.
         13    1    3    3    0    0 -0.23436413940E+03 -0.53296768286E+03 -0.62180896734E+02  0.58553187436E+03  0.10566000000E+00 0. -1.
          2    1    1    2  502    0 -0.35703935359E+01 -0.10635855675E+02 -0.19301192557E+03  0.19333771631E+03  0.00000000000E+00 0.  1.
         -4    1    3    3    0  502 -0.50355784439E+03 -0.44274775705E+00  0.81599799197E+03  0.95886569528E+03  0.00000000000E+00 0. -1.
</event>
<event>
 6    1  0.9434649E-006  0.1887431E+03  0.7818608E-02  0.1068139E+00
          1   -1    0    0  501    0  0.00000000000E+00  0.00000000000E+00  0.68919730829E+03  0.68919730829E+03  0.00000000000E+00 0. -1.
         -4   -1    0    0    0  501 -0.00000000000E+00 -0.00000000000E+00 -0.35716253462E+03  0.35716253462E+03  0.00000000000E+00 0. -1.
        -13    1    1    2    0    0  0.53798910489E+02 -0.19950076712E+02 -0.65209724501E+02  0.86859931292E+02  0.10566000000E+00 0.  1.
         13    1    1    2    0    0 -0.56137053295E+02  0.11945358780E+02 -0.27026909477E+03  0.27629595563E+03  0.10566000000E+00 0. -1.
          1    1    1    2  502    0 -0.15016993219E+02  0.14342816119E+02  0.66408826942E+03  0.66441286565E+03  0.00000000000E+00 0. -1.
         -4    1    1    2    0  502  0.17355136025E+02 -0.63380981874E+01  0.34253235191E+01  0.18791090343E+02  0.00000000000E+00 0. -1.
</event>
<event>
 7    1  0.9434649E-006  0.1094034E+04  0.7818608E-02  0.8946843E-01
         -4   -1    0    0    0  501 -0.00000000000E+00  0.00000000000E+00  0.29898821068E+04  0.29898821068E+04  0.00000000000E+00 0. -1.
          1   -1    0    0  501    0  0.00000000000E+00 -0.00000000000E+00 -0.57434649995E+03  0.57434649995E+03  0.00000000000E+00 0. -1.
   -9000010    2    1    2    0  502 -0.11418073303E+03  0.36487068221E+03  0.15483155320E+04  0.18978991332E+04  0.10288694176E+04 0.  0.
        -13    1    1    2    0    0  0.29881309287E+03 -0.23465491393E+03  0.12030249866E+04  0.12615947538E+04  0.10566000000E+00 0.  1.
         13    1    3    3    0    0 -0.14282800011E+03  0.47932819004E+03  0.16610466880E+04  0.17347136543E+04  0.10566000000E+00 0. -1.
          1    1    1    2  502    0 -0.18463235984E+03 -0.13021576828E+03 -0.33580491183E+03  0.40473471981E+03  0.00000000000E+00 0. -1.
         -4    1    3    3    0  502  0.28647267077E+02 -0.11445750784E+03 -0.11273115595E+03  0.16318547893E+03  0.00000000000E+00 0. -1.
</event>
<event>
 7    1  0.9434649E-006  0.1385784E+04  0.7818608E-02  0.8558249E-01
          4   -1    0    0  501    0  0.00000000000E+00  0.00000000000E+00  0.71764789790E+03  0.71764789790E+03  0.00000000000E+00 0.  1.
         -4   -1    0    0    0  501 -0.00000000000E+00 -0.00000000000E+00 -0.40317665598E+04  0.40317665598E+04  0.00000000000E+00 0. -1.
   -9000010    2    1    2    0  502  0.82424636638E+03 -0.56885007169E+03 -0.27679974263E+04  0.31067227398E+04  0.99345052917E+03 0.  0.
        -13    1    1    2    0    0 -0.94063938081E+03  0.12268126175E+03 -0.27881246029E+02  0.94901554874E+03  0.10566000000E+00 0.  1.
         13    1    3    3    0    0 -0.42247262113E+01  0.22836366541E+03 -0.75190466398E+03  0.78582978238E+03  0.10566000000E+00 0. -1.
          4    1    1    2  502    0  0.11639301443E+03  0.44616880994E+03 -0.51823998960E+03  0.69367616911E+03  0.00000000000E+00 0.  1.
         -4    1    3    3    0  502  0.82847109259E+03 -0.79721373710E+03 -0.20160927623E+04  0.23208929575E+04  0.00000000000E+00 0. -1.
</event>
<event>
 7    1  0.9434649E-006  0.1013172E+04  0.7818608E-02  0.9109802E-01
         -4   -1    0    0    0  501 -0.00000000000E+00  0.00000000000E+00  0.16054468727E+04  0.16054468727E+04  0.00000000000E+00 0. -1.
          2   -1    0    0  501    0  0.00000000000E+00 -0.00000000000E+00 -0.59982633429E+03  0.59982633429E+03  0.00000000000E+00 0. -1.
   -9000010    2    1    2    0  502 -0.23540772359E+03 -0.85414240478E+02  0.41879991027E+02  0.10158005369E+04  0.98355701836E+03 0.  0.
        -13    1    1    2    0    0  0.22177563579E+03 -0.10459789388E+03  0.96835357096E+03  0.99891631360E+03  0.10566000000E+00 0.  1.
         13    1    3    3    0    0 -0.13889740441E+03 -0.32011522167E+03  0.42894981002E+03  0.55295948747E+03  0.10566000000E+00 0. -1.
          2    1    1    2  502    0  0.13632087795E+02  0.19001213435E+03 -0.46130235285E+01  0.19055635651E+03  0.00000000000E+00 0. -1.
         -4    1    3    3    0  502 -0.96510319175E+02  0.23470098119E+03 -0.38706981900E+03  0.46284104945E+03  0.00000000000E+00 0. -1.
</event>
<event>
 7    1  0.9434649E-006  0.1214327E+04  0.7818608E-02  0.8728126E-01
          1   -1    0    0  501    0  0.00000000000E+00  0.00000000000E+00  0.11201941059E+04  0.11201941059E+04  0.00000000000E+00 0.  1.
         -4   -1    0    0    0  501 -0.00000000000E+00 -0.00000000000E+00 -0.16100053217E+04  0.16100053217E+04  0.00000000000E+00 0. -1.
   -9000010    2    1    2    0  502  0.42061965235E+02 -0.68303486097E+03 -0.10718847993E+04  0.16210039549E+04  0.10051920058E+04 0.  0.
        -13    1    1    2    0    0 -0.33019202772E+02  0.67575455150E+03  0.17083873912E+03  0.69779679533E+03  0.10566000000E+00 0.  1.
         13    1    3    3    0    0  0.64878720069E+02 -0.93298329440E+03 -0.97754594690E+03  0.13528721911E+04  0.10566000000E+00 0. -1.
          1    1    1    2  502    0 -0.90427624628E+01  0.72803094667E+01  0.41123484443E+03  0.41139867735E+03  0.00000000000E+00 0.  1.
         -4    1    3    3    0  502 -0.22816754834E+02  0.24994843343E+03 -0.94338852424E+02  0.26813176379E+03  0.00000000000E+00 0. -1.
</event>
<event>
 7    1  0.9434649E-006  0.9987626E+03  0.7818608E-02  0.9153590E-01
          4   -1    0    0  501    0 -0.00000000000E+00  0.00000000000E+00  0.14820391497E+03  0.14820391497E+03  0.00000000000E+00 0.  1.
          2   -1    0    0  502    0  0.00000000000E+00 -0.00000000000E+00 -0.34437538700E+04  0.34437538700E+04  0.00000000000E+00 0.  1.
    9000010    2    1    2  502    0  0.80473191782E+01 -0.23631546988E+03 -0.23275008747E+04  0.25347639835E+04  0.97563229229E+03 0.  0.
        -13    1    3    3    0    0 -0.11876765238E+03  0.36449009625E+03 -0.75811296957E+03  0.84952579202E+03  0.10566000000E+00 0.  1.
         13    1    1    2    0    0 -0.10569987435E-01  0.21135761244E+03 -0.20748911882E+03  0.29618201505E+03  0.10566000000E+00 0. -1.
          2    1    1    2  501    0 -0.80367491907E+01  0.24957857447E+02 -0.76055996151E+03  0.76101178640E+03  0.00000000000E+00 0.  1.
          4    1    3    3  502    0  0.12681497156E+03 -0.60080556614E+03 -0.15693879051E+04  0.16852381915E+04  0.00000000000E+00 0.  1.
</event>
<event>
 7    1  0.9434649E-006  0.1055293E+04  0.7818608E-02  0.9006572E-01
         -4   -1    0    0    0  501 -0.00000000000E+00  0.00000000000E+00  0.81192146551E+03  0.81192146551E+03  0.00000000000E+00 0. -1.
          2   -1    0    0  501    0  0.00000000000E+00 -0.00000000000E+00 -0.14400741416E+04  0.14400741416E+04  0.00000000000E+00 0. -1.
   -9000010    2    1    2    0  502 -0.26113929249E+03  0.20980616396E+03 -0.17950428617E+03  0.10735145927E+04  0.10039917507E+04 0.  0.
        -13    1    1    2    0    0  0.25788684744E+03 -0.19597237796E+03  0.29296163110E+03  0.43673484801E+03  0.10566000000E+00 0.  1.
         13    1    3    3    0    0 -0.39776265478E+03  0.51750357359E+03 -0.29677666595E+03  0.71700870206E+03  0.10566000000E+00 0. -1.
          2    1    1    2  502    0  0.32524450473E+01 -0.13833785996E+02 -0.74161002103E+03  0.74174616637E+03  0.00000000000E+00 0. -1.
         -4    1    3    3    0  502  0.13662336229E+03 -0.30769740964E+03  0.11727237978E+03  0.35650589067E+03  0.00000000000E+00 0. -1.
</event>
<event>
 7    1  0.9434649E-006  0.1358371E+04  0.7818608E-02  0.8584310E-01
          4   -1    0    0  501    0 -0.00000000000E+00  0.00000000000E+00  0.90278839791E+03  0.90278839791E+03  0.00000000000E+00 0.  1.
          2   -1    0    0  502    0  0.00000000000E+00 -0.00000000000E+00 -0.23104013641E+04  0.23104013641E+04  0.00000000000E+00 0. -1.
    9000010    2    1    2  502    0  0.72575331380E+02  0.92234903153E+03 -0.10820097196E+04  0.17429853267E+04  0.10056131967E+04 0.  0.
        -13    1    3    3    0    0 -0.70897242285E+02  0.59217128208E+03  0.65549376554E+01  0.59643627040E+03  0.10566000000E+00 0.  1.
         13    1    1    2    0    0 -0.60963405321E+02 -0.90807928227E+03  0.21020307344E+03  0.93408236410E+03  0.10566000000E+00 0. -1.
          2    1    1    2  501    0 -0.11611926058E+02 -0.14269749264E+02 -0.53580632003E+03  0.53612207113E+03  0.00000000000E+00 0. -1.
          4    1    3    3  502    0  0.14347257366E+03  0.33017774945E+03 -0.10885646572E+04  0.11465490563E+04  0.00000000000E+00 0.  1.
</event>
<event>
 6    1  0.9434649E-006  0.1242603E+04  0.7818608E-02  0.8575154E-01
         -4   -1    0    0    0  501 -0.00000000000E+00  0.00000000000E+00  0.50622761639E+03  0.50622761639E+03  0.00000000000E+00 0. -1.
          2   -1    0    0  501    0  0.00000000000E+00 -0.00000000000E+00 -0.16038356621E+04  0.16038356621E+04  0.00000000000E+00 0.  1.
        -13    1    1    2    0    0 -0.18511191343E+03 -0.45041419243E+03 -0.24498036759E+03  0.54511903003E+03  0.10566000000E+00 0.  1.
         13    1    1    2    0    0  0.32555990214E+03  0.12836003896E+03  0.16734285289E+03  0.38790358475E+03  0.10566000000E+00 0. -1.
          2    1    1    2  502    0  0.93979552459E+02  0.19105264815E+03 -0.80607349594E+03  0.83371922822E+03  0.00000000000E+00 0.  1.
         -4    1    1    2    0  502 -0.23442754117E+03  0.13100150532E+03 -0.21389703507E+03  0.34332143549E+03  0.00000000000E+00 0. -1.
</event>
<event>
 7    1  0.9434649E-006  0.1133388E+04  0.7818608E-02  0.8861795E-01
          2   -1    0    0  501    0  0.00000000000E+00  0.00000000000E+00  0.16149596208E+04  0.16149596208E+04  0.00000000000E+00 0. -1.
         -4   -1    0    0    0  501 -0.00000000000E+00 -0.00000000000E+00 -0.74186545467E+03  0.74186545467E+03  0.00000000000E+00 0. -1.
   -9000010    2    1    2    0  502  0.12484974101E+02  0.46270832925E+03  0.63482598183E+03  0.12944871057E+04  0.10288041442E+04 0.  0.
        -13    1    1    2    0    0  0.52375847743E+02 -0.47502978853E+03 -0.27060312390E+03  0.54920177644E+03  0.10566000000E+00 0.  1.
         13    1    3    3    0    0  0.22149822157E+03  0.54315378615E+03 -0.35582360210E+02  0.58765943631E+03  0.10566000000E+00 0. -1.
          2    1    1    2  502    0 -0.64860821844E+02  0.12321459281E+02  0.50887130822E+03  0.51313619333E+03  0.00000000000E+00 0. -1.
         -4    1    3    3    0  502 -0.20901324747E+03 -0.80445456901E+02  0.67040834204E+03  0.70682766940E+03  0.00000000000E+00 0. -1.
</event>
<event>
 7    1  0.9434649E-006  0.1077637E+04  0.7818608E-02  0.9303941E-01
          2   -1    0    0  501    0  0.00000000000E+00  0.00000000000E+00  0.60776440622E+03  0.60776440622E+03  0.00000000000E+00 0.  1.
         -4   -1    0    0    0  501 -0.00000000000E+00 -0.00000000000E+00 -0.10227218647E+04  0.10227218647E+04  0.00000000000E+00 0. -1.
   -9000010    2    1    2    0  502  0.74555434472E+02  0.77304383773E+02 -0.46707753191E+03  0.11755434633E+04  0.10734088377E+04 0.  0.
        -13    1    1    2    0    0 -0.75983482689E+02 -0.57064787559E+02 -0.18975464681E+03  0.21221855897E+03  0.10566000000E+00 0.  1.
         13    1    3    3    0    0  0.45673655637E+03  0.19417682846E+03 -0.57697157558E+03  0.76105790373E+03  0.10566000000E+00 0. -1.
          2    1    1    2  502    0  0.14280482170E+01 -0.20239596214E+02  0.24187472025E+03  0.24272424863E+03  0.00000000000E+00 0.  1.
         -4    1    3    3    0  502 -0.38218112190E+03 -0.11687244469E+03  0.10989404367E+03  0.41448555958E+03  0.00000000000E+00 0. -1.
</event>
<event>
 7    1  0.9434649E-006  0.1078248E+04  0.7818608E-02  0.8923882E-01
          2   -1    0    0  502    0  0.00000000000E+00  0.00000000000E+00  0.13663150590E+04  0.13663150590E+04  0.00000000000E+00 0.  1.
          4   -1    0    0  501    0 -0.00000000000E+00 -0.00000000000E+00 -0.46019731361E+03  0.46019731361E+03  0.00000000000E+00 0.  1.
    9000010    2    1    2  502    0  0.36033833024E+03 -0.21088569621E+03  0.63854882409E+03  0.12499632398E+04  0.99012474518E+03 0.  0.
        -13    1    3    3    0    0  0.41273391676E+03  0.20999220017E+03  0.68119858162E+03  0.82369747416E+03  0.10566000000E+00 0.  1.
         13    1    1    2    0    0 -0.37824524798E+03  0.20450202412E+03  0.14689701557E+03  0.45438891913E+03  0.10566000000E+00 0. -1.
          2    1    1    2  501    0  0.17906917738E+02  0.63836720939E+01  0.12067190575E+03  0.12216021369E+03  0.00000000000E+00 0.  1.
          4    1    3    3  502    0 -0.52395586519E+02 -0.42087789638E+03 -0.42649757527E+02  0.42626576565E+03  0.00000000000E+00 0.  1.
</event>
<event>
 6    1  0.9434649E-006  0.7024047E+03  0.7818608E-02  0.9119497E-01
         -4   -1    0    0    0  501 -0.00000000000E+00  0.00000000000E+00  0.24188827810E+04  0.24188827810E+04  0.00000000000E+00 0. -1.
          5   -1    0    0  501    0  0.00000000000E+00 -0.00000000000E+00 -0.34321619216E+03  0.34321619216E+03  0.00000000000E+00 0. -1.
        -13    1    1    2    0    0  0.20309925765E+02 -0.22747776839E+03  0.51977464039E+03  0.56773613250E+03  0.10566000000E+00 0.  1.
         13    1    1    2    0    0 -0.34738874531E+02  0.30539074021E+03  0.17345057849E+04  0.17615279227E+04  0.10566000000E+00 0. -1.
          5    1    1    2  502    0 -0.45388824653E+02 -0.21414063248E+02 -0.29002385565E+03  0.29433406930E+03  0.00000000000E+00 0. -1.
         -4    1    1    2    0  502  0.59817773418E+02 -0.56498908571E+02  0.11141001925E+03  0.13850084865E+03  0.00000000000E+00 0. -1.
</event>
<event>
 7    1  0.9434649E-006  0.1054716E+04  0.7818608E-02  0.9040837E-01
          4   -1    0    0  501    0 -0.00000000000E+00  0.00000000000E+00  0.17185716055E+04  0.17185716055E+04  0.00000000000E+00 0.  1.
          2   -1    0    0  502    0  0.00000000000E+00 -0.00000000000E+00 -0.80656547510E+03  0.80656547510E+03  0.00000000000E+00 0.  1.
    9000010    2    1    2  502    0 -0.19117803955E+03 -0.21552162129E+03  0.81226579480E+03  0.13321995578E+04  0.10158648179E+04 0.  0.
        -13    1    3    3    0    0  0.36689295209E+03 -0.50786744477E+02  0.61475669980E+03  0.71771550270E+03  0.10566000000E+00 0.  1.
         13    1    1    2    0    0  0.19837407257E+03  0.20202058966E+03  0.61521280620E+03  0.67723806700E+03  0.10566000000E+00 0. -1.
          2    1    1    2  501    0 -0.71960330167E+01  0.13501031624E+02 -0.51547247062E+03  0.51569945580E+03  0.00000000000E+00 0.  1.
          4    1    3    3  502    0 -0.55807099164E+03 -0.16473487681E+03  0.19750909500E+03  0.61448405509E+03  0.00000000000E+00 0.  1.
</event>
<event>
 7    1  0.9434649E-006  0.1017702E+04  0.7818608E-02  0.9104447E-01
          2   -1    0    0  502    0  0.00000000000E+00  0.00000000000E+00  0.24282754036E+04  0.24282754036E+04  0.00000000000E+00 0.  1.
          4   -1    0    0  501    0 -0.00000000000E+00 -0.00000000000E+00 -0.22703296041E+03  0.22703296041E+03  0.00000000000E+00 0.  1.
    9000010    2    1    2  502    0  0.10123713121E+03 -0.22260961424E+03  0.20794436515E+04  0.23150696932E+04  0.98775391047E+03 0.  0.
        -13    1    3    3    0    0 -0.20487929413E+03  0.23064675026E+03  0.22550118395E+03  0.38213118650E+03  0.10566000000E+00 0.  1.
         13    1    1    2    0    0 -0.15307141191E+03  0.19205795108E+03  0.57615390435E+02  0.25226307319E+03  0.10566000000E+00 0. -1.
          2    1    1    2  501    0  0.51834280700E+02  0.30551663154E+02  0.64183401322E+02  0.87975597653E+02  0.00000000000E+00 0.  1.
          4    1    3    3  502    0  0.30611642533E+03 -0.45325636450E+03  0.18539424675E+04  0.19329385067E+04  0.00000000000E+00 0.  1.
</event>
<event>
 6    1  0.9434649E-006  0.1091768E+03  0.7818608E-02  0.1150205E+00
          2   -1    0    0  501    0  0.00000000000E+00  0.00000000000E+00  0.85835690585E+03  0.85835690585E+03  0.00000000000E+00 0. -1.
         -4   -1    0    0    0  501 -0.00000000000E+00 -0.00000000000E+00 -0.85300441212E+01  0.85300441212E+01  0.00000000000E+00 0. -1.
        -13    1    1    2    0    0 -0.15413763265E+02  0.71945318800E+01  0.47831116317E+02  0.50765857021E+02  0.10566000000E+00 0.  1.
         13    1    1    2    0    0  0.19709889506E+02 -0.37979329405E+02  0.80775251599E+02  0.91408761294E+02  0.10566000000E+00 0. -1.
          2    1    1    2  502    0 -0.16489714420E+02 -0.47027231521E+01  0.50277994783E+03  0.50307226343E+03  0.00000000000E+00 0. -1.
         -4    1    1    2    0  502  0.12193588178E+02  0.35487520677E+02  0.21844054598E+03  0.22164006823E+03  0.00000000000E+00 0. -1.
</event>
<event>
 7    1  0.9434649E-006  0.1020926E+04  0.7818608E-02  0.9154203E-01
          2   -1    0    0  501    0  0.00000000000E+00  0.00000000000E+00  0.21810265623E+04  0.21810265623E+04  0.00000000000E+00 0. -1.
         -4   -1    0    0    0  501 -0.00000000000E+00 -0.00000000000E+00 -0.58992959802E+03  0.58992959802E+03  0.00000000000E+00 0. -1.
   -9000010    2    1    2    0  502  0.28604364740E+03  0.74059685520E+01  0.85439721471E+03  0.13445866480E+04  0.99801945714E+03 0.  0.
        -13    1    1    2    0    0 -0.13551821740E+03  0.14654874648E+03 -0.30397638086E+03  0.36365282018E+03  0.10566000000E+00 0.  1.
         13    1    3    3    0    0  0.54687196177E+03 -0.30159514792E+03  0.60489213632E+03  0.86943837249E+03  0.10566000000E+00 0. -1.
          2    1    1    2  502    0 -0.15052542999E+03 -0.15395471503E+03  0.10406761304E+04  0.10627166922E+04  0.00000000000E+00 0. -1.
         -4    1    3    3    0  502 -0.26082831437E+03  0.30900111647E+03  0.24950507840E+03  0.47514827549E+03  0.00000000000E+00 0. -1.
</event>
<event>
 7    1  0.9434649E-006  0.1065304E+04  0.7818608E-02  0.9007650E-01
          1   -1    0    0  501    0  0.00000000000E+00  0.00000000000E+00  0.68680143293E+03  0.68680143293E+03  0.00000000000E+00 0. -1.
         -4   -1    0    0    0  501 -0.00000000000E+00 -0.00000000000E+00 -0.26831531902E+04  0.26831531902E+04  0.00000000000E+00 0. -1.
   -9000010    2    1    2    0  502 -0.52282274995E+01 -0.33511120247E+03 -0.10624684411E+04  0.15089994965E+04  0.10177983296E+04 0.  0.
        -13    1    1    2    0    0 -0.36384650138E+00  0.31296681564E+03 -0.13796000752E+04  0.14146535755E+04  0.10566000000E+00 0.  1.
         13    1    3    3    0    0 -0.23093524312E+03 -0.39649647175E+03 -0.40529324689E+02  0.46063345074E+03  0.10566000000E+00 0. -1.
          1    1    1    2  502    0  0.55920740009E+01  0.22144386832E+02  0.44571675910E+03  0.44630155108E+03  0.00000000000E+00 0. -1.
         -4    1    3    3    0  502  0.22570701562E+03  0.61385269273E+02 -0.10219391164E+04  0.10483660457E+04  0.00000000000E+00 0. -1.
</event>
<event>
 7    1  0.9434649E-006  0.9947317E+03  0.7818608E-02  0.9336130E-01
          4   -1    0    0  501    0 -0.00000000000E+00  0.00000000000E+00  0.73555275839E+03  0.73555275839E+03  0.00000000000E+00 0.  1.
          2   -1    0    0  502    0  0.00000000000E+00 -0.00000000000E+00 -0.72592832225E+03  0.72592832225E+03  0.00000000000E+00 0. -1.
    9000010    2    1    2  502    0  0.55877890209E+02 -0.55022185672E+02  0.20556390723E+03  0.10130971922E+04  0.98891840985E+03 0.  0.
        -13    1    3    3    0    0 -0.26915992366E+02 -0.44952551272E+03  0.36493934264E+03  0.57963643105E+03  0.10566000000E+00 0.  1.
         13    1    1    2    0    0 -0.10625277710E+03 -0.35617744537E+02  0.90313874410E+02  0.14392665994E+03  0.10566000000E+00 0. -1.
          2    1    1    2  501    0  0.50374886890E+02  0.90639930209E+02 -0.28625334550E+03  0.30445722850E+03  0.00000000000E+00 0. -1.
          4    1    3    3  502    0  0.82793882575E+02  0.39450332705E+03 -0.15937543541E+03  0.43346076115E+03  0.00000000000E+00 0.  1.
</event>
<event>
 7    1  0.9434649E-006  0.1049577E+04  0.7818608E-02  0.8959113E-01
         -4   -1    0    0    0  501 -0.00000000000E+00  0.00000000000E+00  0.14846072215E+04  0.14846072215E+04  0.00000000000E+00 0. -1.
          2   -1    0    0  501    0  0.00000000000E+00 -0.00000000000E+00 -0.25354107225E+04  0.25354107225E+04  0.00000000000E+00 0.  1.
   -9000010    2    1    2    0  502  0.40639167678E+03 -0.41609290277E+00  0.87548596938E+03  0.13684845216E+04  0.97011331054E+03 0.  0.
        -13    1    1    2    0    0 -0.39640341362E+03 -0.43725917279E+02  0.25266476588E+03  0.47210922174E+03  0.10566000000E+00 0.  1.
         13    1    3    3    0    0  0.57517660677E+03 -0.30386617064E+03  0.35014221343E+03  0.73875730753E+03  0.10566000000E+00 0. -1.
          2    1    1    2  502    0 -0.99882631543E+01  0.44142010182E+02 -0.21789542362E+04  0.21794242006E+04  0.00000000000E+00 0.  1.
         -4    1    3    3    0  502 -0.16878492999E+03  0.30345007774E+03  0.52534375594E+03  0.62972721410E+03  0.00000000000E+00 0. -1.
</event>
<event>
 7    1  0.9434649E-006  0.1210476E+04  0.7818608E-02  0.8725083E-01
         -4   -1    0    0    0  501 -0.00000000000E+00  0.00000000000E+00  0.80038523033E+03  0.80038523033E+03  0.00000000000E+00 0. -1.
          1   -1    0    0  501    0  0.00000000000E+00 -0.00000000000E+00 -0.21997803320E+04  0.21997803320E+04  0.00000000000E+00 0.  1.
   -9000010    2    1    2    0  502  0.19041401295E+03  0.70818800913E+03 -0.81649938954E+03  0.14778518419E+04  0.98974090596E+03 0.  0.
        -13    1    1    2    0    0 -0.11635161596E+03 -0.67950676023E+03  0.21370804403E+03  0.72176053853E+03  0.10566000000E+00 0.  1.
         13    1    3    3    0    0  0.42399735698E+03  0.18512753383E+03  0.21060580571E+02  0.46313013476E+03  0.10566000000E+00 0. -1.
          1    1    1    2  502    0 -0.74062396991E+02 -0.28681248896E+02 -0.79660375616E+03  0.80055318188E+03  0.00000000000E+00 0.  1.
         -4    1    3    3    0  502 -0.23358334403E+03  0.52306047530E+03 -0.83755997011E+03  0.10147217071E+04  0.00000000000E+00 0. -1.
</event>
<event>
 7    1  0.9434649E-006  0.1491931E+04  0.7818608E-02  0.8500221E-01
         -4   -1    0    0    0  501 -0.00000000000E+00  0.00000000000E+00  0.31097868319E+04  0.31097868319E+04  0.00000000000E+00 0. -1.
          1   -1    0    0  501    0  0.00000000000E+00 -0.00000000000E+00 -0.75922432672E+03  0.75922432672E+03  0.00000000000E+00 0.  1.
   -9000010    2    1    2    0  502 -0.62446603089E+03  0.75745125901E+03  0.99908544289E+03  0.17822077531E+04  0.11019993283E+04 0.  0.
        -13    1    1    2    0    0  0.67091420353E+03 -0.76173215915E+03  0.15665856434E+04  0.18666955671E+04  0.10566000000E+00 0.  1.
         13    1    3    3    0    0 -0.29299446625E+03 -0.16087388733E+03  0.67548081019E+03  0.75365807962E+03  0.10566000000E+00 0. -1.
          1    1    1    2  502    0 -0.46448172640E+02  0.42809001390E+01 -0.21510858115E+03  0.22010783841E+03  0.00000000000E+00 0.  1.
         -4    1    3    3    0  502 -0.33147156464E+03  0.91832514634E+03  0.32360463270E+03  0.10285496735E+04  0.00000000000E+00 0. -1.
</event>
<event>
 7    1  0.9434649E-006  0.9943199E+03  0.7818608E-02  0.9224074E-01
          4   -1    0    0  501    0  0.00000000000E+00  0.00000000000E+00  0.41031182402E+03  0.41031182402E+03  0.00000000000E+00 0.  1.
          4   -1    0    0  502    0 -0.00000000000E+00 -0.00000000000E+00 -0.11289049388E+04  0.11289049388E+04  0.00000000000E+00 0.  1.
    9000010    2    1    2  501    0  0.13376569264E+03 -0.82781533718E+02 -0.38947862652E+03  0.10667615409E+04  0.98058173637E+03 0.  0.
        -13    1    3    3    0    0  0.22136624443E+03  0.45802279835E+02 -0.69123253707E+03  0.72725737843E+03  0.10566000000E+00 0.  1.
         13    1    1    2    0    0 -0.15504728902E+03  0.57158653732E+02 -0.37843526091E+03  0.41294071172E+03  0.10566000000E+00 0. -1.
          4    1    3    3  501    0 -0.87600551792E+02 -0.12858381355E+03  0.30175391055E+03  0.33950416244E+03  0.00000000000E+00 0.  1.
          4    1    1    2  502    0  0.21281596379E+02  0.25622879986E+02  0.49320772609E+02  0.59514510281E+02  0.00000000000E+00 0.  1.
</event>
<event>
 7    1  0.9434649E-006  0.1088998E+04  0.7818608E-02  0.8906274E-01
          4   -1    0    0  501    0 -0.00000000000E+00  0.00000000000E+00  0.17001393888E+04  0.17001393888E+04  0.00000000000E+00 0.  1.
          2   -1    0    0  502    0  0.00000000000E+00 -0.00000000000E+00 -0.18140667770E+04  0.18140667770E+04  0.00000000000E+00 0.  1.
    9000010    2    1    2  502    0 -0.13110692398E+03 -0.49911428136E+03  0.21896557633E+03  0.11435108631E+04  0.99667802173E+03 0.  0.
        -13    1    3    3    0    0  0.50598627809E+02  0.29275666399E+03 -0.16713717775E+02  0.29756687480E+03  0.10566000000E+00 0.  1.
         13    1    1    2    0    0  0.41712667349E+03  0.15683299610E+03  0.93004699076E+03  0.10312995038E+04  0.10566000000E+00 0. -1.
          2    1    1    2  501    0 -0.28601974951E+03  0.34228128526E+03 -0.12629399553E+04  0.13393957989E+04  0.00000000000E+00 0.  1.
          4    1    3    3  502    0 -0.18170555179E+03 -0.79187094536E+03  0.23567929410E+03  0.84594398829E+03  0.00000000000E+00 0.  1.
</event>
<event>
 6    1  0.9434649E-006  0.9819375E+03  0.7818608E-02  0.8791750E-01
          4   -1    0    0  501    0  0.00000000000E+00  0.00000000000E+00  0.12719411210E+04  0.12719411210E+04  0.00000000000E+00 0. -1.
         -4   -1    0    0    0  501 -0.00000000000E+00 -0.00000000000E+00 -0.24613405834E+03  0.24613405834E+03  0.00000000000E+00 0. -1.
        -13    1    1    2    0    0  0.23137734015E+03 -0.60323947569E+01  0.75544733686E+02  0.24347254727E+03  0.10566000000E+00 0.  1.
         13    1    1    2    0    0 -0.32905722597E+03 -0.17805610255E+03  0.67539348448E+03  0.77210038444E+03  0.10566000000E+00 0. -1.
          4    1    1    2  502    0  0.96338663575E+01 -0.60493730442E+01  0.29204401307E+03  0.29226548182E+03  0.00000000000E+00 0. -1.
         -4    1    1    2    0  502  0.88046019461E+02  0.19013787035E+03 -0.17175168567E+02  0.21023676581E+03  0.00000000000E+00 0. -1.
</event>
<event>
 6    1  0.9434649E-006  0.5574236E+03  0.7818608E-02  0.9360275E-01
         -4   -1    0    0    0  501 -0.00000000000E+00  0.00000000000E+00  0.21885817934E+03  0.21885817934E+03  0.00000000000E+00 0. -1.
          1   -1    0    0  501    0  0.00000000000E+00 -0.00000000000E+00 -0.73441599113E+03  0.73441599113E+03  0.00000000000E+00 0.  1.
        -13    1    1    2    0    0  0.24683313757E+03  0.73587281421E+02  0.35405010829E+02  0.25999079166E+03  0.10566000000E+00 0.  1.
         13    1    1    2    0    0 -0.20745052637E+03 -0.11041262002E+03 -0.15247348522E+03  0.28013361528E+03  0.10566000000E+00 0. -1.
          1    1    1    2  502    0 -0.26810898397E+02  0.12775491472E+02 -0.37795196203E+03  0.37911703082E+03  0.00000000000E+00 0.  1.
         -4    1    1    2    0  502 -0.12571712805E+02  0.24049847124E+02 -0.20537375368E+02  0.34032732722E+02  0.00000000000E+00 0. -1.
</event>
<event>
 6    1  0.9434649E-006  0.6466614E+03  0.7818608E-02  0.9204166E-01
         -4   -1    0    0    0  501 -0.00000000000E+00  0.00000000000E+00  0.14730586319E+04  0.14730586319E+04  0.00000000000E+00 0. -1.
          1   -1    0    0  501    0  0.00000000000E+00 -0.00000000000E+00 -0.22110261198E+03  0.22110261198E+03  0.00000000000E+00 0. -1.
        -13    1    1    2    0    0  0.11819565097E+03  0.18991374854E+03  0.61209023371E+03  0.65168390280E+03  0.10566000000E+00 0.  1.
         13    1    1    2    0    0 -0.82245223077E+02 -0.12215717594E+03  0.81286147622E+03  0.82609348323E+03  0.10566000000E+00 0. -1.
          1    1    1    2  502    0 -0.71775042654E+02 -0.48667727529E+02 -0.13694800638E+03  0.16209553017E+03  0.00000000000E+00 0. -1.
         -4    1    1    2    0  502  0.35824614756E+02 -0.19088845075E+02 -0.36047683626E+02  0.54288327692E+02  0.00000000000E+00 0. -1.
</event>
<event>
 7    1  0.9434649E-006  0.1040942E+04  0.7818608E-02  0.9066782E-01
          2   -1    0    0  501    0  0.00000000000E+00  0.00000000000E+00  0.11126801444E+04  0.11126801444E+04  0.00000000000E+00 0. -1.
         -4   -1    0    0    0  501 -0.00000000000E+00 -0.00000000000E+00 -0.64021313519E+03  0.64021313519E+03  0.00000000000E+00 0. -1.
   -9000010    2    1    2    0  502  0.39555762266E+03  0.22881288373E+03  0.39683249883E+03  0.11743588326E+04  0.10063903154E+04 0.  0.
        -13    1    1    2    0    0 -0.17136477672E+03 -0.18012154206E+03 -0.12089067549E+03  0.27644931398E+03  0.10566000000E+00 0.  1.
         13    1    3    3    0    0  0.73837260178E+03  0.15201932826E+03  0.27835761957E+03  0.80360870501E+03  0.10566000000E+00 0. -1.
          2    1    1    2  502    0 -0.22419284593E+03 -0.48691341666E+02  0.19652518585E+03  0.30208513303E+03  0.00000000000E+00 0. -1.
         -4    1    3    3    0  502 -0.34281497913E+03  0.76793555465E+02  0.11847487926E+03  0.37075012756E+03  0.00000000000E+00 0. -1.
</event>
<event>
 7    1  0.9434649E-006  0.1030640E+04  0.7818608E-02  0.9051047E-01
          4   -1    0    0  501    0 -0.00000000000E+00  0.00000000000E+00  0.12130900181E+04  0.12130900181E+04  0.00000000000E+00 0.  1.
          2   -1    0    0  502    0  0.00000000000E+00 -0.00000000000E+00 -0.81911306850E+03  0.81911306850E+03  0.00000000000E+00 0.  1.
    9000010    2    1    2  502    0  0.24162262103E+03 -0.13851419359E+03 -0.19695200207E+03  0.10380480946E+04  0.98040098061E+03 0.  0.
        -13    1    3    3    0    0  0.62067656331E+02 -0.44889050232E+03 -0.41825885209E+03  0.61668108091E+03  0.10566000000E+00 0.  1.
         13    1    1    2    0    0  0.11147471787E+03  0.26966231462E+03  0.54035654640E+03  0.61410877298E+03  0.10566000000E+00 0. -1.
          2    1    1    2  501    0 -0.35309733890E+03 -0.13114812103E+03  0.50572405235E+02  0.38004621898E+03  0.00000000000E+00 0.  1.
          4    1    3    3  502    0  0.17955496470E+03  0.31037630873E+03  0.22130685002E+03  0.42136701370E+03  0.00000000000E+00 0.  1.
</event>
<event>
 7    1  0.9434649E-006  0.1016450E+04  0.7818608E-02  0.9410283E-01
         -4   -1    0    0    0  501  0.00000000000E+00  0.00000000000E+00  0.41388027590E+03  0.41388027590E+03  0.00000000000E+00 0. -1.
         -4   -1    0    0    0  502 -0.00000000000E+00 -0.00000000000E+00 -0.10288882829E+04  0.10288882829E+04  0.00000000000E+00 0. -1.
   -9000010    2    1    2    0  501  0.37796578712E+02 -0.88381061438E+02 -0.49331047188E+03  0.11313441186E+04  0.10135800411E+04 0.  0.
        -13    1    1    2    0    0 -0.16649460851E+02  0.74095714311E+02 -0.20799869134E+03  0.22142909969E+03  0.10566000000E+00 0.  1.
         13    1    3    3    0    0 -0.48779103236E+01 -0.42435120663E+03 -0.63538922961E+03  0.76407933151E+03  0.10566000000E+00 0. -1.
         -4    1    1    2    0  502 -0.21147117861E+02  0.14285347127E+02  0.86301156238E+02  0.89995340459E+02  0.00000000000E+00 0. -1.
         -4    1    3    3    0  501  0.42674489036E+02  0.33597014519E+03  0.14207875772E+03  0.36726478714E+03  0.00000000000E+00 0. -1.
</event>
<event>
 6    1  0.9434649E-006  0.6155134E+03  0.7818608E-02  0.9255469E-01
          4   -1    0    0  501    0 -0.00000000000E+00  0.00000000000E+00  0.96493011792E+02  0.96493011792E+02  0.00000000000E+00 0.  1.
          2   -1    0    0  502    0  0.00000000000E+00 -0.00000000000E+00 -0.15347776291E+04  0.15347776291E+04  0.00000000000E+00 0.  1.
        -13    1    1    2    0    0  0.13433133841E+03  0.90086223926E+02 -0.61943890566E+01  0.16186048881E+03  0.10566000000E+00 0.  1.
         13    1    1    2    0    0 -0.22640511252E+02 -0.70905952382E+02 -0.24951206975E+03  0.26037766983E+03  0.10566000000E+00 0. -1.
          2    1    1    2  501    0  0.36959433562E+02  0.62244698185E+02 -0.52478437696E+03  0.52975375835E+03  0.00000000000E+00 0.  1.
          4    1    1    2  502    0 -0.14865026072E+03 -0.81424969728E+02 -0.65779378153E+03  0.67927872388E+03  0.00000000000E+00 0.  1.
</event>
<event>
 7    1  0.9434649E-006  0.1383633E+04  0.7818608E-02  0.8556217E-01
          2   -1    0    0  501    0  0.00000000000E+00  0.00000000000E+00  0.12298926687E+04  0.12298926687E+04  0.00000000000E+00 0. -1.
         -4   -1    0    0    0  501 -0.00000000000E+00 -0.00000000000E+00 -0.22407638498E+04  0.22407638498E+04  0.00000000000E+00 0. -1.
   -9000010    2    1    2    0  502  0.45868582332E+03  0.54775174861E+03 -0.31714286863E+03  0.12513792971E+04  0.97721332551E+03 0.  0.
        -13    1    1    2    0    0 -0.52432427863E+03 -0.12330707656E+04 -0.16258341666E+03  0.13497454726E+04  0.10566000000E+00 0.  1.
         13    1    3    3    0    0  0.40577625640E+03  0.62851569744E+03 -0.59585638382E+03  0.95641580575E+03  0.10566000000E+00 0. -1.
          2    1    1    2  502    0  0.65638455314E+02  0.68531901700E+03 -0.53114489584E+03  0.86953174885E+03  0.00000000000E+00 0. -1.
         -4    1    3    3    0  502  0.52909566920E+02 -0.80763948833E+02  0.27871351519E+03  0.29496349139E+03  0.00000000000E+00 0. -1.
</event>
<event>
 7    1  0.9434649E-006  0.9975557E+03  0.7818608E-02  0.9514974E-01
          4   -1    0    0  501    0  0.00000000000E+00  0.00000000000E+00  0.50332646143E+03  0.50332646143E+03  0.00000000000E+00 0. -1.
         -4   -1    0    0    0  501 -0.00000000000E+00 -0.00000000000E+00 -0.63116080159E+03  0.63116080159E+03  0.00000000000E+00 0. -1.
   -9000010    2    1    2    0  502 -0.18634358839E+02 -0.32755038340E+02 -0.21111685987E+02  0.99697262690E+03  0.99603643690E+03 0.  0.
        -13    1    1    2    0    0  0.28323161448E+02  0.47467374616E+02 -0.10639344706E+03  0.11989549562E+03  0.10566000000E+00 0.  1.
         13    1    3    3    0    0  0.10021889863E+02  0.30274014438E+03  0.37176712682E+03  0.47954440988E+03  0.10566000000E+00 0. -1.
          4    1    1    2  502    0 -0.96888026083E+01 -0.14712336275E+02 -0.32920711889E+00  0.17619140501E+02  0.00000000000E+00 0. -1.
         -4    1    3    3    0  502 -0.28656248703E+02 -0.33549518272E+03 -0.39287881281E+03  0.51742821702E+03  0.00000000000E+00 0. -1.
</event>
<event>
 7    1  0.9434649E-006  0.1121681E+04  0.7818608E-02  0.8882366E-01
          4   -1    0    0  501    0 -0.00000000000E+00  0.00000000000E+00  0.14121122456E+04  0.14121122456E+04  0.00000000000E+00 0.  1.
          2   -1    0    0  502    0  0.00000000000E+00 -0.00000000000E+00 -0.12992133525E+04  0.12992133525E+04  0.00000000000E+00 0.  1.
    9000010    2    1    2  502    0  0.28504974444E+03  0.36773976103E+03 -0.23589399449E+03  0.11521884778E+04  0.10273297539E+04 0.  0.
        -13    1    3    3    0    0 -0.15441589303E+02  0.54264630262E+03 -0.48219804877E+03  0.72609808003E+03  0.10566000000E+00 0.  1.
         13    1    1    2    0    0 -0.26941715388E+03 -0.35937763130E+03  0.90094658276E+03  0.10066988829E+04  0.10566000000E+00 0. -1.
          2    1    1    2  501    0 -0.15632590565E+02 -0.83621297353E+01 -0.55215369516E+03  0.55243823744E+03  0.00000000000E+00 0.  1.
          4    1    3    3  502    0  0.30049133374E+03 -0.17490654158E+03  0.24630405428E+03  0.42609039780E+03  0.00000000000E+00 0.  1.
</event>
<event>
 7    1  0.9434649E-006  0.1051143E+04  0.7818608E-02  0.9044450E-01
         -4   -1    0    0    0  501 -0.00000000000E+00  0.00000000000E+00  0.68589108502E+03  0.68589108502E+03  0.00000000000E+00 0. -1.
          1   -1    0    0  501    0  0.00000000000E+00 -0.00000000000E+00 -0.12580868360E+04  0.12580868360E+04  0.00000000000E+00 0. -1.
   -9000010    2    1    2    0  502  0.11966743982E+03 -0.34563541632E+02 -0.73444113859E+03  0.12635327401E+04  0.10205862358E+04 0.  0.
        -13    1    1    2    0    0  0.12575657223E+03 -0.25286628327E+03  0.81886242595E+02  0.29404326308E+03  0.10566000000E+00 0.  1.
         13    1    3    3    0    0 -0.71140970401E+02 -0.34827224476E+03  0.85089541836E+02  0.36550627277E+03  0.10566000000E+00 0. -1.
          1    1    1    2  502    0 -0.24542401205E+03  0.28742982490E+03  0.80359145016E+02  0.38640191786E+03  0.00000000000E+00 0. -1.
         -4    1    3    3    0  502  0.19080841023E+03  0.31370870313E+03 -0.81953068043E+03  0.89802646731E+03  0.00000000000E+00 0. -1.
</event>
<event>
 7    1  0.9434649E-006  0.9452576E+03  0.7818608E-02  0.9779374E-01
          2   -1    0    0  502    0  0.00000000000E+00  0.00000000000E+00  0.18767141015E+04  0.18767141015E+04  0.00000000000E+00 0.  1.
          4   -1    0    0  501    0 -0.00000000000E+00 -0.00000000000E+00 -0.23528765292E+03  0.23528765292E+03  0.00000000000E+00 0.  1.
    9000010    2    1    2  502    0 -0.64870929926E+02  0.16876226168E+01  0.13934585265E+04  0.16845899551E+04  0.94440752126E+03 0.  0.
        -13    1    3    3    0    0 -0.41850627500E+03 -0.22365501559E+03  0.45822235771E+03  0.65964900400E+03  0.10566000000E+00 0.  1.
         13    1    1    2    0    0  0.25287407027E+02  0.31653096737E+01 -0.86704183870E+02  0.90372002324E+02  0.10566000000E+00 0. -1.
          2    1    1    2  501    0  0.39583522899E+02 -0.48529322905E+01  0.33467210596E+03  0.33703979697E+03  0.00000000000E+00 0.  1.
          4    1    3    3  502    0  0.35363534507E+03  0.22534263820E+03  0.93523616880E+03  0.10249409511E+04  0.00000000000E+00 0.  1.
</event>
<event>
 7    1  0.9434649E-006  0.1145830E+04  0.7818608E-02  0.8824646E-01
          2   -1    0    0  502    0  0.00000000000E+00  0.00000000000E+00  0.24426680263E+04  0.24426680263E+04  0.00000000000E+00 0.  1.
          4   -1    0    0  501    0 -0.00000000000E+00 -0.00000000000E+00 -0.22335986452E+04  0.22335986452E+04  0.00000000000E+00 0.  1.
    9000010    2    1    2  502    0  0.47290069362E+03  0.37925526531E+03 -0.83099866427E+03  0.14428264821E+04  0.10117904206E+04 0.  0.
        -13    1    3    3    0    0  0.63064104453E+03  0.13349077847E+03 -0.95726714742E+02  0.65168361194E+03  0.10566000000E+00 0.  1.
         13    1    1    2    0    0 -0.37837322707E+03 -0.36272096856E+03 -0.10328846691E+04  0.11582674781E+04  0.10566000000E+00 0. -1.
          2    1    1    2  501    0 -0.94527466550E+02 -0.16534296755E+02  0.20729527145E+04  0.20751727112E+04  0.00000000000E+00 0.  1.
          4    1    3    3  502    0 -0.15774035091E+03  0.24576448684E+03 -0.73527194953E+03  0.79114287019E+03  0.00000000000E+00 0.  1.
</event>
<event>
 7    1  0.9434649E-006  0.1073986E+04  0.7818608E-02  0.8965715E-01
         -4   -1    0    0    0  501 -0.00000000000E+00  0.00000000000E+00  0.14055235721E+04  0.14055235721E+04  0.00000000000E+00 0. -1.
          1   -1    0    0  501    0  0.00000000000E+00 -0.00000000000E+00 -0.41008935831E+03  0.41008935831E+03  0.00000000000E+00 0.  1.
   -9000010    2    1    2    0  502  0.35041201047E+03  0.25059893616E+02  0.68519234175E+03  0.12703827462E+04  0.10104292164E+04 0.  0.
        -13    1    1    2    0    0 -0.36516395067E+03 -0.41210677014E+02  0.34507209427E+03  0.50410097419E+03  0.10566000000E+00 0.  1.
         13    1    3    3    0    0  0.37927033897E+03 -0.41338499361E+03  0.60254820088E+03  0.82328457322E+03  0.10566000000E+00 0. -1.
          1    1    1    2  502    0  0.14751940194E+02  0.16150783398E+02 -0.34830222186E+02  0.41129210075E+02  0.00000000000E+00 0.  1.
         -4    1    3    3    0  502 -0.28858328490E+02  0.43844488722E+03  0.82644140874E+02  0.44709817297E+03  0.00000000000E+00 0. -1.
</event>
<event>
 7    1  0.9434649E-006  0.1202997E+04  0.7818608E-02  0.8755242E-01
          2   -1    0    0  502    0  0.00000000000E+00  0.00000000000E+00  0.11468612258E+04  0.11468612258E+04  0.00000000000E+00 0.  1.
          4   -1    0    0  501    0 -0.00000000000E+00 -0.00000000000E+00 -0.25074054511E+04  0.25074054511E+04  0.00000000000E+00 0.  1.
    9000010    2    1    2  502    0  0.48031106511E+03  0.87014786593E+03 -0.97558545035E+02  0.14336767208E+04  0.10286181227E+04 0.  0.
        -13    1    3    3    0    0 -0.19140405258E+03 -0.12579748738E+03 -0.13100449416E+02  0.22941698305E+03  0.10566000000E+00 0.  1.
         13    1    1    2    0    0 -0.53878836689E+03 -0.27351020567E+03 -0.14676131759E+04  0.15871323770E+04  0.10566000000E+00 0. -1.
          2    1    1    2  501    0  0.58477301778E+02 -0.59663766026E+03  0.20462749564E+03  0.63345757903E+03  0.00000000000E+00 0.  1.
          4    1    3    3  502    0  0.67171511769E+03  0.99594535331E+03 -0.84458095619E+02  0.12042597378E+04  0.00000000000E+00 0.  1.
</event>
<event>
 7    1  0.9434649E-006  0.1076048E+04  0.7818608E-02  0.9015580E-01
          4   -1    0    0  501    0 -0.00000000000E+00  0.00000000000E+00  0.97790829591E+03  0.97790829591E+03  0.00000000000E+00 0.  1.
          2   -1    0    0  502    0  0.00000000000E+00 -0.00000000000E+00 -0.13099070836E+04  0.13099070836E+04  0.00000000000E+00 0.  1.
    9000010    2    1    2  502    0  0.30077934685E+03 -0.43187177901E+03  0.44274477441E+03  0.12146764135E+04  0.10012164628E+04 0.  0.
        -13    1    3    3    0    0  0.43425237403E+03  0.20420228198E+03  0.21709626893E+03  0.52669203285E+03  0.10566000000E+00 0.  1.
         13    1    1    2    0    0 -0.29277129152E+03  0.41052717152E+02 -0.13864860103E+03  0.32653300056E+03  0.10566000000E+00 0. -1.
          2    1    1    2  501    0 -0.80080553287E+01  0.39081906186E+03 -0.63609496103E+03  0.74660596536E+03  0.00000000000E+00 0.  1.
          4    1    3    3  502    0 -0.13347302718E+03 -0.63607406099E+03  0.22564850548E+03  0.68798438069E+03  0.00000000000E+00 0.  1.
</event>
<event>
 7    1  0.9434649E-006  0.1029949E+04  0.7818608E-02  0.9099640E-01
          2   -1    0    0  502    0  0.00000000000E+00  0.00000000000E+00  0.20354915285E+04  0.20354915285E+04  0.00000000000E+00 0.  1.
          4   -1    0    0  501    0 -0.00000000000E+00 -0.00000000000E+00 -0.31025323125E+03  0.31025323125E+03  0.00000000000E+00 0.  1.
    9000010    2    1    2  502    0  0.23236962851E+03 -0.26316453768E+02  0.13614194902E+04  0.17061292611E+04  0.10013619862E+04 0.  0.
        -13    1    3    3    0    0  0.35828316593E+03  0.40201919221E+03  0.49499583468E+03  0.73144182641E+03  0.10566000000E+00 0.  1.
         13    1    1    2    0    0 -0.23740366332E+03  0.44322078270E+02 -0.31768960953E+02  0.24358617371E+03  0.10566000000E+00 0. -1.
          2    1    1    2  501    0  0.50340348066E+01 -0.18005624502E+02  0.39558776793E+03  0.39602932487E+03  0.00000000000E+00 0.  1.
          4    1    3    3  502    0 -0.12591353742E+03 -0.42833564598E+03  0.86642365554E+03  0.97468743472E+03  0.00000000000E+00 0.  1.
</event>
<event>
 7    1  0.9434649E-006  0.1152279E+04  0.7818608E-02  0.8807183E-01
          4   -1    0    0  501    0 -0.00000000000E+00  0.00000000000E+00  0.99574819558E+03  0.99574819558E+03  0.00000000000E+00 0.  1.
          2   -1    0    0  502    0  0.00000000000E+00 -0.00000000000E+00 -0.11080761357E+04  0.11080761357E+04  0.00000000000E+00 0. -1.
    9000010    2    1    2  502    0 -0.18528422703E+03  0.53286948350E+03  0.23025710509E+03  0.11726165897E+04  0.10018638634E+04 0.  0.
        -13    1    3    3    0    0  0.13110126119E+03  0.54503047879E+03 -0.23664939720E+03  0.60848065857E+03  0.10566000000E+00 0.  1.
         13    1    1    2    0    0  0.16171874069E+03 -0.54914764543E+03  0.14820205048E+02  0.57265673594E+03  0.10566000000E+00 0. -1.
          2    1    1    2  501    0  0.23565486341E+02  0.16278161934E+02 -0.35740525029E+03  0.35855100563E+03  0.00000000000E+00 0. -1.
          4    1    3    3  502    0 -0.31638548822E+03 -0.12160995291E+02  0.46690650229E+03  0.56413593118E+03  0.00000000000E+00 0.  1.
</event>
<event>
 7    1  0.9434649E-006  0.1110898E+04  0.7818608E-02  0.8920855E-01
         -4   -1    0    0    0  501 -0.00000000000E+00  0.00000000000E+00  0.29047909677E+04  0.29047909677E+04  0.00000000000E+00 0. -1.
          1   -1    0    0  501    0  0.00000000000E+00 -0.00000000000E+00 -0.24172872402E+03  0.24172872402E+03  0.00000000000E+00 0. -1.
   -9000010    2    1    2    0  502 -0.63604059070E+02  0.41540677753E+03  0.21619149319E+04  0.24348166531E+04  0.10381944394E+04 0.  0.
        -13    1    1    2    0    0  0.97355627735E+01 -0.38459171744E+03  0.52000032778E+03  0.64684304306E+03  0.10566000000E+00 0.  1.
         13    1    3    3    0    0 -0.23508660419E+03 -0.22402565514E+03  0.24496507199E+03  0.40676910316E+03  0.10566000000E+00 0. -1.
          1    1    1    2  502    0  0.53868496297E+02 -0.30815060085E+02 -0.18853015964E+02  0.64859995623E+02  0.00000000000E+00 0. -1.
         -4    1    3    3    0  502  0.17148254512E+03  0.63943243267E+03  0.19169498599E+04  0.20280475499E+04  0.00000000000E+00 0. -1.
</event>
<event>
 6    1  0.9434649E-006  0.4287046E+03  0.7818608E-02  0.9649629E-01
          3   -1    0    0  501    0  0.00000000000E+00  0.00000000000E+00  0.23232801352E+03  0.23232801352E+03  0.00000000000E+00 0.  1.
         -4   -1    0    0    0  501 -0.00000000000E+00 -0.00000000000E+00 -0.59909011629E+03  0.59909011629E+03  0.00000000000E+00 0. -1.
        -13    1    1    2    0    0 -0.80395574483E+01  0.20662241735E+03 -0.28928376836E+03  0.35558763707E+03  0.10566000000E+00 0.  1.
         13    1    1    2    0    0  0.40274892101E+02 -0.13400148725E+03 -0.23274388606E+03  0.27156618564E+03  0.10566000000E+00 0. -1.
          3    1    1    2  502    0 -0.59553808557E+02 -0.81642241085E+02  0.13680437226E+03  0.17008100397E+03  0.00000000000E+00 0.  1.
         -4    1    1    2    0  502  0.27318473904E+02  0.90213109844E+01  0.18461179399E+02  0.34183303134E+02  0.00000000000E+00 0. -1.
</event>
<event>
 7    1  0.9434649E-006  0.1014948E+04  0.7818608E-02  0.9183202E-01
         -4   -1    0    0    0  501 -0.00000000000E+00  0.00000000000E+00  0.44232538769E+03  0.44232538769E+03  0.00000000000E+00 0. -1.
          2   -1    0    0  501    0  0.00000000000E+00 -0.00000000000E+00 -0.96304709002E+03  0.96304709002E+03  0.00000000000E+00 0. -1.
   -9000010    2    1    2    0  502  0.11632432918E+03 -0.17747488123E+03 -0.46682360025E+03  0.11225676867E+04  0.99860164953E+03 0.  0.
        -13    1    1    2    0    0 -0.14389200589E+03  0.10719676720E+03  0.15710533284E+02  0.18011909471E+03  0.10566000000E+00 0.  1.
         13    1    3    3    0    0  0.40973701762E+03 -0.12781952240E+03 -0.64571522156E+03  0.77535179914E+03  0.10566000000E+00 0. -1.
          2    1    1    2  502    0  0.27567676715E+02  0.70278114027E+02 -0.69608635359E+02  0.10268569631E+03  0.00000000000E+00 0. -1.
         -4    1    3    3    0  502 -0.29341268844E+03 -0.49655358828E+02  0.17889162131E+03  0.34721588756E+03  0.00000000000E+00 0. -1.
</event>
<event>
 7    1  0.9434649E-006  0.9938472E+03  0.7818608E-02  0.9423047E-01
         -4   -1    0    0    0  501 -0.00000000000E+00  0.00000000000E+00  0.62015971634E+03  0.62015971634E+03  0.00000000000E+00 0. -1.
          2   -1    0    0  501    0  0.00000000000E+00 -0.00000000000E+00 -0.12707222790E+04  0.12707222790E+04  0.00000000000E+00 0. -1.
   -9000010    2    1    2    0  502  0.34506431667E+02 -0.58664387954E+02  0.17054115529E+03  0.10076615014E+04  0.99079019553E+03 0.  0.
        -13    1    1    2    0    0 -0.39741531844E+02  0.68361973339E+02 -0.19371609947E+02  0.81412647593E+02  0.10566000000E+00 0.  1.
         13    1    3    3    0    0 -0.36269726667E+03  0.19241702803E+03 -0.15188970753E+03  0.43777176057E+03  0.10566000000E+00 0. -1.
          2    1    1    2  502    0  0.52351001771E+01 -0.96975853848E+01 -0.80173210796E+03  0.80180784629E+03  0.00000000000E+00 0. -1.
         -4    1    3    3    0  502  0.39720369834E+03 -0.25108141599E+03  0.32243086282E+03  0.56988974085E+03  0.00000000000E+00 0. -1.
</event>
<event>
 7    1  0.9434649E-006  0.1040271E+04  0.7818608E-02  0.9080134E-01
          2   -1    0    0  501    0  0.00000000000E+00  0.00000000000E+00  0.62224326835E+03  0.62224326835E+03  0.00000000000E+00 0. -1.
         -4   -1    0    0    0  501 -0.00000000000E+00 -0.00000000000E+00 -0.12098020932E+04  0.12098020932E+04  0.00000000000E+00 0. -1.
   -9000010    2    1    2    0  502  0.24381291803E+02  0.23051335330E+03 -0.48319341328E+03  0.11425931988E+04  0.10091147060E+04 0.  0.
        -13    1    1    2    0    0 -0.36935582548E+02 -0.25262862492E+03 -0.35514089422E+03  0.43739058666E+03  0.10566000000E+00 0.  1.
         13    1    3    3    0    0 -0.25324398466E+03 -0.19917196833E+03 -0.53903668336E+03  0.62798291848E+03  0.10566000000E+00 0. -1.
          2    1    1    2  502    0  0.12554290745E+02  0.22115271628E+02  0.25077548266E+03  0.25206157612E+03  0.00000000000E+00 0. -1.
         -4    1    3    3    0  502  0.27762527646E+03  0.42968532163E+03  0.55843270074E+02  0.51461028028E+03  0.00000000000E+00 0. -1.
</event>
<event>
 7    1  0.9434649E-006  0.1013869E+04  0.7818608E-02  0.9172524E-01
         -2   -1    0    0    0  501  0.00000000000E+00  0.00000000000E+00  0.18678127527E+04  0.18678127527E+04  0.00000000000E+00 0.  1.
         -4   -1    0    0    0  502 -0.00000000000E+00 -0.00000000000E+00 -0.27518230061E+04  0.27518230061E+04  0.00000000000E+00 0. -1.
   -9000010    2    1    2    0  501 -0.11561730690E+03  0.12004093079E+03 -0.15345642838E+04  0.18370080489E+04  0.99595875622E+03 0.  0.
        -13    1    1    2    0    0  0.10915182245E+03 -0.15692081779E+03 -0.10572612747E+04  0.10744020092E+04  0.10566000000E+00 0.  1.
         13    1    3    3    0    0 -0.38589013795E+03  0.31657983827E+03 -0.35889752699E+03  0.61476941906E+03  0.10566000000E+00 0. -1.
         -2    1    1    2    0  502  0.64654844460E+01  0.36879887001E+02  0.17078153049E+04  0.17082257006E+04  0.00000000000E+00 0.  1.
         -4    1    3    3    0  501  0.27027283105E+03 -0.19653890748E+03 -0.11756667568E+04  0.12222386299E+04  0.00000000000E+00 0. -1.
</event>
<event>
 6    1  0.9434649E-006  0.3475919E+03  0.7818608E-02  0.9933577E-01
         -2   -1    0    0    0  501  0.00000000000E+00  0.00000000000E+00  0.45356404176E+02  0.45356404176E+02  0.00000000000E+00 0.  1.
         -4   -1    0    0    0  502 -0.00000000000E+00 -0.00000000000E+00 -0.35001982254E+04  0.35001982254E+04  0.00000000000E+00 0. -1.
        -13    1    1    2    0    0 -0.26286681151E+03 -0.19430381625E+03 -0.18438235978E+04  0.18725753402E+04  0.10566000000E+00 0.  1.
         13    1    1    2    0    0  0.37786921018E+02  0.17532903555E+03 -0.69038925402E+03  0.71330600399E+03  0.10566000000E+00 0. -1.
         -2    1    1    2    0  502  0.87706663119E+02 -0.26887571049E+02 -0.15214229316E+03  0.17765887988E+03  0.00000000000E+00 0.  1.
         -4    1    1    2    0  501  0.13737322737E+03  0.45862351745E+02 -0.76848667620E+03  0.78201440550E+03  0.00000000000E+00 0. -1.
</event>
<event>
 7    1  0.9434649E-006  0.1065614E+04  0.7818608E-02  0.8959853E-01
          2   -1    0    0  501    0  0.00000000000E+00  0.00000000000E+00  0.19932586343E+04  0.19932586343E+04  0.00000000000E+00 0. -1.
         -4   -1    0    0    0  501 -0.00000000000E+00 -0.00000000000E+00 -0.87034537603E+03  0.87034537603E+03  0.00000000000E+00 0. -1.
   -9000010    2    1    2    0  502 -0.19501921581E+03  0.27925467626E+03  0.28973166387E+03  0.10907992064E+04  0.99492854157E+03 0.  0.
        -13    1    1    2    0    0  0.57520778137E+02 -0.38613186930E+03 -0.38141458862E+03  0.54578710133E+03  0.10566000000E+00 0.  1.
         13    1    3    3    0    0 -0.19473976387E+03  0.14635809238E+03 -0.35609059354E+03  0.43144500091E+03  0.10566000000E+00 0. -1.
          2    1    1    2  502    0  0.13749843768E+03  0.10687719304E+03  0.12145961830E+04  0.12270177026E+04  0.00000000000E+00 0. -1.
         -4    1    3    3    0  502 -0.27945194841E+00  0.13289658387E+03  0.64582225741E+03  0.65935420547E+03  0.00000000000E+00 0. -1.
</event>
<event>
 7    1  0.9434649E-006  0.1014486E+04  0.7818608E-02  0.9236549E-01
         -4   -1    0    0    0  501 -0.00000000000E+00  0.00000000000E+00  0.17852741075E+04  0.17852741075E+04  0.00000000000E+00 0. -1.
          2   -1    0    0  501    0  0.00000000000E+00 -0.00000000000E+00 -0.16180604427E+04  0.16180604427E+04  0.00000000000E+00 0.  1.
   -9000010    2    1    2    0  502 -0.21718532252E+01 -0.16725485064E+03  0.15124748587E+04  0.18228795957E+04  0.10036587669E+04 0.  0.
        -13    1    1    2    0    0 -0.22042508926E+01  0.14240570125E+03  0.74321193327E+02  0.16064835328E+03  0.10566000000E+00 0.  1.
         13    1    3    3    0    0 -0.76969360919E+02  0.40619443832E+03  0.83793842494E+03  0.93437627292E+03  0.10566000000E+00 0. -1.
          2    1    1    2  502    0  0.43761041177E+01  0.24849149389E+02 -0.14195823872E+04  0.14198066011E+04  0.00000000000E+00 0.  1.
         -4    1    3    3    0  502  0.74797507694E+02 -0.57344928896E+03  0.67453643374E+03  0.88850332279E+03  0.00000000000E+00 0. -1.
</event>
<event>
 7    1  0.9434649E-006  0.1193529E+04  0.7818608E-02  0.8745794E-01
          4   -1    0    0  501    0  0.00000000000E+00  0.00000000000E+00  0.11482285339E+04  0.11482285339E+04  0.00000000000E+00 0.  1.
         -4   -1    0    0    0  501 -0.00000000000E+00 -0.00000000000E+00 -0.20475539162E+04  0.20475539162E+04  0.00000000000E+00 0. -1.
   -9000010    2    1    2    0  502  0.84295693794E+03  0.36541475518E+02 -0.12907399656E+04  0.18330351896E+04  0.99100790555E+03 0.  0.
        -13    1    1    2    0    0 -0.55434004845E+03 -0.20563898843E+01 -0.28732844648E+03  0.62438350825E+03  0.10566000000E+00 0.  1.
         13    1    3    3    0    0  0.24970170300E+02  0.19080195865E+03  0.96459984461E+02  0.21525203041E+03  0.10566000000E+00 0. -1.
          4    1    1    2  502    0 -0.28861688949E+03 -0.34485085634E+02  0.67874302983E+03  0.73836375221E+03  0.00000000000E+00 0.  1.
         -4    1    3    3    0  502  0.81798676764E+03 -0.15426048313E+03 -0.13871999501E+04  0.16177831592E+04  0.00000000000E+00 0. -1.
</event>
<event>
 6    1  0.9434649E-006  0.1988723E+03  0.7818608E-02  0.1060912E+00
          4   -1    0    0  501    0 -0.00000000000E+00  0.00000000000E+00  0.39705839946E+02  0.39705839946E+02  0.00000000000E+00 0.  1.
          2   -1    0    0  502    0  0.00000000000E+00 -0.00000000000E+00 -0.14960686041E+04  0.14960686041E+04  0.00000000000E+00 0. -1.
        -13    1    1    2    0    0 -0.34010950155E+02  0.36451100078E+02  0.98447432559E+01  0.50816902318E+02  0.10566000000E+00 0.  1.
         13    1    1    2    0    0  0.10615316975E+02 -0.38154611939E+02 -0.86220564378E+02  0.94881274509E+02  0.10566000000E+00 0. -1.
          2    1    1    2  501    0  0.71568271163E+02  0.21290585128E+01 -0.12393620221E+04  0.12414285208E+04  0.00000000000E+00 0. -1.
          4    1    1    2  502    0 -0.48172637983E+02 -0.42554665227E+00 -0.14062492087E+03  0.14864774640E+03  0.00000000000E+00 0.  1.
</event>
<event>
 7    1  0.9434649E-006  0.1083942E+04  0.7818608E-02  0.8919754E-01
          2   -1    0    0  501    0  0.00000000000E+00  0.00000000000E+00  0.30757251238E+04  0.30757251238E+04  0.00000000000E+00 0.  1.
         -4   -1    0    0    0  501 -0.00000000000E+00 -0.00000000000E+00 -0.21052770707E+04  0.21052770707E+04  0.00000000000E+00 0. -1.
   -9000010    2    1    2    0  502 -0.26543321786E+03 -0.32052801303E+03 -0.12233074487E+04  0.16315306863E+04  0.99610153393E+03 0.  0.
        -13    1    1    2    0    0  0.30843794160E+03  0.30221789906E+03 -0.60887172210E+03  0.74645455821E+03  0.10566000000E+00 0.  1.
         13    1    3    3    0    0 -0.58345783635E+03 -0.22643268063E+03 -0.39700059636E+03  0.74115065293E+03  0.10566000000E+00 0. -1.
          2    1    1    2  502    0 -0.43004723738E+02  0.18310113967E+02  0.28026272238E+04  0.28030169500E+04  0.00000000000E+00 0.  1.
         -4    1    3    3    0  502  0.31802461849E+03 -0.94095332396E+02 -0.82630685233E+03  0.89038003333E+03  0.00000000000E+00 0. -1.
</event>
<event>
 7    1  0.9434649E-006  0.1036854E+04  0.7818608E-02  0.9166645E-01
          4   -1    0    0  501    0  0.00000000000E+00  0.00000000000E+00  0.23755121610E+04  0.23755121610E+04  0.00000000000E+00 0.  1.
         -4   -1    0    0    0  501 -0.00000000000E+00 -0.00000000000E+00 -0.12725590701E+04  0.12725590701E+04  0.00000000000E+00 0. -1.
   -9000010    2    1    2    0  502 -0.37078017255E+02  0.80196121736E+02 -0.92946538364E+03  0.13834137864E+04  0.10208435765E+04 0.  0.
        -13    1    1    2    0    0 -0.16929404388E+02 -0.23772002233E+03  0.13309910105E+02  0.23869348256E+03  0.10566000000E+00 0.  1.
         13    1    3    3    0    0 -0.52414054922E+03  0.95816288816E+01 -0.39146380394E+03  0.65426221342E+03  0.10566000000E+00 0. -1.
          4    1    1    2  502    0  0.54007421643E+02  0.15752390059E+03  0.20191085644E+04  0.20259639621E+04  0.00000000000E+00 0.  1.
         -4    1    3    3    0  502  0.48706253197E+03  0.70614492854E+02 -0.53800157970E+03  0.72915157300E+03  0.00000000000E+00 0. -1.
</event>
<event>
 7    1  0.9434649E-006  0.1008034E+04  0.7818608E-02  0.9121982E-01
         -2   -1    0    0    0  501  0.00000000000E+00  0.00000000000E+00  0.11630492746E+04  0.11630492746E+04  0.00000000000E+00 0. -1.
         -4   -1    0    0    0  502 -0.00000000000E+00 -0.00000000000E+00 -0.99602327639E+03  0.99602327639E+03  0.00000000000E+00 0. -1.
   -9000010    2    1    2    0  501 -0.35733220761E+03  0.17090626092E+03  0.54829387875E+03  0.11909134039E+04  0.98018023925E+03 0.  0.
        -13    1    1    2    0    0  0.16910109397E+03 -0.15866858999E+03 -0.62113526458E+03  0.66300824240E+03  0.10566000000E+00 0.  1.
         13    1    3    3    0    0 -0.83430402042E+02 -0.40721677842E+03  0.18231312659E+03  0.45389891375E+03  0.10566000000E+00 0. -1.
         -2    1    1    2    0  502  0.18823111364E+03 -0.12237670930E+02  0.23986738404E+03  0.30515090473E+03  0.00000000000E+00 0. -1.
         -4    1    3    3    0  501 -0.27390180557E+03  0.57812303933E+03  0.36598075216E+03  0.73701449012E+03  0.00000000000E+00 0. -1.
</event>
<event>
 7    1  0.9434649E-006  0.1004978E+04  0.7818608E-02  0.9395013E-01
          2   -1    0    0  502    0  0.00000000000E+00  0.00000000000E+00  0.15993806004E+04  0.15993806004E+04  0.00000000000E+00 0.  1.
          4   -1    0    0  501    0 -0.00000000000E+00 -0.00000000000E+00 -0.13198822404E+04  0.13198822404E+04  0.00000000000E+00 0.  1.
    9000010    2    1    2  502    0 -0.11004221649E+03  0.48399624170E+02 -0.10200809067E+04  0.14345780017E+04  0.10014974656E+04 0.  0.
        -13    1    3    3    0    0 -0.45670412897E+03 -0.12529609533E+03 -0.17515895689E+03  0.50493409893E+03  0.10566000000E+00 0.  1.
         13    1    1    2    0    0  0.67733346759E+02 -0.43634312956E+02 -0.74625074641E+02  0.10982109296E+03  0.10566000000E+00 0. -1.
          2    1    1    2  501    0  0.42308869727E+02 -0.47653112135E+01  0.13742043414E+04  0.13748637462E+04  0.00000000000E+00 0.  1.
          4    1    3    3  502    0  0.34666191248E+03  0.17369571950E+03 -0.84492194986E+03  0.92964390273E+03  0.00000000000E+00 0.  1.
</event>
<event>
 7    1  0.9434649E-006  0.1596871E+04  0.7818608E-02  0.8628739E-01
         -4   -1    0    0    0  501 -0.00000000000E+00  0.00000000000E+00  0.25555611178E+04  0.25555611178E+04  0.00000000000E+00 0. -1.
          4   -1    0    0  501    0  0.00000000000E+00 -0.00000000000E+00 -0.12925913274E+04  0.12925913274E+04  0.00000000000E+00 0. -1.
   -9000010    2    1    2    0  502 -0.10222335317E+04 -0.43300449021E+03  0.10141687901E+04  0.18085363495E+04  0.10048935819E+04 0.  0.
        -13    1    1    2    0    0  0.62568072157E+02 -0.45747665680E+03  0.52757799167E+03  0.70109785596E+03  0.10566000000E+00 0.  1.
         13    1    3    3    0    0 -0.10210311655E+04 -0.73509906134E+02  0.10253319966E+04  0.14488664747E+04  0.10566000000E+00 0. -1.
          4    1    1    2  502    0  0.95966545951E+03  0.89048114700E+03 -0.27877699136E+03  0.13385182398E+04  0.00000000000E+00 0. -1.
         -4    1    3    3    0  502 -0.12023662183E+01 -0.35949458407E+03 -0.11163206531E+02  0.35966987480E+03  0.00000000000E+00 0. -1.
</event>
<event>
 6    1  0.9434649E-006  0.3738478E+03  0.7818608E-02  0.9807769E-01
         -4   -1    0    0    0  501 -0.00000000000E+00  0.00000000000E+00  0.81908457435E+02  0.81908457435E+02  0.00000000000E+00 0. -1.
          2   -1    0    0  501    0  0.00000000000E+00 -0.00000000000E+00 -0.13656213705E+04  0.13656213705E+04  0.00000000000E+00 0.  1.
        -13    1    1    2    0    0  0.27574556889E+02 -0.15918668613E+03 -0.16935423095E+03  0.23405474559E+03  0.10566000000E+00 0.  1.
         13    1    1    2    0    0 -0.27080680781E+02  0.16116213616E+03 -0.88241729752E+02  0.18572348111E+03  0.10566000000E+00 0. -1.
          2    1    1    2  502    0 -0.13830431335E+02  0.73788555645E+01 -0.93863450316E+03  0.93876539075E+03  0.00000000000E+00 0.  1.
         -4    1    1    2    0  502  0.13336555227E+02 -0.93543055893E+01 -0.87482449177E+02  0.88986210462E+02  0.00000000000E+00 0. -1.
</event>
<event>
 6    1  0.9434649E-006  0.2954470E+03  0.7818608E-02  0.1009203E+00
          4   -1    0    0  501    0 -0.00000000000E+00  0.00000000000E+00  0.61478233886E+02  0.61478233886E+02  0.00000000000E+00 0.  1.
          2   -1    0    0  502    0  0.00000000000E+00 -0.00000000000E+00 -0.18251861444E+04  0.18251861444E+04  0.00000000000E+00 0. -1.
        -13    1    1    2    0    0  0.50016443111E+02 -0.96703669768E+02 -0.60140560765E+02  0.12437902774E+03  0.10566000000E+00 0.  1.
         13    1    1    2    0    0 -0.72903147191E+02  0.11434673068E+03 -0.16529289635E+03  0.21380317219E+03  0.10566000000E+00 0. -1.
          2    1    1    2  501    0  0.59843892831E+02 -0.15481937268E+02 -0.14657746840E+04  0.14670775051E+04  0.00000000000E+00 0. -1.
          4    1    1    2  502    0 -0.36957188751E+02 -0.21611236474E+01 -0.72499769370E+02  0.81404673174E+02  0.00000000000E+00 0.  1.
</event>
<event>
 7    1  0.9434649E-006  0.1016283E+04  0.7818608E-02  0.9269766E-01
          2   -1    0    0  501    0  0.00000000000E+00  0.00000000000E+00  0.13945929503E+04  0.13945929503E+04  0.00000000000E+00 0. -1.
         -4   -1    0    0    0  501 -0.00000000000E+00 -0.00000000000E+00 -0.14554082933E+04  0.14554082933E+04  0.00000000000E+00 0. -1.
   -9000010    2    1    2    0  502 -0.78699267244E+01  0.13804516868E+03 -0.12167332186E+04  0.15860723645E+04  0.10080016944E+04 0.  0.
        -13    1    1    2    0    0 -0.20955045343E+01 -0.12605158430E+03  0.19694030358E+02  0.12759803698E+03  0.10566000000E+00 0.  1.
         13    1    3    3    0    0  0.19369416975E+03 -0.36097115083E+03 -0.82272778414E+03  0.91907487240E+03  0.10566000000E+00 0. -1.
          2    1    1    2  502    0  0.99654312587E+01 -0.11993584373E+02  0.11362238453E+04  0.11363308421E+04  0.00000000000E+00 0. -1.
         -4    1    3    3    0  502 -0.20156409647E+03  0.49901631950E+03 -0.39400543449E+03  0.66699749214E+03  0.00000000000E+00 0. -1.
</event>
<event>
 7    1  0.9434649E-006  0.1065412E+04  0.7818608E-02  0.8962631E-01
         -4   -1    0    0    0  501 -0.00000000000E+00  0.00000000000E+00  0.12109823992E+04  0.12109823992E+04  0.00000000000E+00 0. -1.
          2   -1    0    0  501    0  0.00000000000E+00 -0.00000000000E+00 -0.57130404179E+03  0.57130404179E+03  0.00000000000E+00 0.  1.
   -9000010    2    1    2    0  502 -0.12502722588E+03 -0.36501692848E+03  0.70046210679E+03  0.12775259482E+04  0.99627115785E+03 0.  0.
        -13    1    1    2    0    0  0.94457030612E+02  0.36123427391E+03  0.61717304027E+02  0.37844599094E+03  0.10566000000E+00 0.  1.
         13    1    3    3    0    0  0.53720893530E+02 -0.41581415731E+03 -0.12014270507E+03  0.43614404567E+03  0.10566000000E+00 0. -1.
          2    1    1    2  502    0  0.30570195267E+02  0.37826545679E+01 -0.12250105336E+03  0.12631450190E+03  0.00000000000E+00 0.  1.
         -4    1    3    3    0  502 -0.17874811941E+03  0.50797228835E+02  0.82060481186E+03  0.84138190253E+03  0.00000000000E+00 0. -1.
</event>
<event>
 7    1  0.9434649E-006  0.1050115E+04  0.7818608E-02  0.8984335E-01
          2   -1    0    0  502    0  0.00000000000E+00  0.00000000000E+00  0.72832072373E+03  0.72832072373E+03  0.00000000000E+00 0. -1.
          4   -1    0    0  501    0 -0.00000000000E+00 -0.00000000000E+00 -0.23719199480E+04  0.23719199480E+04  0.00000000000E+00 0.  1.
    9000010    2    1    2  502    0  0.26012936812E+03 -0.33760443105E+03 -0.21317490912E+04  0.23871436833E+04  0.98613221065E+03 0.  0.
        -13    1    3    3    0    0 -0.21854833620E+03  0.16439340347E+03 -0.21229989679E+03  0.34620777534E+03  0.10566000000E+00 0.  1.
         13    1    1    2    0    0 -0.10356454298E+03  0.24717765179E+03  0.10206565677E+03  0.28677485170E+03  0.10566000000E+00 0. -1.
          2    1    1    2  501    0 -0.15656482514E+03  0.90426779260E+02  0.38608421019E+03  0.42632213670E+03  0.00000000000E+00 0. -1.
          4    1    3    3  502    0  0.47867770433E+03 -0.50199783453E+03 -0.19194491945E+04  0.20409359080E+04  0.00000000000E+00 0.  1.
</event>
<event>
 7    1  0.9434649E-006  0.1025015E+04  0.7818608E-02  0.9374323E-01
         -4   -1    0    0    0  501 -0.00000000000E+00  0.00000000000E+00  0.89067730799E+03  0.89067730799E+03  0.00000000000E+00 0. -1.
          1   -1    0    0  501    0  0.00000000000E+00 -0.00000000000E+00 -0.88094415309E+03  0.88094415309E+03  0.00000000000E+00 0. -1.
   -9000010    2    1    2    0  502 -0.55694768125E+02 -0.12253659516E+03  0.41015105507E+03  0.10985213796E+04  0.10101525672E+04 0.  0.
        -13    1    1    2    0    0  0.67272991227E+02 -0.52067085487E+02  0.10680395780E+03  0.13654205691E+03  0.10566000000E+00 0.  1.
         13    1    3    3    0    0 -0.12937576215E+03  0.32497127964E+02  0.72647763787E+03  0.73862298952E+03  0.10566000000E+00 0. -1.
          1    1    1    2  502    0 -0.11578223102E+02  0.17460368065E+03 -0.50722185797E+03  0.53655802459E+03  0.00000000000E+00 0. -1.
         -4    1    3    3    0  502  0.73680994026E+02 -0.15503372312E+03 -0.31632658280E+03  0.35989839006E+03  0.00000000000E+00 0. -1.
</event>
<event>
 7    1  0.9434649E-006  0.1025838E+04  0.7818608E-02  0.9141969E-01
          2   -1    0    0  501    0  0.00000000000E+00  0.00000000000E+00  0.48318937018E+03  0.48318937018E+03  0.00000000000E+00 0.  1.
         -4   -1    0    0    0  501 -0.00000000000E+00 -0.00000000000E+00 -0.18291403031E+04  0.18291403031E+04  0.00000000000E+00 0. -1.
   -9000010    2    1    2    0  502  0.14851225132E+02 -0.20069721981E+03 -0.11469643457E+04  0.15381040727E+04  0.10048567039E+04 0.  0.
        -13    1    1    2    0    0 -0.16534135380E+01  0.20703093642E+03 -0.46437303709E+03  0.50843570995E+03  0.10566000000E+00 0.  1.
         13    1    3    3    0    0 -0.30953265095E+03 -0.29505835295E+03 -0.11203952476E+04  0.11992311769E+04  0.10566000000E+00 0. -1.
          2    1    1    2  502    0 -0.13197811594E+02 -0.63337166096E+01  0.26538644984E+03  0.26578989062E+03  0.00000000000E+00 0.  1.
         -4    1    3    3    0  502  0.32438387609E+03  0.94361133138E+02 -0.26569098029E+02  0.33887289576E+03  0.00000000000E+00 0. -1.
</event>
<event>
 7    1  0.9434649E-006  0.9492527E+03  0.7818608E-02  0.9168544E-01
          2   -1    0    0  502    0  0.00000000000E+00  0.00000000000E+00  0.70796367300E+03  0.70796367300E+03  0.00000000000E+00 0.  1.
          4   -1    0    0  501    0 -0.00000000000E+00 -0.00000000000E+00 -0.12868367253E+04  0.12868367253E+04  0.00000000000E+00 0.  1.
    9000010    2    1    2  502    0  0.22450709277E+03 -0.61097311298E+02 -0.90213194724E+03  0.13091730150E+04  0.91975845571E+03 0.  0.
        -13    1    3    3    0    0  0.47014133316E+03 -0.93437056834E+02 -0.94322487026E+03  0.10580342734E+04  0.10566000000E+00 0.  1.
         13    1    1    2    0    0 -0.23121167313E+03  0.45977144203E+02 -0.10427671517E+03  0.25777195362E+03  0.10566000000E+00 0. -1.
          2    1    1    2  501    0  0.67045803674E+01  0.15120167095E+02  0.42753561007E+03  0.42785542970E+03  0.00000000000E+00 0.  1.
          4    1    3    3  502    0 -0.24563424039E+03  0.32339745536E+02  0.41092923017E+02  0.25113874157E+03  0.00000000000E+00 0.  1.
</event>
<event>
 7    1  0.9434649E-006  0.1018644E+04  0.7818608E-02  0.9322698E-01
          4   -1    0    0  502    0  0.00000000000E+00  0.00000000000E+00  0.15839987730E+03  0.15839987730E+03  0.00000000000E+00 0. -1.
          4   -1    0    0  501    0 -0.00000000000E+00 -0.00000000000E+00 -0.32300377682E+04  0.32300377682E+04  0.00000000000E+00 0.  1.
    9000010    2    1    2  502    0 -0.27100027353E+02  0.95030974462E+02 -0.29413583667E+04  0.31125433020E+04  0.10131986321E+04 0.  0.
        -13    1    3    3    0    0 -0.32414007687E+03  0.26297838230E+03 -0.51783277777E+03  0.66511293468E+03  0.10566000000E+00 0.  1.
         13    1    1    2    0    0 -0.26744102783E+02 -0.10200710103E+03  0.27544207072E+02  0.10899261536E+03  0.10566000000E+00 0. -1.
          4    1    1    2  501    0  0.53844130136E+02  0.69761265711E+01 -0.15782373130E+03  0.16690172813E+03  0.00000000000E+00 0. -1.
          4    1    3    3  502    0  0.29704004952E+03 -0.16794740784E+03 -0.24235255889E+04  0.24474303674E+04  0.00000000000E+00 0.  1.
</event>
<event>
 7    1  0.9434649E-006  0.1010861E+04  0.7818608E-02  0.9236860E-01
          4   -1    0    0  501    0  0.00000000000E+00  0.00000000000E+00  0.24825576928E+04  0.24825576928E+04  0.00000000000E+00 0.  1.
          4   -1    0    0  502    0 -0.00000000000E+00 -0.00000000000E+00 -0.20264476018E+03  0.20264476018E+03  0.00000000000E+00 0.  1.
    9000010    2    1    2  501    0 -0.47141378331E+02  0.82109155459E+02  0.18275722594E+04  0.20815954527E+04  0.99199548500E+03 0.  0.
        -13    1    3    3    0    0  0.15299542508E+03  0.50341791135E+03  0.87625852176E+03  0.10220891359E+04  0.10566000000E+00 0.  1.
         13    1    1    2    0    0  0.54595228238E+02  0.13889007461E+03  0.76890172795E+02  0.16787853230E+03  0.10566000000E+00 0. -1.
          4    1    3    3  501    0 -0.20013680341E+03 -0.42130875589E+03  0.95131373767E+03  0.10595063168E+04  0.00000000000E+00 0.  1.
          4    1    1    2  502    0 -0.74538499076E+01 -0.22099923007E+03  0.37545050035E+03  0.43572846795E+03  0.00000000000E+00 0.  1.
</event>
<event>
 7    1  0.9434649E-006  0.1100697E+04  0.7818608E-02  0.8890471E-01
          4   -1    0    0  501    0  0.00000000000E+00  0.00000000000E+00  0.25536379273E+04  0.25536379273E+04  0.00000000000E+00 0.  1.
         -4   -1    0    0    0  501 -0.00000000000E+00 -0.00000000000E+00 -0.50714611189E+03  0.50714611189E+03  0.00000000000E+00 0. -1.
   -9000010    2    1    2    0  502 -0.52925862188E+03  0.11365498162E+03  0.11135016633E+04  0.15912719341E+04  0.99961406077E+03 0.  0.
        -13    1    1    2    0    0  0.45081439457E+03  0.23540328281E+01 -0.70497971423E+02  0.45629939181E+03  0.10566000000E+00 0.  1.
         13    1    3    3    0    0 -0.57689580434E+03 -0.13694812063E+02  0.12633674900E+04  0.13889181916E+04  0.10566000000E+00 0. -1.
          4    1    1    2  502    0  0.78444227305E+02 -0.11600901445E+03  0.10034881235E+04  0.10132127133E+04  0.00000000000E+00 0.  1.
         -4    1    3    3    0  502  0.47637182458E+02  0.12734979369E+03 -0.14986582671E+03  0.20235374254E+03  0.00000000000E+00 0. -1.
</event>
<event>
 7    1  0.9434649E-006  0.1025655E+04  0.7818608E-02  0.9137566E-01
          4   -1    0    0  501    0 -0.00000000000E+00  0.00000000000E+00  0.23550466676E+04  0.23550466676E+04  0.00000000000E+00 0.  1.
          2   -1    0    0  502    0  0.00000000000E+00 -0.00000000000E+00 -0.17868522312E+04  0.17868522312E+04  0.00000000000E+00 0.  1.
    9000010    2    1    2  502    0  0.17770843177E+03 -0.41182850929E+02  0.19270071674E+04  0.21804701013E+04  0.10039008545E+04 0.  0.
        -13    1    3    3    0    0  0.24211731044E+03 -0.23286823503E+03  0.19483791806E+04  0.19771266650E+04  0.10566000000E+00 0.  1.
         13    1    1    2    0    0 -0.20892376379E+03  0.65515987933E+02  0.26125659218E+03  0.34087607994E+03  0.10566000000E+00 0. -1.
          2    1    1    2  501    0  0.31215332025E+02 -0.24333137004E+02 -0.16200693232E+04  0.16205527176E+04  0.00000000000E+00 0.  1.
          4    1    3    3  502    0 -0.64408878669E+02  0.19168538410E+03 -0.21372013247E+02  0.20334343628E+03  0.00000000000E+00 0.  1.
</event>
<event>
 6    1  0.9434649E-006  0.2953761E+03  0.7818608E-02  0.1009233E+00
         -4   -1    0    0    0  501 -0.00000000000E+00  0.00000000000E+00  0.18146777782E+03  0.18146777782E+03  0.00000000000E+00 0. -1.
          2   -1    0    0  501    0  0.00000000000E+00 -0.00000000000E+00 -0.25641175836E+03  0.25641175836E+03  0.00000000000E+00 0. -1.
        -13    1    1    2    0    0  0.69418600712E+01  0.42886009987E+02 -0.77820977151E+02  0.89126398574E+02  0.10566000000E+00 0.  1.
         13    1    1    2    0    0  0.15352208954E+02  0.62380904763E+02  0.92549415869E+02  0.11266087671E+03  0.10566000000E+00 0. -1.
          2    1    1    2  502    0 -0.47819754572E+02 -0.18381429326E+02 -0.12791362046E+03  0.13779150979E+03  0.00000000000E+00 0. -1.
         -4    1    1    2    0  502  0.25525685546E+02 -0.86885485425E+02  0.38241201199E+02  0.98300751113E+02  0.00000000000E+00 0. -1.
</event>
<event>
 7    1  0.9434649E-006  0.1003906E+04  0.7818608E-02  0.9356810E-01
          2   -1    0    0  502    0  0.00000000000E+00  0.00000000000E+00  0.86250478384E+03  0.86250478384E+03  0.00000000000E+00 0.  1.
          4   -1    0    0  501    0 -0.00000000000E+00 -0.00000000000E+00 -0.94936385338E+03  0.94936385338E+03  0.00000000000E+00 0.  1.
    9000010    2    1    2  502    0 -0.11068928795E+03 -0.74614464309E+02 -0.61811796369E+03  0.11825273382E+04  0.99924053757E+03 0.  0.
        -13    1    3    3    0    0 -0.26323303352E+03  0.31581391824E+03  0.28292616672E+02  0.41210501600E+03  0.10566000000E+00 0.  1.
         13    1    1    2    0    0  0.69762372343E+02  0.58643015398E+02 -0.50119683132E+01  0.91273889149E+02  0.10566000000E+00 0. -1.
          2    1    1    2  501    0  0.40926915606E+02  0.15971448911E+02  0.53627086245E+03  0.53806740983E+03  0.00000000000E+00 0.  1.
          4    1    3    3  502    0  0.15254374557E+03 -0.39042838255E+03 -0.64641058036E+03  0.77042232224E+03  0.00000000000E+00 0.  1.
</event>
<event>
 7    1  0.9434649E-006  0.1046859E+04  0.7818608E-02  0.9003921E-01
          2   -1    0    0  502    0  0.00000000000E+00  0.00000000000E+00  0.13039381211E+04  0.13039381211E+04  0.00000000000E+00 0. -1.
          4   -1    0    0  501    0 -0.00000000000E+00 -0.00000000000E+00 -0.29116138689E+04  0.29116138689E+04  0.00000000000E+00 0.  1.
    9000010    2    1    2  502    0  0.13111428820E+03  0.33625155500E+03 -0.20140012585E+04  0.22735686153E+04  0.99129063073E+03 0.  0.
        -13    1    3    3    0    0  0.38841638342E+03  0.36078878629E+03 -0.19304700583E+04  0.20019366854E+04  0.10566000000E+00 0.  1.
         13    1    1    2    0    0 -0.85206522574E+02 -0.31914709434E+03 -0.73175042263E+03  0.80285348072E+03  0.10566000000E+00 0. -1.
          2    1    1    2  501    0 -0.45907765622E+02 -0.17104460658E+02  0.11380759333E+04  0.11391298940E+04  0.00000000000E+00 0. -1.
          4    1    3    3  502    0 -0.25730209523E+03 -0.24537231284E+02 -0.83531200134E+02  0.27163192987E+03  0.00000000000E+00 0.  1.
</event>
<event>
 6    1  0.9434649E-006  0.3804950E+03  0.7818608E-02  0.9787130E-01
          2   -1    0    0  501    0  0.00000000000E+00  0.00000000000E+00  0.61393336263E+03  0.61393336263E+03  0.00000000000E+00 0.  1.
         -4   -1    0    0    0  501 -0.00000000000E+00 -0.00000000000E+00 -0.50828685260E+03  0.50828685260E+03  0.00000000000E+00 0. -1.
        -13    1    1    2    0    0  0.88687266427E+02 -0.19634790118E+02 -0.92563772030E+02  0.12968816163E+03  0.10566000000E+00 0.  1.
         13    1    1    2    0    0 -0.66095764810E+02  0.23643423557E+02 -0.39166936473E+03  0.39791024621E+03  0.10566000000E+00 0. -1.
          2    1    1    2  502    0 -0.10414653599E+02  0.13190954969E+02  0.54257697065E+03  0.54283720892E+03  0.00000000000E+00 0.  1.
         -4    1    1    2    0  502 -0.12176848018E+02 -0.17199588408E+02  0.47302676142E+02  0.51784598475E+02  0.00000000000E+00 0. -1.
</event>
<event>
 6    1  0.9434649E-006  0.5176892E+03  0.7818608E-02  0.9706575E-01
          2   -1    0    0  502    0  0.00000000000E+00  0.00000000000E+00  0.29166981395E+04  0.29166981395E+04  0.00000000000E+00 0.  1.
          4   -1    0    0  501    0 -0.00000000000E+00 -0.00000000000E+00 -0.12019925820E+03  0.12019925820E+03  0.00000000000E+00 0.  1.
        -13    1    1    2    0    0 -0.58115679753E+02  0.25840315551E+03  0.33911092635E+03  0.43028578241E+03  0.10566000000E+00 0.  1.
         13    1    1    2    0    0 -0.19665486353E+03  0.33453816887E+02  0.30489624634E+03  0.36435425812E+03  0.10566000000E+00 0. -1.
          2    1    1    2  501    0  0.37811350838E+03 -0.18597237644E+03  0.18648136304E+04  0.19118277711E+04  0.00000000000E+00 0.  1.
          4    1    1    2  502    0 -0.12334296510E+03 -0.10588459596E+03  0.28767807820E+03  0.33042958611E+03  0.00000000000E+00 0.  1.
</event>
<event>
 6    1  0.9434649E-006  0.8285754E+03  0.7818608E-02  0.8954854E-01
          2   -1    0    0  501    0  0.00000000000E+00  0.00000000000E+00  0.53504058243E+03  0.53504058243E+03  0.00000000000E+00 0. -1.
         -4   -1    0    0    0  501 -0.00000000000E+00 -0.00000000000E+00 -0.54713346911E+03  0.54713346911E+03  0.00000000000E+00 0. -1.
        -13    1    1    2    0    0  0.23891809924E+03  0.37234420105E+02 -0.62934299149E+02  0.24985795437E+03  0.10566000000E+00 0.  1.
         13    1    1    2    0    0 -0.38761317754E+03 -0.31399496545E+02 -0.23468694713E+03  0.45421127034E+03  0.10566000000E+00 0. -1.
          2    1    1    2  502    0  0.61243013101E+01 -0.12926186468E+02  0.22097945849E+03  0.22144189856E+03  0.00000000000E+00 0. -1.
         -4    1    1    2    0  502  0.14257077699E+03  0.70912629085E+01  0.64548901121E+02  0.15666292828E+03  0.00000000000E+00 0. -1.
</event>
<event>
 6    1  0.9434649E-006  0.1960350E+03  0.7818608E-02  0.1062889E+00
          4   -1    0    0  501    0 -0.00000000000E+00  0.00000000000E+00  0.34640354853E+02  0.34640354853E+02  0.00000000000E+00 0.  1.
          2   -1    0    0  502    0  0.00000000000E+00 -0.00000000000E+00 -0.60533977875E+03  0.60533977875E+03  0.00000000000E+00 0.  1.
        -13    1    1    2    0    0  0.26145373079E+02  0.33570681763E+02 -0.23366974584E+03  0.23751238387E+03  0.10566000000E+00 0.  1.
         13    1    1    2    0    0 -0.21818558977E+02  0.12072860472E+01 -0.15589160641E+02  0.26842878924E+02  0.10566000000E+00 0. -1.
          2    1    1    2  501    0  0.11210448090E+02  0.11472388967E+02 -0.32620798639E+03  0.32660211304E+03  0.00000000000E+00 0.  1.
          4    1    1    2  502    0 -0.15537262192E+02 -0.46250356776E+02  0.47674689809E+01  0.49022757765E+02  0.00000000000E+00 0.  1.
</event>
<event>
 6    1  0.9434649E-006  0.3677071E+03  0.7818608E-02  0.9827243E-01
          2   -1    0    0  502    0  0.00000000000E+00  0.00000000000E+00  0.33459639244E+03  0.33459639244E+03  0.00000000000E+00 0. -1.
          4   -1    0    0  501    0 -0.00000000000E+00 -0.00000000000E+00 -0.16782757627E+03  0.16782757627E+03  0.00000000000E+00 0.  1.
        -13    1    1    2    0    0  0.31853480632E+02 -0.12735444643E+02 -0.14913485862E+03  0.15302958210E+03  0.10566000000E+00 0.  1.
         13    1    1    2    0    0 -0.48361833060E+02  0.41085181464E+02  0.67599839520E+02  0.92717897409E+02  0.10566000000E+00 0. -1.
          2    1    1    2  501    0  0.14206874640E+02  0.12620112626E+02  0.13168264929E+03  0.13304669351E+03  0.00000000000E+00 0. -1.
          4    1    1    2  502    0  0.23014777875E+01 -0.40969849447E+02  0.11662118598E+03  0.12362979569E+03  0.00000000000E+00 0.  1.
</event>
<event>
 7    1  0.9434649E-006  0.1083180E+04  0.7818608E-02  0.8921225E-01
         -4   -1    0    0    0  501 -0.00000000000E+00  0.00000000000E+00  0.60324349560E+03  0.60324349560E+03  0.00000000000E+00 0. -1.
          1   -1    0    0  501    0  0.00000000000E+00 -0.00000000000E+00 -0.14104574414E+04  0.14104574414E+04  0.00000000000E+00 0.  1.
   -9000010    2    1    2    0  502  0.50218565384E+03 -0.10654510874E+03 -0.45899001860E+03  0.12108758316E+04  0.99599505581E+03 0.  0.
        -13    1    1    2    0    0 -0.40766610579E+03 -0.13238378110E+02  0.15725969245E+02  0.40818405865E+03  0.10566000000E+00 0.  1.
         13    1    3    3    0    0  0.73236157203E+03  0.11761258844E+03 -0.13376224350E+03  0.75370985273E+03  0.10566000000E+00 0. -1.
          1    1    1    2  502    0 -0.94519548053E+02  0.11978348685E+03 -0.36394989647E+03  0.39464104681E+03  0.00000000000E+00 0.  1.
         -4    1    3    3    0  502 -0.23017591819E+03 -0.22415769718E+03 -0.32522777510E+03  0.45716597885E+03  0.00000000000E+00 0. -1.
</event>
<event>
 7    1  0.9434649E-006  0.1102232E+04  0.7818608E-02  0.9032975E-01
          2   -1    0    0  502    0  0.00000000000E+00  0.00000000000E+00  0.17445812713E+04  0.17445812713E+04  0.00000000000E+00 0.  1.
          4   -1    0    0  501    0 -0.00000000000E+00 -0.00000000000E+00 -0.14641985067E+04  0.14641985067E+04  0.00000000000E+00 0.  1.
    9000010    2    1    2  502    0 -0.69839980608E+01 -0.24747771369E+03  0.18473279861E+03  0.10479570014E+04  0.10013958633E+04 0.  0.
        -13    1    3    3    0    0 -0.49908574893E+03 -0.19588619632E+03  0.78266296217E+02  0.54183356391E+03  0.10566000000E+00 0.  1.
         13    1    1    2    0    0  0.11810980070E+03 -0.22765327716E+03 -0.96223392357E+03  0.99582632746E+03  0.10566000000E+00 0. -1.
          2    1    1    2  501    0 -0.11112580264E+03  0.47513099085E+03  0.10578838896E+04  0.11649964491E+04  0.00000000000E+00 0.  1.
          4    1    3    3  502    0  0.49210175087E+03 -0.51591517376E+02  0.10646650239E+03  0.50612343752E+03  0.00000000000E+00 0.  1.
</event>
<event>
 7    1  0.9434649E-006  0.1040007E+04  0.7818608E-02  0.9054158E-01
         -4   -1    0    0    0  501 -0.00000000000E+00  0.00000000000E+00  0.16538482627E+04  0.16538482627E+04  0.00000000000E+00 0. -1.
          2   -1    0    0  501    0  0.00000000000E+00 -0.00000000000E+00 -0.88539191761E+03  0.88539191761E+03  0.00000000000E+00 0. -1.
   -9000010    2    1    2    0  502 -0.25033823745E+03 -0.19862611895E+03  0.22317651951E+03  0.10746531645E+04  0.10014739621E+04 0.  0.
        -13    1    1    2    0    0  0.24467667830E+03  0.13383887220E+03  0.98313595882E+03  0.10219275147E+04  0.10566000000E+00 0.  1.
         13    1    3    3    0    0 -0.37015911765E+03 -0.55534988580E+03  0.80669909558E+02  0.67226402068E+03  0.10566000000E+00 0. -1.
          2    1    1    2  502    0  0.56615591562E+01  0.64787246755E+02 -0.43785613321E+03  0.44265950118E+03  0.00000000000E+00 0. -1.
         -4    1    3    3    0  502  0.11982088019E+03  0.35672376684E+03  0.14250660995E+03  0.40238914379E+03  0.00000000000E+00 0. -1.
</event>
<event>
 6    1  0.9434649E-006  0.1463835E+04  0.7818608E-02  0.8430622E-01
          2   -1    0    0  501    0  0.00000000000E+00  0.00000000000E+00  0.17742943359E+04  0.17742943359E+04  0.00000000000E+00 0. -1.
         -4   -1    0    0    0  501 -0.00000000000E+00 -0.00000000000E+00 -0.15367393115E+04  0.15367393115E+04  0.00000000000E+00 0. -1.
        -13    1    1    2    0    0  0.23073355573E+03 -0.61508369744E+03 -0.24670197684E+03  0.70173200379E+03  0.10566000000E+00 0.  1.
         13    1    1    2    0    0 -0.23831834468E+03  0.64180694522E+03 -0.92010878285E+03  0.11468705122E+04  0.10566000000E+00 0. -1.
          2    1    1    2  502    0 -0.20290724455E+02 -0.37485981809E+02  0.14253059420E+04  0.14259431758E+04  0.00000000000E+00 0. -1.
         -4    1    1    2    0  502  0.27875513405E+02  0.10762734032E+02 -0.20940157936E+02  0.36487955627E+02  0.00000000000E+00 0. -1.
</event>
<event>
 7    1  0.9434649E-006  0.1006786E+04  0.7818608E-02  0.9526878E-01
          1   -1    0    0  501    0  0.00000000000E+00  0.00000000000E+00  0.42140081274E+03  0.42140081274E+03  0.00000000000E+00 0. -1.
         -4   -1    0    0    0  501 -0.00000000000E+00 -0.00000000000E+00 -0.10294619959E+04  0.10294619959E+04  0.00000000000E+00 0. -1.
   -9000010    2    1    2    0  502 -0.42137682078E+02  0.13786394013E+03 -0.70507814403E+03  0.12309445618E+04  0.99865272984E+03 0.  0.
        -13    1    1    2    0    0 -0.35651280777E+02 -0.36857723415E+02 -0.11437866479E+02  0.52538952692E+02  0.10566000000E+00 0.  1.
         13    1    3    3    0    0  0.41952241790E+03 -0.11126797760E+03 -0.13119173238E+03  0.45342133140E+03  0.10566000000E+00 0. -1.
          1    1    1    2  502    0  0.77788962854E+02 -0.10100621671E+03  0.10845482730E+03  0.16737929418E+03  0.00000000000E+00 0. -1.
         -4    1    3    3    0  502 -0.46166009998E+03  0.24913191772E+03 -0.57388641165E+03  0.77752323041E+03  0.00000000000E+00 0. -1.
</event>
<event>
 6    1  0.9434649E-006  0.3113047E+03  0.7818608E-02  0.1002745E+00
          4   -1    0    0  501    0 -0.00000000000E+00  0.00000000000E+00  0.66167784385E+02  0.66167784385E+02  0.00000000000E+00 0.  1.
          2   -1    0    0  502    0  0.00000000000E+00 -0.00000000000E+00 -0.12480840778E+04  0.12480840778E+04  0.00000000000E+00 0.  1.
        -13    1    1    2    0    0 -0.12333408109E+03 -0.22905035606E+02 -0.24598932340E+03  0.27612804024E+03  0.10566000000E+00 0.  1.
         13    1    1    2    0    0  0.18848793589E+02 -0.20247232208E+02 -0.48304921925E+01  0.28081528639E+02  0.10566000000E+00 0. -1.
          2    1    1    2  501    0 -0.95922859998E+01  0.89413457854E+02 -0.86625189535E+03  0.87090707001E+03  0.00000000000E+00 0.  1.
          4    1    1    2  502    0  0.11407757350E+03 -0.46261190040E+02 -0.64844582431E+02  0.13913522326E+03  0.00000000000E+00 0.  1.
</event>
<event>
 7    1  0.9434649E-006  0.1480722E+04  0.7818608E-02  0.8492145E-01
          2   -1    0    0  502    0  0.00000000000E+00  0.00000000000E+00  0.23085632473E+04  0.23085632473E+04  0.00000000000E+00 0. -1.
          4   -1    0    0  501    0 -0.00000000000E+00 -0.00000000000E+00 -0.14250298503E+04  0.14250298503E+04  0.00000000000E+00 0.  1.
    9000010    2    1    2  502    0  0.94018134258E+03 -0.50902660020E+03 -0.77797491223E+03  0.16739224013E+04  0.10265097198E+04 0.  0.
        -13    1    3    3    0    0 -0.13693711700E+03  0.10545823789E+03 -0.29742052295E+03  0.34399446593E+03  0.10566000000E+00 0.  1.
         13    1    1    2    0    0 -0.93652704090E+03  0.49846860857E+03  0.12149205809E+04  0.16129432356E+04  0.10566000000E+00 0. -1.
          2    1    1    2  501    0 -0.36543016884E+01  0.10557991630E+02  0.44658772826E+03  0.44672746070E+03  0.00000000000E+00 0. -1.
          4    1    3    3  502    0  0.10771184596E+04 -0.61448483809E+03 -0.48055438928E+03  0.13299279354E+04  0.00000000000E+00 0.  1.
</event>
<event>
 7    1  0.9434649E-006  0.1008528E+04  0.7818608E-02  0.9258902E-01
          2   -1    0    0  502    0  0.00000000000E+00  0.00000000000E+00  0.65029060105E+03  0.65029060105E+03  0.00000000000E+00 0.  1.
          4   -1    0    0  501    0 -0.00000000000E+00 -0.00000000000E+00 -0.81496003905E+03  0.81496003905E+03  0.00000000000E+00 0.  1.
    9000010    2    1    2  502    0 -0.98458004868E+02 -0.10729025602E+03 -0.40831655491E+03  0.10890301581E+04  0.99902907789E+03 0.  0.
        -13    1    3    3    0    0  0.81526148309E+02  0.29995877643E+03 -0.54142594372E+03  0.62431069517E+03  0.10566000000E+00 0.  1.
         13    1    1    2    0    0  0.88320186971E+02  0.10415155884E+03  0.42867844278E+01  0.13662499888E+03  0.10566000000E+00 0. -1.
          2    1    1    2  501    0  0.10137817897E+02  0.31386971751E+01  0.23936033248E+03  0.23959548313E+03  0.00000000000E+00 0.  1.
          4    1    3    3  502    0 -0.17998415318E+03 -0.40724903245E+03  0.13310938881E+03  0.46471946292E+03  0.00000000000E+00 0.  1.
</event>
<event>
 7    1  0.9434649E-006  0.1006781E+04  0.7818608E-02  0.9405598E-01
          2   -1    0    0  502    0  0.00000000000E+00  0.00000000000E+00  0.20913167653E+03  0.20913167653E+03  0.00000000000E+00 0. -1.
          4   -1    0    0  501    0 -0.00000000000E+00 -0.00000000000E+00 -0.27902591873E+04  0.27902591873E+04  0.00000000000E+00 0.  1.
    9000010    2    1    2  502    0  0.65492890736E+02 -0.18911878733E+02 -0.22498954384E+04  0.24645276935E+04  0.10036036522E+04 0.  0.
        -13    1    3    3    0    0 -0.44772037008E+03  0.10527813477E+03 -0.81887745259E+03  0.93920035614E+03  0.10566000000E+00 0.  1.
         13    1    1    2    0    0 -0.77839323140E+02  0.19854690095E+02 -0.42892802663E+03  0.43638564612E+03  0.10566000000E+00 0. -1.
          2    1    1    2  501    0  0.12346432404E+02 -0.94281136149E+00  0.97695954263E+02  0.98477524165E+02  0.00000000000E+00 0. -1.
          4    1    3    3  502    0  0.51321326082E+03 -0.12419001351E+03 -0.14310179858E+04  0.15253273374E+04  0.00000000000E+00 0.  1.
</event>
<event>
 7    1  0.9434649E-006  0.1045980E+04  0.7818608E-02  0.9051326E-01
         -4   -1    0    0    0  501 -0.00000000000E+00  0.00000000000E+00  0.17352172122E+04  0.17352172122E+04  0.00000000000E+00 0. -1.
          1   -1    0    0  501    0  0.00000000000E+00 -0.00000000000E+00 -0.27453988411E+04  0.27453988411E+04  0.00000000000E+00 0. -1.
   -9000010    2    1    2    0  502  0.22063146388E+03  0.18272082230E+03  0.13687546864E+04  0.17239141077E+04  0.10081296133E+04 0.  0.
        -13    1    1    2    0    0 -0.28398259951E+03 -0.51146711814E+02  0.75227945844E+02  0.29819684430E+03  0.10566000000E+00 0.  1.
         13    1    3    3    0    0  0.42053066165E+03 -0.22650019403E+03  0.10896954890E+04  0.11897834447E+04  0.10566000000E+00 0. -1.
          1    1    1    2  502    0  0.63351135631E+02 -0.13157411048E+03 -0.24541642611E+04  0.24585051014E+04  0.00000000000E+00 0. -1.
         -4    1    3    3    0  502 -0.19989919777E+03  0.40922101632E+03  0.27905919738E+03  0.53413066296E+03  0.00000000000E+00 0. -1.
</event>
<event>
 6    1  0.9434649E-006  0.3786860E+03  0.7818608E-02  0.1046467E+00
          2   -1    0    0  501    0  0.00000000000E+00  0.00000000000E+00  0.23249580895E+04  0.23249580895E+04  0.00000000000E+00 0. -1.
         -4   -1    0    0    0  501 -0.00000000000E+00 -0.00000000000E+00 -0.67461065379E+02  0.67461065379E+02  0.00000000000E+00 0. -1.
        -13    1    1    2    0    0  0.38997900815E+02  0.20654157252E+02  0.15130101746E+03  0.15760532837E+03  0.10566000000E+00 0.  1.
         13    1    1    2    0    0 -0.12968045205E+03  0.22198721447E+03  0.13559979383E+04  0.13801542533E+04  0.10566000000E+00 0. -1.
          2    1    1    2  502    0  0.12356327418E+03 -0.30882995606E+03  0.64984355984E+03  0.73002772328E+03  0.00000000000E+00 0. -1.
         -4    1    1    2    0  502 -0.32880722945E+02  0.66188584338E+02  0.10035450844E+03  0.12463184987E+03  0.00000000000E+00 0. -1.
</event>
<event>
 7    1  0.9434649E-006  0.1030344E+04  0.7818608E-02  0.9094413E-01
         -4   -1    0    0    0  501 -0.00000000000E+00  0.00000000000E+00  0.12228912235E+04  0.12228912235E+04  0.00000000000E+00 0. -1.
          4   -1    0    0  501    0  0.00000000000E+00 -0.00000000000E+00 -0.49217177519E+03  0.49217177519E+03  0.00000000000E+00 0. -1.
   -9000010    2    1    2    0  502 -0.12321253461E+03  0.17209677705E+03  0.24873919473E+03  0.10525653938E+04  0.10006118587E+04 0.  0.
        -13    1    1    2    0    0 -0.54899636554E+02 -0.25277033558E+03  0.26181535246E+03  0.36804089799E+03  0.10566000000E+00 0.  1.
         13    1    3    3    0    0 -0.11424857772E+03  0.98422171943E+02  0.63836487993E+03  0.65593398489E+03  0.10566000000E+00 0. -1.
          4    1    1    2  502    0  0.17811217116E+03  0.80673558528E+02  0.22016490112E+03  0.29445670691E+03  0.00000000000E+00 0. -1.
         -4    1    3    3    0  502 -0.89639568851E+01  0.73674605108E+02 -0.38962568519E+03  0.39663140890E+03  0.00000000000E+00 0. -1.
</event>
<event>
 6    1  0.9434649E-006  0.3918763E+03  0.7818608E-02  0.9752805E-01
         -2   -1    0    0    0  501  0.00000000000E+00  0.00000000000E+00  0.91698612203E+02  0.91698612203E+02  0.00000000000E+00 0.  1.
         -4   -1    0    0    0  502 -0.00000000000E+00 -0.00000000000E+00 -0.56364593721E+03  0.56364593721E+03  0.00000000000E+00 0. -1.
        -13    1    1    2    0    0  0.98343843196E+02 -0.74035232008E+02 -0.74278193108E+02  0.14377060968E+03  0.10566000000E+00 0.  1.
         13    1    1    2    0    0 -0.80899129306E+02  0.11308686466E+03 -0.40902423652E+03  0.43201174209E+03  0.10566000000E+00 0. -1.
         -2    1    1    2    0  502  0.43114415577E+01  0.10121781209E+02  0.22137385124E+02  0.24720493588E+02  0.00000000000E+00 0.  1.
         -4    1    1    2    0  501 -0.21756155448E+02 -0.49173413857E+02 -0.10782280500E+02  0.54841704049E+02  0.00000000000E+00 0. -1.
</event>
<event>
 7    1  0.9434649E-006  0.1080294E+04  0.7818608E-02  0.8981267E-01
         -4   -1    0    0    0  501 -0.00000000000E+00  0.00000000000E+00  0.44549221496E+03  0.44549221496E+03  0.00000000000E+00 0. -1.
          1   -1    0    0  501    0  0.00000000000E+00 -0.00000000000E+00 -0.30726351615E+04  0.30726351615E+04  0.00000000000E+00 0.  1.
   -9000010    2    1    2    0  502 -0.36332483923E+03 -0.13569676093E+03 -0.28730820757E+03  0.11345964727E+04  0.10268128359E+04 0.  0.
        -13    1    1    2    0    0  0.26557659383E+03  0.37098174189E+02 -0.96061608677E+03  0.99734170626E+03  0.10566000000E+00 0.  1.
         13    1    3    3    0    0 -0.73839174383E+02  0.26416808097E+03  0.27358225854E+03  0.38740710115E+03  0.10566000000E+00 0. -1.
          1    1    1    2  502    0  0.97748245406E+02  0.98598586745E+02 -0.13792186522E+04  0.13861891975E+04  0.00000000000E+00 0.  1.
         -4    1    3    3    0  502 -0.28948566485E+03 -0.39986484190E+03 -0.56089046611E+03  0.74718937152E+03  0.00000000000E+00 0. -1.
</event>
<event>
 6    1  0.9434649E-006  0.2602314E+03  0.7818608E-02  0.1025223E+00
          1   -1    0    0  501    0  0.00000000000E+00  0.00000000000E+00  0.41695043798E+03  0.41695043798E+03  0.00000000000E+00 0.  1.
         -4   -1    0    0    0  501 -0.00000000000E+00 -0.00000000000E+00 -0.12993848022E+03  0.12993848022E+03  0.00000000000E+00 0. -1.
        -13    1    1    2    0    0  0.12350095375E+02  0.21130690532E+02  0.24271178364E+02  0.34469293601E+02  0.10566000000E+00 0.  1.
         13    1    1    2    0    0 -0.44950273361E+02 -0.73174494123E+02 -0.10275549422E+03  0.13391690118E+03  0.10566000000E+00 0. -1.
          1    1    1    2  502    0 -0.88307846176E+00  0.59897742294E+02  0.28023830742E+03  0.28656941272E+03  0.00000000000E+00 0.  1.
         -4    1    1    2    0  502  0.33483256447E+02 -0.78539387037E+01  0.85257966198E+02  0.91933310697E+02  0.00000000000E+00 0. -1.
</event>
<event>
 6    1  0.9434649E-006  0.1773160E+03  0.7818608E-02  0.1083681E+00
         -4   -1    0    0    0  501 -0.00000000000E+00  0.00000000000E+00  0.29645004222E+03  0.29645004222E+03  0.00000000000E+00 0. -1.
          4   -1    0    0  501    0  0.00000000000E+00 -0.00000000000E+00 -0.12163941923E+03  0.12163941923E+03  0.00000000000E+00 0.  1.
        -13    1    1    2    0    0  0.63585712446E+02 -0.11395698842E+03  0.73307879107E+01  0.13070229398E+03  0.10566000000E+00 0.  1.
         13    1    1    2    0    0  0.15136729929E+02  0.61969940333E+02  0.81297692352E+02  0.10333789258E+03  0.10566000000E+00 0. -1.
          4    1    1    2  502    0  0.16649380891E+02 -0.20921641321E+02 -0.11669794816E+02  0.29173636569E+02  0.00000000000E+00 0.  1.
         -4    1    1    2    0  502 -0.95371823267E+02  0.72908689404E+02  0.97851937540E+02  0.15487563832E+03  0.00000000000E+00 0. -1.
</event>
<event>
 6    1  0.9434649E-006  0.1399035E+04  0.7818608E-02  0.8470083E-01
          5   -1    0    0  501    0  0.00000000000E+00  0.00000000000E+00  0.10381180729E+04  0.10381180729E+04  0.00000000000E+00 0.  1.
         -4   -1    0    0    0  501 -0.00000000000E+00 -0.00000000000E+00 -0.80808412530E+03  0.80808412530E+03  0.00000000000E+00 0. -1.
        -13    1    1    2    0    0 -0.52908685998E+03 -0.15295858817E+03 -0.33142297663E+02  0.55174963358E+03  0.10566000000E+00 0.  1.
         13    1    1    2    0    0  0.28352184946E+03  0.22943955974E+03  0.20727411238E+03  0.41951128652E+03  0.10566000000E+00 0. -1.
          5    1    1    2  502    0  0.15866293803E+02 -0.33052115887E+02  0.43121955026E+03  0.43277532528E+03  0.00000000000E+00 0.  1.
         -4    1    1    2    0  502  0.22969871672E+03 -0.43428855687E+02 -0.37531741742E+03  0.44216595277E+03  0.00000000000E+00 0. -1.
</event>
<event>
 7    1  0.9434649E-006  0.1233724E+04  0.7818608E-02  0.8702513E-01
          2   -1    0    0  501    0  0.00000000000E+00  0.00000000000E+00  0.93302128715E+03  0.93302128715E+03  0.00000000000E+00 0.  1.
         -4   -1    0    0    0  501 -0.00000000000E+00 -0.00000000000E+00 -0.21276255118E+04  0.21276255118E+04  0.00000000000E+00 0. -1.
   -9000010    2    1    2    0  502  0.23860793870E+03 -0.66295117787E+03 -0.13179290546E+04  0.17969390579E+04  0.99780507735E+03 0.  0.
        -13    1    1    2    0    0 -0.21778916581E+03  0.71515024948E+03 -0.32263078721E+03  0.81422517530E+03  0.10566000000E+00 0.  1.
         13    1    3    3    0    0 -0.23761779743E+03 -0.38344945318E+02 -0.84833762483E+03  0.88182157455E+03  0.10566000000E+00 0. -1.
          2    1    1    2  502    0 -0.20818772897E+02 -0.52199071612E+02  0.44595561716E+03  0.44948256569E+03  0.00000000000E+00 0.  1.
         -4    1    3    3    0  502  0.47622573613E+03 -0.62460623255E+03 -0.46959142973E+03  0.91511748337E+03  0.00000000000E+00 0. -1.
</event>
<event>
 7    1  0.9434649E-006  0.1310823E+04  0.7818608E-02  0.8943278E-01
         -4   -1    0    0    0  501 -0.00000000000E+00  0.00000000000E+00  0.19457147583E+04  0.19457147583E+04  0.00000000000E+00 0. -1.
          2   -1    0    0  501    0  0.00000000000E+00 -0.00000000000E+00 -0.92871591233E+03  0.92871591233E+03  0.00000000000E+00 0.  1.
   -9000010    2    1    2    0  502  0.56619944371E+03  0.47342877057E+03  0.83819431746E+03  0.15315385844E+04  0.10480095948E+04 0.  0.
        -13    1    1    2    0    0  0.16731013110E+03 -0.14196013033E+03  0.44411980847E+03  0.49536630286E+03  0.10566000000E+00 0.  1.
         13    1    3    3    0    0  0.27268988034E+03  0.98716067463E+02  0.99026377720E+03  0.10318560909E+04  0.10566000000E+00 0. -1.
          2    1    1    2  502    0 -0.73350957481E+03 -0.33146864023E+03 -0.26531527993E+03  0.84752578342E+03  0.00000000000E+00 0.  1.
         -4    1    3    3    0  502  0.29350956337E+03  0.37471270310E+03 -0.15206945974E+03  0.49968249343E+03  0.00000000000E+00 0. -1.
</event>
<event>
 7    1  0.9434649E-006  0.1237112E+04  0.7818608E-02  0.8877642E-01
         -4   -1    0    0    0  502 -0.00000000000E+00  0.00000000000E+00  0.94810992809E+03  0.94810992809E+03  0.00000000000E+00 0. -1.
         -2   -1    0    0    0  501  0.00000000000E+00 -0.00000000000E+00 -0.14531622090E+04  0.14531622090E+04  0.00000000000E+00 0. -1.
   -9000010    2    1    2    0  501 -0.51851794235E+03 -0.17562611932E+03 -0.16773820892E+03  0.11468588467E+04  0.99370202630E+03 0.  0.
        -13    1    1    2    0    0 -0.23423337649E+03 -0.24960526870E+03 -0.69042767499E+02  0.34919189528E+03  0.10566000000E+00 0.  1.
         13    1    3    3    0    0 -0.30917777734E+03  0.40925445753E+03 -0.90968057353E+02  0.52091775515E+03  0.10566000000E+00 0. -1.
         -2    1    1    2    0  502  0.75275131884E+03  0.42523138802E+03 -0.26827130445E+03  0.90522139511E+03  0.00000000000E+00 0. -1.
         -4    1    3    3    0  501 -0.20934016501E+03 -0.58488057685E+03 -0.76770151570E+02  0.62594109151E+03  0.00000000000E+00 0. -1.
</event>
<event>
 7    1  0.9434649E-006  0.1087644E+04  0.7818608E-02  0.9051608E-01
          2   -1    0    0  501    0  0.00000000000E+00  0.00000000000E+00  0.18554280670E+04  0.18554280670E+04  0.00000000000E+00 0. -1.
         -4   -1    0    0    0  501 -0.00000000000E+00 -0.00000000000E+00 -0.52011909403E+03  0.52011909403E+03  0.00000000000E+00 0. -1.
   -9000010    2    1    2    0  502  0.25149333250E+03 -0.14879210644E+03  0.72834308023E+03  0.12708282458E+04  0.99956630625E+03 0.  0.
        -13    1    1    2    0    0  0.20176861321E+03 -0.14372029615E+03  0.49535076669E+03  0.55383976927E+03  0.10566000000E+00 0.  1.
         13    1    3    3    0    0  0.50156852947E+03  0.18036552191E+03  0.66559633794E+03  0.85271402444E+03  0.10566000000E+00 0. -1.
          2    1    1    2  502    0 -0.45326194571E+03  0.29251240260E+03  0.11161512608E+03  0.55087914598E+03  0.00000000000E+00 0. -1.
         -4    1    3    3    0  502 -0.25007519696E+03 -0.32915762835E+03  0.62746742293E+02  0.41811422136E+03  0.00000000000E+00 0. -1.
</event>
<event>
 6    1  0.9434649E-006  0.8600789E+03  0.7818608E-02  0.8918495E-01
          1   -1    0    0  501    0  0.00000000000E+00  0.00000000000E+00  0.24707674604E+04  0.24707674604E+04  0.00000000000E+00 0. -1.
         -4   -1    0    0    0  501 -0.00000000000E+00 -0.00000000000E+00 -0.19254940698E+04  0.19254940698E+04  0.00000000000E+00 0. -1.
        -13    1    1    2    0    0  0.17752464213E+03 -0.36043691804E+03 -0.80775133701E+03  0.90215963336E+03  0.10566000000E+00 0.  1.
         13    1    1    2    0    0 -0.27590466576E+03  0.29978304727E+02 -0.93348363604E+03  0.97386538765E+03  0.10566000000E+00 0. -1.
          1    1    1    2  502    0  0.27839071911E+02  0.24191885888E+03  0.23681664522E+04  0.23806537114E+04  0.00000000000E+00 0. -1.
         -4    1    1    2    0  502  0.70540951721E+02  0.88539754440E+02 -0.81658088672E+02  0.13958279776E+03  0.00000000000E+00 0. -1.
</event>
<event>
 7    1  0.9434649E-006  0.1049223E+04  0.7818608E-02  0.9302417E-01
          2   -1    0    0  501    0  0.00000000000E+00  0.00000000000E+00  0.10970664743E+04  0.10970664743E+04  0.00000000000E+00 0. -1.
         -4   -1    0    0    0  501 -0.00000000000E+00 -0.00000000000E+00 -0.63460833541E+03  0.63460833541E+03  0.00000000000E+00 0. -1.
   -9000010    2    1    2    0  502  0.30262346430E+03  0.90159181658E+02  0.37692246114E+03  0.11359444033E+04  0.10240065949E+04 0.  0.
        -13    1    1    2    0    0 -0.10379661018E+03  0.51250652505E+01 -0.20569347692E+03  0.23045567945E+03  0.10566000000E+00 0.  1.
         13    1    3    3    0    0  0.12685038141E+03 -0.46580245291E+03  0.22933795058E+03  0.53447062702E+03  0.10566000000E+00 0. -1.
          2    1    1    2  502    0 -0.19882685412E+03 -0.95284246909E+02  0.29122915464E+03  0.36527472694E+03  0.00000000000E+00 0. -1.
         -4    1    3    3    0  502  0.17577308289E+03  0.55596163457E+03  0.14758451056E+03  0.60147377627E+03  0.00000000000E+00 0. -1.
</event>
<event>
 7    1  0.9434649E-006  0.1279843E+04  0.7818608E-02  0.8653303E-01
          2   -1    0    0  502    0  0.00000000000E+00  0.00000000000E+00  0.11374322532E+04  0.11374322532E+04  0.00000000000E+00 0.  1.
          4   -1    0    0  501    0 -0.00000000000E+00 -0.00000000000E+00 -0.20238825298E+04  0.20238825298E+04  0.00000000000E+00 0.  1.
    9000010    2    1    2  502    0 -0.81232710851E+03 -0.15236843326E+03 -0.10600397433E+04  0.16722636289E+04  0.99483160214E+03 0.  0.
        -13    1    3    3    0    0 -0.51788956810E+03 -0.57783165207E+03 -0.63686042806E+03  0.10038377553E+04  0.10566000000E+00 0.  1.
         13    1    1    2    0    0  0.77823840779E+03  0.12848876609E+03 -0.42025892845E+03  0.89374602683E+03  0.10566000000E+00 0. -1.
          2    1    1    2  501    0  0.34088700726E+02  0.23879667169E+02  0.59384839518E+03  0.59530512721E+03  0.00000000000E+00 0.  1.
          4    1    3    3  502    0 -0.29443754041E+03  0.42546321881E+03 -0.42317931522E+03  0.66842587367E+03  0.00000000000E+00 0.  1.
</event>
<event>
 6    1  0.3087418E-005  0.1067672E+04  0.7818608E-02  0.8713483E-01
          1   -1    0    0  501    0  0.00000000000E+00  0.00000000000E+00  0.12950403399E+04  0.12950403399E+04  0.00000000000E+00 0. -1.
         -4   -1    0    0    0  501 -0.00000000000E+00 -0.00000000000E+00 -0.12854945992E+04  0.12854945992E+04  0.00000000000E+00 0. -1.
        -13    1    1    2    0    0  0.28604357854E+03 -0.29625066278E+03 -0.35519908659E+03  0.54383065958E+03  0.10566000000E+00 0.  1.
         13    1    1    2    0    0 -0.27355454089E+03  0.29800755842E+03 -0.78600350045E+03  0.88399214114E+03  0.10566000000E+00 0. -1.
          1    1    1    2  502    0 -0.27734336592E+02 -0.58615744858E+01  0.10731314254E+04  0.10735057558E+04  0.00000000000E+00 0. -1.
         -4    1    1    2    0  502  0.15245298945E+02  0.41046788414E+01  0.77616902309E+02  0.79206382649E+02  0.00000000000E+00 0. -1.
</event>
<event>
 7    1  0.9434649E-006  0.1070534E+04  0.7818608E-02  0.8922086E-01
          2   -1    0    0  501    0  0.00000000000E+00  0.00000000000E+00  0.15542905719E+04  0.15542905719E+04  0.00000000000E+00 0.  1.
         -4   -1    0    0    0  501 -0.00000000000E+00 -0.00000000000E+00 -0.13003822310E+04  0.13003822310E+04  0.00000000000E+00 0. -1.
   -9000010    2    1    2    0  502 -0.12786619721E+03 -0.42938375501E+03  0.13137264388E+03  0.10820781897E+04  0.97617327543E+03 0.  0.
        -13    1    1    2    0    0  0.83634043254E+02  0.43078550368E+03 -0.76608714060E+03  0.88287050099E+03  0.10566000000E+00 0.  1.
         13    1    3    3    0    0 -0.57649663962E+02  0.11212210056E+03  0.43803598857E+03  0.45581837133E+03  0.10566000000E+00 0. -1.
          2    1    1    2  502    0  0.44232153956E+02 -0.14017486699E+01  0.88862283762E+03  0.88972411223E+03  0.00000000000E+00 0.  1.
         -4    1    3    3    0  502 -0.70216533247E+02 -0.54150585557E+03 -0.30666334469E+03  0.62625981839E+03  0.00000000000E+00 0. -1.
</event>
<event>
 7    1  0.9434649E-006  0.1324401E+04  0.7818608E-02  0.8613100E-01
         -2   -1    0    0    0  501  0.00000000000E+00  0.00000000000E+00  0.35210337146E+04  0.35210337146E+04  0.00000000000E+00 0.  1.
         -4   -1    0    0    0  502 -0.00000000000E+00 -0.00000000000E+00 -0.10643478047E+04  0.10643478047E+04  0.00000000000E+00 0. -1.
   -9000010    2    1    2    0  501 -0.80097808340E+03  0.37517808559E+03  0.45957309603E+03  0.14126478502E+04  0.10010204953E+04 0.  0.
        -13    1    1    2    0    0  0.76135920816E+03 -0.40334740829E+03 -0.27168038234E+03  0.90341973464E+03  0.10566000000E+00 0.  1.
         13    1    3    3    0    0 -0.23419891832E+03  0.44531051010E+03 -0.19888791879E+03  0.54102402826E+03  0.10566000000E+00 0. -1.
         -2    1    1    2    0  502  0.39618875239E+02  0.28169322699E+02  0.22687931962E+04  0.22693139345E+04  0.00000000000E+00 0.  1.
         -4    1    3    3    0  501 -0.56677916508E+03 -0.70132424513E+02  0.65846101482E+03  0.87162382194E+03  0.00000000000E+00 0. -1.
</event>
<event>
 7    1  0.9434649E-006  0.1049529E+04  0.7818608E-02  0.9039955E-01
         -4   -1    0    0    0  501 -0.00000000000E+00  0.00000000000E+00  0.23060500870E+04  0.23060500870E+04  0.00000000000E+00 0. -1.
          1   -1    0    0  501    0  0.00000000000E+00 -0.00000000000E+00 -0.50344204391E+03  0.50344204391E+03  0.00000000000E+00 0.  1.
   -9000010    2    1    2    0  502  0.19534001969E+03 -0.13371355768E+03  0.61584492174E+03  0.12055560000E+04  0.10089912104E+04 0.  0.
        -13    1    1    2    0    0 -0.19982328164E+03  0.21273259218E+03  0.13718939928E+04  0.14025967483E+04  0.10566000000E+00 0.  1.
         13    1    3    3    0    0  0.17533956848E+03  0.61011436289E+02  0.86726798688E+03  0.88691607938E+03  0.10566000000E+00 0. -1.
          1    1    1    2  502    0  0.44832619527E+01 -0.79019034506E+02 -0.18513087143E+03  0.20133938265E+03  0.00000000000E+00 0.  1.
         -4    1    3    3    0  502  0.20000451207E+02 -0.19472499397E+03 -0.25142306514E+03  0.31863992061E+03  0.00000000000E+00 0. -1.
</event>
<event>
 7    1  0.9434649E-006  0.1119847E+04  0.7818608E-02  0.9034539E-01
         -4   -1    0    0    0  501 -0.00000000000E+00  0.00000000000E+00  0.34145295563E+03  0.34145295563E+03  0.00000000000E+00 0. -1.
          1   -1    0    0  501    0  0.00000000000E+00 -0.00000000000E+00 -0.26547216449E+04  0.26547216449E+04  0.00000000000E+00 0. -1.
   -9000010    2    1    2    0  502 -0.33521332526E+03 -0.86918493304E+02 -0.12469364756E+04  0.16357097305E+04  0.10003864005E+04 0.  0.
        -13    1    1    2    0    0 -0.23705080469E+03  0.53553153238E+02 -0.17028786869E+03  0.29674735653E+03  0.10566000000E+00 0.  1.
         13    1    3    3    0    0 -0.28529734890E+03  0.10933107239E+02 -0.14102665900E+04  0.14388766369E+04  0.10566000000E+00 0. -1.
          1    1    1    2  502    0  0.57226412994E+03  0.33365340066E+02 -0.89604434504E+03  0.10637175135E+04  0.00000000000E+00 0. -1.
         -4    1    3    3    0  502 -0.49915976355E+02 -0.97851600542E+02  0.16333011447E+03  0.19683309355E+03  0.00000000000E+00 0. -1.
</event>
<event>
 7    1  0.9434649E-006  0.1012094E+04  0.7818608E-02  0.9227801E-01
          2   -1    0    0  502    0  0.00000000000E+00  0.00000000000E+00  0.40738985903E+03  0.40738985903E+03  0.00000000000E+00 0.  1.
          4   -1    0    0  501    0 -0.00000000000E+00 -0.00000000000E+00 -0.18011251442E+04  0.18011251442E+04  0.00000000000E+00 0.  1.
    9000010    2    1    2  502    0 -0.60206943177E+02  0.15272290526E+03 -0.78266588622E+03  0.12806809507E+04  0.10003142738E+04 0.  0.
        -13    1    3    3    0    0 -0.10866620331E+03 -0.15795933847E+03  0.18304059604E+03  0.26507238128E+03  0.10566000000E+00 0.  1.
         13    1    1    2    0    0 -0.76912647423E+01 -0.15389600575E+03 -0.75400412599E+03  0.76958779181E+03  0.10566000000E+00 0. -1.
          2    1    1    2  501    0  0.67898207919E+02  0.11731004974E+01  0.14293472708E+03  0.15824626065E+03  0.00000000000E+00 0.  1.
          4    1    3    3  502    0  0.48459260135E+02  0.31068224372E+03 -0.96570648227E+03  0.10156085695E+04  0.00000000000E+00 0.  1.
</event>
<event>
 7    1  0.9434649E-006  0.1018091E+04  0.7818608E-02  0.9169652E-01
          4   -1    0    0  501    0 -0.00000000000E+00  0.00000000000E+00  0.15353348053E+04  0.15353348053E+04  0.00000000000E+00 0.  1.
          2   -1    0    0  502    0  0.00000000000E+00 -0.00000000000E+00 -0.10368226111E+04  0.10368226111E+04  0.00000000000E+00 0. -1.
    9000010    2    1    2  502    0 -0.16755927111E+03 -0.11038510557E+03  0.99521715199E+03  0.14252441769E+04  0.10003013562E+04 0.  0.
        -13    1    3    3    0    0  0.38765236169E+03 -0.93172546436E+02  0.17683099739E+03  0.43614755500E+03  0.10566000000E+00 0.  1.
         13    1    1    2    0    0  0.16033160369E+03  0.98340922527E+02  0.29783237809E+03  0.35225175200E+03  0.10566000000E+00 0. -1.
          2    1    1    2  501    0  0.72276674174E+01  0.12044183045E+02 -0.79453733594E+03  0.79466148750E+03  0.00000000000E+00 0. -1.
          4    1    3    3  502    0 -0.55521163280E+03 -0.17212559136E+02  0.81838615460E+03  0.98909662189E+03  0.00000000000E+00 0.  1.
</event>
<event>
 7    1  0.9434649E-006  0.9961206E+03  0.7818608E-02  0.9515504E-01
          2   -1    0    0  501    0  0.00000000000E+00  0.00000000000E+00  0.21793350684E+04  0.21793350684E+04  0.00000000000E+00 0. -1.
         -4   -1    0    0    0  501 -0.00000000000E+00 -0.00000000000E+00 -0.17512547645E+03  0.17512547645E+03  0.00000000000E+00 0. -1.
   -9000010    2    1    2    0  502 -0.33423155156E+02  0.42965502453E+02  0.19337858373E+04  0.21752479470E+04  0.99459178803E+03 0.  0.
        -13    1    1    2    0    0  0.53027187503E+02 -0.15498941011E+02 -0.37080680111E+02  0.66536364407E+02  0.10566000000E+00 0.  1.
         13    1    3    3    0    0 -0.48364251824E+03  0.83186236242E+02  0.13532986611E+04  0.14395302402E+04  0.10566000000E+00 0. -1.
          2    1    1    2  502    0 -0.19604032347E+02 -0.27466561443E+02  0.10750443481E+03  0.11267623345E+03  0.00000000000E+00 0. -1.
         -4    1    3    3    0  502  0.45021936308E+03 -0.40220733788E+02  0.58048717623E+03  0.73571770679E+03  0.00000000000E+00 0. -1.
</event>
<event>
 7    1  0.9434649E-006  0.1239712E+04  0.7818608E-02  0.8842487E-01
          2   -1    0    0  501    0  0.00000000000E+00  0.00000000000E+00  0.89585732408E+03  0.89585732408E+03  0.00000000000E+00 0. -1.
         -4   -1    0    0    0  501 -0.00000000000E+00 -0.00000000000E+00 -0.25099316812E+04  0.25099316812E+04  0.00000000000E+00 0. -1.
   -9000010    2    1    2    0  502  0.28809342160E+03 -0.57640453136E+03  0.10654702051E+03  0.11880666184E+04  0.99242632923E+03 0.  0.
        -13    1    1    2    0    0 -0.34753250277E+02 -0.39241524959E+03 -0.56190828823E+03  0.68624955524E+03  0.10566000000E+00 0.  1.
         13    1    3    3    0    0  0.63773362638E+03 -0.23474121892E+03  0.15436358367E+03  0.69687570283E+03  0.10566000000E+00 0. -1.
          2    1    1    2  502    0 -0.25334017132E+03  0.96881978096E+03 -0.11587130895E+04  0.15314728316E+04  0.00000000000E+00 0. -1.
         -4    1    3    3    0  502 -0.34964020478E+03 -0.34166331245E+03 -0.47816563158E+02  0.49119091561E+03  0.00000000000E+00 0. -1.
</event>
<event>
 7    1  0.9434649E-006  0.1007995E+04  0.7818608E-02  0.9369839E-01
         -4   -1    0    0    0  501 -0.00000000000E+00  0.00000000000E+00  0.11304001732E+04  0.11304001732E+04  0.00000000000E+00 0. -1.
          2   -1    0    0  501    0  0.00000000000E+00 -0.00000000000E+00 -0.24877603259E+04  0.24877603259E+04  0.00000000000E+00 0. -1.
   -9000010    2    1    2    0  502  0.13483410269E+03 -0.73759416405E+02  0.51757660070E+03  0.11397769924E+04  0.10037855189E+04 0.  0.
        -13    1    1    2    0    0 -0.43072211739E+02  0.80114767793E+02  0.29387104315E+03  0.30762605970E+03  0.10566000000E+00 0.  1.
         13    1    3    3    0    0  0.13645593785E+03  0.44302809969E+03  0.39408206329E+03  0.60843635974E+03  0.10566000000E+00 0. -1.
          2    1    1    2  502    0 -0.91761890947E+02 -0.63553513881E+01 -0.21688077965E+04  0.21707574470E+04  0.00000000000E+00 0. -1.
         -4    1    3    3    0  502 -0.16218351643E+01 -0.51678751609E+03  0.12349453742E+03  0.53134063266E+03  0.00000000000E+00 0. -1.
</event>
<event>
 7    1  0.9434649E-006  0.1363214E+04  0.7818608E-02  0.8586710E-01
          2   -1    0    0  501    0  0.00000000000E+00  0.00000000000E+00  0.10809391144E+04  0.10809391144E+04  0.00000000000E+00 0. -1.
         -4   -1    0    0    0  501 -0.00000000000E+00 -0.00000000000E+00 -0.18737235869E+04  0.18737235869E+04  0.00000000000E+00 0. -1.
   -9000010    2    1    2    0  502  0.45247036362E+03  0.72762831030E+03 -0.60637060714E+03  0.14700888216E+04  0.10292246802E+04 0.  0.
        -13    1    1    2    0    0 -0.42174333879E+03 -0.81380497030E+03 -0.57721877373E+03  0.10832024268E+04  0.10566000000E+00 0.  1.
         13    1    3    3    0    0  0.57386682544E+03  0.92362704352E+03 -0.59437076988E+03  0.12392282567E+04  0.10566000000E+00 0. -1.
          2    1    1    2  502    0 -0.30727024833E+02  0.86176660005E+02  0.39080490837E+03  0.40137145288E+03  0.00000000000E+00 0. -1.
         -4    1    3    3    0  502 -0.12139646182E+03 -0.19599873322E+03 -0.11999837265E+02  0.23086056497E+03  0.00000000000E+00 0. -1.
</event>
<event>
 7    1  0.9434649E-006  0.1209145E+04  0.7818608E-02  0.8864419E-01
          2   -1    0    0  501    0  0.00000000000E+00  0.00000000000E+00  0.77502062159E+03  0.77502062159E+03  0.00000000000E+00 0. -1.
         -4   -1    0    0    0  501 -0.00000000000E+00 -0.00000000000E+00 -0.20487571243E+04  0.20487571243E+04  0.00000000000E+00 0. -1.
   -9000010    2    1    2    0  502  0.72458396979E+03 -0.36095064436E+03 -0.74918183530E+03  0.14830529131E+04  0.99139559393E+03 0.  0.
        -13    1    1    2    0    0 -0.33472224679E+03 -0.19497492873E+03 -0.53636309979E+03  0.66161891699E+03  0.10566000000E+00 0.  1.
         13    1    3    3    0    0  0.92250799169E+03 -0.44608485327E+03 -0.46200695520E+03  0.11240387577E+04  0.10566000000E+00 0. -1.
          2    1    1    2  502    0 -0.38986172299E+03  0.55592557308E+03  0.11808432372E+02  0.67910591585E+03  0.00000000000E+00 0. -1.
         -4    1    3    3    0  502 -0.19792402190E+03  0.85134208913E+02 -0.28717488010E+03  0.35901415533E+03  0.00000000000E+00 0. -1.
</event>
<event>
 7    1  0.9434649E-006  0.1005234E+04  0.7818608E-02  0.9386732E-01
          2   -1    0    0  502    0  0.00000000000E+00  0.00000000000E+00  0.69865092989E+03  0.69865092989E+03  0.00000000000E+00 0.  1.
          4   -1    0    0  501    0 -0.00000000000E+00 -0.00000000000E+00 -0.15392935973E+04  0.15392935973E+04  0.00000000000E+00 0.  1.
    9000010    2    1    2  502    0 -0.80228157087E+02  0.27928156279E+02 -0.13170464424E+04  0.16567760533E+04  0.10015383269E+04 0.  0.
        -13    1    3    3    0    0 -0.60548270686E+02  0.51405633990E+03 -0.71576153356E+03  0.88330889148E+03  0.10566000000E+00 0.  1.
         13    1    1    2    0    0  0.84560389951E+02 -0.18100295665E+02 -0.16594025033E+02  0.88053694316E+02  0.10566000000E+00 0. -1.
          2    1    1    2  501    0 -0.43322328633E+01 -0.98278606140E+01  0.49299779998E+03  0.49311477961E+03  0.00000000000E+00 0.  1.
          4    1    3    3  502    0 -0.19679886402E+02 -0.48612818362E+03 -0.60128490882E+03  0.77346716182E+03  0.00000000000E+00 0.  1.
</event>
<event>
 7    1  0.9434649E-006  0.1086794E+04  0.7818608E-02  0.8947343E-01
         -4   -1    0    0    0  501  0.00000000000E+00  0.00000000000E+00  0.81879183475E+03  0.81879183475E+03  0.00000000000E+00 0. -1.
         -4   -1    0    0    0  502 -0.00000000000E+00 -0.00000000000E+00 -0.94216125469E+03  0.94216125469E+03  0.00000000000E+00 0. -1.
   -9000010    2    1    2    0  501  0.21834417381E+03 -0.46754359967E+03 -0.16902994413E+03  0.11543792495E+04  0.10186997270E+04 0.  0.
        -13    1    1    2    0    0 -0.46465241190E+02  0.34246264175E+03 -0.86506405079E+02  0.35626261229E+03  0.10566000000E+00 0.  1.
         13    1    3    3    0    0  0.56751454132E+03 -0.50762228837E+03  0.66729127654E+01  0.76144447020E+03  0.10566000000E+00 0. -1.
         -4    1    1    2    0  502 -0.17187893262E+03  0.12508095792E+03  0.13216692927E+03  0.25031122768E+03  0.00000000000E+00 0. -1.
         -4    1    3    3    0  501 -0.34917036752E+03  0.40078688701E+02 -0.17570285689E+03  0.39293477927E+03  0.00000000000E+00 0. -1.
</event>
<event>
 6    1  0.9434649E-006  0.1777436E+03  0.7818608E-02  0.1076567E+00
          2   -1    0    0  502    0  0.00000000000E+00  0.00000000000E+00  0.53316005737E+03  0.53316005737E+03  0.00000000000E+00 0.  1.
          4   -1    0    0  501    0 -0.00000000000E+00 -0.00000000000E+00 -0.35251904127E+02  0.35251904127E+02  0.00000000000E+00 0.  1.
        -13    1    1    2    0    0  0.36295717115E+01 -0.56940187229E+02  0.27429315320E+02  0.63306691711E+02  0.10566000000E+00 0.  1.
         13    1    1    2    0    0 -0.19098159675E+02  0.53695385759E+02  0.14997810558E+03  0.16044119631E+03  0.10566000000E+00 0. -1.
          2    1    1    2  501    0 -0.18606607031E+02 -0.24993171730E+01  0.30698570866E+03  0.30755922638E+03  0.00000000000E+00 0.  1.
          4    1    1    2  502    0  0.34075194994E+02  0.57441186431E+01  0.13515023680E+02  0.37104847095E+02  0.00000000000E+00 0.  1.
</event>
<event>
 6    1  0.9434649E-006  0.4906254E+03  0.7818608E-02  0.9498759E-01
          1   -1    0    0  501    0  0.00000000000E+00  0.00000000000E+00  0.10321928605E+04  0.10321928605E+04  0.00000000000E+00 0. -1.
         -4   -1    0    0    0  501 -0.00000000000E+00 -0.00000000000E+00 -0.77935361059E+02  0.77935361059E+02  0.00000000000E+00 0. -1.
        -13    1    1    2    0    0  0.71001526587E+02 -0.13860785352E+03  0.15055543079E+03  0.21661094787E+03  0.10566000000E+00 0.  1.
         13    1    1    2    0    0 -0.10882564847E+03  0.10859897540E+03  0.90717373344E+02  0.17851165848E+03  0.10566000000E+00 0. -1.
          1    1    1    2  502    0  0.11067593261E+02 -0.12862304298E+00  0.25874357815E+03  0.25898020658E+03  0.00000000000E+00 0. -1.
         -4    1    1    2    0  502  0.26756528621E+02  0.30137501164E+02  0.45424111717E+03  0.45602540864E+03  0.00000000000E+00 0. -1.
</event>
<event>
 7    1  0.9434649E-006  0.1329656E+04  0.7818608E-02  0.8927153E-01
          2   -1    0    0  501    0  0.00000000000E+00  0.00000000000E+00  0.86909063266E+03  0.86909063266E+03  0.00000000000E+00 0. -1.
         -4   -1    0    0    0  501 -0.00000000000E+00 -0.00000000000E+00 -0.23875749344E+04  0.23875749344E+04  0.00000000000E+00 0. -1.
   -9000010    2    1    2    0  502 -0.74225919885E+03 -0.39722501548E+03 -0.11872537380E+04  0.17717883094E+04  0.10104088004E+04 0.  0.
        -13    1    1    2    0    0 -0.10929806193E+03  0.19623599283E+03 -0.54043763702E+03  0.58525847443E+03  0.10566000000E+00 0.  1.
         13    1    3    3    0    0 -0.57774959878E+03 -0.96504973511E+00 -0.78680737262E+02  0.58308335578E+03  0.10566000000E+00 0. -1.
          2    1    1    2  502    0  0.85155726078E+03  0.20098902265E+03  0.20920707322E+03  0.89961878321E+03  0.00000000000E+00 0. -1.
         -4    1    3    3    0  502 -0.16450960007E+03 -0.39625996574E+03 -0.11085730007E+04  0.11887049537E+04  0.00000000000E+00 0. -1.
</event>
<event>
 6    1  0.9434649E-006  0.3460164E+03  0.7818608E-02  0.9899398E-01
          2   -1    0    0  501    0  0.00000000000E+00  0.00000000000E+00  0.11342335159E+04  0.11342335159E+04  0.00000000000E+00 0.  1.
         -4   -1    0    0    0  501 -0.00000000000E+00 -0.00000000000E+00 -0.32568672046E+02  0.32568672046E+02  0.00000000000E+00 0. -1.
        -13    1    1    2    0    0  0.16390663396E+02  0.73960471194E+02  0.25367332332E+03  0.26474321762E+03  0.10566000000E+00 0.  1.
         13    1    1    2    0    0  0.32485093758E+02 -0.12756527246E+03  0.15370127114E+03  0.20236667702E+03  0.10566000000E+00 0. -1.
          2    1    1    2  502    0 -0.31509590298E+02  0.12562389787E+02  0.16052983452E+03  0.16407466498E+03  0.00000000000E+00 0.  1.
         -4    1    1    2    0  502 -0.17366166856E+02  0.41042411475E+02  0.53376041489E+03  0.53561762835E+03  0.00000000000E+00 0. -1.
</event>
<event>
 7    1  0.9434649E-006  0.1063356E+04  0.7818608E-02  0.9120919E-01
          2   -1    0    0  502    0  0.00000000000E+00  0.00000000000E+00  0.14909145921E+04  0.14909145921E+04  0.00000000000E+00 0.  1.
          4   -1    0    0  501    0 -0.00000000000E+00 -0.00000000000E+00 -0.51950078479E+03  0.51950078479E+03  0.00000000000E+00 0.  1.
    9000010    2    1    2  502    0 -0.15143170332E+03  0.26389299360E+03  0.57082900067E+03  0.11803183139E+04  0.98728643330E+03 0.  0.
        -13    1    3    3    0    0  0.10659473851E+03 -0.89518291712E+02  0.70814622223E+03  0.72169733688E+03  0.10566000000E+00 0.  1.
         13    1    1    2    0    0 -0.20018774715E+03 -0.21288271900E+02 -0.51813424672E+02  0.20787728777E+03  0.10566000000E+00 0. -1.
          2    1    1    2  501    0  0.35161945048E+03 -0.24260472170E+03  0.45239823133E+03  0.62221977521E+03  0.00000000000E+00 0.  1.
          4    1    3    3  502    0 -0.25802644184E+03  0.35341128531E+03 -0.13731722156E+03  0.45862097707E+03  0.00000000000E+00 0.  1.
</event>
<event>
 7    1  0.9434649E-006  0.1531067E+04  0.7818608E-02  0.8632764E-01
          4   -1    0    0  501    0 -0.00000000000E+00  0.00000000000E+00  0.19065459216E+04  0.19065459216E+04  0.00000000000E+00 0.  1.
          2   -1    0    0  502    0  0.00000000000E+00 -0.00000000000E+00 -0.22194817471E+04  0.22194817471E+04  0.00000000000E+00 0.  1.
    9000010    2    1    2  502    0  0.61175108821E+03  0.94007255127E+03 -0.12047087263E+04  0.19307416292E+04  0.10091899365E+04 0.  0.
        -13    1    3    3    0    0  0.15329236480E+03  0.67941142679E+03 -0.12181332966E+04  0.14031917814E+04  0.10566000000E+00 0.  1.
         13    1    1    2    0    0  0.45653283771E+03 -0.23761337777E+03  0.74901691211E+03  0.90879518870E+03  0.10566000000E+00 0. -1.
          2    1    1    2  501    0 -0.10682839259E+04 -0.70245917351E+03  0.14275598868E+03  0.12864908508E+04  0.00000000000E+00 0.  1.
          4    1    3    3  502    0  0.45845872341E+03  0.26066112449E+03  0.13424570230E+02  0.52754984786E+03  0.00000000000E+00 0.  1.
</event>
<event>
 7    1  0.9434649E-006  0.1235514E+04  0.7818608E-02  0.8701678E-01
         -4   -1    0    0    0  501 -0.00000000000E+00  0.00000000000E+00  0.43378409175E+04  0.43378409175E+04  0.00000000000E+00 0. -1.
          2   -1    0    0  501    0  0.00000000000E+00 -0.00000000000E+00 -0.13483498190E+04  0.13483498190E+04  0.00000000000E+00 0. -1.
   -9000010    2    1    2    0  502  0.75763404145E+03  0.12242091793E+03  0.11663537807E+04  0.17176097835E+04  0.10004029213E+04 0.  0.
        -13    1    1    2    0    0 -0.70318973085E+03 -0.14653794599E+03  0.28504417228E+04  0.29395522097E+04  0.10566000000E+00 0.  1.
         13    1    3    3    0    0  0.66612890235E+03  0.72767296774E+01  0.13993512754E+03  0.68070736475E+03  0.10566000000E+00 0. -1.
          2    1    1    2  502    0 -0.54444310600E+02  0.24117028060E+02 -0.10273044050E+04  0.10290287433E+04  0.00000000000E+00 0. -1.
         -4    1    3    3    0  502  0.91505139104E+02  0.11514418825E+03  0.10264186531E+04  0.10369024188E+04  0.00000000000E+00 0. -1.
</event>
<event>
 7    1  0.9434649E-006  0.1085070E+04  0.7818608E-02  0.9098968E-01
          4   -1    0    0  501    0 -0.00000000000E+00  0.00000000000E+00  0.52523955892E+03  0.52523955892E+03  0.00000000000E+00 0.  1.
          2   -1    0    0  502    0  0.00000000000E+00 -0.00000000000E+00 -0.16608422873E+04  0.16608422873E+04  0.00000000000E+00 0.  1.
    9000010    2    1    2  502    0 -0.26570666845E+03  0.83508452506E+02 -0.67924982364E+03  0.12384740238E+04  0.99742863873E+03 0.  0.
        -13    1    3    3    0    0 -0.46412869472E+03 -0.31212263190E+03 -0.53227288798E+03  0.77210777813E+03  0.10566000000E+00 0.  1.
         13    1    1    2    0    0 -0.20572514928E+03 -0.19353692539E+02  0.88041375446E+02  0.22460787479E+03  0.10566000000E+00 0. -1.
          2    1    1    2  501    0  0.47143181773E+03 -0.64154759967E+02 -0.54439428015E+03  0.72299994762E+03  0.00000000000E+00 0.  1.
          4    1    3    3  502    0  0.19842202628E+03  0.39563108441E+03 -0.14697693566E+03  0.46636624565E+03  0.00000000000E+00 0.  1.
</event>
<event>
 7    1  0.9434649E-006  0.1048129E+04  0.7818608E-02  0.9025744E-01
         -4   -1    0    0    0  501 -0.00000000000E+00  0.00000000000E+00  0.29483817085E+03  0.29483817085E+03  0.00000000000E+00 0. -1.
          2   -1    0    0  501    0  0.00000000000E+00 -0.00000000000E+00 -0.25309966938E+04  0.25309966938E+04  0.00000000000E+00 0. -1.
   -9000010    2    1    2    0  502  0.20617933028E+03 -0.21237944996E+03 -0.10406083899E+04  0.14747086190E+04  0.10021400814E+04 0.  0.
        -13    1    1    2    0    0 -0.21892481717E+03  0.21918115096E+03 -0.23090993786E+03  0.38637787602E+03  0.10566000000E+00 0.  1.
         13    1    3    3    0    0 -0.40790355784E+02  0.14104192671E+03  0.14911603099E+03  0.20926605094E+03  0.10566000000E+00 0. -1.
          2    1    1    2  502    0  0.12745486888E+02 -0.68017010056E+01 -0.96464019524E+03  0.96474836971E+03  0.00000000000E+00 0. -1.
         -4    1    3    3    0  502  0.24696968607E+03 -0.35342137666E+03 -0.11897244209E+04  0.12654425680E+04  0.00000000000E+00 0. -1.
</event>
<event>
 7    1  0.9434649E-006  0.1186574E+04  0.7818608E-02  0.8762786E-01
          4   -1    0    0  501    0 -0.00000000000E+00  0.00000000000E+00  0.17529723881E+04  0.17529723881E+04  0.00000000000E+00 0.  1.
          2   -1    0    0  502    0  0.00000000000E+00 -0.00000000000E+00 -0.10261015563E+04  0.10261015563E+04  0.00000000000E+00 0.  1.
    9000010    2    1    2  502    0  0.63863320229E+03 -0.24966536041E+03  0.87683990213E+03  0.15002543496E+04  0.10058477719E+04 0.  0.
        -13    1    3    3    0    0 -0.76456885072E+02 -0.44434434100E+03  0.18817687905E+03  0.48856739313E+03  0.10566000000E+00 0.  1.
         13    1    1    2    0    0 -0.52207336474E+03  0.30094557338E+03  0.39411085256E+03  0.72003625713E+03  0.10566000000E+00 0. -1.
          2    1    1    2  501    0 -0.11655983754E+03 -0.51280212971E+02 -0.54407992290E+03  0.55878333769E+03  0.00000000000E+00 0.  1.
          4    1    3    3  502    0  0.71509008736E+03  0.19467898059E+03  0.68866302308E+03  0.10116869565E+04  0.00000000000E+00 0.  1.
</event>
<event>
 7    1  0.9434649E-006  0.1045802E+04  0.7818608E-02  0.9314197E-01
          1   -1    0    0  501    0  0.00000000000E+00  0.00000000000E+00  0.17941441940E+04  0.17941441940E+04  0.00000000000E+00 0. -1.
         -4   -1    0    0    0  501 -0.00000000000E+00 -0.00000000000E+00 -0.38108928782E+03  0.38108928782E+03  0.00000000000E+00 0. -1.
   -9000010    2    1    2    0  502 -0.22557259807E+03  0.21604530522E+03  0.14967304608E+04  0.18328836144E+04  0.10107926101E+04 0.  0.
        -13    1    1    2    0    0  0.29044495817E+02 -0.96077764896E+02 -0.11376083362E+02  0.10101458351E+03  0.10566000000E+00 0.  1.
         13    1    3    3    0    0 -0.23036540980E+03  0.52825739704E+03  0.13869189725E+04  0.15018882605E+04  0.10566000000E+00 0. -1.
          1    1    1    2  502    0  0.19652810225E+03 -0.11996754032E+03 -0.72299471276E+02  0.24133528389E+03  0.00000000000E+00 0. -1.
         -4    1    3    3    0  502  0.47928117326E+01 -0.31221209182E+03  0.10981148825E+03  0.33099535386E+03  0.00000000000E+00 0. -1.
</event>
<event>
 7    1  0.9434649E-006  0.1068044E+04  0.7818608E-02  0.8943539E-01
          1   -1    0    0  501    0  0.00000000000E+00  0.00000000000E+00  0.10569945034E+04  0.10569945034E+04  0.00000000000E+00 0.  1.
         -4   -1    0    0    0  501 -0.00000000000E+00 -0.00000000000E+00 -0.10412318292E+04  0.10412318292E+04  0.00000000000E+00 0. -1.
   -9000010    2    1    2    0  502  0.27078553333E+03 -0.33522901602E+03  0.18278286936E+03  0.10934523153E+04  0.98819284062E+03 0.  0.
        -13    1    1    2    0    0 -0.23138594839E+03  0.32935341027E+03 -0.51549786812E+03  0.65402690248E+03  0.10566000000E+00 0.  1.
         13    1    3    3    0    0  0.34870542374E+03 -0.64082701179E+03  0.24960494518E+03  0.77107546415E+03  0.10566000000E+00 0. -1.
          1    1    1    2  502    0 -0.39399584946E+02  0.58756057467E+01  0.34847767290E+03  0.35074711481E+03  0.00000000000E+00 0.  1.
         -4    1    3    3    0  502 -0.77919890411E+02  0.30559799577E+03 -0.66822075815E+02  0.32237685115E+03  0.00000000000E+00 0. -1.
</event>
<event>
 7    1  0.9434649E-006  0.1102146E+04  0.7818608E-02  0.8869955E-01
          2   -1    0    0  501    0  0.00000000000E+00  0.00000000000E+00  0.38628511679E+03  0.38628511679E+03  0.00000000000E+00 0. -1.
         -4   -1    0    0    0  501 -0.00000000000E+00 -0.00000000000E+00 -0.24671765705E+04  0.24671765705E+04  0.00000000000E+00 0. -1.
   -9000010    2    1    2    0  502  0.15865684057E+03  0.47601892085E+03 -0.17780210550E+04  0.20923736096E+04  0.98229447934E+03 0.  0.
        -13    1    1    2    0    0 -0.16681383607E+03 -0.46967896405E+03 -0.41494377608E+03  0.64853953900E+03  0.10566000000E+00 0.  1.
         13    1    3    3    0    0  0.13515215150E+03  0.21791790520E+03  0.36876991286E+02  0.25906416408E+03  0.10566000000E+00 0. -1.
          2    1    1    2  502    0  0.81569954952E+01 -0.63399567998E+01  0.11207337740E+03  0.11254853864E+03  0.00000000000E+00 0. -1.
         -4    1    3    3    0  502  0.23504689077E+02  0.25810101564E+03 -0.18148980463E+04  0.18333094455E+04  0.00000000000E+00 0. -1.
</event>
<event>
 7    1  0.9434649E-006  0.1076154E+04  0.7818608E-02  0.8962211E-01
          1   -1    0    0  501    0  0.00000000000E+00  0.00000000000E+00  0.67615517618E+03  0.67615517618E+03  0.00000000000E+00 0. -1.
         -4   -1    0    0    0  501 -0.00000000000E+00 -0.00000000000E+00 -0.17558952610E+04  0.17558952610E+04  0.00000000000E+00 0. -1.
   -9000010    2    1    2    0  502  0.26682493182E+03 -0.23374698105E+03 -0.14965937286E+03  0.10824316575E+04  0.10116457730E+04 0.  0.
        -13    1    1    2    0    0 -0.25953307846E+03  0.26064028777E+03 -0.11090707584E+04  0.11684728224E+04  0.10566000000E+00 0.  1.
         13    1    3    3    0    0  0.22994879937E+03  0.17226260747E+03  0.34008650256E+03  0.44520747596E+03  0.10566000000E+00 0. -1.
          1    1    1    2  502    0 -0.72918533654E+01 -0.26893306721E+02  0.17899004647E+03  0.18114595719E+03  0.00000000000E+00 0. -1.
         -4    1    3    3    0  502  0.36876132454E+02 -0.40600958852E+03 -0.48974587542E+03  0.63722418159E+03  0.00000000000E+00 0. -1.
</event>
<event>
 6    1  0.9434649E-006  0.5307297E+03  0.7818608E-02  0.9413048E-01
          2   -1    0    0  502    0  0.00000000000E+00  0.00000000000E+00  0.10295421327E+04  0.10295421327E+04  0.00000000000E+00 0.  1.
          4   -1    0    0  501    0 -0.00000000000E+00 -0.00000000000E+00 -0.18960944934E+03  0.18960944934E+03  0.00000000000E+00 0.  1.
        -13    1    1    2    0    0  0.11425942536E+03  0.27237115970E+02 -0.12545941735E+03  0.17186376388E+03  0.10566000000E+00 0.  1.
         13    1    1    2    0    0 -0.12445078082E+03 -0.56522002192E+01  0.54627499398E+02  0.13602984624E+03  0.10566000000E+00 0. -1.
          2    1    1    2  501    0  0.11688481612E+02 -0.87126304573E+01  0.65791599720E+03  0.65807749536E+03  0.00000000000E+00 0.  1.
          4    1    1    2  502    0 -0.14971261467E+01 -0.12872285294E+02  0.25284860408E+03  0.25318047654E+03  0.00000000000E+00 0.  1.
</event>
<event>
 7    1  0.9434649E-006  0.1397189E+04  0.7818608E-02  0.8784127E-01
         -4   -1    0    0    0  502 -0.00000000000E+00  0.00000000000E+00  0.20320862426E+04  0.20320862426E+04  0.00000000000E+00 0. -1.
         -2   -1    0    0    0  501  0.00000000000E+00 -0.00000000000E+00 -0.96470131074E+03  0.96470131074E+03  0.00000000000E+00 0. -1.
   -9000010    2    1    2    0  501  0.61566350967E+03  0.67062043068E+03  0.84969982640E+03  0.15957369631E+04  0.99780426004E+03 0.  0.
        -13    1    1    2    0    0 -0.21757743910E+03  0.27678387826E+03  0.10420609133E+03  0.36716233181E+03  0.10566000000E+00 0.  1.
         13    1    3    3    0    0  0.11106751617E+03  0.32513582112E+03  0.91819840785E+03  0.98037626586E+03  0.10566000000E+00 0. -1.
         -2    1    1    2    0  502 -0.39808607057E+03 -0.94740430894E+03  0.11347901411E+03  0.10338882584E+04  0.00000000000E+00 0. -1.
         -4    1    3    3    0  501  0.50459599349E+03  0.34548460956E+03 -0.68498581445E+02  0.61536069727E+03  0.00000000000E+00 0. -1.
</event>
<event>
 7    1  0.9434649E-006  0.1200683E+04  0.7818608E-02  0.8744879E-01
          4   -1    0    0  501    0 -0.00000000000E+00  0.00000000000E+00  0.99620580066E+03  0.99620580066E+03  0.00000000000E+00 0.  1.
          2   -1    0    0  502    0  0.00000000000E+00 -0.00000000000E+00 -0.16459276996E+04  0.16459276996E+04  0.00000000000E+00 0. -1.
    9000010    2    1    2  502    0 -0.97793010007E+02  0.52173399541E+03  0.10075567089E+03  0.11416532161E+04  0.10057089668E+04 0.  0.
        -13    1    3    3    0    0  0.32581551112E+03 -0.93339393812E+02 -0.12532503305E+03  0.36135075038E+03  0.10566000000E+00 0.  1.
         13    1    1    2    0    0  0.42287715178E+03 -0.67195671608E+03 -0.16002225471E+03  0.80991236992E+03  0.10566000000E+00 0. -1.
          2    1    1    2  501    0 -0.32508414177E+03  0.15022272067E+03 -0.59045531509E+03  0.69056791422E+03  0.00000000000E+00 0. -1.
          4    1    3    3  502    0 -0.42360852113E+03  0.61507338923E+03  0.22608070394E+03  0.78030246571E+03  0.00000000000E+00 0.  1.
</event>
<event>
 7    1  0.9434649E-006  0.9970670E+03  0.7818608E-02  0.9313312E-01
         -4   -1    0    0    0  501 -0.00000000000E+00  0.00000000000E+00  0.67892664865E+03  0.67892664865E+03  0.00000000000E+00 0. -1.
          4   -1    0    0  501    0  0.00000000000E+00 -0.00000000000E+00 -0.22505910319E+04  0.22505910319E+04  0.00000000000E+00 0. -1.
   -9000010    2    1    2    0  502 -0.14243114272E+02  0.13269265468E+03  0.27914658304E+03  0.10374830409E+04  0.99027169926E+03 0.  0.
        -13    1    1    2    0    0  0.27583825888E+02 -0.10636789771E+03 -0.12687459390E+03  0.16784567571E+03  0.10566000000E+00 0.  1.
         13    1    3    3    0    0  0.19693781555E+03  0.47756614187E+03 -0.45946399436E+02  0.51861836242E+03  0.10566000000E+00 0. -1.
          4    1    1    2  502    0 -0.13340711616E+02 -0.26324756969E+02 -0.17239363724E+04  0.17241889640E+04  0.00000000000E+00 0. -1.
         -4    1    3    3    0  502 -0.21118092982E+03 -0.34487348719E+03  0.32509298248E+03  0.51886467845E+03  0.00000000000E+00 0. -1.
</event>
<event>
 7    1  0.9434649E-006  0.1052788E+04  0.7818608E-02  0.9379539E-01
          2   -1    0    0  502    0  0.00000000000E+00  0.00000000000E+00  0.21129782480E+04  0.21129782480E+04  0.00000000000E+00 0. -1.
          4   -1    0    0  501    0 -0.00000000000E+00 -0.00000000000E+00 -0.52115175030E+03  0.52115175030E+03  0.00000000000E+00 0.  1.
    9000010    2    1    2  502    0 -0.52118059066E+02 -0.33251787465E+03  0.46722573631E+03  0.11419999261E+04  0.98619446028E+03 0.  0.
        -13    1    3    3    0    0 -0.42204450419E+03 -0.21056944113E+03 -0.71672812250E+02  0.47707238050E+03  0.10566000000E+00 0.  1.
         13    1    1    2    0    0  0.66587949813E+02 -0.38666298091E+02 -0.14777822683E+03  0.16663568992E+03  0.10566000000E+00 0. -1.
          2    1    1    2  501    0 -0.14469890748E+02  0.37118417274E+03  0.12723789882E+04  0.13254943823E+04  0.00000000000E+00 0. -1.
          4    1    3    3  502    0  0.36992644513E+03 -0.12194843352E+03  0.53889854856E+03  0.66492754559E+03  0.00000000000E+00 0.  1.
</event>
<event>
 7    1  0.9434649E-006  0.1009644E+04  0.7818608E-02  0.9159140E-01
          1   -1    0    0  501    0  0.00000000000E+00  0.00000000000E+00  0.67391125392E+03  0.67391125392E+03  0.00000000000E+00 0.  1.
         -4   -1    0    0    0  501 -0.00000000000E+00 -0.00000000000E+00 -0.18231127357E+04  0.18231127357E+04  0.00000000000E+00 0. -1.
   -9000010    2    1    2    0  502 -0.14450764805E+03 -0.15786566347E+03 -0.13009638804E+04  0.16482467374E+04  0.98914420648E+03 0.  0.
        -13    1    1    2    0    0  0.19705774628E+03  0.56907510710E+02 -0.31082109950E+03  0.37239761976E+03  0.10566000000E+00 0.  1.
         13    1    3    3    0    0 -0.45787963076E+03 -0.36040805398E+03 -0.10426381504E+04  0.11944212178E+04  0.10566000000E+00 0. -1.
          1    1    1    2  502    0 -0.52550098227E+02  0.10095815276E+03  0.46258349815E+03  0.47637963243E+03  0.00000000000E+00 0.  1.
         -4    1    3    3    0  502  0.31337198271E+03  0.20254239050E+03 -0.25832573005E+03  0.45382551967E+03  0.00000000000E+00 0. -1.
</event>
<event>
 7    1  0.9434649E-006  0.1314582E+04  0.7818608E-02  0.8621383E-01
          2   -1    0    0  501    0  0.00000000000E+00  0.00000000000E+00  0.18996415578E+04  0.18996415578E+04  0.00000000000E+00 0.  1.
         -4   -1    0    0    0  501 -0.00000000000E+00 -0.00000000000E+00 -0.71654159295E+03  0.71654159295E+03  0.00000000000E+00 0. -1.
   -9000010    2    1    2    0  502  0.49177402123E+03 -0.65169165875E+03  0.90444949314E+03  0.15753838186E+04  0.99862985342E+03 0.  0.
        -13    1    1    2    0    0 -0.47796505684E+03  0.72852705014E+03  0.14114692436E+03  0.88268041995E+03  0.10566000000E+00 0.  1.
         13    1    3    3    0    0  0.55438945278E+03 -0.45555815232E+03  0.10854923688E+04  0.13012204231E+04  0.10566000000E+00 0. -1.
          2    1    1    2  502    0 -0.13808964389E+02 -0.76835391395E+02  0.13750354730E+03  0.15811891217E+03  0.00000000000E+00 0.  1.
         -4    1    3    3    0  502 -0.62615431556E+02 -0.19613350643E+03 -0.18104287566E+03  0.27416339551E+03  0.00000000000E+00 0. -1.
</event>
<event>
 7    1  0.9434649E-006  0.1033843E+04  0.7818608E-02  0.9267490E-01
         -4   -1    0    0    0  501 -0.00000000000E+00  0.00000000000E+00  0.16741538245E+04  0.16741538245E+04  0.00000000000E+00 0. -1.
          3   -1    0    0  501    0  0.00000000000E+00 -0.00000000000E+00 -0.42928149910E+03  0.42928149910E+03  0.00000000000E+00 0. -1.
   -9000010    2    1    2    0  502  0.23616890279E+03  0.13960515015E+03  0.55963836248E+03  0.11715163476E+04  0.99196275504E+03 0.  0.
        -13    1    1    2    0    0 -0.64543674723E+02  0.10594784009E+03  0.61073707262E+03  0.62320992756E+03  0.10566000000E+00 0.  1.
         13    1    3    3    0    0  0.30397007121E+03  0.52028342259E+03  0.49428067415E+03  0.77936258571E+03  0.10566000000E+00 0. -1.
          3    1    1    2  502    0 -0.17162522807E+03 -0.24555299024E+03  0.74496890319E+02  0.30870904844E+03  0.00000000000E+00 0. -1.
         -4    1    3    3    0  502 -0.67801168425E+02 -0.38067827244E+03  0.65357688331E+02  0.39215376190E+03  0.00000000000E+00 0. -1.
</event>
<event>
 7    1  0.9434649E-006  0.1011985E+04  0.7818608E-02  0.9286869E-01
          4   -1    0    0  501    0 -0.00000000000E+00  0.00000000000E+00  0.11409415720E+04  0.11409415720E+04  0.00000000000E+00 0.  1.
          2   -1    0    0  502    0  0.00000000000E+00 -0.00000000000E+00 -0.75138724647E+03  0.75138724647E+03  0.00000000000E+00 0.  1.
    9000010    2    1    2  502    0  0.11939567391E+03  0.33443579195E+02  0.42715154744E+03  0.10985676186E+04  0.10044991628E+04 0.  0.
        -13    1    3    3    0    0 -0.17895383857E+03 -0.17856772820E+03 -0.23296142778E+03  0.34377601413E+03  0.10566000000E+00 0.  1.
         13    1    1    2    0    0 -0.10571843545E+03 -0.62773853528E+02  0.36742363794E+03  0.38744946143E+03  0.10566000000E+00 0. -1.
          2    1    1    2  501    0 -0.13677238466E+02  0.29330274333E+02 -0.40502085989E+03  0.40631173844E+03  0.00000000000E+00 0.  1.
          4    1    3    3  502    0  0.29834951248E+03  0.21201130740E+03  0.66011297521E+03  0.75479160442E+03  0.00000000000E+00 0.  1.
</event>
<event>
 7    1  0.9434649E-006  0.1138134E+04  0.7818608E-02  0.8805575E-01
         -4   -1    0    0    0  501 -0.00000000000E+00  0.00000000000E+00  0.64864977545E+03  0.64864977545E+03  0.00000000000E+00 0. -1.
          2   -1    0    0  501    0  0.00000000000E+00 -0.00000000000E+00 -0.23533620868E+04  0.23533620868E+04  0.00000000000E+00 0. -1.
   -9000010    2    1    2    0  502 -0.37147910312E+03  0.50946503398E+03 -0.72721820505E+03  0.13667585869E+04  0.97037692268E+03 0.  0.
        -13    1    1    2    0    0  0.36461704075E+03 -0.45864169478E+03  0.66789952444E+02  0.58971069136E+03  0.10566000000E+00 0.  1.
         13    1    3    3    0    0 -0.64318429762E+03  0.59080730557E+03 -0.56135568628E+03  0.10382001400E+04  0.10566000000E+00 0. -1.
          2    1    1    2  502    0  0.68620623758E+01 -0.50823339199E+02 -0.10442840587E+04  0.10455425840E+04  0.00000000000E+00 0. -1.
         -4    1    3    3    0  502  0.27170519450E+03 -0.81342271584E+02 -0.16586251877E+03  0.32855844685E+03  0.00000000000E+00 0. -1.
</event>
<event>
 7    1  0.9434649E-006  0.1117308E+04  0.7818608E-02  0.8884125E-01
          4   -1    0    0  501    0 -0.00000000000E+00  0.00000000000E+00  0.13395296468E+04  0.13395296468E+04  0.00000000000E+00 0.  1.
          2   -1    0    0  502    0  0.00000000000E+00 -0.00000000000E+00 -0.15755363863E+04  0.15755363863E+04  0.00000000000E+00 0.  1.
    9000010    2    1    2  502    0  0.44883728050E+03  0.71265956570E+02  0.96257539752E+03  0.14754341368E+04  0.10216754647E+04 0.  0.
        -13    1    3    3    0    0  0.46920810346E+03 -0.10545414890E+03 -0.15648561555E+02  0.48116702975E+03  0.10566000000E+00 0.  1.
         13    1    1    2    0    0 -0.44484250305E+03 -0.59528155850E+02 -0.29748078663E+03  0.53844524646E+03  0.10566000000E+00 0. -1.
          2    1    1    2  501    0 -0.39947774473E+01 -0.11737800720E+02 -0.90110135037E+03  0.90118664984E+03  0.00000000000E+00 0.  1.
          4    1    3    3  502    0 -0.20370822960E+02  0.17672010547E+03  0.97822395907E+03  0.99426710707E+03  0.00000000000E+00 0.  1.
</event>
<event>
 7    1  0.9434649E-006  0.8866307E+03  0.7818608E-02  0.9165962E-01
         -4   -1    0    0    0  501 -0.00000000000E+00  0.00000000000E+00  0.94126442509E+03  0.94126442509E+03  0.00000000000E+00 0. -1.
          1   -1    0    0  501    0  0.00000000000E+00 -0.00000000000E+00 -0.19052632105E+04  0.19052632105E+04  0.00000000000E+00 0. -1.
   -9000010    2    1    2    0  502  0.26538766298E+03  0.88965883602E+02  0.19264994294E+03  0.90380495265E+03  0.83749856824E+03 0.  0.
        -13    1    1    2    0    0 -0.27144586089E+03 -0.10984815416E+03  0.33840406754E+03  0.44751178360E+03  0.10566000000E+00 0.  1.
         13    1    3    3    0    0  0.22082814802E+03 -0.35493931227E+03  0.44661165526E+00  0.41802774666E+03  0.10566000000E+00 0. -1.
          1    1    1    2  502    0  0.60581979102E+01  0.20882270559E+02 -0.14950527959E+04  0.14952108993E+04  0.00000000000E+00 0. -1.
         -4    1    3    3    0  502  0.44559514968E+02  0.44390519587E+03  0.19220333129E+03  0.48577720599E+03  0.00000000000E+00 0. -1.
</event>
<event>
 7    1  0.9434649E-006  0.1068315E+04  0.7818608E-02  0.8931319E-01
          2   -1    0    0  501    0  0.00000000000E+00  0.00000000000E+00  0.11694619661E+04  0.11694619661E+04  0.00000000000E+00 0. -1.
         -4   -1    0    0    0  501 -0.00000000000E+00 -0.00000000000E+00 -0.26690754152E+04  0.26690754152E+04  0.00000000000E+00 0. -1.
   -9000010    2    1    2    0  502  0.38047736790E+03  0.21437914434E+03 -0.69460803768E+03  0.12779896338E+04  0.97982433790E+03 0.  0.
        -13    1    1    2    0    0 -0.37729906012E+03 -0.19505965331E+03 -0.16558607972E+04  0.17094671216E+04  0.10566000000E+00 0.  1.
         13    1    3    3    0    0  0.64402485054E+03 -0.87485568781E+02 -0.55177543213E+03  0.85257132928E+03  0.10566000000E+00 0. -1.
          2    1    1    2  502    0 -0.31783077803E+01 -0.19319491034E+02  0.85085538576E+03  0.85108062594E+03  0.00000000000E+00 0. -1.
         -4    1    3    3    0  502 -0.26354748263E+03  0.30186471313E+03 -0.14283260555E+03  0.42541830455E+03  0.00000000000E+00 0. -1.
</event>
<event>
 6    1  0.9434649E-006  0.3305875E+03  0.7818608E-02  0.9954238E-01
          2   -1    0    0  502    0  0.00000000000E+00  0.00000000000E+00  0.12852303487E+04  0.12852303487E+04  0.00000000000E+00 0.  1.
          4   -1    0    0  501    0 -0.00000000000E+00 -0.00000000000E+00 -0.57392964144E+02  0.57392964144E+02  0.00000000000E+00 0.  1.
        -13    1    1    2    0    0  0.75208595141E+02 -0.63451331192E+02  0.30329681198E+01  0.98445996733E+02  0.10566000000E+00 0.  1.
         13    1    1    2    0    0 -0.65696953496E+02  0.42271064865E+02  0.37149287403E+03  0.37961809657E+03  0.10566000000E+00 0. -1.
          2    1    1    2  501    0  0.19186638305E+02  0.40395229355E+01  0.80807108245E+03  0.80830892555E+03  0.00000000000E+00 0.  1.
          4    1    1    2  502    0 -0.28698279950E+02  0.17140743391E+02  0.45240459922E+02  0.56250293955E+02  0.00000000000E+00 0.  1.
</event>
<event>
 6    1  0.9434649E-006  0.5322138E+03  0.7818608E-02  0.9410030E-01
          4   -1    0    0  501    0 -0.00000000000E+00  0.00000000000E+00  0.25193524698E+03  0.25193524698E+03  0.00000000000E+00 0.  1.
          2   -1    0    0  502    0  0.00000000000E+00 -0.00000000000E+00 -0.36264416843E+03  0.36264416843E+03  0.00000000000E+00 0. -1.
        -13    1    1    2    0    0  0.41698824986E+02  0.18893491246E+03  0.40069960391E+02  0.19758746428E+03  0.10566000000E+00 0.  1.
         13    1    1    2    0    0 -0.26739478141E+02 -0.15532967720E+03  0.74464640280E+02  0.17431954029E+03  0.10566000000E+00 0. -1.
          2    1    1    2  501    0  0.11870575292E+02  0.23792257206E+02 -0.76815885045E+02  0.81287528293E+02  0.00000000000E+00 0. -1.
          4    1    1    2  502    0 -0.26829922137E+02 -0.57397492465E+02 -0.14842763708E+03  0.16138488254E+03  0.00000000000E+00 0.  1.
</event>
<event>
 6    1  0.9434649E-006  0.1429221E+04  0.7818608E-02  0.8451435E-01
          2   -1    0    0  502    0  0.00000000000E+00  0.00000000000E+00  0.83780663317E+03  0.83780663317E+03  0.00000000000E+00 0. -1.
          4   -1    0    0  501    0 -0.00000000000E+00 -0.00000000000E+00 -0.15578813561E+04  0.15578813561E+04  0.00000000000E+00 0.  1.
        -13    1    1    2    0    0  0.40856418000E+03 -0.21859617133E+03 -0.57549820769E+03  0.73885531298E+03  0.10566000000E+00 0.  1.
         13    1    1    2    0    0 -0.55814730034E+03  0.15060444385E+03 -0.76020559516E+03  0.95505113238E+03  0.10566000000E+00 0. -1.
          2    1    1    2  501    0  0.12108679370E+02 -0.13445478762E+02  0.50981590854E+03  0.51013690478E+03  0.00000000000E+00 0. -1.
          4    1    1    2  502    0  0.13747444097E+03  0.81437206246E+02  0.10581317135E+03  0.19164463915E+03  0.00000000000E+00 0.  1.
</event>
<event>
 7    1  0.9434649E-006  0.1068829E+04  0.7818608E-02  0.8945098E-01
          4   -1    0    0  501    0 -0.00000000000E+00  0.00000000000E+00  0.67610051846E+03  0.67610051846E+03  0.00000000000E+00 0.  1.
          2   -1    0    0  502    0  0.00000000000E+00 -0.00000000000E+00 -0.14248670388E+04  0.14248670388E+04  0.00000000000E+00 0.  1.
    9000010    2    1    2  502    0 -0.19861028451E+03  0.33171352257E+03 -0.58997146770E+03  0.12159546357E+04  0.99045415710E+03 0.  0.
        -13    1    3    3    0    0 -0.69782976945E+02  0.54618136710E+03  0.25875408867E+02  0.55122889764E+03  0.10566000000E+00 0.  1.
         13    1    1    2    0    0  0.36368967736E+03 -0.19124194904E+03  0.20678527857E+03  0.46000415986E+03  0.10566000000E+00 0. -1.
          2    1    1    2  501    0 -0.16507939285E+03 -0.14047157353E+03 -0.36558033119E+03  0.42500876164E+03  0.00000000000E+00 0.  1.
          4    1    3    3  502    0 -0.12882730757E+03 -0.21446784454E+03 -0.61584687657E+03  0.66472573811E+03  0.00000000000E+00 0.  1.
</event>
<event>
 6    1  0.9434649E-006  0.6613559E+03  0.7818608E-02  0.9181004E-01
          2   -1    0    0  502    0  0.00000000000E+00  0.00000000000E+00  0.10982036425E+04  0.10982036425E+04  0.00000000000E+00 0.  1.
          4   -1    0    0  501    0 -0.00000000000E+00 -0.00000000000E+00 -0.55177114102E+03  0.55177114102E+03  0.00000000000E+00 0.  1.
        -13    1    1    2    0    0 -0.73697253894E+02  0.14105743941E+03 -0.46272561695E+03  0.48932963756E+03  0.10566000000E+00 0.  1.
         13    1    1    2    0    0  0.49500072352E+02 -0.83854261949E+02  0.13838745852E+02  0.98353019581E+02  0.10566000000E+00 0. -1.
          2    1    1    2  501    0  0.91216653268E+02  0.49327968246E+02  0.89595681958E+03  0.90193810699E+03  0.00000000000E+00 0.  1.
          4    1    1    2  502    0 -0.67019471725E+02 -0.10653114571E+03  0.99362552970E+02  0.16035401937E+03  0.00000000000E+00 0.  1.
</event>
<event>
 7    1  0.9434649E-006  0.1004925E+04  0.7818608E-02  0.9195302E-01
          4   -1    0    0  501    0 -0.00000000000E+00  0.00000000000E+00  0.23229509125E+04  0.23229509125E+04  0.00000000000E+00 0.  1.
          2   -1    0    0  502    0  0.00000000000E+00 -0.00000000000E+00 -0.53996588774E+03  0.53996588774E+03  0.00000000000E+00 0.  1.
    9000010    2    1    2  502    0 -0.13871184627E+03  0.14197506363E+03  0.13680588688E+04  0.16997220362E+04  0.98897524577E+03 0.  0.
        -13    1    3    3    0    0  0.95952903105E+02  0.40800651369E+03  0.17354269287E+03  0.45364452189E+03  0.10566000000E+00 0.  1.
         13    1    1    2    0    0  0.13712540150E+03 -0.11221472619E+03  0.77849591978E+03  0.79840555408E+03  0.10566000000E+00 0. -1.
          2    1    1    2  501    0  0.15864447656E+01 -0.29760337447E+02 -0.36356976387E+03  0.36478920995E+03  0.00000000000E+00 0.  1.
          4    1    3    3  502    0 -0.23466474937E+03 -0.26603145006E+03  0.11945161760E+04  0.12460775143E+04  0.00000000000E+00 0.  1.
</event>
<event>
 7    1  0.9434649E-006  0.1089557E+04  0.7818608E-02  0.9049107E-01
          1   -1    0    0  501    0  0.00000000000E+00  0.00000000000E+00  0.20033316434E+04  0.20033316434E+04  0.00000000000E+00 0.  1.
         -4   -1    0    0    0  501 -0.00000000000E+00 -0.00000000000E+00 -0.20921210765E+04  0.20921210765E+04  0.00000000000E+00 0. -1.
   -9000010    2    1    2    0  502  0.77749729576E+02  0.62936530930E+03 -0.66002362498E+03  0.13569502198E+04  0.10017669392E+04 0.  0.
        -13    1    1    2    0    0  0.79041108443E+02 -0.23601362402E+03 -0.10416419584E+04  0.10709658764E+04  0.10566000000E+00 0.  1.
         13    1    3    3    0    0  0.24412329769E+03  0.13748350494E+03 -0.77588731351E+03  0.82492365285E+03  0.10566000000E+00 0. -1.
          1    1    1    2  502    0 -0.15679083802E+03 -0.39335168528E+03  0.16128761503E+04  0.16675366237E+04  0.00000000000E+00 0.  1.
         -4    1    3    3    0  502 -0.16637356812E+03  0.49188180436E+03  0.11586368853E+03  0.53202656696E+03  0.00000000000E+00 0. -1.
</event>
<event>
 7    1  0.9434649E-006  0.1021276E+04  0.7818608E-02  0.9135604E-01
          4   -1    0    0  501    0 -0.00000000000E+00  0.00000000000E+00  0.60651299630E+03  0.60651299630E+03  0.00000000000E+00 0.  1.
          2   -1    0    0  502    0  0.00000000000E+00 -0.00000000000E+00 -0.34091747050E+04  0.34091747050E+04  0.00000000000E+00 0.  1.
    9000010    2    1    2  502    0  0.11695306275E+03 -0.54663024631E+02 -0.14287278092E+03  0.10168978300E+04  0.99850012520E+03 0.  0.
        -13    1    3    3    0    0  0.60755762136E+02 -0.42954117308E+03  0.22498123498E+03  0.48868542976E+03  0.10566000000E+00 0.  1.
         13    1    1    2    0    0 -0.16286312523E+03  0.15750677075E+03  0.92118709677E+02  0.24457851138E+03  0.10566000000E+00 0. -1.
          2    1    1    2  501    0  0.45910062478E+02 -0.10284374611E+03 -0.27519076374E+04  0.27542113599E+04  0.00000000000E+00 0.  1.
          4    1    3    3  502    0  0.56197300615E+02  0.37487814845E+03 -0.36785401590E+03  0.52821240026E+03  0.00000000000E+00 0.  1.
</event>
<event>
 7    1  0.9434649E-006  0.1027063E+04  0.7818608E-02  0.9072375E-01
          4   -1    0    0  501    0 -0.00000000000E+00  0.00000000000E+00  0.12543914962E+04  0.12543914962E+04  0.00000000000E+00 0.  1.
          2   -1    0    0  502    0  0.00000000000E+00 -0.00000000000E+00 -0.13341768407E+04  0.13341768407E+04  0.00000000000E+00 0.  1.
    9000010    2    1    2  502    0 -0.11547874039E+03  0.30866054933E+03  0.72989522110E+03  0.12739240563E+04  0.99072134996E+03 0.  0.
        -13    1    3    3    0    0 -0.49548675159E+03  0.38703557920E+03  0.30593236124E+03  0.69921261530E+03  0.10566000000E+00 0.  1.
         13    1    1    2    0    0  0.96259587571E+02 -0.23791567509E+03  0.18556127887E+03  0.31670613513E+03  0.10566000000E+00 0. -1.
          2    1    1    2  501    0  0.19219152818E+02 -0.70744874245E+02 -0.99524184453E+03  0.99793814547E+03  0.00000000000E+00 0.  1.
          4    1    3    3  502    0  0.38000801120E+03 -0.78375029871E+02  0.42396285986E+03  0.57471144101E+03  0.00000000000E+00 0.  1.
</event>
<event>
 7    1  0.9434649E-006  0.1211765E+04  0.7818608E-02  0.8733836E-01
          2   -1    0    0  501    0  0.00000000000E+00  0.00000000000E+00  0.25964167803E+04  0.25964167803E+04  0.00000000000E+00 0.  1.
         -4   -1    0    0    0  501 -0.00000000000E+00 -0.00000000000E+00 -0.58179364974E+03  0.58179364974E+03  0.00000000000E+00 0. -1.
   -9000010    2    1    2    0  502 -0.19900089778E+03  0.66116187140E+03  0.17347238117E+04  0.21229205068E+04  0.10103407335E+04 0.  0.
        -13    1    1    2    0    0  0.10959811028E+03 -0.65744329024E+03 -0.91947772143E+02  0.67282823189E+03  0.10566000000E+00 0.  1.
         13    1    3    3    0    0 -0.13440760428E+02  0.13628858548E+03 -0.12269115712E+03  0.18387050816E+03  0.10566000000E+00 0. -1.
          2    1    1    2  502    0  0.89402787502E+02 -0.37185811623E+01  0.37184709095E+03  0.38246169130E+03  0.00000000000E+00 0.  1.
         -4    1    3    3    0  502 -0.18556013735E+03  0.52487328592E+03  0.18574149688E+04  0.19390499987E+04  0.00000000000E+00 0. -1.
</event>
<event>
 6    1  0.9434649E-006  0.7790253E+03  0.7818608E-02  0.9015606E-01
          4   -1    0    0  501    0 -0.00000000000E+00  0.00000000000E+00  0.11889598461E+03  0.11889598461E+03  0.00000000000E+00 0.  1.
          2   -1    0    0  502    0  0.00000000000E+00 -0.00000000000E+00 -0.13408974791E+04  0.13408974791E+04  0.00000000000E+00 0.  1.
        -13    1    1    2    0    0 -0.26224411265E+03 -0.84671849964E+02 -0.24415637789E+03  0.36817610572E+03  0.10566000000E+00 0.  1.
         13    1    1    2    0    0  0.44792763332E+02  0.17885052266E+02  0.29247213744E+02  0.56406359724E+02  0.10566000000E+00 0. -1.
          2    1    1    2  501    0 -0.22610648228E+01  0.13318369116E+02 -0.55208120600E+02  0.56836853804E+02  0.00000000000E+00 0.  1.
          4    1    1    2  502    0  0.21971241414E+03  0.53468428582E+02 -0.95188420976E+03  0.97837414447E+03  0.00000000000E+00 0.  1.
</event>
<event>
 7    1  0.9434649E-006  0.1047563E+04  0.7818608E-02  0.8955874E-01
         -4   -1    0    0    0  501 -0.00000000000E+00  0.00000000000E+00  0.14660235917E+04  0.14660235917E+04  0.00000000000E+00 0. -1.
          2   -1    0    0  501    0  0.00000000000E+00 -0.00000000000E+00 -0.61651544169E+03  0.61651544169E+03  0.00000000000E+00 0.  1.
   -9000010    2    1    2    0  502  0.62597272733E+02 -0.41040693113E+03  0.76521070698E+03  0.12994541994E+04  0.96471836436E+03 0.  0.
        -13    1    1    2    0    0 -0.69772070881E+02  0.39984177938E+03  0.33853092657E+03  0.52853078418E+03  0.10566000000E+00 0.  1.
         13    1    3    3    0    0  0.23906694843E+03  0.16582846787E+03  0.61198834231E+03  0.67762956611E+03  0.10566000000E+00 0. -1.
          2    1    1    2  502    0  0.71747981476E+01  0.10565151745E+02 -0.25423348351E+03  0.25455404985E+03  0.00000000000E+00 0.  1.
         -4    1    3    3    0  502 -0.17646967570E+03 -0.57623539900E+03  0.15322236468E+03  0.62182463327E+03  0.00000000000E+00 0. -1.
</event>
<event>
 7    1  0.9434649E-006  0.7761987E+03  0.7818608E-02  0.9390052E-01
         -4   -1    0    0    0  501 -0.00000000000E+00  0.00000000000E+00  0.12355062881E+04  0.12355062881E+04  0.00000000000E+00 0. -1.
          1   -1    0    0  501    0  0.00000000000E+00 -0.00000000000E+00 -0.33876387312E+03  0.33876387312E+03  0.00000000000E+00 0. -1.
   -9000010    2    1    2    0  502  0.83790087039E+02  0.23703590130E+03  0.64857860481E+03  0.10257724033E+04  0.75388859897E+03 0.  0.
        -13    1    1    2    0    0  0.74480919900E+02 -0.16801024579E+03  0.31389839608E+03  0.36374038042E+03  0.10566000000E+00 0.  1.
         13    1    3    3    0    0 -0.14497868995E+03  0.14089848987E+03  0.73554810718E+03  0.76282516616E+03  0.10566000000E+00 0. -1.
          1    1    1    2  502    0 -0.15827100694E+03 -0.69025655510E+02 -0.65734585880E+02  0.18475737749E+03  0.00000000000E+00 0. -1.
         -4    1    3    3    0  502  0.22876877699E+03  0.96137411438E+02 -0.86969502370E+02  0.26294723719E+03  0.00000000000E+00 0. -1.
</event>
<event>
 7    1  0.9434649E-006  0.8051529E+03  0.7818608E-02  0.9502546E-01
          2   -1    0    0  501    0  0.00000000000E+00  0.00000000000E+00  0.18096640605E+04  0.18096640605E+04  0.00000000000E+00 0. -1.
         -4   -1    0    0    0  501 -0.00000000000E+00 -0.00000000000E+00 -0.40052965859E+03  0.40052965859E+03  0.00000000000E+00 0. -1.
   -9000010    2    1    2    0  502 -0.76248139326E+02 -0.12754723102E+03  0.29928759156E+03  0.86483372482E+03  0.79767301210E+03 0.  0.
        -13    1    1    2    0    0  0.19926820912E+02  0.10633624799E+03 -0.91994827211E+02  0.14201244743E+03  0.10566000000E+00 0.  1.
         13    1    3    3    0    0  0.16980828313E+03  0.28319539757E+03  0.15491437952E+03  0.36473683988E+03  0.10566000000E+00 0. -1.
          2    1    1    2  502    0  0.56321318414E+02  0.21210983037E+02  0.12018416376E+04  0.12033475468E+04  0.00000000000E+00 0. -1.
         -4    1    3    3    0  502 -0.24605642245E+03 -0.41074262859E+03  0.14437321204E+03  0.50009688494E+03  0.00000000000E+00 0. -1.
</event>
<event>
 7    1  0.9434649E-006  0.1058439E+04  0.7818608E-02  0.8976652E-01
          2   -1    0    0  502    0  0.00000000000E+00  0.00000000000E+00  0.20975277451E+04  0.20975277451E+04  0.00000000000E+00 0.  1.
          4   -1    0    0  501    0 -0.00000000000E+00 -0.00000000000E+00 -0.33831090292E+03  0.33831090292E+03  0.00000000000E+00 0.  1.
    9000010    2    1    2  502    0 -0.12635234461E+03  0.30784982445E+03  0.79128364369E+03  0.13133519404E+04  0.99399551565E+03 0.  0.
        -13    1    3    3    0    0 -0.18063541161E+03  0.43743299764E+03  0.97398532716E+03  0.10828777438E+04  0.10566000000E+00 0.  1.
         13    1    1    2    0    0  0.12598648107E+03 -0.35589251776E+03  0.39086523546E+03  0.54342223092E+03  0.10566000000E+00 0. -1.
          2    1    1    2  501    0  0.36586354625E+00  0.48042693316E+02  0.57706796300E+03  0.57906447668E+03  0.00000000000E+00 0.  1.
          4    1    3    3  502    0  0.54283066999E+02 -0.12958317319E+03 -0.18270168348E+03  0.23047419657E+03  0.00000000000E+00 0.  1.
</event>
<event>
 7    1  0.9434649E-006  0.1344843E+04  0.7818608E-02  0.8601603E-01
          4   -1    0    0  501    0  0.00000000000E+00  0.00000000000E+00  0.18797527153E+04  0.18797527153E+04  0.00000000000E+00 0. -1.
         -4   -1    0    0    0  501 -0.00000000000E+00 -0.00000000000E+00 -0.12588951198E+04  0.12588951198E+04  0.00000000000E+00 0. -1.
   -9000010    2    1    2    0  502 -0.48563619768E+03 -0.72907892482E+03 -0.81338304795E+02  0.13502474873E+04  0.10242820715E+04 0.  0.
        -13    1    1    2    0    0  0.51749970509E+03  0.69854843956E+03 -0.19431388586E+03  0.89080512155E+03  0.10566000000E+00 0.  1.
         13    1    3    3    0    0  0.21037122952E+03 -0.53215569181E+03  0.14867507727E+03  0.59122755712E+03  0.10566000000E+00 0. -1.
          4    1    1    2  502    0 -0.31863507413E+02  0.30530485269E+02  0.89650978618E+03  0.89759522634E+03  0.00000000000E+00 0. -1.
         -4    1    3    3    0  502 -0.69600742720E+03 -0.19692323301E+03 -0.23001338207E+03  0.75901993014E+03  0.00000000000E+00 0. -1.
</event>
<event>
 7    1  0.9434649E-006  0.1155011E+04  0.7818608E-02  0.8789949E-01
         -4   -1    0    0    0  501 -0.00000000000E+00  0.00000000000E+00  0.12482481682E+04  0.12482481682E+04  0.00000000000E+00 0. -1.
          2   -1    0    0  501    0  0.00000000000E+00 -0.00000000000E+00 -0.25386542241E+04  0.25386542241E+04  0.00000000000E+00 0.  1.
   -9000010    2    1    2    0  502  0.22101024772E+03 -0.57670913465E+03  0.34749560175E+03  0.12110299329E+04  0.98203938295E+03 0.  0.
        -13    1    1    2    0    0  0.11229550804E+03  0.62402584548E+03  0.23256255738E+03  0.67535464106E+03  0.10566000000E+00 0.  1.
         13    1    3    3    0    0 -0.24876665816E+03 -0.63861136895E+03  0.22900890424E+03  0.72260253262E+03  0.10566000000E+00 0. -1.
          2    1    1    2  502    0 -0.33330575576E+03 -0.47316710827E+02 -0.18704642150E+04  0.19005178183E+04  0.00000000000E+00 0.  1.
         -4    1    3    3    0  502  0.46977690588E+03  0.61902234296E+02  0.11848669751E+03  0.48842740033E+03  0.00000000000E+00 0. -1.
</event>
<event>
 7    1  0.9434649E-006  0.1023823E+04  0.7818608E-02  0.9088231E-01
         -2   -1    0    0    0  501  0.00000000000E+00  0.00000000000E+00  0.15668349955E+03  0.15668349955E+03  0.00000000000E+00 0. -1.
         -4   -1    0    0    0  502 -0.00000000000E+00 -0.00000000000E+00 -0.33273281297E+04  0.33273281297E+04  0.00000000000E+00 0. -1.
   -9000010    2    1    2    0  501  0.21190467876E+03  0.14133181649E+03 -0.29028806079E+04  0.30779743616E+04  0.99112666788E+03 0.  0.
        -13    1    1    2    0    0 -0.22999966816E+03 -0.11788328519E+03 -0.27302974816E+03  0.37595421373E+03  0.10566000000E+00 0.  1.
         13    1    3    3    0    0  0.51605823764E+03 -0.41162424169E+02 -0.24427072347E+04  0.24969639756E+04  0.10566000000E+00 0. -1.
         -2    1    1    2    0  502  0.18094989397E+02 -0.23448531299E+02  0.52657259395E+01  0.30083053884E+02  0.00000000000E+00 0. -1.
         -4    1    3    3    0  501 -0.30415355889E+03  0.18249424066E+03 -0.46017337320E+03  0.58101038601E+03  0.00000000000E+00 0. -1.
</event>
<event>
 7    1  0.9434649E-006  0.1421623E+04  0.7818608E-02  0.8528300E-01
          1   -1    0    0  501    0  0.00000000000E+00  0.00000000000E+00  0.29176496802E+04  0.29176496802E+04  0.00000000000E+00 0. -1.
         -4   -1    0    0    0  501 -0.00000000000E+00 -0.00000000000E+00 -0.12403456820E+04  0.12403456820E+04  0.00000000000E+00 0. -1.
   -9000010    2    1    2    0  502 -0.29088398719E+03  0.10051592087E+04 -0.97178896020E+02  0.14412707679E+04  0.98633623060E+03 0.  0.
        -13    1    1    2    0    0  0.26327234132E+03 -0.97071981847E+03  0.66299218825E+02  0.10079706788E+04  0.10566000000E+00 0.  1.
         13    1    3    3    0    0  0.59029836842E+02 -0.87126593627E+02 -0.26216584069E+03  0.28250044981E+03  0.10566000000E+00 0. -1.
          1    1    1    2  502    0  0.27611645868E+02 -0.34439390214E+02  0.17081836754E+04  0.17087539154E+04  0.00000000000E+00 0. -1.
         -4    1    3    3    0  502 -0.34991382403E+03  0.10922858023E+04  0.16498694467E+03  0.11587703181E+04  0.00000000000E+00 0. -1.
</event>
<event>
 6    1  0.9434649E-006  0.8539267E+03  0.7818608E-02  0.8925466E-01
          2   -1    0    0  502    0  0.00000000000E+00  0.00000000000E+00  0.15296198934E+04  0.15296198934E+04  0.00000000000E+00 0.  1.
          4   -1    0    0  501    0 -0.00000000000E+00 -0.00000000000E+00 -0.17570282381E+03  0.17570282381E+03  0.00000000000E+00 0.  1.
        -13    1    1    2    0    0 -0.30827966670E+03 -0.17953788028E+03  0.24693847040E+03  0.43387650626E+03  0.10566000000E+00 0.  1.
         13    1    1    2    0    0  0.18547714277E+03  0.54554340679E+02  0.13609979959E+03  0.23643416249E+03  0.10566000000E+00 0. -1.
          2    1    1    2  501    0 -0.98771282403E+02  0.86285879991E+02  0.41935497531E+03  0.43938549661E+03  0.00000000000E+00 0.  1.
          4    1    1    2  502    0  0.22157380633E+03  0.38697659609E+02  0.55152382429E+03  0.59562655185E+03  0.00000000000E+00 0.  1.
</event>
<event>
 7    1  0.1442191E-005  0.1076423E+04  0.7818608E-02  0.9025113E-01
          4   -1    0    0  501    0  0.00000000000E+00  0.00000000000E+00  0.15319163474E+04  0.15319163474E+04  0.00000000000E+00 0.  1.
         -4   -1    0    0    0  501 -0.00000000000E+00 -0.00000000000E+00 -0.28746036870E+04  0.28746036870E+04  0.00000000000E+00 0. -1.
   -9000010    2    1    2    0  502  0.14519699200E+03  0.80192658957E+02 -0.26657695563E+04  0.28504061039E+04  0.99547707207E+03 0.  0.
        -13    1    1    2    0    0  0.27348954938E+03 -0.77295021726E+02  0.96239640128E+03  0.10034828839E+04  0.10566000000E+00 0.  1.
         13    1    3    3    0    0 -0.84631755993E+02 -0.41194174849E+03 -0.75826796174E+03  0.86708064863E+03  0.10566000000E+00 0. -1.
          4    1    1    2  502    0 -0.41868654138E+03 -0.28976372304E+01  0.36068581538E+03  0.55263104659E+03  0.00000000000E+00 0.  1.
         -4    1    3    3    0  502  0.22982874799E+03  0.49213440744E+03 -0.19075015945E+04  0.19833254553E+04  0.00000000000E+00 0. -1.
</event>
<event>
 7    1  0.9434649E-006  0.1148597E+04  0.7818608E-02  0.8964009E-01
          4   -1    0    0  501    0 -0.00000000000E+00  0.00000000000E+00  0.16689026473E+04  0.16689026473E+04  0.00000000000E+00 0.  1.
          2   -1    0    0  502    0  0.00000000000E+00 -0.00000000000E+00 -0.79963161970E+03  0.79963161970E+03  0.00000000000E+00 0.  1.
    9000010    2    1    2  502    0  0.10017955541E+03 -0.79333670648E+03  0.57206603549E+03  0.14093439083E+04  0.10097383966E+04 0.  0.
        -13    1    3    3    0    0  0.31373468983E+03  0.17172332368E+02 -0.10561924409E+03  0.33148119175E+03  0.10566000000E+00 0.  1.
         13    1    1    2    0    0 -0.36498463318E+02  0.29739952278E+03  0.44618673548E+03  0.53745811749E+03  0.10566000000E+00 0. -1.
          2    1    1    2  501    0 -0.63681092090E+02  0.49593718370E+03 -0.14898174339E+03  0.52173224122E+03  0.00000000000E+00 0.  1.
          4    1    3    3  502    0 -0.21355513442E+03 -0.81050903884E+03  0.67768527958E+03  0.10778627165E+04  0.00000000000E+00 0.  1.
</event>
<event>
 7    1  0.9434649E-006  0.1151532E+04  0.7818608E-02  0.8809269E-01
          4   -1    0    0  502    0  0.00000000000E+00  0.00000000000E+00  0.11561492434E+04  0.11561492434E+04  0.00000000000E+00 0.  1.
          4   -1    0    0  501    0 -0.00000000000E+00 -0.00000000000E+00 -0.26881796117E+04  0.26881796117E+04  0.00000000000E+00 0.  1.
    9000010    2    1    2  502    0  0.57055778370E+03 -0.32669808209E+03 -0.13615425806E+04  0.18145234849E+04  0.10032095779E+04 0.  0.
        -13    1    3    3    0    0 -0.81303096697E+02  0.27189093907E+03 -0.52465192722E+03  0.59648514833E+03  0.10566000000E+00 0.  1.
         13    1    1    2    0    0 -0.51070108313E+03  0.17726758286E+03 -0.10257727810E+04  0.11595038601E+04  0.10566000000E+00 0. -1.
          4    1    1    2  501    0 -0.59856700567E+02  0.14943049923E+03  0.85528499325E+03  0.87030151004E+03  0.00000000000E+00 0.  1.
          4    1    3    3  502    0  0.65186088040E+03 -0.59858902116E+03 -0.83689065337E+03  0.12180383366E+04  0.00000000000E+00 0.  1.
</event>
<event>
 7    1  0.9434649E-006  0.1296893E+04  0.7818608E-02  0.8866555E-01
         -4   -1    0    0    0  501 -0.00000000000E+00  0.00000000000E+00  0.21078592458E+04  0.21078592458E+04  0.00000000000E+00 0. -1.
          4   -1    0    0  501    0  0.00000000000E+00 -0.00000000000E+00 -0.96394538949E+03  0.96394538949E+03  0.00000000000E+00 0.  1.
   -9000010    2    1    2    0  502 -0.53121816094E+03 -0.62833527446E+03  0.13112474970E+04  0.18405699327E+04  0.99565542585E+03 0.  0.
        -13    1    1    2    0    0 -0.21005937517E+03  0.22954898521E+03  0.13180769797E+03  0.33792152657E+03  0.10566000000E+00 0.  1.
         13    1    3    3    0    0 -0.36004346163E+03  0.16016743245E+03  0.78181887173E+03  0.87551451160E+03  0.10566000000E+00 0. -1.
          4    1    1    2  502    0  0.74127753611E+03  0.39878628924E+03 -0.29914133865E+03  0.89331317606E+03  0.00000000000E+00 0.  1.
         -4    1    3    3    0  502 -0.17117469931E+03 -0.78850270690E+03  0.52942862527E+03  0.96505542107E+03  0.00000000000E+00 0. -1.
</event>
<event>
 6    1  0.9434649E-006  0.3235662E+03  0.7818608E-02  0.9980263E-01
          2   -1    0    0  501    0  0.00000000000E+00  0.00000000000E+00  0.10998188370E+04  0.10998188370E+04  0.00000000000E+00 0. -1.
         -4   -1    0    0    0  501 -0.00000000000E+00 -0.00000000000E+00 -0.43619122109E+02  0.43619122109E+02  0.00000000000E+00 0. -1.
        -13    1    1    2    0    0  0.31376344185E+02 -0.27956362683E+02  0.42285583743E+02  0.59616398292E+02  0.10566000000E+00 0.  1.
         13    1    1    2    0    0 -0.11623296948E+03  0.37823474055E+02  0.10212312325E+03  0.15927919466E+03  0.10566000000E+00 0. -1.
          2    1    1    2  502    0  0.36726414224E+02 -0.68116366720E+02  0.44692212926E+03  0.45357255046E+03  0.00000000000E+00 0. -1.
         -4    1    1    2    0  502  0.48130211073E+02  0.58249255347E+02  0.46486887865E+03  0.47096981571E+03  0.00000000000E+00 0. -1.
</event>
<event>
 7    1  0.9434649E-006  0.1046058E+04  0.7818608E-02  0.9045207E-01
          2   -1    0    0  502    0  0.00000000000E+00  0.00000000000E+00  0.19894430720E+04  0.19894430720E+04  0.00000000000E+00 0. -1.
          4   -1    0    0  501    0 -0.00000000000E+00 -0.00000000000E+00 -0.14091180723E+04  0.14091180723E+04  0.00000000000E+00 0.  1.
    9000010    2    1    2  502    0 -0.72018071078E+02  0.21436575095E+03  0.50734082119E+02  0.10326356992E+04  0.10062918376E+04 0.  0.
        -13    1    3    3    0    0 -0.17331458233E+03  0.42335040342E+03 -0.34556210901E+03  0.57330331490E+03  0.10566000000E+00 0.  1.
         13    1    1    2    0    0  0.10865891720E+03 -0.26691821845E+03 -0.89481597046E+03  0.94007857533E+03  0.10566000000E+00 0. -1.
          2    1    1    2  501    0 -0.36640846120E+02  0.52552467498E+02  0.14244068880E+04  0.14258468698E+04  0.00000000000E+00 0. -1.
          4    1    3    3  502    0  0.10129651126E+03 -0.20898465247E+03  0.39629619113E+03  0.45933238430E+03  0.00000000000E+00 0.  1.
</event>
<event>
 7    1  0.9434649E-006  0.1060641E+04  0.7818608E-02  0.8981201E-01
          2   -1    0    0  502    0  0.00000000000E+00  0.00000000000E+00  0.40090310415E+04  0.40090310415E+04  0.00000000000E+00 0.  1.
          4   -1    0    0  501    0 -0.00000000000E+00 -0.00000000000E+00 -0.29749705901E+04  0.29749705901E+04  0.00000000000E+00 0.  1.
    9000010    2    1    2  502    0 -0.34548135307E+03  0.37289480001E+03 -0.15311615434E+04  0.18978776869E+04  0.99953796584E+03 0.  0.
        -13    1    3    3    0    0 -0.42386807473E+03  0.15748079198E+03 -0.11946740611E+03  0.46769307982E+03  0.10566000000E+00 0.  1.
         13    1    1    2    0    0  0.11747104387E+03 -0.31875205029E+03 -0.12338855412E+04  0.12797952398E+04  0.10566000000E+00 0. -1.
          2    1    1    2  501    0  0.22801030920E+03 -0.54142749721E+02  0.37991075362E+04  0.38063287049E+04  0.00000000000E+00 0.  1.
          4    1    3    3  502    0  0.78386721659E+02  0.21541400803E+03 -0.14116941373E+04  0.14301846071E+04  0.00000000000E+00 0.  1.
</event>
<event>
 7    1  0.9434649E-006  0.1007453E+04  0.7818608E-02  0.9221677E-01
          4   -1    0    0  501    0 -0.00000000000E+00  0.00000000000E+00  0.23695527026E+04  0.23695527026E+04  0.00000000000E+00 0.  1.
          2   -1    0    0  502    0  0.00000000000E+00 -0.00000000000E+00 -0.57433799901E+03  0.57433799901E+03  0.00000000000E+00 0.  1.
    9000010    2    1    2  502    0 -0.35332680619E+02  0.12566412311E+03  0.13309652614E+04  0.16667109923E+04  0.99469449305E+03 0.  0.
        -13    1    3    3    0    0  0.16110538525E+02 -0.10664547201E+03 -0.13994268623E+03  0.17668268944E+03  0.10566000000E+00 0.  1.
         13    1    1    2    0    0  0.14066414922E+03 -0.81956374651E+02  0.85488004758E+03  0.87024315977E+03  0.10566000000E+00 0. -1.
          2    1    1    2  501    0 -0.10533146860E+03 -0.43707748458E+02 -0.39063060537E+03  0.40693654960E+03  0.00000000000E+00 0.  1.
          4    1    3    3  502    0 -0.51443219145E+02  0.23230959512E+03  0.14709079477E+04  0.14900283028E+04  0.00000000000E+00 0.  1.
</event>
<event>
 7    1  0.9434649E-006  0.1008583E+04  0.7818608E-02  0.9315217E-01
         -4   -1    0    0    0  501 -0.00000000000E+00  0.00000000000E+00  0.34473174954E+03  0.34473174954E+03  0.00000000000E+00 0. -1.
          2   -1    0    0  501    0  0.00000000000E+00 -0.00000000000E+00 -0.14017616194E+04  0.14017616194E+04  0.00000000000E+00 0.  1.
   -9000010    2    1    2    0  502 -0.98672970951E+02  0.23253620602E+02 -0.59742130713E+03  0.11713253550E+04  0.10024040019E+04 0.  0.
        -13    1    1    2    0    0  0.11029227893E+03  0.23100478122E+02  0.39761402275E+00  0.11268623759E+03  0.10566000000E+00 0.  1.
         13    1    3    3    0    0 -0.37719736503E+03  0.32303640194E+03 -0.57746138099E+03  0.76163772679E+03  0.10566000000E+00 0. -1.
          2    1    1    2  502    0 -0.11619307976E+02 -0.46354098725E+02 -0.46000617674E+03  0.46248177632E+03  0.00000000000E+00 0.  1.
         -4    1    3    3    0  502  0.27852439408E+03 -0.29978278134E+03 -0.19959926137E+02  0.40968762824E+03  0.00000000000E+00 0. -1.
</event>
<event>
 6    1  0.9434649E-006  0.7249111E+03  0.7818608E-02  0.9087604E-01
          4   -1    0    0  501    0 -0.00000000000E+00  0.00000000000E+00  0.12002658303E+03  0.12002658303E+03  0.00000000000E+00 0.  1.
          2   -1    0    0  502    0  0.00000000000E+00 -0.00000000000E+00 -0.25837131846E+04  0.25837131846E+04  0.00000000000E+00 0.  1.
        -13    1    1    2    0    0  0.15202307101E+03  0.22630126559E+02 -0.10426094888E+03  0.18572424013E+03  0.10566000000E+00 0.  1.
         13    1    1    2    0    0  0.58171022264E+02 -0.11645293830E+03  0.27410397691E+01  0.13020245440E+03  0.10566000000E+00 0. -1.
          2    1    1    2  501    0 -0.54856513796E+01  0.43496738328E+02 -0.14858925649E+04  0.14865391933E+04  0.00000000000E+00 0.  1.
          4    1    1    2  502    0 -0.20470844190E+03  0.50326073413E+02 -0.87627412756E+03  0.90127387983E+03  0.00000000000E+00 0.  1.
</event>
<event>
 7    1  0.9434649E-006  0.1735203E+04  0.7818608E-02  0.8518165E-01
          2   -1    0    0  501    0  0.00000000000E+00  0.00000000000E+00  0.24760177367E+04  0.24760177367E+04  0.00000000000E+00 0.  1.
         -4   -1    0    0    0  501 -0.00000000000E+00 -0.00000000000E+00 -0.20345094287E+04  0.20345094287E+04  0.00000000000E+00 0. -1.
   -9000010    2    1    2    0  502  0.84659775430E+03  0.77656478984E+03  0.58800732475E+03  0.16284662567E+04  0.99316116759E+03 0.  0.
        -13    1    1    2    0    0  0.37797948875E+03  0.45219196310E+03 -0.82960502853E+03  0.10176397103E+04  0.10566000000E+00 0.  1.
         13    1    3    3    0    0 -0.13170755288E+03  0.12140395739E+03 -0.15443818104E+03  0.23650996445E+03  0.10566000000E+00 0. -1.
          2    1    1    2  502    0 -0.12245772431E+04 -0.12287567529E+04  0.68310601176E+03  0.18644211985E+04  0.00000000000E+00 0.  1.
         -4    1    3    3    0  502  0.97830530719E+03  0.65516083244E+03  0.74244550579E+03  0.13919562922E+04  0.00000000000E+00 0. -1.
</event>
<event>
 7    1  0.9434649E-006  0.1003512E+04  0.7818608E-02  0.9323347E-01
         -4   -1    0    0    0  501 -0.00000000000E+00  0.00000000000E+00  0.77558711055E+03  0.77558711055E+03  0.00000000000E+00 0. -1.
          2   -1    0    0  501    0  0.00000000000E+00 -0.00000000000E+00 -0.31120864461E+04  0.31120864461E+04  0.00000000000E+00 0.  1.
   -9000010    2    1    2    0  502  0.13002988702E+03 -0.54703165781E+02  0.38259232740E+03  0.10776218479E+04  0.99749273195E+03 0.  0.
        -13    1    1    2    0    0 -0.10607217417E+03 -0.96784188927E+01 -0.17923728975E+02  0.10801041222E+03  0.10566000000E+00 0.  1.
         13    1    3    3    0    0 -0.34069548738E+03 -0.47605903134E+02  0.48618509916E+03  0.59558013646E+03  0.10566000000E+00 0. -1.
          2    1    1    2  502    0 -0.23957712859E+02  0.64381584674E+02 -0.27011679340E+04  0.27020412965E+04  0.00000000000E+00 0.  1.
         -4    1    3    3    0  502  0.47072537440E+03 -0.70972626474E+01 -0.10359277176E+03  0.48204171148E+03  0.00000000000E+00 0. -1.
</event>
<event>
 6    1  0.9434649E-006  0.1605210E+04  0.7818608E-02  0.8351398E-01
          4   -1    0    0  501    0 -0.00000000000E+00  0.00000000000E+00  0.24761360538E+04  0.24761360538E+04  0.00000000000E+00 0.  1.
          2   -1    0    0  502    0  0.00000000000E+00 -0.00000000000E+00 -0.76450857811E+03  0.76450857811E+03  0.00000000000E+00 0. -1.
        -13    1    1    2    0    0 -0.77820713438E+03  0.11548677757E+03  0.14267281762E+04  0.16292626675E+04  0.10566000000E+00 0.  1.
         13    1    1    2    0    0  0.68536565196E+03  0.14506039282E+02  0.75512285317E+03  0.10198759908E+04  0.10566000000E+00 0. -1.
          2    1    1    2  501    0  0.46590858597E+02 -0.66566166824E+02 -0.50073628231E+03  0.50728550845E+03  0.00000000000E+00 0. -1.
          4    1    1    2  502    0  0.46250623823E+02 -0.63426650026E+02  0.30512728580E+02  0.84220465107E+02  0.00000000000E+00 0.  1.
</event>
<event>
 6    1  0.9434649E-006  0.1142473E+04  0.7818608E-02  0.8651188E-01
          2   -1    0    0  502    0  0.00000000000E+00  0.00000000000E+00  0.16290222495E+04  0.16290222495E+04  0.00000000000E+00 0. -1.
          4   -1    0    0  501    0 -0.00000000000E+00 -0.00000000000E+00 -0.32201535934E+03  0.32201535934E+03  0.00000000000E+00 0.  1.
        -13    1    1    2    0    0 -0.76711008920E+02  0.16088078004E+03 -0.12493702872E+02  0.17867094909E+03  0.10566000000E+00 0.  1.
         13    1    1    2    0    0 -0.12014206437E+03 -0.25515999565E+03  0.85488118276E+03  0.90020141458E+03  0.10566000000E+00 0. -1.
          2    1    1    2  501    0  0.15784237653E+02 -0.80826646970E+01  0.61515270584E+03  0.61540825728E+03  0.00000000000E+00 0. -1.
          4    1    1    2  502    0  0.18106883564E+03  0.10236188030E+03 -0.15053329553E+03  0.25675698792E+03  0.00000000000E+00 0.  1.
</event>
<event>
 7    1  0.9434649E-006  0.1173718E+04  0.7818608E-02  0.8780206E-01
          2   -1    0    0  502    0  0.00000000000E+00  0.00000000000E+00  0.11981462182E+04  0.11981462182E+04  0.00000000000E+00 0.  1.
          4   -1    0    0  501    0 -0.00000000000E+00 -0.00000000000E+00 -0.25620170881E+04  0.25620170881E+04  0.00000000000E+00 0.  1.
    9000010    2    1    2  502    0  0.58032768404E+03 -0.20576898960E+03 -0.18659247559E+04  0.22076604291E+04  0.10064632519E+04 0.  0.
        -13    1    3    3    0    0 -0.28199411334E+02 -0.37941220736E+03 -0.20917894336E+03  0.43417124663E+03  0.10566000000E+00 0.  1.
         13    1    1    2    0    0 -0.57570735905E+03  0.14438954437E+03 -0.35608528940E+03  0.69215897616E+03  0.10566000000E+00 0. -1.
          2    1    1    2  501    0 -0.46203249906E+01  0.61379445235E+02  0.85813917543E+03  0.86034390107E+03  0.00000000000E+00 0.  1.
          4    1    3    3  502    0  0.60852709538E+03  0.17364321775E+03 -0.16567458125E+04  0.17734891824E+04  0.00000000000E+00 0.  1.
</event>
<event>
 7    1  0.9434649E-006  0.1077825E+04  0.7818608E-02  0.8976934E-01
          4   -1    0    0  501    0 -0.00000000000E+00  0.00000000000E+00  0.17191250856E+04  0.17191250856E+04  0.00000000000E+00 0.  1.
          2   -1    0    0  502    0  0.00000000000E+00 -0.00000000000E+00 -0.10353823204E+04  0.10353823204E+04  0.00000000000E+00 0. -1.
    9000010    2    1    2  502    0  0.16612885997E+03  0.36222351693E+03  0.12243072096E+04  0.16434999650E+04  0.10214496155E+04 0.  0.
        -13    1    3    3    0    0  0.20545836539E+03 -0.32668452110E+03  0.59742199584E+03  0.71123060150E+03  0.10566000000E+00 0.  1.
         13    1    1    2    0    0 -0.35408045356E+03 -0.94243689492E+02  0.11014964319E+03  0.38260658078E+03  0.10566000000E+00 0. -1.
          2    1    1    2  501    0  0.18795159359E+03 -0.26797982744E+03 -0.65071408760E+03  0.72840086027E+03  0.00000000000E+00 0. -1.
          4    1    3    3  502    0 -0.39329505422E+02  0.68890803803E+03  0.62688521378E+03  0.93226936349E+03  0.00000000000E+00 0.  1.
</event>
<event>
 7    1  0.9434649E-006  0.1073462E+04  0.7818608E-02  0.8955835E-01
         -4   -1    0    0    0  501 -0.00000000000E+00  0.00000000000E+00  0.44469937596E+03  0.44469937596E+03  0.00000000000E+00 0. -1.
          2   -1    0    0  501    0  0.00000000000E+00 -0.00000000000E+00 -0.16851324583E+04  0.16851324583E+04  0.00000000000E+00 0. -1.
   -9000010    2    1    2    0  502  0.34460043806E+03 -0.17755901284E+03 -0.45604604673E+03  0.11689938455E+04  0.10041374154E+04 0.  0.
        -13    1    1    2    0    0 -0.33517855285E+03  0.16929532873E+03 -0.31179443124E+03  0.48807924474E+03  0.10566000000E+00 0.  1.
         13    1    3    3    0    0 -0.98672577226E+02  0.35349629402E+03 -0.26075691732E+03  0.45021115987E+03  0.10566000000E+00 0. -1.
          2    1    1    2  502    0 -0.94218852077E+01  0.82636841088E+01 -0.47259260434E+03  0.47275874405E+03  0.00000000000E+00 0. -1.
         -4    1    3    3    0  502  0.44327301529E+03 -0.53105530686E+03 -0.19528912940E+03  0.71878268558E+03  0.00000000000E+00 0. -1.
</event>
<event>
 7    1  0.9434649E-006  0.1103446E+04  0.7818608E-02  0.8871156E-01
          4   -1    0    0  501    0 -0.00000000000E+00  0.00000000000E+00  0.71163857643E+03  0.71163857643E+03  0.00000000000E+00 0.  1.
          2   -1    0    0  502    0  0.00000000000E+00 -0.00000000000E+00 -0.22605637206E+04  0.22605637206E+04  0.00000000000E+00 0.  1.
    9000010    2    1    2  502    0 -0.13439320626E+03 -0.48701023173E+03 -0.53847672464E+03  0.12317464624E+04  0.98590144787E+03 0.  0.
        -13    1    3    3    0    0 -0.24866237758E+03 -0.43818096023E+03  0.15507770939E+03  0.52714764445E+03  0.10566000000E+00 0.  1.
         13    1    1    2    0    0  0.11389287534E+03  0.48049146049E+03  0.19784965441E+03  0.53196628425E+03  0.10566000000E+00 0. -1.
          2    1    1    2  501    0  0.20500330922E+02  0.65187712335E+01 -0.12082980739E+04  0.12084895504E+04  0.00000000000E+00 0.  1.
          4    1    3    3  502    0  0.11426917131E+03 -0.48829271493E+02 -0.69355443403E+03  0.70459881793E+03  0.00000000000E+00 0.  1.
</event>
<event>
 7    1  0.9434649E-006  0.1089770E+04  0.7818608E-02  0.8892367E-01
         -4   -1    0    0    0  501 -0.00000000000E+00  0.00000000000E+00  0.21100606758E+04  0.21100606758E+04  0.00000000000E+00 0. -1.
          1   -1    0    0  501    0  0.00000000000E+00 -0.00000000000E+00 -0.87494812295E+03  0.87494812295E+03  0.00000000000E+00 0. -1.
   -9000010    2    1    2    0  502 -0.17898884420E+03 -0.67453712764E+02 -0.32487835398E+03  0.10525422999E+04  0.98270663904E+03 0.  0.
        -13    1    1    2    0    0  0.40048315638E+03 -0.28806951072E+03  0.13994895204E+04  0.14838941103E+04  0.10566000000E+00 0.  1.
         13    1    3    3    0    0  0.56920368516E+01 -0.29376316603E+03  0.26412680208E+03  0.39508502344E+03  0.10566000000E+00 0. -1.
          1    1    1    2  502    0 -0.22149431218E+03  0.35552322348E+03  0.16050138636E+03  0.44857238857E+03  0.00000000000E+00 0. -1.
         -4    1    3    3    0  502 -0.18468088105E+03  0.22630945327E+03 -0.58900515606E+03  0.65745727643E+03  0.00000000000E+00 0. -1.
</event>
<event>
 7    1  0.9434649E-006  0.1237197E+04  0.7818608E-02  0.8687478E-01
          2   -1    0    0  501    0  0.00000000000E+00  0.00000000000E+00  0.11300909921E+04  0.11300909921E+04  0.00000000000E+00 0.  1.
         -4   -1    0    0    0  501 -0.00000000000E+00 -0.00000000000E+00 -0.22619359673E+04  0.22619359673E+04  0.00000000000E+00 0. -1.
   -9000010    2    1    2    0  502 -0.75834642750E+03  0.28806584282E+02 -0.10908351304E+04  0.16452253023E+04  0.97001334542E+03 0.  0.
        -13    1    1    2    0    0  0.77278897706E+03 -0.30739925029E+02 -0.72652893146E+03  0.10611277234E+04  0.10566000000E+00 0.  1.
         13    1    3    3    0    0 -0.68544450040E+03  0.43746166289E+03 -0.66383659863E+03  0.10497075357E+04  0.10566000000E+00 0. -1.
          2    1    1    2  502    0 -0.14442549561E+02  0.19333407462E+01  0.68551908663E+03  0.68567393357E+03  0.00000000000E+00 0.  1.
         -4    1    3    3    0  502 -0.72901927106E+02 -0.40865507861E+03 -0.42699853177E+03  0.59551776664E+03  0.00000000000E+00 0. -1.
</event>
<event>
 7    1  0.9434649E-006  0.9982535E+03  0.7818608E-02  0.9172882E-01
         -4   -1    0    0    0  501 -0.00000000000E+00  0.00000000000E+00  0.91722036628E+03  0.91722036628E+03  0.00000000000E+00 0. -1.
          1   -1    0    0  501    0  0.00000000000E+00 -0.00000000000E+00 -0.60615330697E+03  0.60615330697E+03  0.00000000000E+00 0. -1.
   -9000010    2    1    2    0  502  0.43276344820E+02  0.20286021594E+03  0.23283182467E+03  0.10268131169E+04  0.97831968659E+03 0.  0.
        -13    1    1    2    0    0 -0.38195503425E+02 -0.19400863020E+03  0.25322103404E+03  0.32127736976E+03  0.10566000000E+00 0.  1.
         13    1    3    3    0    0  0.46571328580E+03  0.30975460093E+03  0.79858547541E+02  0.56499042128E+03  0.10566000000E+00 0. -1.
          1    1    1    2  502    0 -0.50808413951E+01 -0.88515857374E+01 -0.17498579941E+03  0.17528318662E+03  0.00000000000E+00 0. -1.
         -4    1    3    3    0  502 -0.42243694098E+03 -0.10689438499E+03  0.15297327713E+03  0.46182269559E+03  0.00000000000E+00 0. -1.
</event>
<event>
 7    1  0.9434649E-006  0.9738350E+03  0.7818608E-02  0.9214932E-01
          4   -1    0    0  501    0 -0.00000000000E+00  0.00000000000E+00  0.24009954973E+03  0.24009954973E+03  0.00000000000E+00 0.  1.
          2   -1    0    0  502    0  0.00000000000E+00 -0.00000000000E+00 -0.15520997386E+04  0.15520997386E+04  0.00000000000E+00 0.  1.
    9000010    2    1    2  502    0 -0.40308055041E+02  0.16486657075E+03 -0.91106374013E+03  0.13319946545E+04  0.95674808363E+03 0.  0.
        -13    1    3    3    0    0 -0.11805519061E+03  0.23154650384E+03  0.12673178524E+03  0.28915699547E+03  0.10566000000E+00 0.  1.
         13    1    1    2    0    0  0.38688530292E+02 -0.18064680670E+03 -0.26324407514E+03  0.32160150094E+03  0.10566000000E+00 0. -1.
          2    1    1    2  501    0  0.16195247493E+01  0.15780235946E+02 -0.13769237360E+03  0.13860313292E+03  0.00000000000E+00 0.  1.
          4    1    3    3  502    0  0.77747135571E+02 -0.66679933089E+02 -0.10377955254E+04  0.10428376590E+04  0.00000000000E+00 0.  1.
</event>
<event>
 6    1  0.9434649E-006  0.2362140E+03  0.7818608E-02  0.1037795E+00
          2   -1    0    0  502    0  0.00000000000E+00  0.00000000000E+00  0.62633823156E+03  0.62633823156E+03  0.00000000000E+00 0.  1.
          4   -1    0    0  501    0 -0.00000000000E+00 -0.00000000000E+00 -0.81717679362E+02  0.81717679362E+02  0.00000000000E+00 0.  1.
        -13    1    1    2    0    0  0.75685236552E+02 -0.42172566606E+02 -0.13969070091E+02  0.87760620379E+02  0.10566000000E+00 0.  1.
         13    1    1    2    0    0 -0.71195271757E+02  0.25859854163E+02  0.19214784490E+02  0.78145491776E+02  0.10566000000E+00 0. -1.
          2    1    1    2  501    0 -0.22538569411E+02  0.10474417965E+02  0.45458607103E+03  0.45526497397E+03  0.00000000000E+00 0.  1.
          4    1    1    2  502    0  0.18048604616E+02  0.58382944781E+01  0.84788766767E+02  0.86884824802E+02  0.00000000000E+00 0.  1.
</event>
<event>
 7    1  0.9434649E-006  0.1037958E+04  0.7818608E-02  0.8853986E-01
         -4   -1    0    0    0  501 -0.00000000000E+00  0.00000000000E+00  0.16737673382E+04  0.16737673382E+04  0.00000000000E+00 0. -1.
          2   -1    0    0  501    0  0.00000000000E+00 -0.00000000000E+00 -0.14925896684E+04  0.14925896684E+04  0.00000000000E+00 0.  1.
   -9000010    2    1    2    0  502  0.15907996658E+03  0.41699360511E+03  0.40080870169E+02  0.93219428787E+03  0.81742865849E+03 0.  0.
        -13    1    1    2    0    0 -0.55897690698E+03 -0.42201487472E+03  0.10379648673E+04  0.12521672468E+04  0.10566000000E+00 0.  1.
         13    1    3    3    0    0  0.27278497849E+03  0.42827217055E+03  0.34010617908E+03  0.61114721693E+03  0.10566000000E+00 0. -1.
          2    1    1    2  502    0  0.39989694040E+03  0.50212696157E+01 -0.89686806764E+03  0.98199547190E+03  0.00000000000E+00 0.  1.
         -4    1    3    3    0  502 -0.11370501191E+03 -0.11278565445E+02 -0.30002530891E+03  0.32104707094E+03  0.00000000000E+00 0. -1.
</event>
<event>
 7    1  0.9434649E-006  0.1476411E+04  0.7818608E-02  0.8488893E-01
          2   -1    0    0  501    0  0.00000000000E+00  0.00000000000E+00  0.26812281662E+04  0.26812281662E+04  0.00000000000E+00 0. -1.
         -4   -1    0    0    0  501 -0.00000000000E+00 -0.00000000000E+00 -0.11106921402E+04  0.11106921402E+04  0.00000000000E+00 0. -1.
   -9000010    2    1    2    0  502  0.46266093034E+03 -0.10160291083E+04  0.26182721337E+03  0.15169050981E+04  0.99301425052E+03 0.  0.
        -13    1    1    2    0    0 -0.38505796253E+03  0.10061132722E+04  0.12023538934E+03  0.10839696080E+04  0.10566000000E+00 0.  1.
         13    1    3    3    0    0  0.59018148596E+03 -0.13730624418E+03  0.92132451586E+02  0.61290748964E+03  0.10566000000E+00 0. -1.
          2    1    1    2  502    0 -0.77602967810E+02  0.99158360959E+01  0.11884734233E+04  0.11910456004E+04  0.00000000000E+00 0. -1.
         -4    1    3    3    0  502 -0.12752055561E+03 -0.87872286408E+03  0.16969476179E+03  0.90399760848E+03  0.00000000000E+00 0. -1.
</event>
<event>
 6    1  0.9434649E-006  0.1196550E+03  0.7818608E-02  0.1135597E+00
         -4   -1    0    0    0  501 -0.00000000000E+00  0.00000000000E+00  0.51620873883E+02  0.51620873883E+02  0.00000000000E+00 0. -1.
          4   -1    0    0  501    0  0.00000000000E+00 -0.00000000000E+00 -0.12254340760E+03  0.12254340760E+03  0.00000000000E+00 0.  1.
        -13    1    1    2    0    0  0.11944604067E+02 -0.15386118134E+02 -0.67006129601E+01  0.20598921710E+02  0.10566000000E+00 0.  1.
         13    1    1    2    0    0 -0.11956049989E+02  0.12677023513E+02  0.41036550631E+02  0.44583222273E+02  0.10566000000E+00 0. -1.
          4    1    1    2  502    0  0.12749157134E+02 -0.46042405077E+01 -0.51113882813E+02  0.52880705881E+02  0.00000000000E+00 0.  1.
         -4    1    1    2    0  502 -0.12737711212E+02  0.73133351285E+01 -0.54144588575E+02  0.56101431618E+02  0.00000000000E+00 0. -1.
</event>
<event>
 6    1  0.9434649E-006  0.4353048E+03  0.7818608E-02  0.9632299E-01
          2   -1    0    0  502    0  0.00000000000E+00  0.00000000000E+00  0.21878371638E+04  0.21878371638E+04  0.00000000000E+00 0. -1.
          4   -1    0    0  501    0 -0.00000000000E+00 -0.00000000000E+00 -0.56542368980E+02  0.56542368980E+02  0.00000000000E+00 0.  1.
        -13    1    1    2    0    0 -0.97109231148E+02  0.10541083967E+03  0.11786511292E+03  0.18556358452E+03  0.10566000000E+00 0.  1.
         13    1    1    2    0    0  0.11580916230E+03 -0.12861398554E+03  0.63041194651E+03  0.65373737297E+03  0.10566000000E+00 0. -1.
          2    1    1    2  501    0  0.25831976663E+02  0.33975118832E+02  0.13446270498E+04  0.13453042417E+04  0.00000000000E+00 0. -1.
          4    1    1    2  502    0 -0.44531907816E+02 -0.10771972957E+02  0.38390685611E+02  0.59774333595E+02  0.00000000000E+00 0.  1.
</event>
<event>
 7    1  0.9434649E-006  0.1061308E+04  0.7818608E-02  0.9003734E-01
          2   -1    0    0  502    0  0.00000000000E+00  0.00000000000E+00  0.93222494511E+03  0.93222494511E+03  0.00000000000E+00 0.  1.
          4   -1    0    0  501    0 -0.00000000000E+00 -0.00000000000E+00 -0.19145175890E+04  0.19145175890E+04  0.00000000000E+00 0.  1.
    9000010    2    1    2  502    0 -0.31759445401E+03  0.69314848484E+02 -0.14770460448E+04  0.18191318014E+04  0.10108930245E+04 0.  0.
        -13    1    3    3    0    0 -0.11167196750E+03  0.31371751719E+03 -0.26786135100E+02  0.33407606486E+03  0.10566000000E+00 0.  1.
         13    1    1    2    0    0  0.31730166995E+03 -0.56288511506E+02 -0.16889614408E+03  0.36383329277E+03  0.10566000000E+00 0. -1.
          2    1    1    2  501    0  0.29278406173E+00 -0.13026336978E+02  0.66364954500E+03  0.66377743993E+03  0.00000000000E+00 0.  1.
          4    1    3    3  502    0 -0.20592248651E+03 -0.24440266870E+03 -0.14502599097E+04  0.14850557366E+04  0.00000000000E+00 0.  1.
</event>
<event>
 6    1  0.9434649E-006  0.6550657E+03  0.7818608E-02  0.9190841E-01
          1   -1    0    0  501    0  0.00000000000E+00  0.00000000000E+00  0.10307739258E+04  0.10307739258E+04  0.00000000000E+00 0.  1.
         -4   -1    0    0    0  501 -0.00000000000E+00 -0.00000000000E+00 -0.29131432463E+03  0.29131432463E+03  0.00000000000E+00 0. -1.
        -13    1    1    2    0    0  0.15520916877E+03  0.19540555958E+03 -0.32486335097E+01  0.24956719249E+03  0.10566000000E+00 0.  1.
         13    1    1    2    0    0 -0.11561306772E+03 -0.26404233544E+03  0.20240607378E+02  0.28895402694E+03  0.10566000000E+00 0. -1.
          1    1    1    2  502    0 -0.89297198686E+02 -0.20143578582E+02  0.65527169085E+03  0.66163490105E+03  0.00000000000E+00 0.  1.
         -4    1    1    2    0  502  0.49701097635E+02  0.88780354445E+02  0.67195936461E+02  0.12193212997E+03  0.00000000000E+00 0. -1.
</event>
<event>
 7    1  0.9434649E-006  0.1028419E+04  0.7818608E-02  0.9134207E-01
          2   -1    0    0  502    0  0.00000000000E+00  0.00000000000E+00  0.10835289956E+04  0.10835289956E+04  0.00000000000E+00 0. -1.
          4   -1    0    0  501    0 -0.00000000000E+00 -0.00000000000E+00 -0.16988800865E+04  0.16988800865E+04  0.00000000000E+00 0.  1.
    9000010    2    1    2  502    0  0.20664859474E+03 -0.64097165398E+01 -0.13125412999E+04  0.16668983593E+04  0.10064992550E+04 0.  0.
        -13    1    3    3    0    0 -0.15706187557E+03  0.35793867473E+03 -0.19574563889E+03  0.43715545740E+03  0.10566000000E+00 0.  1.
         13    1    1    2    0    0 -0.21257203991E+03 -0.49670592545E+01 -0.15506015776E+03  0.26316384158E+03  0.10566000000E+00 0. -1.
          2    1    1    2  501    0  0.59234451681E+01  0.11376775794E+02  0.85225036675E+03  0.85234688118E+03  0.00000000000E+00 0. -1.
          4    1    3    3  502    0  0.36371047031E+03 -0.36434839127E+03 -0.11167956610E+04  0.12297429019E+04  0.00000000000E+00 0.  1.
</event>
<event>
 6    1  0.9434649E-006  0.1983492E+03  0.7818608E-02  0.1061273E+00
         -4   -1    0    0    0  501 -0.00000000000E+00  0.00000000000E+00  0.28371893633E+02  0.28371893633E+02  0.00000000000E+00 0. -1.
          2   -1    0    0  501    0  0.00000000000E+00 -0.00000000000E+00 -0.58411740479E+03  0.58411740479E+03  0.00000000000E+00 0. -1.
        -13    1    1    2    0    0 -0.69039415708E+02 -0.29033310699E+02 -0.18047098562E+03  0.19539488700E+03  0.10566000000E+00 0.  1.
         13    1    1    2    0    0  0.29812483594E+02  0.28252331136E+02 -0.61280579154E+02  0.73771938690E+02  0.10566000000E+00 0. -1.
          2    1    1    2  502    0 -0.27784619656E+02  0.12979849899E+02 -0.10708829907E+02  0.32482928298E+02  0.00000000000E+00 0. -1.
         -4    1    1    2    0  502  0.67011551771E+02 -0.12198870336E+02 -0.30328511647E+03  0.31083954443E+03  0.00000000000E+00 0. -1.
</event>
<event>
 7    1  0.9434649E-006  0.1032664E+04  0.7818608E-02  0.9030299E-01
          2   -1    0    0  502    0  0.00000000000E+00  0.00000000000E+00  0.69154783676E+03  0.69154783676E+03  0.00000000000E+00 0.  1.
          4   -1    0    0  501    0 -0.00000000000E+00 -0.00000000000E+00 -0.10384920999E+04  0.10384920999E+04  0.00000000000E+00 0.  1.
    9000010    2    1    2  502    0 -0.17258658512E+03  0.23315475784E+03 -0.25260511928E+03  0.10559233463E+04  0.98337047770E+03 0.  0.
        -13    1    3    3    0    0  0.31119481186E+03  0.23624512650E+03  0.15792987684E+03  0.42142120009E+03  0.10566000000E+00 0.  1.
         13    1    1    2    0    0  0.15349570179E+03 -0.28059670422E+03 -0.31422231595E+03  0.44836493607E+03  0.10566000000E+00 0. -1.
          2    1    1    2  501    0  0.19090883327E+02  0.47441946383E+02  0.21988317205E+03  0.22575165438E+03  0.00000000000E+00 0.  1.
          4    1    3    3  502    0 -0.48378139698E+03 -0.30903686589E+01 -0.41053499612E+03  0.63450214616E+03  0.00000000000E+00 0.  1.
</event>
<event>
 7    1  0.9434649E-006  0.1065102E+04  0.7818608E-02  0.9016044E-01
          4   -1    0    0  501    0  0.00000000000E+00  0.00000000000E+00  0.15468806962E+04  0.15468806962E+04  0.00000000000E+00 0. -1.
         -4   -1    0    0    0  501 -0.00000000000E+00 -0.00000000000E+00 -0.11059325305E+04  0.11059325305E+04  0.00000000000E+00 0. -1.
   -9000010    2    1    2    0  502  0.20312598055E+03  0.25906472696E+03  0.18948296047E+03  0.10890993178E+04  0.10207148647E+04 0.  0.
        -13    1    1    2    0    0 -0.23828300096E+03 -0.18778886574E+03 -0.61914646821E+03  0.68948227454E+03  0.10566000000E+00 0.  1.
         13    1    3    3    0    0  0.12519316802E+03  0.97385829265E+02 -0.42252592160E+03  0.45131529405E+03  0.10566000000E+00 0. -1.
          4    1    1    2  502    0  0.35157020414E+02 -0.71275861223E+02  0.87061167352E+03  0.87423163437E+03  0.00000000000E+00 0. -1.
         -4    1    3    3    0  502  0.77932812523E+02  0.16167889770E+03  0.61200888206E+03  0.63778402375E+03  0.00000000000E+00 0. -1.
</event>
<event>
 7    1  0.9434649E-006  0.1026715E+04  0.7818608E-02  0.9050945E-01
         -4   -1    0    0    0  501 -0.00000000000E+00  0.00000000000E+00  0.19932988030E+04  0.19932988030E+04  0.00000000000E+00 0. -1.
          2   -1    0    0  501    0  0.00000000000E+00 -0.00000000000E+00 -0.65257076098E+03  0.65257076098E+03  0.00000000000E+00 0. -1.
   -9000010    2    1    2    0  502 -0.26252158282E+03 -0.17110523530E+03  0.44717651961E+03  0.11247744449E+04  0.98333927469E+03 0.  0.
        -13    1    1    2    0    0  0.24257280115E+03  0.16668489842E+03  0.11890277648E+04  0.12249132442E+04  0.10566000000E+00 0.  1.
         13    1    3    3    0    0 -0.33883588435E+03  0.35108077355E+03  0.11529523523E+03  0.50135862266E+03  0.10566000000E+00 0. -1.
          2    1    1    2  502    0  0.19948781669E+02  0.44203368810E+01 -0.29547624233E+03  0.29618187495E+03  0.00000000000E+00 0. -1.
         -4    1    3    3    0  502  0.76314301526E+02 -0.52218600886E+03  0.33188128438E+03  0.62341582221E+03  0.00000000000E+00 0. -1.
</event>
<event>
 7    1  0.9434649E-006  0.9937794E+03  0.7818608E-02  0.9201048E-01
          2   -1    0    0  502    0  0.00000000000E+00  0.00000000000E+00  0.48997019532E+03  0.48997019532E+03  0.00000000000E+00 0.  1.
          4   -1    0    0  501    0 -0.00000000000E+00 -0.00000000000E+00 -0.18075517527E+04  0.18075517527E+04  0.00000000000E+00 0.  1.
    9000010    2    1    2  502    0  0.29200090810E+03 -0.69399115163E+02 -0.11677459648E+04  0.15520270339E+04  0.97728015852E+03 0.  0.
        -13    1    3    3    0    0 -0.35805395596E+03  0.32284629314E+02 -0.48653941871E+03  0.60495086560E+03  0.10566000000E+00 0.  1.
         13    1    1    2    0    0 -0.17048395363E+03 -0.67426637674E+01 -0.41241240304E+03  0.44631182295E+03  0.10566000000E+00 0. -1.
          2    1    1    2  501    0 -0.12151695447E+03  0.76141778931E+02  0.26257681038E+03  0.29918309121E+03  0.00000000000E+00 0.  1.
          4    1    3    3  502    0  0.65005486406E+03 -0.10168374448E+03 -0.68120654605E+03  0.94707616830E+03  0.00000000000E+00 0.  1.
</event>
<event>
 7    1  0.9434649E-006  0.9928986E+03  0.7818608E-02  0.9280873E-01
         -4   -1    0    0    0  501 -0.00000000000E+00  0.00000000000E+00  0.38687903745E+03  0.38687903745E+03  0.00000000000E+00 0. -1.
          2   -1    0    0  501    0  0.00000000000E+00 -0.00000000000E+00 -0.11498645292E+04  0.11498645292E+04  0.00000000000E+00 0. -1.
   -9000010    2    1    2    0  502 -0.98458437825E+02  0.14908914875E+03 -0.84513511624E+03  0.13093170681E+04  0.98393911497E+03 0.  0.
        -13    1    1    2    0    0  0.89654707302E+02 -0.96630639099E+02  0.10598343426E+03  0.16913883781E+03  0.10566000000E+00 0.  1.
         13    1    3    3    0    0 -0.39667108725E+03  0.27562074830E+03 -0.95079697322E+02  0.49229554981E+03  0.10566000000E+00 0. -1.
          2    1    1    2  502    0  0.88037305225E+01 -0.52458509650E+02 -0.23833809805E+02  0.58287660749E+02  0.00000000000E+00 0. -1.
         -4    1    3    3    0  502  0.29821264943E+03 -0.12653159955E+03 -0.75005541892E+03  0.81702151833E+03  0.00000000000E+00 0. -1.
</event>
<event>
 6    1  0.9434649E-006  0.1662726E+04  0.7818608E-02  0.8321549E-01
          4   -1    0    0  501    0 -0.00000000000E+00  0.00000000000E+00  0.62578978784E+03  0.62578978784E+03  0.00000000000E+00 0.  1.
          2   -1    0    0  502    0  0.00000000000E+00 -0.00000000000E+00 -0.28019151632E+04  0.28019151632E+04  0.00000000000E+00 0. -1.
        -13    1    1    2    0    0  0.60504515046E+03 -0.92715307276E+02 -0.69213788102E+03  0.92397544330E+03  0.10566000000E+00 0.  1.
         13    1    1    2    0    0 -0.69958339962E+03  0.13615092671E+03  0.14039694461E+03  0.72640575513E+03  0.10566000000E+00 0. -1.
          2    1    1    2  501    0  0.12106529945E+03 -0.53609672815E+01 -0.16914409857E+04  0.16957765639E+04  0.00000000000E+00 0. -1.
          4    1    1    2  502    0 -0.26527050300E+02 -0.38074652155E+02  0.67056546698E+02  0.81547188728E+02  0.00000000000E+00 0.  1.
</event>
<event>
 6    1  0.9434649E-006  0.2892369E+03  0.7818608E-02  0.1011850E+00
         -4   -1    0    0    0  501 -0.00000000000E+00  0.00000000000E+00  0.41895729358E+03  0.41895729358E+03  0.00000000000E+00 0. -1.
          2   -1    0    0  501    0  0.00000000000E+00 -0.00000000000E+00 -0.75801353138E+02  0.75801353138E+02  0.00000000000E+00 0.  1.
        -13    1    1    2    0    0 -0.19801344446E+02 -0.65684689038E+01 -0.24230897297E+01  0.21002870124E+02  0.10566000000E+00 0.  1.
         13    1    1    2    0    0  0.29839055802E+01  0.61833943360E+02 -0.10840474356E+02  0.62847969675E+02  0.10566000000E+00 0. -1.
          2    1    1    2  502    0  0.11062063919E+02 -0.67916309131E+01 -0.24044767352E+02  0.27324830203E+02  0.00000000000E+00 0.  1.
         -4    1    1    2    0  502  0.57553749468E+01 -0.48473843543E+02  0.38046427188E+03  0.38358297671E+03  0.00000000000E+00 0. -1.
</event>
<event>
 7    1  0.9434649E-006  0.1110559E+04  0.7818608E-02  0.8946418E-01
          4   -1    0    0  501    0 -0.00000000000E+00  0.00000000000E+00  0.24818728274E+04  0.24818728274E+04  0.00000000000E+00 0.  1.
          2   -1    0    0  502    0  0.00000000000E+00 -0.00000000000E+00 -0.51372280785E+03  0.51372280785E+03  0.00000000000E+00 0.  1.
    9000010    2    1    2  502    0  0.49730809934E+03  0.52171703319E+03  0.92694906805E+03  0.15500126437E+04  0.10118303278E+04 0.  0.
        -13    1    3    3    0    0  0.79402235562E+03  0.49063347250E+03  0.61161558287E+03  0.11159150227E+04  0.10566000000E+00 0.  1.
         13    1    1    2    0    0 -0.13404350663E+03 -0.33001816854E+03  0.96392563360E+03  0.10276343180E+04  0.10566000000E+00 0. -1.
          2    1    1    2  501    0 -0.36326459270E+03 -0.19169886465E+03  0.77275317904E+02  0.41794867361E+03  0.00000000000E+00 0.  1.
          4    1    3    3  502    0 -0.29671425628E+03  0.31083560693E+02  0.31533348518E+03  0.43409762094E+03  0.00000000000E+00 0.  1.
</event>
<event>
 7    1  0.9434649E-006  0.1032058E+04  0.7818608E-02  0.9103594E-01
          4   -1    0    0  501    0  0.00000000000E+00  0.00000000000E+00  0.35084039684E+04  0.35084039684E+04  0.00000000000E+00 0.  1.
         -4   -1    0    0    0  501 -0.00000000000E+00 -0.00000000000E+00 -0.11154028503E+04  0.11154028503E+04  0.00000000000E+00 0. -1.
   -9000010    2    1    2    0  502  0.40566536394E+02  0.21065847946E+03 -0.78197978428E+03  0.12911492387E+04  0.10047643180E+04 0.  0.
        -13    1    1    2    0    0 -0.15365375475E+03 -0.21555616833E+03  0.14744856030E+03  0.30300994563E+03  0.10566000000E+00 0.  1.
         13    1    3    3    0    0  0.65637541737E+02 -0.24194098026E+03  0.12281678935E+03  0.27915533261E+03  0.10566000000E+00 0. -1.
          4    1    1    2  502    0  0.11308721835E+03  0.48976888762E+01  0.30275323421E+04  0.30296476344E+04  0.00000000000E+00 0.  1.
         -4    1    3    3    0  502 -0.25071005343E+02  0.45259945972E+03 -0.90479657363E+03  0.10119939061E+04  0.00000000000E+00 0. -1.
</event>
<event>
 6    1  0.9434649E-006  0.2957957E+03  0.7818608E-02  0.1009056E+00
          2   -1    0    0  502    0  0.00000000000E+00  0.00000000000E+00  0.26390191802E+03  0.26390191802E+03  0.00000000000E+00 0.  1.
          4   -1    0    0  501    0 -0.00000000000E+00 -0.00000000000E+00 -0.47883322323E+03  0.47883322323E+03  0.00000000000E+00 0.  1.
        -13    1    1    2    0    0  0.17930117715E+01 -0.13733336070E+03 -0.13403428047E+03  0.19190848433E+03  0.10566000000E+00 0.  1.
         13    1    1    2    0    0 -0.38366510147E+02  0.10390071365E+03 -0.17268084113E+03  0.20514880320E+03  0.10566000000E+00 0. -1.
          2    1    1    2  501    0  0.26486916551E+02  0.18832802193E+02  0.21689404133E+03  0.21931542661E+03  0.00000000000E+00 0.  1.
          4    1    1    2  502    0  0.10086581824E+02  0.14599844855E+02 -0.12511022493E+03  0.12636242711E+03  0.00000000000E+00 0.  1.
</event>
<event>
 7    1  0.9434649E-006  0.9917663E+03  0.7818608E-02  0.9186247E-01
          4   -1    0    0  501    0 -0.00000000000E+00  0.00000000000E+00  0.16875285319E+04  0.16875285319E+04  0.00000000000E+00 0.  1.
          2   -1    0    0  502    0  0.00000000000E+00 -0.00000000000E+00 -0.47488881714E+03  0.47488881714E+03  0.00000000000E+00 0.  1.
    9000010    2    1    2  502    0  0.29043124298E+03  0.47021436120E+02  0.87103479962E+03  0.13386330027E+04  0.97297244121E+03 0.  0.
        -13    1    3    3    0    0 -0.18565936540E+03 -0.30228486956E+03  0.10213592398E+03  0.36915755506E+03  0.10566000000E+00 0.  1.
         13    1    1    2    0    0 -0.17330032492E+03 -0.67245910006E+02  0.55182113602E+03  0.58228995556E+03  0.10566000000E+00 0. -1.
          2    1    1    2  501    0 -0.11713091806E+03  0.20224473886E+02 -0.21021622083E+03  0.24149439085E+03  0.00000000000E+00 0.  1.
          4    1    3    3  502    0  0.47609060838E+03  0.34930630568E+03  0.76889887564E+03  0.96947544762E+03  0.00000000000E+00 0.  1.
</event>
<event>
 6    1  0.9434649E-006  0.1672230E+03  0.7818608E-02  0.1091393E+00
         -4   -1    0    0    0  501 -0.00000000000E+00  0.00000000000E+00  0.23751723456E+03  0.23751723456E+03  0.00000000000E+00 0. -1.
          2   -1    0    0  501    0  0.00000000000E+00 -0.00000000000E+00 -0.14676223682E+04  0.14676223682E+04  0.00000000000E+00 0.  1.
        -13    1    1    2    0    0 -0.10893235686E+03 -0.12078537606E+03 -0.51171110556E+02  0.17051058372E+03  0.10566000000E+00 0.  1.
         13    1    1    2    0    0  0.14740222284E+02  0.27880131074E+02  0.86175511523E+02  0.91764948711E+02  0.10566000000E+00 0. -1.
          2    1    1    2  502    0 -0.90174529596E+01  0.53388923205E+02 -0.13188595474E+04  0.13199705289E+04  0.00000000000E+00 0.  1.
         -4    1    1    2    0  502  0.10320958754E+03  0.39516321778E+02  0.53750012757E+02  0.12289354140E+03  0.00000000000E+00 0. -1.
</event>
<event>
 6    1  0.9434649E-006  0.3893472E+03  0.7818608E-02  0.9760325E-01
          1   -1    0    0  501    0  0.00000000000E+00  0.00000000000E+00  0.13158167556E+04  0.13158167556E+04  0.00000000000E+00 0. -1.
         -4   -1    0    0    0  501 -0.00000000000E+00 -0.00000000000E+00 -0.90013261183E+02  0.90013261183E+02  0.00000000000E+00 0. -1.
        -13    1    1    2    0    0 -0.31873127950E+02 -0.96098564660E+02  0.10339651677E+03  0.14471240879E+03  0.10566000000E+00 0.  1.
         13    1    1    2    0    0  0.17815783369E+03  0.80566965336E+02  0.10408765973E+03  0.22150734002E+03  0.10566000000E+00 0. -1.
          1    1    1    2  502    0 -0.76656909363E+02  0.28497385911E+02  0.88388557625E+03  0.88766102464E+03  0.00000000000E+00 0. -1.
         -4    1    1    2    0  502 -0.69627796376E+02 -0.12965786587E+02  0.13443374162E+03  0.15194924329E+03  0.00000000000E+00 0. -1.
</event>
<event>
 7    1  0.9434649E-006  0.1007940E+04  0.7818608E-02  0.9251921E-01
          4   -1    0    0  501    0 -0.00000000000E+00  0.00000000000E+00  0.55375630839E+03  0.55375630839E+03  0.00000000000E+00 0.  1.
          2   -1    0    0  502    0  0.00000000000E+00 -0.00000000000E+00 -0.15780854224E+04  0.15780854224E+04  0.00000000000E+00 0. -1.
    9000010    2    1    2  502    0  0.13692788028E+02  0.14525101245E+03  0.67863405588E+02  0.10107654502E+04  0.99787574603E+03 0.  0.
        -13    1    3    3    0    0 -0.23951678874E+03  0.40024573171E+03 -0.25157318649E+03  0.52995661819E+03  0.10566000000E+00 0.  1.
         13    1    1    2    0    0 -0.22582472716E+02 -0.13765384976E+03 -0.32348558316E+03  0.35228040551E+03  0.10566000000E+00 0. -1.
          2    1    1    2  501    0  0.88896846888E+01 -0.75971626877E+01 -0.76870693642E+03  0.76879587504E+03  0.00000000000E+00 0. -1.
          4    1    3    3  502    0  0.25320957676E+03 -0.25499471926E+03  0.31943659207E+03  0.48080883204E+03  0.00000000000E+00 0.  1.
</event>
<event>
 7    1  0.9434649E-006  0.9972929E+03  0.7818608E-02  0.9188279E-01
         -4   -1    0    0    0  501 -0.00000000000E+00  0.00000000000E+00  0.20201907651E+03  0.20201907651E+03  0.00000000000E+00 0. -1.
          2   -1    0    0  501    0  0.00000000000E+00 -0.00000000000E+00 -0.22603961854E+04  0.22603961854E+04  0.00000000000E+00 0. -1.
   -9000010    2    1    2    0  502  0.16167844188E+03 -0.17002757372E+03 -0.16637331879E+04  0.19448639699E+04  0.97950928862E+03 0.  0.
        -13    1    1    2    0    0 -0.11173262237E+03  0.14600386008E+03 -0.84228625361E+02  0.20222704704E+03  0.10566000000E+00 0.  1.
         13    1    3    3    0    0 -0.85843285771E+02 -0.41368288114E+03 -0.25398796883E+03  0.49296297562E+03  0.10566000000E+00 0. -1.
          2    1    1    2  502    0 -0.49945819504E+02  0.24023713644E+02 -0.31041529566E+03  0.31532424499E+03  0.00000000000E+00 0. -1.
         -4    1    3    3    0  502  0.24752172765E+03  0.24365530742E+03 -0.14097452190E+04  0.14519009942E+04  0.00000000000E+00 0. -1.
</event>
<event>
 6    1  0.9434649E-006  0.1781655E+03  0.7818608E-02  0.1076232E+00
         -4   -1    0    0    0  501 -0.00000000000E+00  0.00000000000E+00  0.93591091808E+02  0.93591091808E+02  0.00000000000E+00 0. -1.
          1   -1    0    0  501    0  0.00000000000E+00 -0.00000000000E+00 -0.67644738951E+03  0.67644738951E+03  0.00000000000E+00 0.  1.
        -13    1    1    2    0    0 -0.72233897383E+02  0.33206448402E+02 -0.92499470639E+01  0.80037346479E+02  0.10566000000E+00 0.  1.
         13    1    1    2    0    0  0.44129034887E+01 -0.42615305979E+02  0.26934326049E+02  0.50606393910E+02  0.10566000000E+00 0. -1.
          1    1    1    2  502    0  0.21237854515E+02  0.13687235226E+02 -0.59114075097E+03  0.59168046641E+03  0.00000000000E+00 0.  1.
         -4    1    1    2    0  502  0.46583139379E+02 -0.42783776492E+01 -0.93999257211E+01  0.47714274523E+02  0.00000000000E+00 0. -1.
</event>
<event>
 7    1  0.9434649E-006  0.1519073E+04  0.7818608E-02  0.8614136E-01
          4   -1    0    0  501    0 -0.00000000000E+00  0.00000000000E+00  0.18745471155E+04  0.18745471155E+04  0.00000000000E+00 0.  1.
          2   -1    0    0  502    0  0.00000000000E+00 -0.00000000000E+00 -0.28190627374E+04  0.28190627374E+04  0.00000000000E+00 0.  1.
    9000010    2    1    2  502    0 -0.60954186054E+03 -0.61148454687E+03 -0.76309645619E+03  0.15312835073E+04  0.10084931073E+04 0.  0.
        -13    1    3    3    0    0  0.10884295653E+03 -0.14737609011E+03  0.18089879214E+03  0.25747016387E+03  0.10566000000E+00 0.  1.
         13    1    1    2    0    0 -0.56920237261E+03 -0.57128139242E+02  0.11362671178E+04  0.12721469803E+04  0.10566000000E+00 0. -1.
          2    1    1    2  501    0  0.11787442332E+04  0.66861268611E+03 -0.13176862835E+04  0.18901793653E+04  0.00000000000E+00 0.  1.
          4    1    3    3  502    0 -0.71838481707E+03 -0.46410845676E+03 -0.94399524833E+03  0.12738133434E+04  0.00000000000E+00 0.  1.
</event>
<event>
 6    1  0.9434649E-006  0.9373337E+03  0.7818608E-02  0.8835809E-01
          4   -1    0    0  501    0 -0.00000000000E+00  0.00000000000E+00  0.30829194210E+04  0.30829194210E+04  0.00000000000E+00 0.  1.
          2   -1    0    0  502    0  0.00000000000E+00 -0.00000000000E+00 -0.22320349869E+03  0.22320349869E+03  0.00000000000E+00 0.  1.
        -13    1    1    2    0    0  0.69065983813E+02  0.35324206829E+03  0.21515659449E+04  0.21814642091E+04  0.10566000000E+00 0.  1.
         13    1    1    2    0    0 -0.12203879536E+03 -0.10756656074E+03  0.15037126835E+03  0.22153004779E+03  0.10566000000E+00 0. -1.
          2    1    1    2  501    0  0.11525428712E+02 -0.31596733370E+01 -0.15171613677E+03  0.15218608740E+03  0.00000000000E+00 0.  1.
          4    1    1    2  502    0  0.41447382834E+02 -0.24251583421E+03  0.70949484575E+03  0.75094257539E+03  0.00000000000E+00 0.  1.
</event>
<event>
 7    1  0.9434649E-006  0.9932464E+03  0.7818608E-02  0.9218396E-01
          4   -1    0    0  501    0 -0.00000000000E+00  0.00000000000E+00  0.34720697481E+03  0.34720697481E+03  0.00000000000E+00 0.  1.
          2   -1    0    0  502    0  0.00000000000E+00 -0.00000000000E+00 -0.12717106755E+04  0.12717106755E+04  0.00000000000E+00 0.  1.
    9000010    2    1    2  502    0 -0.13038559061E+03 -0.79666372390E+02 -0.91895065744E+03  0.13512310686E+04  0.97877880898E+03 0.  0.
        -13    1    3    3    0    0 -0.30265025969E+03  0.25087180105E+03 -0.38325127438E+02  0.39497172912E+03  0.10566000000E+00 0.  1.
         13    1    1    2    0    0  0.16952971752E+03  0.19058171212E+02  0.48702388120E+02  0.17741328243E+03  0.10566000000E+00 0. -1.
          2    1    1    2  501    0 -0.39144126907E+02  0.60608201177E+02 -0.54255431337E+02  0.90273299213E+02  0.00000000000E+00 0.  1.
          4    1    3    3  502    0  0.17226466908E+03 -0.33053817343E+03 -0.88062553000E+03  0.95625933951E+03  0.00000000000E+00 0.  1.
</event>
<event>
 7    1  0.9434649E-006  0.1014839E+04  0.7818608E-02  0.9138920E-01
         -4   -1    0    0    0  501 -0.00000000000E+00  0.00000000000E+00  0.23072393742E+04  0.23072393742E+04  0.00000000000E+00 0. -1.
          1   -1    0    0  501    0  0.00000000000E+00 -0.00000000000E+00 -0.10332345929E+04  0.10332345929E+04  0.00000000000E+00 0. -1.
   -9000010    2    1    2    0  502 -0.14150003031E+03  0.12735308249E+03  0.16171759999E+04  0.19065268215E+04  0.99163765583E+03 0.  0.
        -13    1    1    2    0    0  0.19062869732E+03 -0.11027962179E+03  0.52234313855E+03  0.56687146760E+03  0.10566000000E+00 0.  1.
         13    1    3    3    0    0  0.26939409196E+03  0.38782540839E+03  0.49851891866E+03  0.68666064952E+03  0.10566000000E+00 0. -1.
          1    1    1    2  502    0 -0.49128667013E+02 -0.17073460702E+02 -0.86551435708E+03  0.86707567795E+03  0.00000000000E+00 0. -1.
         -4    1    3    3    0  502 -0.41089412227E+03 -0.26047232590E+03  0.11186570812E+04  0.12198661720E+04  0.00000000000E+00 0. -1.
</event>
<event>
 7    1  0.9434649E-006  0.1244563E+04  0.7818608E-02  0.8691292E-01
          1   -1    0    0  501    0  0.00000000000E+00  0.00000000000E+00  0.11677359544E+04  0.11677359544E+04  0.00000000000E+00 0. -1.
         -4   -1    0    0    0  501 -0.00000000000E+00 -0.00000000000E+00 -0.34816975375E+04  0.34816975375E+04  0.00000000000E+00 0. -1.
   -9000010    2    1    2    0  502 -0.69163140590E+03  0.33432772650E+03  0.23588029793E+03  0.12822404567E+04  0.99918569016E+03 0.  0.
        -13    1    1    2    0    0  0.22460427317E+03 -0.78651469595E+03 -0.89987503050E+02  0.82289137092E+03  0.10566000000E+00 0.  1.
         13    1    3    3    0    0 -0.82151720529E+02 -0.33953026087E+03  0.30030477678E+02  0.35061594941E+03  0.10566000000E+00 0. -1.
          1    1    1    2  502    0  0.46702713273E+03  0.45218696945E+03 -0.24598543780E+04  0.25443016643E+04  0.00000000000E+00 0. -1.
         -4    1    3    3    0  502 -0.60947968537E+03  0.67385798737E+03  0.20584982025E+03  0.93162450725E+03  0.00000000000E+00 0. -1.
</event>
<event>
 7    1  0.9434649E-006  0.1030508E+04  0.7818608E-02  0.9088823E-01
         -4   -1    0    0    0  501 -0.00000000000E+00  0.00000000000E+00  0.20245599274E+03  0.20245599274E+03  0.00000000000E+00 0. -1.
          2   -1    0    0  501    0  0.00000000000E+00 -0.00000000000E+00 -0.32237890993E+04  0.32237890993E+04  0.00000000000E+00 0. -1.
   -9000010    2    1    2    0  502 -0.14304495526E+03  0.19336641325E+03 -0.12091733570E+04  0.15870845957E+04  0.99944228325E+03 0.  0.
        -13    1    1    2    0    0  0.18520122326E+03 -0.18664819043E+03 -0.13745072250E+04  0.13994310140E+04  0.10566000000E+00 0.  1.
         13    1    3    3    0    0  0.30873560430E+03  0.13840126201E+03 -0.50309975003E+02  0.34205801765E+03  0.10566000000E+00 0. -1.
          2    1    1    2  502    0 -0.42156268007E+02 -0.67182228154E+01 -0.43765252447E+03  0.43972948233E+03  0.00000000000E+00 0. -1.
         -4    1    3    3    0  502 -0.45178055956E+03  0.54965151243E+02 -0.11588633820E+04  0.12450265781E+04  0.00000000000E+00 0. -1.
</event>
<event>
 7    1  0.9434649E-006  0.1120931E+04  0.7818608E-02  0.8861147E-01
          1   -1    0    0  501    0  0.00000000000E+00  0.00000000000E+00  0.37906709094E+03  0.37906709094E+03  0.00000000000E+00 0.  1.
         -4   -1    0    0    0  501 -0.00000000000E+00 -0.00000000000E+00 -0.28190255457E+04  0.28190255457E+04  0.00000000000E+00 0. -1.
   -9000010    2    1    2    0  502  0.12369113821E+03 -0.46098999748E+03 -0.21003544179E+04  0.23775705539E+04  0.10067481226E+04 0.  0.
        -13    1    1    2    0    0 -0.54662755339E+02  0.50541620893E+03 -0.45274158048E+03  0.68074114825E+03  0.10566000000E+00 0.  1.
         13    1    3    3    0    0 -0.12591580680E+03 -0.59605292257E+03 -0.19758869433E+04  0.20676709363E+04  0.10566000000E+00 0. -1.
          1    1    1    2  502    0 -0.69028382867E+02 -0.44426211450E+02  0.11313754356E+03  0.13978093457E+03  0.00000000000E+00 0.  1.
         -4    1    3    3    0  502  0.24960694500E+03  0.13506292509E+03 -0.12446747456E+03  0.30989961754E+03  0.00000000000E+00 0. -1.
</event>
<event>
 6    1  0.9434649E-006  0.1149125E+04  0.7818608E-02  0.8645890E-01
          2   -1    0    0  502    0  0.00000000000E+00  0.00000000000E+00  0.36808959149E+03  0.36808959149E+03  0.00000000000E+00 0. -1.
          4   -1    0    0  501    0 -0.00000000000E+00 -0.00000000000E+00 -0.10507834217E+04  0.10507834217E+04  0.00000000000E+00 0.  1.
        -13    1    1    2    0    0  0.22730165586E+02 -0.47835641242E+03 -0.35244947629E+03  0.59461093349E+03  0.10566000000E+00 0.  1.
         13    1    1    2    0    0  0.32348279492E+02  0.38982834194E+03 -0.49067886546E+03  0.62751757548E+03  0.10566000000E+00 0. -1.
          2    1    1    2  501    0 -0.64760582395E+01  0.82310460149E+01  0.53259362886E+02  0.54279362411E+02  0.00000000000E+00 0. -1.
          4    1    1    2  502    0 -0.48602386838E+02  0.80297024460E+02  0.10717514864E+03  0.14246514180E+03  0.00000000000E+00 0.  1.
</event>
<event>
 6    1  0.9434649E-006  0.5703976E+03  0.7818608E-02  0.9335732E-01
          1   -1    0    0  501    0  0.00000000000E+00  0.00000000000E+00  0.12398057802E+03  0.12398057802E+03  0.00000000000E+00 0.  1.
         -4   -1    0    0    0  501 -0.00000000000E+00 -0.00000000000E+00 -0.12322821003E+04  0.12322821003E+04  0.00000000000E+00 0. -1.
        -13    1    1    2    0    0 -0.12041521519E+03  0.15769164682E+03 -0.24054379214E+03  0.31181373707E+03  0.10566000000E+00 0.  1.
         13    1    1    2    0    0  0.16452766795E+03 -0.19736256802E+03 -0.83806377130E+03  0.87656844154E+03  0.10566000000E+00 0. -1.
          1    1    1    2  502    0  0.19591583389E+02  0.24404934415E+02  0.53506162909E+02  0.61986614948E+02  0.00000000000E+00 0.  1.
         -4    1    1    2    0  502 -0.63704036151E+02  0.15265986786E+02 -0.83200121799E+02  0.10589388482E+03  0.00000000000E+00 0. -1.
</event>
<event>
 7    1  0.9434649E-006  0.1026447E+04  0.7818608E-02  0.9005149E-01
         -4   -1    0    0    0  501 -0.00000000000E+00  0.00000000000E+00  0.21271410159E+04  0.21271410159E+04  0.00000000000E+00 0. -1.
          1   -1    0    0  501    0  0.00000000000E+00 -0.00000000000E+00 -0.59551962908E+03  0.59551962908E+03  0.00000000000E+00 0. -1.
   -9000010    2    1    2    0  502  0.21611738051E+03  0.33658272655E+03  0.10828436191E+04  0.15033092356E+04  0.96301282471E+03 0.  0.
        -13    1    1    2    0    0 -0.37451339110E+03 -0.25971393836E+02  0.69678159042E+03  0.79147924124E+03  0.10566000000E+00 0.  1.
         13    1    3    3    0    0 -0.15853067126E+03  0.20424889491E+03  0.10752552595E+04  0.11059039150E+04  0.10566000000E+00 0. -1.
          1    1    1    2  502    0  0.15839601058E+03 -0.31061133272E+03 -0.24800382268E+03  0.42787216811E+03  0.00000000000E+00 0. -1.
         -4    1    3    3    0  502  0.37464805178E+03  0.13233383164E+03  0.75883595546E+01  0.39740532067E+03  0.00000000000E+00 0. -1.
</event>
<event>
 7    1  0.9434649E-006  0.1090579E+04  0.7818608E-02  0.9098041E-01
         -4   -1    0    0    0  501 -0.00000000000E+00  0.00000000000E+00  0.14296222851E+04  0.14296222851E+04  0.00000000000E+00 0. -1.
          2   -1    0    0  501    0  0.00000000000E+00 -0.00000000000E+00 -0.53162483927E+03  0.53162483927E+03  0.00000000000E+00 0. -1.
   -9000010    2    1    2    0  502  0.17626212404E+03 -0.11473849574E+03  0.63185119971E+03  0.12613907737E+04  0.10712784356E+04 0.  0.
        -13    1    1    2    0    0 -0.17718686574E+03  0.10084881550E+03  0.46122796171E+03  0.50427860634E+03  0.10566000000E+00 0.  1.
         13    1    3    3    0    0  0.58530893267E+02  0.24304703231E+03 -0.21807378219E+03  0.33174374300E+03  0.10566000000E+00 0. -1.
          2    1    1    2  502    0  0.92474169324E+00  0.13889680239E+02 -0.19508171555E+03  0.19557774440E+03  0.00000000000E+00 0. -1.
         -4    1    3    3    0  502  0.11773123078E+03 -0.35778552805E+03  0.84992498190E+03  0.92964703067E+03  0.00000000000E+00 0. -1.
</event>
<event>
 7    1  0.9434649E-006  0.9905733E+03  0.7818608E-02  0.9289214E-01
          4   -1    0    0  501    0 -0.00000000000E+00  0.00000000000E+00  0.15077334998E+04  0.15077334998E+04  0.00000000000E+00 0.  1.
          2   -1    0    0  502    0  0.00000000000E+00 -0.00000000000E+00 -0.47556207034E+03  0.47556207034E+03  0.00000000000E+00 0.  1.
    9000010    2    1    2  502    0 -0.19604212460E+03 -0.24961007143E+03  0.11617803703E+04  0.15455248414E+04  0.96859470591E+03 0.  0.
        -13    1    3    3    0    0  0.28079103204E+03 -0.15573033506E+03  0.40718916944E+02  0.32365658079E+03  0.10566000000E+00 0.  1.
         13    1    1    2    0    0  0.33785426176E+02  0.12536707457E+03  0.73870727151E+02  0.14938291034E+03  0.10566000000E+00 0. -1.
          2    1    1    2  501    0  0.16225669843E+03  0.12424299686E+03 -0.20347966804E+03  0.28838781832E+03  0.00000000000E+00 0.  1.
          4    1    3    3  502    0 -0.47683315664E+03 -0.93879736371E+02  0.11210614534E+04  0.12218682606E+04  0.00000000000E+00 0.  1.
</event>
<event>
 7    1  0.9434649E-006  0.9731760E+03  0.7818608E-02  0.9461777E-01
         -4   -1    0    0    0  501 -0.00000000000E+00  0.00000000000E+00  0.44715954005E+03  0.44715954005E+03  0.00000000000E+00 0. -1.
          2   -1    0    0  501    0  0.00000000000E+00 -0.00000000000E+00 -0.29467707380E+04  0.29467707380E+04  0.00000000000E+00 0. -1.
   -9000010    2    1    2    0  502 -0.38304529505E+02  0.33641259970E+02 -0.50648838393E+03  0.10959126307E+04  0.97051277152E+03 0.  0.
        -13    1    1    2    0    0  0.71267101557E+02  0.12632435245E+02  0.14345765611E+03  0.16068194810E+03  0.10566000000E+00 0.  1.
         13    1    3    3    0    0 -0.24912135725E+02 -0.26548285011E+03  0.19688487699E+03  0.33145953623E+03  0.10566000000E+00 0. -1.
          2    1    1    2  502    0 -0.32962572051E+02 -0.46273695215E+02 -0.21365804702E+04  0.21373356993E+04  0.00000000000E+00 0. -1.
         -4    1    3    3    0  502 -0.13392393781E+02  0.29912411008E+03 -0.70337326092E+03  0.76445309445E+03  0.00000000000E+00 0. -1.
</event>
<event>
 6    1  0.9434649E-006  0.1173853E+03  0.7818608E-02  0.1148635E+00
          4   -1    0    0  501    0 -0.00000000000E+00  0.00000000000E+00  0.18703896038E+03  0.18703896038E+03  0.00000000000E+00 0.  1.
          2   -1    0    0  502    0  0.00000000000E+00 -0.00000000000E+00 -0.78592899900E+03  0.78592899900E+03  0.00000000000E+00 0. -1.
        -13    1    1    2    0    0 -0.93991240753E+02  0.18290469989E+02  0.12163373636E+03  0.15480204009E+03  0.10566000000E+00 0.  1.
         13    1    1    2    0    0  0.10400617515E+03 -0.72854097351E+01 -0.18041589316E+02  0.10581054661E+03  0.10566000000E+00 0. -1.
          2    1    1    2  501    0 -0.19925659919E+02 -0.15291841726E+02 -0.70100716207E+03  0.70145699342E+03  0.00000000000E+00 0. -1.
          4    1    1    2  502    0  0.99107255234E+01  0.42867814716E+01 -0.14750235970E+01  0.10898379256E+02  0.00000000000E+00 0.  1.
</event>
<event>
 7    1  0.9434649E-006  0.1017821E+04  0.7818608E-02  0.9297610E-01
          2   -1    0    0  502    0  0.00000000000E+00  0.00000000000E+00  0.12862240765E+04  0.12862240765E+04  0.00000000000E+00 0.  1.
          4   -1    0    0  501    0 -0.00000000000E+00 -0.00000000000E+00 -0.31799637709E+03  0.31799637709E+03  0.00000000000E+00 0.  1.
    9000010    2    1    2  502    0 -0.78246670301E+02  0.64261339058E+02  0.58917016759E+03  0.11746885426E+04  0.10111971245E+04 0.  0.
        -13    1    3    3    0    0  0.85289062202E+02  0.49287127212E+03  0.50020959037E+03  0.70739378035E+03  0.10566000000E+00 0.  1.
         13    1    1    2    0    0  0.99470892736E+02 -0.64180180765E+02  0.11640477054E+03  0.16602299803E+03  0.10566000000E+00 0. -1.
          2    1    1    2  501    0 -0.21224222435E+02 -0.81158293663E-01  0.26265276123E+03  0.26350891292E+03  0.00000000000E+00 0.  1.
          4    1    3    3  502    0 -0.16353573250E+03 -0.42860993306E+03  0.88960577215E+02  0.46729476225E+03  0.00000000000E+00 0.  1.
</event>
<event>
 7    1  0.9434649E-006  0.1059182E+04  0.7818608E-02  0.9033209E-01
          2   -1    0    0  501    0  0.00000000000E+00  0.00000000000E+00  0.93766082800E+03  0.93766082800E+03  0.00000000000E+00 0.  1.
         -4   -1    0    0    0  501 -0.00000000000E+00 -0.00000000000E+00 -0.62677270099E+03  0.62677270099E+03  0.00000000000E+00 0. -1.
   -9000010    2    1    2    0  502  0.62529805249E+02 -0.28573201944E+03  0.29551776034E+02  0.10606186908E+04  0.10190613016E+04 0.  0.
        -13    1    1    2    0    0 -0.42237324229E+02  0.28453189503E+03  0.76061787265E+02  0.29753621207E+03  0.10566000000E+00 0.  1.
         13    1    3    3    0    0 -0.51713868678E+02 -0.44642264277E+03 -0.39128950703E+03  0.59588169100E+03  0.10566000000E+00 0. -1.
          2    1    1    2  502    0 -0.20292481020E+02  0.12001244097E+01  0.20527456372E+03  0.20627862612E+03  0.00000000000E+00 0.  1.
         -4    1    3    3    0  502  0.11424367393E+03  0.16069062333E+03  0.42084128306E+03  0.46473699981E+03  0.00000000000E+00 0. -1.
</event>
<event>
 7    1  0.9434649E-006  0.1186229E+04  0.7818608E-02  0.9127861E-01
          2   -1    0    0  502    0  0.00000000000E+00  0.00000000000E+00  0.22119520700E+04  0.22119520700E+04  0.00000000000E+00 0. -1.
          4   -1    0    0  501    0 -0.00000000000E+00 -0.00000000000E+00 -0.14865564257E+04  0.14865564257E+04  0.00000000000E+00 0.  1.
    9000010    2    1    2  502    0 -0.51913056569E+03  0.35775645816E+01 -0.43563926258E+03  0.12090145566E+04  0.10012119095E+04 0.  0.
        -13    1    3    3    0    0 -0.79246134502E+03  0.16608802284E+03 -0.32099949906E+03  0.87098846390E+03  0.10566000000E+00 0.  1.
         13    1    1    2    0    0 -0.12084009492E+03  0.72855334269E+02 -0.59887707336E+03  0.61527553862E+03  0.10566000000E+00 0. -1.
          2    1    1    2  501    0  0.63997066061E+03 -0.76432898850E+02  0.17599119802E+04  0.18742184005E+04  0.00000000000E+00 0. -1.
          4    1    3    3  502    0  0.27333077933E+03 -0.16251045826E+03 -0.11463976352E+03  0.33802609271E+03  0.00000000000E+00 0.  1.
</event>
<event>
 7    1  0.9434649E-006  0.1119222E+04  0.7818608E-02  0.8846502E-01
          2   -1    0    0  501    0  0.00000000000E+00  0.00000000000E+00  0.13787767600E+04  0.13787767600E+04  0.00000000000E+00 0. -1.
         -4   -1    0    0    0  501 -0.00000000000E+00 -0.00000000000E+00 -0.22335633680E+04  0.22335633680E+04  0.00000000000E+00 0. -1.
   -9000010    2    1    2    0  502  0.56077561911E+03 -0.15904161814E+03 -0.14605618648E+04  0.18570200652E+04  0.98768366914E+03 0.  0.
        -13    1    1    2    0    0 -0.49220548729E+03  0.71319978203E+02 -0.46375148670E+03  0.68001340692E+03  0.10566000000E+00 0.  1.
         13    1    3    3    0    0  0.50949641875E+03 -0.50746626641E+03 -0.12625927746E+04  0.14530138120E+04  0.10566000000E+00 0. -1.
          2    1    1    2  502    0 -0.68570131819E+02  0.87721639936E+02  0.10695267435E+04  0.10753066559E+04  0.00000000000E+00 0. -1.
         -4    1    3    3    0  502  0.51279200367E+02  0.34842464827E+03 -0.19796909017E+03  0.40400625314E+03  0.00000000000E+00 0. -1.
</event>
<event>
 7    1  0.9434649E-006  0.1152907E+04  0.7818608E-02  0.8810702E-01
          4   -1    0    0  501    0  0.00000000000E+00  0.00000000000E+00  0.10688279587E+04  0.10688279587E+04  0.00000000000E+00 0.  1.
         -4   -1    0    0    0  501 -0.00000000000E+00 -0.00000000000E+00 -0.17538166985E+04  0.17538166985E+04  0.00000000000E+00 0. -1.
   -9000010    2    1    2    0  502  0.27988684919E+03 -0.48110733592E+03 -0.26912516456E+02  0.11516173137E+04  0.10078180573E+04 0.  0.
        -13    1    1    2    0    0 -0.25355437941E+03  0.49976226061E+03 -0.10965053045E+04  0.12314122114E+04  0.10566000000E+00 0.  1.
         13    1    3    3    0    0  0.20364719039E+03  0.22790582161E+03 -0.26013019823E+03  0.40134894154E+03  0.10566000000E+00 0. -1.
          4    1    1    2  502    0 -0.26332469773E+02 -0.18654924686E+02  0.43842908113E+03  0.43961513209E+03  0.00000000000E+00 0.  1.
         -4    1    3    3    0  502  0.76239658797E+02 -0.70901315753E+03  0.23321768178E+03  0.75026837213E+03  0.00000000000E+00 0. -1.
</event>
<event>
 7    1  0.9434649E-006  0.1052765E+04  0.7818608E-02  0.8991128E-01
         -4   -1    0    0    0  501 -0.00000000000E+00  0.00000000000E+00  0.13718197285E+04  0.13718197285E+04  0.00000000000E+00 0. -1.
          2   -1    0    0  501    0  0.00000000000E+00 -0.00000000000E+00 -0.80954110889E+03  0.80954110889E+03  0.00000000000E+00 0. -1.
   -9000010    2    1    2    0  502 -0.29275132177E+03 -0.17636277331E+03  0.11759301979E+03  0.10571202611E+04  0.99341228294E+03 0.  0.
        -13    1    1    2    0    0  0.30311013143E+03  0.17310129874E+03  0.74553121197E+03  0.82319901031E+03  0.10566000000E+00 0.  1.
         13    1    3    3    0    0  0.27980988313E+03 -0.26869605243E+03  0.25095282445E+03  0.46202648253E+03  0.10566000000E+00 0. -1.
          2    1    1    2  502    0 -0.10358809655E+02  0.32614745684E+01 -0.30084561210E+03  0.30104156602E+03  0.00000000000E+00 0. -1.
         -4    1    3    3    0  502 -0.57256120490E+03  0.92333279126E+02 -0.13335980466E+03  0.59509377857E+03  0.00000000000E+00 0. -1.
</event>
<event>
 7    1  0.9434649E-006  0.1200581E+04  0.7818608E-02  0.8743018E-01
          4   -1    0    0  501    0 -0.00000000000E+00  0.00000000000E+00  0.79970478266E+03  0.79970478266E+03  0.00000000000E+00 0.  1.
          2   -1    0    0  502    0  0.00000000000E+00 -0.00000000000E+00 -0.24038305717E+04  0.24038305717E+04  0.00000000000E+00 0.  1.
    9000010    2    1    2  502    0  0.27872780221E+02 -0.53539695768E+03 -0.40272719974E+03  0.12056868906E+04  0.10020303821E+04 0.  0.
        -13    1    3    3    0    0 -0.31183002753E+03 -0.45096073559E+03  0.13445794681E+03  0.56451970890E+03  0.10566000000E+00 0.  1.
         13    1    1    2    0    0  0.30374496672E+03  0.67375569959E+03  0.49992045375E+01  0.73907560557E+03  0.10566000000E+00 0. -1.
          2    1    1    2  501    0 -0.33161774694E+03 -0.13835874191E+03 -0.12063977938E+04  0.12587728582E+04  0.00000000000E+00 0.  1.
          4    1    3    3  502    0  0.33970280775E+03 -0.84436222086E+02 -0.53718514655E+03  0.64116718168E+03  0.00000000000E+00 0.  1.
</event>
<event>
 7    1  0.9434649E-006  0.1054993E+04  0.7818608E-02  0.8977024E-01
         -4   -1    0    0    0  501 -0.00000000000E+00  0.00000000000E+00  0.18370070909E+04  0.18370070909E+04  0.00000000000E+00 0. -1.
          2   -1    0    0  501    0  0.00000000000E+00 -0.00000000000E+00 -0.48669757058E+03  0.48669757058E+03  0.00000000000E+00 0. -1.
   -9000010    2    1    2    0  502 -0.12329963647E+03 -0.11361377287E+03  0.61574958859E+03  0.11939401057E+04  0.10090760776E+04 0.  0.
        -13    1    1    2    0    0 -0.31807548975E+03  0.18248132853E+03  0.15522935502E+03  0.39820549502E+03  0.10566000000E+00 0.  1.
         13    1    3    3    0    0 -0.37135156286E+03 -0.46017007142E+03  0.41782123761E+03  0.72403941580E+03  0.10566000000E+00 0. -1.
          2    1    1    2  502    0  0.44137512622E+03 -0.68867555657E+02  0.57933057671E+03  0.73155906075E+03  0.00000000000E+00 0. -1.
         -4    1    3    3    0  502  0.24805192639E+03  0.34655629854E+03  0.19792835097E+03  0.46990068990E+03  0.00000000000E+00 0. -1.
</event>
<event>
 6    1  0.9434649E-006  0.6471652E+03  0.7818608E-02  0.9203361E-01
         -2   -1    0    0    0  501  0.00000000000E+00  0.00000000000E+00  0.42037231638E+03  0.42037231638E+03  0.00000000000E+00 0. -1.
         -4   -1    0    0    0  502 -0.00000000000E+00 -0.00000000000E+00 -0.11575526485E+04  0.11575526485E+04  0.00000000000E+00 0. -1.
        -13    1    1    2    0    0 -0.11128116330E+03 -0.13900399890E+03 -0.37963455389E+03  0.41931851222E+03  0.10566000000E+00 0.  1.
         13    1    1    2    0    0  0.18912225461E+03  0.25613613117E+03 -0.36567281590E+03  0.48486035549E+03  0.10566000000E+00 0. -1.
         -2    1    1    2    0  502  0.36278124573E+02 -0.73062064506E+02  0.32447337417E+03  0.33457007956E+03  0.00000000000E+00 0. -1.
         -4    1    1    2    0  501 -0.11411921588E+03 -0.44070067761E+02 -0.31634633645E+03  0.33917601756E+03  0.00000000000E+00 0. -1.
</event>
<event>
 7    1  0.9434649E-006  0.1012768E+04  0.7818608E-02  0.9080951E-01
         -4   -1    0    0    0  501 -0.00000000000E+00  0.00000000000E+00  0.26684811638E+03  0.26684811638E+03  0.00000000000E+00 0. -1.
          2   -1    0    0  501    0  0.00000000000E+00 -0.00000000000E+00 -0.27658289345E+04  0.27658289345E+04  0.00000000000E+00 0. -1.
   -9000010    2    1    2    0  502  0.23548906075E+03 -0.13618773836E+03 -0.21059400474E+04  0.23367031520E+04  0.97529274551E+03 0.  0.
        -13    1    1    2    0    0 -0.24173876889E+03  0.12688146485E+03  0.28306677453E+02  0.27447735363E+03  0.10566000000E+00 0.  1.
         13    1    3    3    0    0 -0.36353113730E+03 -0.29012046943E+01 -0.50555298374E+03  0.62269345211E+03  0.10566000000E+00 0. -1.
          2    1    1    2  502    0  0.62497081346E+01  0.93062735176E+01 -0.42134744823E+03  0.42149654531E+03  0.00000000000E+00 0. -1.
         -4    1    3    3    0  502  0.59902019805E+03 -0.13328653367E+03 -0.16003870636E+04  0.17140096999E+04  0.00000000000E+00 0. -1.
</event>
<event>
 6    1  0.9434649E-006  0.5125989E+03  0.7818608E-02  0.9450777E-01
          4   -1    0    0  501    0 -0.00000000000E+00  0.00000000000E+00  0.15177322073E+04  0.15177322073E+04  0.00000000000E+00 0.  1.
          2   -1    0    0  502    0  0.00000000000E+00 -0.00000000000E+00 -0.19927092998E+03  0.19927092998E+03  0.00000000000E+00 0.  1.
        -13    1    1    2    0    0  0.30482084481E+02 -0.16279703724E+03  0.99729261201E+03  0.10109523223E+04  0.10566000000E+00 0.  1.
         13    1    1    2    0    0  0.70474454988E+02 -0.11877516748E+02  0.82778930081E+02  0.10936218103E+03  0.10566000000E+00 0. -1.
          2    1    1    2  501    0 -0.10223937554E+02  0.20230485424E+00 -0.15581726093E+03  0.15615245317E+03  0.00000000000E+00 0.  1.
          4    1    1    2  502    0 -0.90732601915E+02  0.17447224914E+03  0.39420699614E+03  0.44053618078E+03  0.00000000000E+00 0.  1.
</event>
<event>
 6    1  0.9434649E-006  0.8105868E+02  0.7818608E-02  0.1200375E+00
         -4   -1    0    0    0  501 -0.00000000000E+00  0.00000000000E+00  0.24666603720E+03  0.24666603720E+03  0.00000000000E+00 0. -1.
          2   -1    0    0  501    0  0.00000000000E+00 -0.00000000000E+00 -0.12799133328E+02  0.12799133328E+02  0.00000000000E+00 0. -1.
        -13    1    1    2    0    0 -0.21571785041E+02 -0.35512029288E+01  0.44704721945E+02  0.49764206819E+02  0.10566000000E+00 0.  1.
         13    1    1    2    0    0  0.15991722435E+02  0.30481103780E+02  0.16314097442E+03  0.16673278494E+03  0.10566000000E+00 0. -1.
          2    1    1    2  502    0  0.12676308633E+01 -0.10305450271E+02 -0.15370156262E+01  0.10496266495E+02  0.00000000000E+00 0. -1.
         -4    1    1    2    0  502  0.43124317429E+01 -0.16624450581E+02  0.27558223135E+02  0.32471912278E+02  0.00000000000E+00 0. -1.
</event>
<event>
 7    1  0.9434649E-006  0.9893659E+03  0.7818608E-02  0.9502078E-01
          4   -1    0    0  501    0 -0.00000000000E+00  0.00000000000E+00  0.21512366601E+03  0.21512366601E+03  0.00000000000E+00 0.  1.
          2   -1    0    0  502    0  0.00000000000E+00 -0.00000000000E+00 -0.17935720573E+04  0.17935720573E+04  0.00000000000E+00 0.  1.
    9000010    2    1    2  502    0 -0.28747237815E+02 -0.11463086770E+03 -0.14180060429E+04  0.17315316726E+04  0.98665807452E+03 0.  0.
        -13    1    3    3    0    0 -0.34437215369E+03 -0.41248366195E+03 -0.96286208377E+03  0.11026506043E+04  0.10566000000E+00 0.  1.
         13    1    1    2    0    0 -0.14337681721E+02  0.57349056538E+02  0.35203054690E+02  0.68802250155E+02  0.10566000000E+00 0. -1.
          2    1    1    2  501    0  0.43084919536E+02  0.57281811167E+02 -0.19564540308E+03  0.20836180055E+03  0.00000000000E+00 0.  1.
          4    1    3    3  502    0  0.31562491588E+03  0.29785279424E+03 -0.45514395918E+03  0.62888106836E+03  0.00000000000E+00 0.  1.
</event>
<event>
 7    1  0.9434649E-006  0.9825579E+03  0.7818608E-02  0.9056327E-01
          2   -1    0    0  501    0  0.00000000000E+00  0.00000000000E+00  0.25703369373E+04  0.25703369373E+04  0.00000000000E+00 0. -1.
         -4   -1    0    0    0  501 -0.00000000000E+00 -0.00000000000E+00 -0.30445149655E+03  0.30445149655E+03  0.00000000000E+00 0. -1.
   -9000010    2    1    2    0  502  0.27121572614E+02 -0.34093455821E+03  0.14881840833E+04  0.17855986685E+04  0.92558024314E+03 0.  0.
        -13    1    1    2    0    0 -0.90785423950E+01  0.32834649821E+03  0.17783007320E+02  0.32895301995E+03  0.10566000000E+00 0.  1.
         13    1    3    3    0    0 -0.25779808989E+03  0.66670173144E+01  0.29885514314E+02  0.25961020666E+03  0.10566000000E+00 0. -1.
          2    1    1    2  502    0 -0.18043030219E+02  0.12588060001E+02  0.75991835016E+03  0.76023674543E+03  0.00000000000E+00 0. -1.
         -4    1    3    3    0  502  0.28491966251E+03 -0.34760157552E+03  0.14582985689E+04  0.15259884618E+04  0.00000000000E+00 0. -1.
</event>
<event>
 6    1  0.9434649E-006  0.5896124E+03  0.7818608E-02  0.9300623E-01
         -4   -1    0    0    0  501 -0.00000000000E+00  0.00000000000E+00  0.32318482000E+03  0.32318482000E+03  0.00000000000E+00 0. -1.
          2   -1    0    0  501    0  0.00000000000E+00 -0.00000000000E+00 -0.58128792990E+03  0.58128792990E+03  0.00000000000E+00 0. -1.
        -13    1    1    2    0    0  0.42936222379E+02 -0.19300803055E+02  0.10357734497E+03  0.11377309764E+03  0.10566000000E+00 0.  1.
         13    1    1    2    0    0 -0.33243327803E+02  0.17566802727E+02  0.21095085625E+03  0.21427549164E+03  0.10566000000E+00 0. -1.
          2    1    1    2  502    0  0.18603624692E+02  0.23033328196E+02 -0.31107932096E+03  0.31248515642E+03  0.00000000000E+00 0. -1.
         -4    1    1    2    0  502 -0.28296519268E+02 -0.21299327867E+02 -0.26155199017E+03  0.26393900419E+03  0.00000000000E+00 0. -1.
</event>
<event>
 7    1  0.9434649E-006  0.1012503E+04  0.7818608E-02  0.9330370E-01
         -4   -1    0    0    0  501 -0.00000000000E+00  0.00000000000E+00  0.21710053525E+03  0.21710053525E+03  0.00000000000E+00 0. -1.
          2   -1    0    0  501    0  0.00000000000E+00 -0.00000000000E+00 -0.31233715938E+04  0.31233715938E+04  0.00000000000E+00 0. -1.
   -9000010    2    1    2    0  502  0.88563036416E+02  0.73440053367E+02 -0.20846287359E+04  0.23180267848E+04  0.10071416761E+04 0.  0.
        -13    1    1    2    0    0 -0.10401545424E+03 -0.61476238430E+01  0.71671899360E+02  0.12646691394E+03  0.10566000000E+00 0.  1.
         13    1    3    3    0    0 -0.10051535700E+03 -0.28952318048E+03 -0.15117312861E+03  0.34173137843E+03  0.10566000000E+00 0. -1.
          2    1    1    2  502    0  0.15452417824E+02 -0.67292429524E+02 -0.89331422203E+03  0.89597843031E+03  0.00000000000E+00 0. -1.
         -4    1    3    3    0  502  0.18907839342E+03  0.36296323385E+03 -0.19334556073E+04  0.19762954064E+04  0.00000000000E+00 0. -1.
</event>
<event>
 7    1  0.9434649E-006  0.1030012E+04  0.7818608E-02  0.9071774E-01
          1   -1    0    0  501    0  0.00000000000E+00  0.00000000000E+00  0.87564480640E+03  0.87564480640E+03  0.00000000000E+00 0. -1.
         -4   -1    0    0    0  501 -0.00000000000E+00 -0.00000000000E+00 -0.21903184262E+04  0.21903184262E+04  0.00000000000E+00 0. -1.
   -9000010    2    1    2    0  502  0.11972177207E+03 -0.23174000676E+03 -0.15281930139E+04  0.18417136398E+04  0.99423262361E+03 0.  0.
        -13    1    1    2    0    0 -0.23568124394E+03  0.14841965118E+03 -0.45891534236E+03  0.53682151989E+03  0.10566000000E+00 0.  1.
         13    1    3    3    0    0  0.14697195138E+03  0.14587440927E+03  0.54696715900E+02  0.21417712219E+03  0.10566000000E+00 0. -1.
          1    1    1    2  502    0  0.11595947187E+03  0.83320355582E+02  0.67243473641E+03  0.68742807296E+03  0.00000000000E+00 0. -1.
         -4    1    3    3    0  502 -0.27250179313E+02 -0.37761441603E+03 -0.15828897298E+04  0.16275365176E+04  0.00000000000E+00 0. -1.
</event>
<event>
 7    1  0.9434649E-006  0.1112003E+04  0.7818608E-02  0.8923306E-01
         -4   -1    0    0    0  501 -0.00000000000E+00  0.00000000000E+00  0.29761989328E+04  0.29761989328E+04  0.00000000000E+00 0. -1.
          4   -1    0    0  501    0  0.00000000000E+00 -0.00000000000E+00 -0.97215252509E+03  0.97215252509E+03  0.00000000000E+00 0.  1.
   -9000010    2    1    2    0  502 -0.37984083736E+03  0.10608773265E+03  0.27436349937E+04  0.29609804674E+04  0.10413158413E+04 0.  0.
        -13    1    1    2    0    0  0.37423459314E+03  0.15445539383E+02 -0.77491141016E+03  0.86068449513E+03  0.10566000000E+00 0.  1.
         13    1    3    3    0    0 -0.13135788275E+03 -0.46867041491E+03  0.11521765940E+04  0.12507668712E+04  0.10566000000E+00 0. -1.
          4    1    1    2  502    0  0.56062442177E+01 -0.12153327203E+03  0.35322824208E+02  0.12668649532E+03  0.00000000000E+00 0.  1.
         -4    1    3    3    0  502 -0.24848295462E+03  0.57475814756E+03  0.15914583996E+04  0.17102135962E+04  0.00000000000E+00 0. -1.
</event>
<event>
 6    1  0.9434649E-006  0.8821302E+02  0.7818608E-02  0.1185684E+00
          2   -1    0    0  502    0  0.00000000000E+00  0.00000000000E+00  0.13342001564E+04  0.13342001564E+04  0.00000000000E+00 0.  1.
          4   -1    0    0  501    0 -0.00000000000E+00 -0.00000000000E+00 -0.18969321783E+02  0.18969321783E+02  0.00000000000E+00 0.  1.
        -13    1    1    2    0    0 -0.21233305334E+02  0.13916112861E+02  0.26549786989E+02  0.36734368183E+02  0.10566000000E+00 0.  1.
         13    1    1    2    0    0  0.26701265345E+02 -0.20066694075E+02  0.17543449013E+02  0.37728153273E+02  0.10566000000E+00 0. -1.
          2    1    1    2  501    0 -0.11818355443E+02 -0.18461422040E+02  0.12310181032E+04  0.12312132504E+04  0.00000000000E+00 0.  1.
          4    1    1    2  502    0  0.63503954328E+01  0.24612003254E+02  0.40119495475E+02  0.47493706357E+02  0.00000000000E+00 0.  1.
</event>
<event>
 7    1  0.9434649E-006  0.1092056E+04  0.7818608E-02  0.8909029E-01
         -4   -1    0    0    0  501 -0.00000000000E+00  0.00000000000E+00  0.11680468372E+04  0.11680468372E+04  0.00000000000E+00 0. -1.
          2   -1    0    0  501    0  0.00000000000E+00 -0.00000000000E+00 -0.14517999163E+04  0.14517999163E+04  0.00000000000E+00 0. -1.
   -9000010    2    1    2    0  502  0.20709877535E+02  0.19931999616E+03  0.38450575714E+03  0.10907362100E+04  0.10008513589E+04 0.  0.
        -13    1    1    2    0    0 -0.11585628409E+03 -0.57356646521E+03  0.16733357977E+03  0.60860636430E+03  0.10566000000E+00 0.  1.
         13    1    3    3    0    0 -0.52090855430E+02  0.45198902469E+03  0.59843765736E+03  0.75175473166E+03  0.10566000000E+00 0. -1.
          2    1    1    2  502    0  0.95146406559E+02  0.37424646905E+03 -0.83559241602E+03  0.92050417924E+03  0.00000000000E+00 0. -1.
         -4    1    3    3    0  502  0.72800732965E+02 -0.25266902853E+03 -0.21393190021E+03  0.33898147830E+03  0.00000000000E+00 0. -1.
</event>
<event>
 7    1  0.9434649E-006  0.1005903E+04  0.7818608E-02  0.9184052E-01
         -4   -1    0    0    0  501 -0.00000000000E+00  0.00000000000E+00  0.56548184332E+03  0.56548184332E+03  0.00000000000E+00 0. -1.
          2   -1    0    0  501    0  0.00000000000E+00 -0.00000000000E+00 -0.10962093828E+04  0.10962093828E+04  0.00000000000E+00 0. -1.
   -9000010    2    1    2    0  502 -0.34851266798E+02  0.17173249674E+03  0.18964389737E+02  0.10041939885E+04  0.98860470220E+03 0.  0.
        -13    1    1    2    0    0  0.42033865643E+02 -0.18459140692E+03 -0.11283459212E+03  0.22039167342E+03  0.10566000000E+00 0.  1.
         13    1    3    3    0    0  0.44008463925E+03  0.25862626005E+03  0.82965282887E+02  0.51715112048E+03  0.10566000000E+00 0. -1.
          2    1    1    2  502    0 -0.71825988447E+01  0.12858910185E+02 -0.43685733713E+03  0.43710556425E+03  0.00000000000E+00 0. -1.
         -4    1    3    3    0  502 -0.47493590604E+03 -0.86893763314E+02 -0.64000893150E+02  0.48704286801E+03  0.00000000000E+00 0. -1.
</event>
<event>
 7    1  0.9434649E-006  0.1026833E+04  0.7818608E-02  0.9119201E-01
          2   -1    0    0  502    0  0.00000000000E+00  0.00000000000E+00  0.73343137376E+03  0.73343137376E+03  0.00000000000E+00 0.  1.
          4   -1    0    0  501    0 -0.00000000000E+00 -0.00000000000E+00 -0.28360855740E+04  0.28360855740E+04  0.00000000000E+00 0.  1.
    9000010    2    1    2  502    0 -0.18663803536E+03  0.80737752449E+02 -0.16594403252E+04  0.19490549144E+04  0.10018585356E+04 0.  0.
        -13    1    3    3    0    0 -0.11471140987E+03 -0.37615664142E+03 -0.13145178709E+04  0.13720822754E+04  0.10566000000E+00 0.  1.
         13    1    1    2    0    0  0.17652500826E+03 -0.14365710663E+03 -0.10175039577E+04  0.10426469958E+04  0.10566000000E+00 0. -1.
          2    1    1    2  501    0  0.10113027097E+02  0.62919354176E+02  0.57429008272E+03  0.57781503750E+03  0.00000000000E+00 0.  1.
          4    1    3    3  502    0 -0.71926625496E+02  0.45689439387E+03 -0.34492245432E+03  0.57697263895E+03  0.00000000000E+00 0.  1.
</event>
<event>
 7    1  0.9434649E-006  0.1226820E+04  0.7818608E-02  0.8852368E-01
          2   -1    0    0  502    0  0.00000000000E+00  0.00000000000E+00  0.27383363329E+04  0.27383363329E+04  0.00000000000E+00 0. -1.
          4   -1    0    0  501    0 -0.00000000000E+00 -0.00000000000E+00 -0.19033823631E+04  0.19033823631E+04  0.00000000000E+00 0.  1.
    9000010    2    1    2  502    0  0.63874207603E+03 -0.86950845035E+02 -0.38834808576E+03  0.12395901450E+04  0.98499624506E+03 0.  0.
        -13    1    3    3    0    0 -0.91041322127E+02  0.27595695636E+03  0.77592900879E+02  0.30076807265E+03  0.10566000000E+00 0.  1.
         13    1    1    2    0    0  0.42380266972E+02  0.38771221274E+03 -0.99153663492E+03  0.10654866290E+04  0.10566000000E+00 0. -1.
          2    1    1    2  501    0 -0.68112234301E+03 -0.30076136771E+03  0.22148386905E+04  0.23366419220E+04  0.00000000000E+00 0. -1.
          4    1    3    3  502    0  0.72978339816E+03 -0.36290780139E+03 -0.46594098664E+03  0.93882207237E+03  0.00000000000E+00 0.  1.
</event>
<event>
 7    1  0.9434649E-006  0.9775767E+03  0.7818608E-02  0.9085440E-01
          1   -1    0    0  501    0  0.00000000000E+00  0.00000000000E+00  0.40918639104E+03  0.40918639104E+03  0.00000000000E+00 0.  1.
         -4   -1    0    0    0  501 -0.00000000000E+00 -0.00000000000E+00 -0.26711431316E+04  0.26711431316E+04  0.00000000000E+00 0. -1.
   -9000010    2    1    2    0  502  0.18336142523E+03  0.35167046971E+03 -0.17250542438E+04  0.19756249930E+04  0.87748985014E+03 0.  0.
        -13    1    1    2    0    0 -0.28712924384E+03  0.80268682088E+02 -0.58628860302E+03  0.65773900689E+03  0.10566000000E+00 0.  1.
         13    1    3    3    0    0 -0.28860206973E+03 -0.95257647740E+02 -0.42941889712E+03  0.52608533003E+03  0.10566000000E+00 0. -1.
          1    1    1    2  502    0  0.10376781861E+03 -0.43193915180E+03  0.49386106327E+02  0.44696552276E+03  0.00000000000E+00 0.  1.
         -4    1    3    3    0  502  0.47196349496E+03  0.44692811745E+03 -0.12956353467E+04  0.14495396629E+04  0.00000000000E+00 0. -1.
</event>
<event>
 7    1  0.9434649E-006  0.1041840E+04  0.7818608E-02  0.9061814E-01
         -4   -1    0    0    0  501 -0.00000000000E+00  0.00000000000E+00  0.48097401885E+03  0.48097401885E+03  0.00000000000E+00 0. -1.
          1   -1    0    0  501    0  0.00000000000E+00 -0.00000000000E+00 -0.19172245301E+04  0.19172245301E+04  0.00000000000E+00 0. -1.
   -9000010    2    1    2    0  502 -0.82385622435E+02 -0.21480112146E+01 -0.44472186504E+03  0.10998003025E+04  0.10024924755E+04 0.  0.
        -13    1    1    2    0    0 -0.54757585873E+02 -0.26499329281E+03 -0.87136459795E+01  0.27073192873E+03  0.10566000000E+00 0.  1.
         13    1    3    3    0    0  0.35420074752E+03 -0.22727196888E+02  0.12980372462E+03  0.37792024703E+03  0.10566000000E+00 0. -1.
          1    1    1    2  502    0  0.13714320831E+03  0.26714130402E+03 -0.98281500026E+03  0.10276663177E+04  0.00000000000E+00 0. -1.
         -4    1    3    3    0  502 -0.43658636996E+03  0.20579185673E+02 -0.57452558966E+03  0.72188005548E+03  0.00000000000E+00 0. -1.
</event>
<event>
 7    1  0.9434649E-006  0.1020585E+04  0.7818608E-02  0.9072178E-01
         -4   -1    0    0    0  501 -0.00000000000E+00  0.00000000000E+00  0.10131671671E+04  0.10131671671E+04  0.00000000000E+00 0. -1.
          5   -1    0    0  501    0  0.00000000000E+00 -0.00000000000E+00 -0.53209420677E+03  0.53209420677E+03  0.00000000000E+00 0.  1.
   -9000010    2    1    2    0  502  0.27082356632E+03  0.14209149655E+03  0.17391406855E+03  0.10435936630E+04  0.98249999123E+03 0.  0.
        -13    1    1    2    0    0 -0.22292857851E+03 -0.15255820814E+03  0.98822076714E+02  0.28764035183E+03  0.10566000000E+00 0.  1.
         13    1    3    3    0    0 -0.21987658003E+03  0.41277578113E+03  0.10094808347E+03  0.47845593596E+03  0.10566000000E+00 0. -1.
          5    1    1    2  502    0 -0.47894987808E+02  0.10466711588E+02  0.20833681509E+03  0.21402735907E+03  0.00000000000E+00 0.  1.
         -4    1    3    3    0  502  0.49070014636E+03 -0.27068428458E+03  0.72965985080E+02  0.56513772705E+03  0.00000000000E+00 0. -1.
</event>
<event>
 7    1  0.9434649E-006  0.1030030E+04  0.7818608E-02  0.9114212E-01
          2   -1    0    0  502    0  0.00000000000E+00  0.00000000000E+00  0.31917244241E+03  0.31917244241E+03  0.00000000000E+00 0.  1.
          4   -1    0    0  501    0 -0.00000000000E+00 -0.00000000000E+00 -0.23520308384E+04  0.23520308384E+04  0.00000000000E+00 0.  1.
    9000010    2    1    2  502    0 -0.19197681207E+03  0.94304651426E+02 -0.13936349955E+04  0.17312435174E+04  0.10046079595E+04 0.  0.
        -13    1    3    3    0    0 -0.30445338318E+03  0.50911679244E+03 -0.88378978556E+03  0.10644135320E+04  0.10566000000E+00 0.  1.
         13    1    1    2    0    0  0.15988684488E+03 -0.16528137513E+03 -0.76123101672E+03  0.79520714793E+03  0.10566000000E+00 0. -1.
          2    1    1    2  501    0  0.32089967193E+02  0.70976723703E+02  0.12200761615E+03  0.14475261552E+03  0.00000000000E+00 0.  1.
          4    1    3    3  502    0  0.11247657110E+03 -0.41481214102E+03 -0.50984520989E+03  0.66682998540E+03  0.00000000000E+00 0.  1.
</event>
<event>
 7    1  0.9434649E-006  0.8322115E+03  0.7818608E-02  0.9388798E-01
         -4   -1    0    0    0  501 -0.00000000000E+00  0.00000000000E+00  0.18360647521E+03  0.18360647521E+03  0.00000000000E+00 0. -1.
          2   -1    0    0  501    0  0.00000000000E+00 -0.00000000000E+00 -0.29840899641E+04  0.29840899641E+04  0.00000000000E+00 0.  1.
   -9000010    2    1    2    0  502 -0.36977310776E+02  0.17452883908E+03 -0.13855252217E+04  0.16190740380E+04  0.81846989156E+03 0.  0.
        -13    1    1    2    0    0 -0.30958467634E+01 -0.14926971567E+03 -0.17457471328E+02  0.15031901660E+03  0.10566000000E+00 0.  1.
         13    1    3    3    0    0  0.37511115112E+02  0.33144982063E+03 -0.14052111338E+04  0.14442591211E+04  0.10566000000E+00 0. -1.
          2    1    1    2  502    0  0.40073157540E+02 -0.25259123411E+02 -0.13975007958E+04  0.13983033846E+04  0.00000000000E+00 0.  1.
         -4    1    3    3    0  502 -0.74488425888E+02 -0.15692098155E+03  0.19685912024E+02  0.17481491691E+03  0.00000000000E+00 0. -1.
</event>
<event>
 7    1  0.9434649E-006  0.1510422E+04  0.7818608E-02  0.8831777E-01
          2   -1    0    0  502    0  0.00000000000E+00  0.00000000000E+00  0.16221119216E+04  0.16221119216E+04  0.00000000000E+00 0.  1.
          4   -1    0    0  501    0 -0.00000000000E+00 -0.00000000000E+00 -0.18234040643E+04  0.18234040643E+04  0.00000000000E+00 0.  1.
    9000010    2    1    2  502    0  0.11869957530E+03 -0.95828782790E+03 -0.74934624841E+03  0.15766811295E+04  0.99599118168E+03 0.  0.
        -13    1    3    3    0    0  0.26788698624E+03  0.82476093150E+01 -0.50017584139E+03  0.56745690931E+03  0.10566000000E+00 0.  1.
         13    1    1    2    0    0  0.11230619811E+03 -0.19824386592E+03 -0.32822167458E+03  0.39955323968E+03  0.10566000000E+00 0. -1.
          2    1    1    2  501    0 -0.23100577341E+03  0.11565316938E+04  0.87627578020E+03  0.14692816167E+04  0.00000000000E+00 0.  1.
          4    1    3    3  502    0 -0.14918741094E+03 -0.96653543721E+03 -0.24917040702E+03  0.10092242202E+04  0.00000000000E+00 0.  1.
</event>
<event>
 7    1  0.9434649E-006  0.9875581E+03  0.7818608E-02  0.9464945E-01
          4   -1    0    0  501    0 -0.00000000000E+00  0.00000000000E+00  0.10809189378E+04  0.10809189378E+04  0.00000000000E+00 0.  1.
          2   -1    0    0  502    0  0.00000000000E+00 -0.00000000000E+00 -0.87124922986E+03  0.87124922986E+03  0.00000000000E+00 0.  1.
    9000010    2    1    2  502    0  0.17943734385E+02  0.68515505661E+02  0.31849878694E+03  0.10378328808E+04  0.98521026130E+03 0.  0.
        -13    1    3    3    0    0 -0.51262974132E+02  0.19710684441E+03 -0.32194227447E+03  0.38095385532E+03  0.10566000000E+00 0.  1.
         13    1    1    2    0    0 -0.37062641932E+02 -0.57086913756E+02  0.39963197221E+03  0.40538658035E+03  0.10566000000E+00 0. -1.
          2    1    1    2  501    0  0.19118907547E+02 -0.11428591905E+02 -0.50846105120E+03  0.50894870658E+03  0.00000000000E+00 0.  1.
          4    1    3    3  502    0  0.69206708517E+02 -0.12859133875E+03  0.64044106141E+03  0.65687902543E+03  0.00000000000E+00 0.  1.
</event>
<event>
 7    1  0.9434649E-006  0.9682630E+03  0.7818608E-02  0.9300427E-01
          2   -1    0    0  502    0  0.00000000000E+00  0.00000000000E+00  0.59696398424E+03  0.59696398424E+03  0.00000000000E+00 0.  1.
          4   -1    0    0  501    0 -0.00000000000E+00 -0.00000000000E+00 -0.90666633385E+03  0.90666633385E+03  0.00000000000E+00 0.  1.
    9000010    2    1    2  502    0  0.12296241537E+03 -0.70663425984E+02 -0.37393941248E+03  0.10390987019E+04  0.95905284143E+03 0.  0.
        -13    1    3    3    0    0  0.29002671170E+03  0.13953762612E+03  0.21825785706E+03  0.38887368892E+03  0.10566000000E+00 0.  1.
         13    1    1    2    0    0 -0.12562720997E+03  0.43119167667E+02 -0.17723406828E+03  0.22147998697E+03  0.10566000000E+00 0. -1.
          2    1    1    2  501    0  0.26647945990E+01  0.27544258318E+02  0.24147113115E+03  0.24305162924E+03  0.00000000000E+00 0.  1.
          4    1    3    3  502    0 -0.16706429633E+03 -0.21020105210E+03 -0.59219726954E+03  0.65022501295E+03  0.00000000000E+00 0.  1.
</event>
<event>
 7    1  0.9434649E-006  0.1022197E+04  0.7818608E-02  0.9127181E-01
         -4   -1    0    0    0  501 -0.00000000000E+00  0.00000000000E+00  0.82181932231E+03  0.82181932231E+03  0.00000000000E+00 0. -1.
          4   -1    0    0  501    0  0.00000000000E+00 -0.00000000000E+00 -0.24175685203E+04  0.24175685203E+04  0.00000000000E+00 0.  1.
   -9000010    2    1    2    0  502  0.39305743748E+02 -0.82909581465E+02  0.33417478917E+03  0.10564515141E+04  0.99799702992E+03 0.  0.
        -13    1    1    2    0    0  0.18627897009E+03  0.28057386176E+03 -0.13452163385E+03  0.36265359193E+03  0.10566000000E+00 0.  1.
         13    1    3    3    0    0 -0.86370056700E+02 -0.16296581445E+03  0.66687312093E+03  0.69190853005E+03  0.10566000000E+00 0. -1.
          4    1    1    2  502    0 -0.22558471384E+03 -0.19766428030E+03 -0.17954023533E+04  0.18202827365E+04  0.00000000000E+00 0.  1.
         -4    1    3    3    0  502  0.12567580045E+03  0.80056232986E+02 -0.33269833176E+03  0.36454298404E+03  0.00000000000E+00 0. -1.
</event>
<event>
 7    1  0.9434649E-006  0.1022289E+04  0.7818608E-02  0.9173048E-01
         -4   -1    0    0    0  501 -0.00000000000E+00  0.00000000000E+00  0.42909853992E+03  0.42909853992E+03  0.00000000000E+00 0. -1.
          4   -1    0    0  501    0  0.00000000000E+00 -0.00000000000E+00 -0.21336055599E+04  0.21336055599E+04  0.00000000000E+00 0. -1.
   -9000010    2    1    2    0  502  0.90620140098E+02  0.22559429514E+03 -0.12167628970E+04  0.15970524030E+04  0.10054648849E+04 0.  0.
        -13    1    1    2    0    0 -0.73137345231E+02 -0.16801007949E+03  0.20232202599E+03  0.27296642915E+03  0.10566000000E+00 0.  1.
         13    1    3    3    0    0  0.13209468716E+03 -0.38793492835E+03 -0.38193378041E+03  0.56019276932E+03  0.10566000000E+00 0. -1.
          4    1    1    2  502    0 -0.17482794867E+02 -0.57584215652E+02 -0.69006614903E+03  0.69268526767E+03  0.00000000000E+00 0. -1.
         -4    1    3    3    0  502 -0.41474547061E+02  0.61352922350E+03 -0.83482911655E+03  0.10368596337E+04  0.00000000000E+00 0. -1.
</event>
<event>
 7    1  0.9434649E-006  0.1044396E+04  0.7818608E-02  0.8998256E-01
          2   -1    0    0  502    0  0.00000000000E+00  0.00000000000E+00  0.89165114369E+03  0.89165114369E+03  0.00000000000E+00 0.  1.
          4   -1    0    0  501    0 -0.00000000000E+00 -0.00000000000E+00 -0.27056865954E+04  0.27056865954E+04  0.00000000000E+00 0.  1.
    9000010    2    1    2  502    0 -0.29623178488E+03 -0.18950365155E+03 -0.23746270490E+04  0.25948078404E+04  0.98514425464E+03 0.  0.
        -13    1    3    3    0    0 -0.52259925202E+03  0.15844286611E+03 -0.18317319261E+04  0.19114015749E+04  0.10566000000E+00 0.  1.
         13    1    1    2    0    0  0.27511049946E+03  0.20201517361E+03 -0.88797625975E+02  0.35267683058E+03  0.10566000000E+00 0. -1.
          2    1    1    2  501    0  0.21121285419E+02 -0.12511522056E+02  0.64938922325E+03  0.64985306813E+03  0.00000000000E+00 0.  1.
          4    1    3    3  502    0  0.22636746714E+03 -0.34794651767E+03 -0.54289512287E+03  0.68340626554E+03  0.00000000000E+00 0.  1.
</event>
<event>
 7    1  0.9434649E-006  0.1022513E+04  0.7818608E-02  0.9105497E-01
          2   -1    0    0  502    0  0.00000000000E+00  0.00000000000E+00  0.24848363945E+04  0.24848363945E+04  0.00000000000E+00 0.  1.
          4   -1    0    0  501    0 -0.00000000000E+00 -0.00000000000E+00 -0.46344822010E+03  0.46344822010E+03  0.00000000000E+00 0.  1.
    9000010    2    1    2  502    0  0.25593421333E+03 -0.11289320144E+03  0.82561724659E+03  0.13219388524E+04  0.99379640527E+03 0.  0.
        -13    1    3    3    0    0  0.30203923718E+03 -0.21111956869E+03 -0.10645034111E+03  0.38357640617E+03  0.10566000000E+00 0.  1.
         13    1    1    2    0    0 -0.20943459878E+03  0.11363504164E+03 -0.14883186050E+03  0.28093897508E+03  0.10566000000E+00 0. -1.
          2    1    1    2  501    0 -0.46499614548E+02 -0.74184020408E+00  0.13446027883E+04  0.13454067871E+04  0.00000000000E+00 0.  1.
          4    1    3    3  502    0 -0.46105023852E+02  0.98226367253E+02  0.93206758770E+03  0.93836244623E+03  0.00000000000E+00 0.  1.
</event>
<event>
 7    1  0.9434649E-006  0.1045631E+04  0.7818608E-02  0.9046482E-01
          4   -1    0    0  502    0  0.00000000000E+00  0.00000000000E+00  0.11526467121E+04  0.11526467121E+04  0.00000000000E+00 0. -1.
          4   -1    0    0  501    0 -0.00000000000E+00 -0.00000000000E+00 -0.11167736452E+04  0.11167736452E+04  0.00000000000E+00 0.  1.
    9000010    2    1    2  502    0 -0.81089339563E+02  0.61749460498E+02 -0.42519928704E+03  0.10970617560E+04  0.10061618090E+04 0.  0.
        -13    1    3    3    0    0  0.18203761520E+03  0.31479321264E+03  0.16797073385E+03  0.40055790926E+03  0.10566000000E+00 0.  1.
         13    1    1    2    0    0  0.18799973051E+03 -0.27056672736E+03 -0.25641592396E+03  0.41749178417E+03  0.10566000000E+00 0. -1.
          4    1    1    2  501    0 -0.10691039095E+03  0.20881726686E+03  0.71748827788E+03  0.75486681708E+03  0.00000000000E+00 0. -1.
          4    1    3    3  502    0 -0.26312695476E+03 -0.25304375215E+03 -0.59317002089E+03  0.69650384673E+03  0.00000000000E+00 0.  1.
</event>
<event>
 7    1  0.9434649E-006  0.9998536E+03  0.7818608E-02  0.9366977E-01
          4   -1    0    0  501    0 -0.00000000000E+00  0.00000000000E+00  0.23967764468E+03  0.23967764468E+03  0.00000000000E+00 0.  1.
          2   -1    0    0  502    0  0.00000000000E+00 -0.00000000000E+00 -0.20806328442E+04  0.20806328442E+04  0.00000000000E+00 0.  1.
    9000010    2    1    2  502    0  0.12840303236E+03  0.53070793092E+01 -0.15646423846E+04  0.18588853481E+04  0.99540616924E+03 0.  0.
        -13    1    3    3    0    0  0.46900657939E+03  0.45942810662E+02 -0.32447848249E+03  0.57215750465E+03  0.10566000000E+00 0.  1.
         13    1    1    2    0    0 -0.93428288414E+02  0.75505335056E+01  0.67557514401E+02  0.11554170047E+03  0.10566000000E+00 0. -1.
          2    1    1    2  501    0 -0.34974743948E+02 -0.12857612815E+02 -0.34387032929E+03  0.34588344032E+03  0.00000000000E+00 0.  1.
          4    1    3    3  502    0 -0.34060354703E+03 -0.40635731352E+02 -0.12401639021E+04  0.12867278434E+04  0.00000000000E+00 0.  1.
</event>
<event>
 7    1  0.9434649E-006  0.1079251E+04  0.7818608E-02  0.8974806E-01
         -4   -1    0    0    0  501 -0.00000000000E+00  0.00000000000E+00  0.55701607882E+03  0.55701607882E+03  0.00000000000E+00 0. -1.
          2   -1    0    0  501    0  0.00000000000E+00 -0.00000000000E+00 -0.22611177775E+04  0.22611177775E+04  0.00000000000E+00 0.  1.
   -9000010    2    1    2    0  502  0.52949656356E+03  0.43828218832E+01 -0.42455713257E+03  0.12216844419E+04  0.10158141055E+04 0.  0.
        -13    1    1    2    0    0 -0.25238918304E+03 -0.23613899841E+03 -0.95587304342E+02  0.35860684629E+03  0.10566000000E+00 0.  1.
         13    1    3    3    0    0 -0.43303185636E+02 -0.11192139290E+03 -0.59964481479E+03  0.61153534578E+03  0.10566000000E+00 0. -1.
          2    1    1    2  502    0 -0.27710738052E+03  0.23175617653E+03 -0.11839572617E+04  0.12378425681E+04  0.00000000000E+00 0.  1.
         -4    1    3    3    0  502  0.57279974920E+03  0.11630421478E+03  0.17508768222E+03  0.61014909615E+03  0.00000000000E+00 0. -1.
</event>
<event>
 7    1  0.9434649E-006  0.1041844E+04  0.7818608E-02  0.9114585E-01
          2   -1    0    0  501    0  0.00000000000E+00  0.00000000000E+00  0.99065090791E+03  0.99065090791E+03  0.00000000000E+00 0. -1.
         -4   -1    0    0    0  501 -0.00000000000E+00 -0.00000000000E+00 -0.76738953035E+03  0.76738953035E+03  0.00000000000E+00 0. -1.
   -9000010    2    1    2    0  502  0.28551400337E+03  0.13658024573E+03 -0.13180061224E+03  0.10746251224E+04  0.10184671534E+04 0.  0.
        -13    1    1    2    0    0 -0.20876202137E+03  0.54537970829E+01 -0.76687205436E+02  0.22246856881E+03  0.10566000000E+00 0.  1.
         13    1    3    3    0    0  0.43113994395E+03  0.33680798326E+01  0.34912296680E+03  0.55477910229E+03  0.10566000000E+00 0. -1.
          2    1    1    2  502    0 -0.76751982006E+02 -0.14203404281E+03  0.43174919524E+03  0.46094674709E+03  0.00000000000E+00 0. -1.
         -4    1    3    3    0  502 -0.14562594058E+03  0.13321216589E+03 -0.48092357904E+03  0.51984602007E+03  0.00000000000E+00 0. -1.
</event>
<event>
 7    1  0.9434649E-006  0.1179177E+04  0.7818608E-02  0.9013898E-01
          2   -1    0    0  501    0  0.00000000000E+00  0.00000000000E+00  0.35258866810E+04  0.35258866810E+04  0.00000000000E+00 0. -1.
         -4   -1    0    0    0  501 -0.00000000000E+00 -0.00000000000E+00 -0.40615990423E+03  0.40615990423E+03  0.00000000000E+00 0. -1.
   -9000010    2    1    2    0  502 -0.49153070864E+03 -0.22881660411E+03  0.24540087980E+04  0.27033762383E+04  0.99605443105E+03 0.  0.
        -13    1    1    2    0    0 -0.22590292289E+03 -0.11261700745E+02  0.81971723641E+01  0.22633197139E+03  0.10566000000E+00 0.  1.
         13    1    3    3    0    0 -0.43606945240E+03 -0.45030758382E+03  0.23832892536E+04  0.24643459913E+04  0.10566000000E+00 0. -1.
          2    1    1    2  502    0  0.71743363153E+03  0.24007830485E+03  0.65752080642E+03  0.10023383755E+04  0.00000000000E+00 0. -1.
         -4    1    3    3    0  502 -0.55461256243E+02  0.22149097971E+03  0.70719544364E+02  0.23903024703E+03  0.00000000000E+00 0. -1.
</event>
<event>
 6    1  0.9434649E-006  0.2319785E+03  0.7818608E-02  0.1040180E+00
          2   -1    0    0  501    0  0.00000000000E+00  0.00000000000E+00  0.12585942872E+04  0.12585942872E+04  0.00000000000E+00 0. -1.
         -4   -1    0    0    0  501 -0.00000000000E+00 -0.00000000000E+00 -0.23442422318E+02  0.23442422318E+02  0.00000000000E+00 0. -1.
        -13    1    1    2    0    0 -0.16482583575E+02  0.38367772843E+02  0.24564240039E+03  0.24916653384E+03  0.10566000000E+00 0.  1.
         13    1    1    2    0    0  0.52049025625E+02 -0.11602048499E+02  0.37946852658E+02  0.65449853999E+02  0.10566000000E+00 0. -1.
          2    1    1    2  502    0 -0.85943482368E+02 -0.64227148529E+02  0.49006850619E+03  0.50167574142E+03  0.00000000000E+00 0. -1.
         -4    1    1    2    0  502  0.50377040318E+02  0.37461424185E+02  0.46149410567E+03  0.46574458028E+03  0.00000000000E+00 0. -1.
</event>
<event>
 6    1  0.9434649E-006  0.8056006E+03  0.7818608E-02  0.8982453E-01
          2   -1    0    0  502    0  0.00000000000E+00  0.00000000000E+00  0.64953064676E+03  0.64953064676E+03  0.00000000000E+00 0. -1.
          4   -1    0    0  501    0 -0.00000000000E+00 -0.00000000000E+00 -0.97977871192E+03  0.97977871192E+03  0.00000000000E+00 0.  1.
        -13    1    1    2    0    0  0.31835857916E+03 -0.24635672827E+02 -0.77307973168E+03  0.83642775181E+03  0.10566000000E+00 0.  1.
         13    1    1    2    0    0 -0.41763224729E+02 -0.53223630442E+02 -0.61125284042E+02  0.91176933982E+02  0.10566000000E+00 0. -1.
          2    1    1    2  501    0 -0.36676829690E+03 -0.18753893734E+01  0.39949923453E+03  0.54233028597E+03  0.00000000000E+00 0. -1.
          4    1    1    2  502    0  0.90172942463E+02  0.79734692642E+02  0.10445771604E+03  0.15937438691E+03  0.00000000000E+00 0.  1.
</event>
<event>
 7    1  0.9434649E-006  0.1008384E+04  0.7818608E-02  0.9120351E-01
          4   -1    0    0  501    0 -0.00000000000E+00  0.00000000000E+00  0.23953986519E+04  0.23953986519E+04  0.00000000000E+00 0.  1.
          2   -1    0    0  502    0  0.00000000000E+00 -0.00000000000E+00 -0.11531099495E+04  0.11531099495E+04  0.00000000000E+00 0.  1.
    9000010    2    1    2  502    0  0.17389082367E+03 -0.97851449410E+02  0.12154074769E+04  0.15733109569E+04  0.97891731388E+03 0.  0.
        -13    1    3    3    0    0  0.22748810165E+03 -0.18579266434E+03 -0.54926859399E+02  0.29880883782E+03  0.10566000000E+00 0.  1.
         13    1    1    2    0    0 -0.18656669356E+03 -0.14550244214E+03  0.97137540854E+03  0.99977411813E+03  0.10566000000E+00 0. -1.
          2    1    1    2  501    0  0.12675869892E+02  0.24335389155E+03 -0.94449418295E+03  0.97542352639E+03  0.00000000000E+00 0.  1.
          4    1    3    3  502    0 -0.53597277981E+02  0.87941214934E+02  0.12703343363E+04  0.12745021191E+04  0.00000000000E+00 0.  1.
</event>
<event>
 6    1  0.9434649E-006  0.1268897E+04  0.7818608E-02  0.8556412E-01
          4   -1    0    0  501    0 -0.00000000000E+00  0.00000000000E+00  0.59262681386E+03  0.59262681386E+03  0.00000000000E+00 0.  1.
          2   -1    0    0  502    0  0.00000000000E+00 -0.00000000000E+00 -0.24689460712E+04  0.24689460712E+04  0.00000000000E+00 0. -1.
        -13    1    1    2    0    0  0.54453109376E+03 -0.30521487101E+02 -0.71573323883E+02  0.55006220112E+03  0.10566000000E+00 0.  1.
         13    1    1    2    0    0 -0.44863100152E+03  0.17594054530E+03 -0.17008810239E+03  0.51103309555E+03  0.10566000000E+00 0. -1.
          2    1    1    2  501    0  0.35047305107E+02 -0.81955864541E+02 -0.17873387240E+04  0.17895599436E+04  0.00000000000E+00 0. -1.
          4    1    1    2  502    0 -0.13094739735E+03 -0.63463193661E+02  0.15268089294E+03  0.21091764480E+03  0.00000000000E+00 0.  1.
</event>
<event>
 7    1  0.9434649E-006  0.1152683E+04  0.7818608E-02  0.8813839E-01
         -4   -1    0    0    0  501 -0.00000000000E+00  0.00000000000E+00  0.16246711068E+04  0.16246711068E+04  0.00000000000E+00 0. -1.
          1   -1    0    0  501    0  0.00000000000E+00 -0.00000000000E+00 -0.17103334434E+04  0.17103334434E+04  0.00000000000E+00 0. -1.
   -9000010    2    1    2    0  502  0.12501135597E+03 -0.55089552015E+03  0.61948912850E+03  0.13137356208E+04  0.10114449009E+04 0.  0.
        -13    1    1    2    0    0 -0.63241759576E+02  0.54603917813E+03  0.54236403992E+03  0.77221568695E+03  0.10566000000E+00 0.  1.
         13    1    3    3    0    0 -0.38440436328E+03 -0.48818694638E+02  0.41944062563E+03  0.57103452526E+03  0.10566000000E+00 0. -1.
          1    1    1    2  502    0 -0.61769596396E+02  0.48563420243E+01 -0.12475155050E+04  0.12490532424E+04  0.00000000000E+00 0. -1.
         -4    1    3    3    0  502  0.50941571925E+03 -0.50207682552E+03  0.20004850287E+03  0.74270109549E+03  0.00000000000E+00 0. -1.
</event>
<event>
 7    1  0.9434649E-006  0.1042678E+04  0.7818608E-02  0.9034971E-01
          2   -1    0    0  501    0  0.00000000000E+00  0.00000000000E+00  0.32307056701E+03  0.32307056701E+03  0.00000000000E+00 0. -1.
         -4   -1    0    0    0  501 -0.00000000000E+00 -0.00000000000E+00 -0.32710371862E+04  0.32710371862E+04  0.00000000000E+00 0. -1.
   -9000010    2    1    2    0  502 -0.29279817381E+03  0.75505890850E+02 -0.26833060935E+04  0.28789594476E+04  0.99842075269E+03 0.  0.
        -13    1    1    2    0    0  0.28723245520E+03 -0.85782575627E+02 -0.44383974974E+03  0.53558833839E+03  0.10566000000E+00 0.  1.
         13    1    3    3    0    0  0.12415944634E+03 -0.39373000591E+03 -0.96586058797E+03  0.10503930561E+04  0.10566000000E+00 0. -1.
          2    1    1    2  502    0  0.55657186071E+01  0.10276684777E+02  0.17917922408E+03  0.17955996719E+03  0.00000000000E+00 0. -1.
         -4    1    3    3    0  502 -0.41695762016E+03  0.46923589676E+03 -0.17174455055E+04  0.18285663915E+04  0.00000000000E+00 0. -1.
</event>
<event>
 7    1  0.9434649E-006  0.1422503E+04  0.7818608E-02  0.8534947E-01
          2   -1    0    0  501    0  0.00000000000E+00  0.00000000000E+00  0.21951299734E+04  0.21951299734E+04  0.00000000000E+00 0.  1.
         -4   -1    0    0    0  501 -0.00000000000E+00 -0.00000000000E+00 -0.26759848532E+04  0.26759848532E+04  0.00000000000E+00 0. -1.
   -9000010    2    1    2    0  502 -0.90340737403E+03 -0.39674562130E+03 -0.19702142798E+04  0.24280129234E+04  0.10197796215E+04 0.  0.
        -13    1    1    2    0    0  0.93176737045E+03  0.37341270261E+03  0.51872421773E+02  0.10051458792E+04  0.10566000000E+00 0.  1.
         13    1    3    3    0    0 -0.37759481498E+03  0.23026661862E+03 -0.12906574466E+04  0.13643303176E+04  0.10566000000E+00 0. -1.
          2    1    1    2  502    0 -0.28359996425E+02  0.23332918690E+02  0.14374869783E+04  0.14379560241E+04  0.00000000000E+00 0.  1.
         -4    1    3    3    0  502 -0.52581255905E+03 -0.62701223993E+03 -0.67955683318E+03  0.10636826058E+04  0.00000000000E+00 0. -1.
</event>
<event>
 7    1  0.9434649E-006  0.9917370E+03  0.7818608E-02  0.9324705E-01
         -2   -1    0    0    0  501  0.00000000000E+00  0.00000000000E+00  0.73697693806E+03  0.73697693806E+03  0.00000000000E+00 0. -1.
         -4   -1    0    0    0  502 -0.00000000000E+00 -0.00000000000E+00 -0.70062434795E+03  0.70062434795E+03  0.00000000000E+00 0. -1.
   -9000010    2    1    2    0  501 -0.94763304619E+02 -0.11425829273E+03  0.18680311212E+03  0.10137435294E+04  0.98526417745E+03 0.  0.
        -13    1    1    2    0    0  0.78683062603E+02  0.80375134710E+02 -0.27323110793E+03  0.29547662535E+03  0.10566000000E+00 0.  1.
         13    1    3    3    0    0  0.23758823448E+03  0.30662701865E+03  0.26781512103E+03  0.47137378793E+03  0.10566000000E+00 0. -1.
         -2    1    1    2    0  502  0.16080242016E+02  0.33883158017E+02  0.12278058593E+03  0.12838113126E+03  0.00000000000E+00 0. -1.
         -4    1    3    3    0  501 -0.33235153910E+03 -0.42088531138E+03 -0.81012008919E+02  0.54236974147E+03  0.00000000000E+00 0. -1.
</event>
<event>
 7    1  0.9434649E-006  0.1018391E+04  0.7818608E-02  0.9156543E-01
         -4   -1    0    0    0  501 -0.00000000000E+00  0.00000000000E+00  0.22854950982E+04  0.22854950982E+04  0.00000000000E+00 0. -1.
          3   -1    0    0  501    0  0.00000000000E+00 -0.00000000000E+00 -0.24274610842E+03  0.24274610842E+03  0.00000000000E+00 0. -1.
   -9000010    2    1    2    0  502 -0.15024473425E+03  0.11934459354E+03  0.17770076725E+04  0.20474341141E+04  0.99870594836E+03 0.  0.
        -13    1    1    2    0    0  0.11203720819E+03 -0.16863014894E+03  0.33260431836E+03  0.38937656183E+03  0.10566000000E+00 0.  1.
         13    1    3    3    0    0 -0.13680471560E+03  0.55175041143E+03  0.11840251379E+04  0.13134152371E+04  0.10566000000E+00 0. -1.
          3    1    1    2  502    0  0.38207526057E+02  0.49285555401E+02 -0.66863001112E+02  0.91430530658E+02  0.00000000000E+00 0. -1.
         -4    1    3    3    0  502 -0.13440018646E+02 -0.43240581789E+03  0.59298253462E+03  0.73401887701E+03  0.00000000000E+00 0. -1.
</event>
<event>
 6    1  0.9434649E-006  0.1091185E+04  0.7818608E-02  0.8693341E-01
          4   -1    0    0  501    0 -0.00000000000E+00  0.00000000000E+00  0.24951394669E+03  0.24951394669E+03  0.00000000000E+00 0.  1.
          2   -1    0    0  502    0  0.00000000000E+00 -0.00000000000E+00 -0.21670871853E+04  0.21670871853E+04  0.00000000000E+00 0. -1.
        -13    1    1    2    0    0  0.10456533212E+03  0.22955928674E+03 -0.31546126889E+03  0.40391484021E+03  0.10566000000E+00 0.  1.
         13    1    1    2    0    0  0.18853078826E+03 -0.22599296937E+03 -0.22683681951E+02  0.29518001443E+03  0.10566000000E+00 0. -1.
          2    1    1    2  501    0  0.12644460187E+03  0.52119607290E+02 -0.94515393698E+03  0.95499772533E+03  0.00000000000E+00 0. -1.
          4    1    1    2  502    0 -0.41954072224E+03 -0.55685924661E+02 -0.63427435081E+03  0.76250855203E+03  0.00000000000E+00 0.  1.
</event>
<event>
 6    1  0.9434649E-006  0.1360562E+04  0.7818608E-02  0.8494564E-01
          2   -1    0    0  502    0  0.00000000000E+00  0.00000000000E+00  0.23243041402E+04  0.23243041402E+04  0.00000000000E+00 0. -1.
          4   -1    0    0  501    0 -0.00000000000E+00 -0.00000000000E+00 -0.38230668984E+03  0.38230668984E+03  0.00000000000E+00 0.  1.
        -13    1    1    2    0    0 -0.39970598515E+03  0.45031363768E+03  0.20059015420E+03  0.63465239933E+03  0.10566000000E+00 0.  1.
         13    1    1    2    0    0  0.42834546729E+03 -0.41338928955E+03  0.56092877076E+03  0.81793131807E+03  0.10566000000E+00 0. -1.
          2    1    1    2  501    0 -0.12306220345E+03 -0.11532395331E+03  0.10863371051E+04  0.10993508203E+04  0.00000000000E+00 0. -1.
          4    1    1    2  502    0  0.94422721306E+02  0.78399605181E+02  0.94141420226E+02  0.15467629228E+03  0.00000000000E+00 0.  1.
</event>
<event>
 6    1  0.9434649E-006  0.5702773E+03  0.7818608E-02  0.9335956E-01
          1   -1    0    0  501    0  0.00000000000E+00  0.00000000000E+00  0.33949358759E+03  0.33949358759E+03  0.00000000000E+00 0.  1.
         -4   -1    0    0    0  501 -0.00000000000E+00 -0.00000000000E+00 -0.11967709882E+04  0.11967709882E+04  0.00000000000E+00 0. -1.
        -13    1    1    2    0    0  0.13023416458E+02  0.21720381776E+03 -0.20225076286E+03  0.29707320658E+03  0.10566000000E+00 0.  1.
         13    1    1    2    0    0 -0.19546744703E+01 -0.19193577746E+03 -0.77328127278E+03  0.79674782799E+03  0.10566000000E+00 0. -1.
          1    1    1    2  502    0 -0.86551420612E+02 -0.27206808418E+02  0.26353375858E+03  0.27871383307E+03  0.00000000000E+00 0.  1.
         -4    1    1    2    0  502  0.75482678624E+02  0.19387681191E+01 -0.14527912359E+03  0.16372970819E+03  0.00000000000E+00 0. -1.
</event>
<event>
 7    1  0.9434649E-006  0.1004094E+04  0.7818608E-02  0.9435595E-01
         -4   -1    0    0    0  501 -0.00000000000E+00  0.00000000000E+00  0.79682571552E+03  0.79682571552E+03  0.00000000000E+00 0. -1.
          2   -1    0    0  501    0  0.00000000000E+00 -0.00000000000E+00 -0.54620684678E+03  0.54620684678E+03  0.00000000000E+00 0. -1.
   -9000010    2    1    2    0  502  0.90148052386E+02 -0.11880704942E+01  0.13656346550E+03  0.10138878741E+04  0.10005953019E+04 0.  0.
        -13    1    1    2    0    0 -0.33516349022E+02  0.63853749766E+02  0.19759676871E+03  0.21034529037E+03  0.10566000000E+00 0.  1.
         13    1    3    3    0    0 -0.25536482286E+03  0.39979971719E+03  0.86468845355E+02  0.48221144637E+03  0.10566000000E+00 0. -1.
          2    1    1    2  502    0 -0.56631703364E+02 -0.62665679272E+02 -0.83541365464E+02  0.11879939784E+03  0.00000000000E+00 0. -1.
         -4    1    3    3    0  502  0.34551287525E+03 -0.40098778769E+03  0.50094620141E+02  0.53167642773E+03  0.00000000000E+00 0. -1.
</event>
<event>
 6    1  0.9434649E-006  0.5406978E+03  0.7818608E-02  0.9392970E-01
          2   -1    0    0  501    0  0.00000000000E+00  0.00000000000E+00  0.36168403257E+03  0.36168403257E+03  0.00000000000E+00 0. -1.
         -4   -1    0    0    0  501 -0.00000000000E+00 -0.00000000000E+00 -0.30606564203E+03  0.30606564203E+03  0.00000000000E+00 0. -1.
        -13    1    1    2    0    0  0.18526854259E+03  0.57894782224E+02 -0.11877283328E+02  0.19446675733E+03  0.10566000000E+00 0.  1.
         13    1    1    2    0    0 -0.17651304034E+03 -0.54217805555E+02 -0.13864133503E+03  0.23090659322E+03  0.10566000000E+00 0. -1.
          2    1    1    2  502    0  0.40802832084E+02  0.42524917018E+02  0.10952192337E+03  0.12437158587E+03  0.00000000000E+00 0. -1.
         -4    1    1    2    0  502 -0.49558334334E+02 -0.46201893687E+02  0.96615085531E+02  0.11800473819E+03  0.00000000000E+00 0. -1.
</event>
<event>
 7    1  0.9434649E-006  0.1009886E+04  0.7818608E-02  0.9215889E-01
          2   -1    0    0  502    0  0.00000000000E+00  0.00000000000E+00  0.68281088825E+03  0.68281088825E+03  0.00000000000E+00 0. -1.
          4   -1    0    0  501    0 -0.00000000000E+00 -0.00000000000E+00 -0.20743266488E+04  0.20743266488E+04  0.00000000000E+00 0.  1.
    9000010    2    1    2  502    0 -0.12266740223E+03 -0.12850739056E+03 -0.13327591503E+04  0.16737233989E+04  0.99676558043E+03 0.  0.
        -13    1    3    3    0    0 -0.14796522655E+03  0.23960290663E+03 -0.12682617926E+04  0.12991502018E+04  0.10566000000E+00 0.  1.
         13    1    1    2    0    0  0.10601272486E+03  0.12149210024E+03 -0.55953772113E+03  0.58230705026E+03  0.10566000000E+00 0. -1.
          2    1    1    2  501    0  0.16654677369E+02  0.70152903257E+01  0.50078111085E+03  0.50110708792E+03  0.00000000000E+00 0. -1.
          4    1    3    3  502    0  0.25297824318E+02 -0.36811029719E+03 -0.64497357663E+02  0.37457319706E+03  0.00000000000E+00 0.  1.
</event>
<event>
 7    1  0.9434649E-006  0.1001378E+04  0.7818608E-02  0.9413380E-01
         -4   -1    0    0    0  501 -0.00000000000E+00  0.00000000000E+00  0.13711482404E+04  0.13711482404E+04  0.00000000000E+00 0. -1.
          2   -1    0    0  501    0  0.00000000000E+00 -0.00000000000E+00 -0.64256304593E+03  0.64256304593E+03  0.00000000000E+00 0. -1.
   -9000010    2    1    2    0  502 -0.26204851513E+02  0.13009563389E+03  0.68198546297E+03  0.12145946757E+04  0.99625523152E+03 0.  0.
        -13    1    1    2    0    0 -0.48660696188E+02 -0.62127977602E+02  0.41225373620E+03  0.41973908935E+03  0.10566000000E+00 0.  1.
         13    1    3    3    0    0  0.25014092002E+03 -0.35780303197E+03  0.37394091584E+03  0.57482632965E+03  0.10566000000E+00 0. -1.
          2    1    1    2  502    0  0.74865547701E+02 -0.67967656284E+02 -0.36565400468E+03  0.37937752131E+03  0.00000000000E+00 0. -1.
         -4    1    3    3    0  502 -0.27634577154E+03  0.48789866585E+03  0.30804454713E+03  0.63976834605E+03  0.00000000000E+00 0. -1.
</event>
<event>
 6    1  0.9434649E-006  0.9362983E+02  0.7818608E-02  0.1191677E+00
         -4   -1    0    0    0  501 -0.00000000000E+00  0.00000000000E+00  0.51042561961E+02  0.51042561961E+02  0.00000000000E+00 0. -1.
          1   -1    0    0  501    0  0.00000000000E+00 -0.00000000000E+00 -0.13286552750E+04  0.13286552750E+04  0.00000000000E+00 0. -1.
        -13    1    1    2    0    0  0.40830978911E+02  0.81523555529E+02 -0.75811804401E+02  0.11857782168E+03  0.10566000000E+00 0.  1.
         13    1    1    2    0    0 -0.46112193595E+02 -0.43558412742E+02 -0.38633506001E+02  0.74271317941E+02  0.10566000000E+00 0. -1.
          1    1    1    2  502    0 -0.21485915413E+01 -0.50356929210E+02 -0.11698460356E+04  0.11709313318E+04  0.00000000000E+00 0. -1.
         -4    1    1    2    0  502  0.74298062259E+01  0.12391786423E+02  0.66786328799E+01  0.15917365625E+02  0.00000000000E+00 0. -1.
</event>
<event>
 6    1  0.9434649E-006  0.8446501E+03  0.7818608E-02  0.8936095E-01
          2   -1    0    0  501    0  0.00000000000E+00  0.00000000000E+00  0.94442794041E+03  0.94442794041E+03  0.00000000000E+00 0. -1.
         -4   -1    0    0    0  501 -0.00000000000E+00 -0.00000000000E+00 -0.31530494610E+03  0.31530494610E+03  0.00000000000E+00 0. -1.
        -13    1    1    2    0    0  0.36948209399E+02 -0.13955345160E+03  0.78878845362E+02  0.16450598603E+03  0.10566000000E+00 0.  1.
         13    1    1    2    0    0 -0.21783641944E+02  0.16631368033E+03 -0.24577586261E+03  0.29755764673E+03  0.10566000000E+00 0. -1.
          2    1    1    2  502    0 -0.88170866037E+01  0.77047243089E+01  0.37850529872E+03  0.37868636752E+03  0.00000000000E+00 0. -1.
         -4    1    1    2    0  502 -0.63474808515E+01 -0.34464953044E+02  0.41751471284E+03  0.41898288622E+03  0.00000000000E+00 0. -1.
</event>
<event>
 7    1  0.9434649E-006  0.1033609E+04  0.7818608E-02  0.9076601E-01
          2   -1    0    0  501    0  0.00000000000E+00  0.00000000000E+00  0.14988150578E+04  0.14988150578E+04  0.00000000000E+00 0. -1.
         -4   -1    0    0    0  501 -0.00000000000E+00 -0.00000000000E+00 -0.42709044585E+03  0.42709044585E+03  0.00000000000E+00 0. -1.
   -9000010    2    1    2    0  502  0.84644985977E+02 -0.26165913733E+03  0.68563519923E+03  0.12433107830E+04  0.10000478984E+04 0.  0.
        -13    1    1    2    0    0 -0.78445189364E+02  0.24749416978E+03 -0.34332293102E+02  0.26188877281E+03  0.10566000000E+00 0.  1.
         13    1    3    3    0    0  0.18461150408E+03 -0.36811819718E+03  0.89664533413E+03  0.98669411719E+03  0.10566000000E+00 0. -1.
          2    1    1    2  502    0 -0.61997966128E+01  0.14164967544E+02  0.42042170581E+03  0.42070594779E+03  0.00000000000E+00 0. -1.
         -4    1    3    3    0  502 -0.99966518102E+02  0.10645905985E+03 -0.21101013489E+03  0.25661666585E+03  0.00000000000E+00 0. -1.
</event>
<event>
 7    1  0.9434649E-006  0.1091341E+04  0.7818608E-02  0.8898070E-01
          4   -1    0    0  501    0 -0.00000000000E+00  0.00000000000E+00  0.28586437488E+04  0.28586437488E+04  0.00000000000E+00 0.  1.
          2   -1    0    0  502    0  0.00000000000E+00 -0.00000000000E+00 -0.23954930054E+03  0.23954930054E+03  0.00000000000E+00 0.  1.
    9000010    2    1    2  502    0  0.61870397356E+02  0.46247414011E+03  0.19455936134E+04  0.22325431287E+04  0.99055743733E+03 0.  0.
        -13    1    3    3    0    0  0.52937004523E+02 -0.26424689572E+03  0.18235562045E+03  0.32539565427E+03  0.10566000000E+00 0.  1.
         13    1    1    2    0    0 -0.61769014494E+02 -0.44985055767E+03  0.70110171061E+03  0.83529908127E+03  0.10566000000E+00 0. -1.
          2    1    1    2  501    0 -0.10138286214E+00 -0.12623582434E+02 -0.27600875718E+02  0.30350839401E+02  0.00000000000E+00 0.  1.
          4    1    3    3  502    0  0.89333928331E+01  0.72672103583E+03  0.17632379929E+04  0.19071474744E+04  0.00000000000E+00 0.  1.
</event>
<event>
 7    1  0.9434649E-006  0.1109848E+04  0.7818608E-02  0.9016683E-01
         -4   -1    0    0    0  501 -0.00000000000E+00  0.00000000000E+00  0.17124916416E+04  0.17124916416E+04  0.00000000000E+00 0. -1.
          2   -1    0    0  501    0  0.00000000000E+00 -0.00000000000E+00 -0.14256803390E+04  0.14256803390E+04  0.00000000000E+00 0. -1.
   -9000010    2    1    2    0  502 -0.21033313528E+03  0.16961010508E+03  0.64847562396E+03  0.12858207383E+04  0.10769432300E+04 0.  0.
        -13    1    1    2    0    0  0.15737524445E+03 -0.21787903446E+03  0.71988948813E+03  0.76842639694E+03  0.10566000000E+00 0.  1.
         13    1    3    3    0    0  0.40001553437E+03  0.27592844052E+03  0.22592563919E+03  0.53590235830E+03  0.10566000000E+00 0. -1.
          2    1    1    2  502    0  0.52957890836E+02  0.48268929378E+02 -0.10815538095E+04  0.10839248454E+04  0.00000000000E+00 0. -1.
         -4    1    3    3    0  502 -0.61034866965E+03 -0.10631833544E+03  0.42254998477E+03  0.74991837998E+03  0.00000000000E+00 0. -1.
</event>
<event>
 7    1  0.9434649E-006  0.7609972E+03  0.7818608E-02  0.9294297E-01
          2   -1    0    0  501    0  0.00000000000E+00  0.00000000000E+00  0.98835658111E+03  0.98835658111E+03  0.00000000000E+00 0. -1.
         -4   -1    0    0    0  501 -0.00000000000E+00 -0.00000000000E+00 -0.42961509977E+03  0.42961509977E+03  0.00000000000E+00 0. -1.
   -9000010    2    1    2    0  502  0.17172977655E+03 -0.18381505243E+03  0.68469718134E+03  0.10160251957E+04  0.70726082779E+03 0.  0.
        -13    1    1    2    0    0 -0.22808928751E+03  0.16928086548E+03 -0.16812640284E+03  0.33007155738E+03  0.10566000000E+00 0.  1.
         13    1    3    3    0    0  0.27178891219E+03 -0.40311048795E+03  0.33158883866E+03  0.58848827293E+03  0.10566000000E+00 0. -1.
          2    1    1    2  502    0  0.56359510968E+02  0.14534186953E+02  0.42170702843E+02  0.71874927792E+02  0.00000000000E+00 0. -1.
         -4    1    3    3    0  502 -0.10005913564E+03  0.21929543552E+03  0.35310834269E+03  0.42753692278E+03  0.00000000000E+00 0. -1.
</event>
<event>
 6    1  0.9866567E-006  0.6012365E+03  0.7818608E-02  0.9280063E-01
          1   -1    0    0  501    0  0.00000000000E+00  0.00000000000E+00  0.65020713255E+03  0.65020713255E+03  0.00000000000E+00 0. -1.
         -4   -1    0    0    0  501 -0.00000000000E+00 -0.00000000000E+00 -0.26168939920E+04  0.26168939920E+04  0.00000000000E+00 0. -1.
        -13    1    1    2    0    0 -0.13667540997E+03  0.23734533944E+03 -0.10878891685E+04  0.11218359203E+04  0.10566000000E+00 0.  1.
         13    1    1    2    0    0  0.13152184841E+03 -0.24211291816E+03 -0.14851095469E+04  0.15104525941E+04  0.10566000000E+00 0. -1.
          1    1    1    2  502    0  0.16843169043E+02 -0.70427091138E+01  0.61553619425E+03  0.61580686788E+03  0.00000000000E+00 0. -1.
         -4    1    1    2    0  502 -0.11689607481E+02  0.11810287837E+02 -0.92243382974E+01  0.19005742261E+02  0.00000000000E+00 0. -1.
</event>
<event>
 6    1  0.9434649E-006  0.4854186E+03  0.7818608E-02  0.9510517E-01
          1   -1    0    0  501    0  0.00000000000E+00  0.00000000000E+00  0.77514381180E+03  0.77514381180E+03  0.00000000000E+00 0. -1.
         -4   -1    0    0    0  501 -0.00000000000E+00 -0.00000000000E+00 -0.26756812684E+03  0.26756812684E+03  0.00000000000E+00 0. -1.
        -13    1    1    2    0    0  0.35801416643E+02  0.88905626578E+02  0.30408303077E+02  0.10055161824E+03  0.10566000000E+00 0.  1.
         13    1    1    2    0    0 -0.10924448928E+03 -0.59399606348E+02 -0.18560421134E+03  0.22340905556E+03  0.10566000000E+00 0. -1.
          1    1    1    2  502    0  0.93718330747E+02  0.78170726394E+02  0.54248191933E+03  0.55603994532E+03  0.00000000000E+00 0. -1.
         -4    1    1    2    0  502 -0.20275258106E+02 -0.10767674662E+03  0.12028967389E+03  0.16271131952E+03  0.00000000000E+00 0. -1.
</event>
<event>
 7    1  0.9434649E-006  0.1134195E+04  0.7818608E-02  0.8908529E-01
         -4   -1    0    0    0  501 -0.00000000000E+00  0.00000000000E+00  0.30826163842E+04  0.30826163842E+04  0.00000000000E+00 0. -1.
          2   -1    0    0  501    0  0.00000000000E+00 -0.00000000000E+00 -0.37794010738E+03  0.37794010738E+03  0.00000000000E+00 0. -1.
   -9000010    2    1    2    0  502  0.68911754602E+03  0.28132891572E+03  0.14042601424E+04  0.18737845542E+04  0.99251854234E+03 0.  0.
        -13    1    1    2    0    0 -0.38772344873E+03  0.48920443964E+02  0.30559127698E+03  0.49609346122E+03  0.10566000000E+00 0.  1.
         13    1    3    3    0    0  0.28001128958E+02 -0.17471551582E+03 -0.73713563564E+02  0.19168535497E+03  0.10566000000E+00 0. -1.
          2    1    1    2  502    0 -0.30139409729E+03 -0.33024935969E+03  0.99482485745E+03  0.10906784762E+04  0.00000000000E+00 0. -1.
         -4    1    3    3    0  502  0.66111641706E+03  0.45604443154E+03  0.14779737060E+04  0.16820991992E+04  0.00000000000E+00 0. -1.
</event>
<event>
 7    1  0.9434649E-006  0.1657282E+04  0.7818608E-02  0.8614658E-01
          4   -1    0    0  501    0 -0.00000000000E+00  0.00000000000E+00  0.29384096971E+04  0.29384096971E+04  0.00000000000E+00 0.  1.
          2   -1    0    0  502    0  0.00000000000E+00 -0.00000000000E+00 -0.14600739080E+04  0.14600739080E+04  0.00000000000E+00 0. -1.
    9000010    2    1    2  502    0  0.12720120178E+04  0.37195394678E+02  0.19548032107E+04  0.25293980135E+04  0.97836631553E+03 0.  0.
        -13    1    3    3    0    0 -0.74959514545E+02 -0.54437941884E+02 -0.55369370117E+02  0.10792681154E+03  0.10566000000E+00 0.  1.
         13    1    1    2    0    0  0.32982480674E+02 -0.43828918618E+03 -0.73643911258E+02  0.44565535067E+03  0.10566000000E+00 0. -1.
          2    1    1    2  501    0 -0.13049944985E+04  0.40109379150E+03 -0.40282351032E+03  0.14234302410E+04  0.00000000000E+00 0. -1.
          4    1    3    3  502    0  0.13469715323E+04  0.91633336563E+02  0.20101725808E+04  0.24214712019E+04  0.00000000000E+00 0.  1.
</event>
<event>
 7    1  0.9434649E-006  0.1256106E+04  0.7818608E-02  0.8678920E-01
          4   -1    0    0  501    0 -0.00000000000E+00  0.00000000000E+00  0.27286004914E+04  0.27286004914E+04  0.00000000000E+00 0.  1.
          2   -1    0    0  502    0  0.00000000000E+00 -0.00000000000E+00 -0.13331973390E+04  0.13331973390E+04  0.00000000000E+00 0.  1.
    9000010    2    1    2  502    0  0.23006687126E+03 -0.73372160959E+03  0.21492801997E+04  0.24916791340E+04  0.99889006635E+03 0.  0.
        -13    1    3    3    0    0 -0.14352537862E+03 -0.58923143410E+03  0.19541996246E+04  0.20461401225E+04  0.10566000000E+00 0.  1.
         13    1    1    2    0    0 -0.33061567231E+03  0.67581400666E+03  0.53684962835E+02  0.75426346907E+03  0.10566000000E+00 0. -1.
          2    1    1    2  501    0  0.10054880105E+03  0.57907602933E+02 -0.80756201004E+03  0.81585522731E+03  0.00000000000E+00 0.  1.
          4    1    3    3  502    0  0.37359224988E+03 -0.14449017549E+03  0.19508057510E+03  0.44553901149E+03  0.00000000000E+00 0.  1.
</event>
<event>
 7    1  0.9434649E-006  0.9196894E+03  0.7818608E-02  0.9340670E-01
         -4   -1    0    0    0  502 -0.00000000000E+00  0.00000000000E+00  0.17369816543E+04  0.17369816543E+04  0.00000000000E+00 0. -1.
         -2   -1    0    0    0  501  0.00000000000E+00 -0.00000000000E+00 -0.27287841383E+03  0.27287841383E+03  0.00000000000E+00 0. -1.
   -9000010    2    1    2    0  501  0.12537684666E+03  0.12165757065E+03  0.12890261066E+04  0.15874804887E+04  0.90993740452E+03 0.  0.
        -13    1    1    2    0    0 -0.91934702042E+02 -0.91402628646E+02  0.27979200319E+03  0.30836667488E+03  0.10566000000E+00 0.  1.
         13    1    3    3    0    0  0.84010929971E+02  0.35179236228E+03  0.13039498629E+04  0.13531817907E+04  0.10566000000E+00 0. -1.
         -2    1    1    2    0  502 -0.33442144619E+02 -0.30254942008E+02 -0.10471486934E+03  0.11401290460E+03  0.00000000000E+00 0. -1.
         -4    1    3    3    0  501  0.41365916690E+02 -0.23013479163E+03 -0.14923756259E+02  0.23429869799E+03  0.00000000000E+00 0. -1.
</event>
<event>
 6    1  0.9434649E-006  0.3412901E+03  0.7818608E-02  0.9915868E-01
          4   -1    0    0  501    0 -0.00000000000E+00  0.00000000000E+00  0.28270668678E+03  0.28270668678E+03  0.00000000000E+00 0.  1.
          2   -1    0    0  502    0  0.00000000000E+00 -0.00000000000E+00 -0.44628019229E+03  0.44628019229E+03  0.00000000000E+00 0.  1.
        -13    1    1    2    0    0 -0.43988944144E+02 -0.11934255034E+03  0.17334729151E+03  0.21500457243E+03  0.10566000000E+00 0.  1.
         13    1    1    2    0    0 -0.35938442074E+02  0.69395944873E+02  0.30345663701E+02  0.83834594607E+02  0.10566000000E+00 0. -1.
          2    1    1    2  501    0  0.13810476103E+03  0.22567331378E+02 -0.32321334131E+03  0.35220600998E+03  0.00000000000E+00 0.  1.
          4    1    1    2  502    0 -0.58177374811E+02  0.27379274090E+02 -0.44053119408E+02  0.77941702055E+02  0.00000000000E+00 0.  1.
</event>
<event>
 7    1  0.9434649E-006  0.9437974E+03  0.7818608E-02  0.9026502E-01
          2   -1    0    0  501    0  0.00000000000E+00  0.00000000000E+00  0.54053998082E+03  0.54053998082E+03  0.00000000000E+00 0. -1.
         -4   -1    0    0    0  501 -0.00000000000E+00 -0.00000000000E+00 -0.18513777731E+04  0.18513777731E+04  0.00000000000E+00 0. -1.
   -9000010    2    1    2    0  502  0.82022588499E+02 -0.40502200772E+03 -0.87562421498E+03  0.12854720170E+04  0.84554716545E+03 0.  0.
        -13    1    1    2    0    0 -0.11538933531E+03  0.40515257719E+03 -0.71219757794E+03  0.82745918974E+03  0.10566000000E+00 0.  1.
         13    1    3    3    0    0 -0.35961708016E+03 -0.33957818597E+03 -0.45318478648E+03  0.67083101493E+03  0.10566000000E+00 0. -1.
          2    1    1    2  502    0  0.33366746809E+02 -0.13056947097E+00  0.27698400066E+03  0.27898654710E+03  0.00000000000E+00 0. -1.
         -4    1    3    3    0  502  0.44163966866E+03 -0.65443821752E+02 -0.42243942850E+03  0.61464100212E+03  0.00000000000E+00 0. -1.
</event>
<event>
 7    1  0.9434649E-006  0.1071152E+04  0.7818608E-02  0.9003852E-01
          2   -1    0    0  501    0  0.00000000000E+00  0.00000000000E+00  0.15352111563E+04  0.15352111563E+04  0.00000000000E+00 0. -1.
         -4   -1    0    0    0  501 -0.00000000000E+00 -0.00000000000E+00 -0.43810787138E+03  0.43810787138E+03  0.00000000000E+00 0. -1.
   -9000010    2    1    2    0  502 -0.25891423580E+03  0.74298661585E+02  0.92572812980E+03  0.14064664740E+04  0.10240207515E+04 0.  0.
        -13    1    1    2    0    0  0.31838642731E+03 -0.30485962835E+02 -0.58722536948E+02  0.32518865069E+03  0.10566000000E+00 0.  1.
         13    1    3    3    0    0 -0.16638049443E+03  0.31747241518E+03  0.10562291186E+04  0.11153883473E+04  0.10566000000E+00 0. -1.
          2    1    1    2  502    0 -0.59472191515E+02 -0.43812698750E+02  0.23009769209E+03  0.24166390305E+03  0.00000000000E+00 0. -1.
         -4    1    3    3    0  502 -0.92533741369E+02 -0.24317375359E+03 -0.13050098876E+03  0.29107812662E+03  0.00000000000E+00 0. -1.
</event>
<event>
 7    1  0.9434649E-006  0.1025643E+04  0.7818608E-02  0.9081243E-01
          4   -1    0    0  501    0 -0.00000000000E+00  0.00000000000E+00  0.13607887325E+03  0.13607887325E+03  0.00000000000E+00 0.  1.
          2   -1    0    0  502    0  0.00000000000E+00 -0.00000000000E+00 -0.32353949060E+04  0.32353949060E+04  0.00000000000E+00 0. -1.
    9000010    2    1    2  502    0  0.23976613181E+03 -0.13030728328E+03 -0.23796675338E+04  0.25923589943E+04  0.99148363460E+03 0.  0.
        -13    1    3    3    0    0  0.88015391499E+02  0.28102230699E+03 -0.17086208990E+03  0.34046161472E+03  0.10566000000E+00 0.  1.
         13    1    1    2    0    0 -0.21036326512E+03  0.15308404379E+03 -0.65050619450E+03  0.70060384528E+03  0.10566000000E+00 0. -1.
          2    1    1    2  501    0 -0.29402866689E+02 -0.22776760510E+02 -0.69142304428E+02  0.78510939687E+02  0.00000000000E+00 0. -1.
          4    1    3    3  502    0  0.15175074031E+03 -0.41132959027E+03 -0.22088054439E+04  0.22518973795E+04  0.00000000000E+00 0.  1.
</event>
<event>
 7    1  0.9434649E-006  0.1128378E+04  0.7818608E-02  0.8851492E-01
          2   -1    0    0  501    0  0.00000000000E+00  0.00000000000E+00  0.19622519629E+04  0.19622519629E+04  0.00000000000E+00 0. -1.
         -4   -1    0    0    0  501 -0.00000000000E+00 -0.00000000000E+00 -0.88920853600E+03  0.88920853600E+03  0.00000000000E+00 0. -1.
   -9000010    2    1    2    0  502 -0.46770064728E+03 -0.10854696983E+03 -0.34341012330E+02  0.11188514330E+04  0.10100113286E+04 0.  0.
        -13    1    1    2    0    0  0.50732544525E+03  0.72789731260E+02 -0.10156063405E+03  0.52248638827E+03  0.10566000000E+00 0.  1.
         13    1    3    3    0    0 -0.60563753582E+03 -0.42932853600E+03  0.90836150375E+02  0.74791111370E+03  0.10566000000E+00 0. -1.
          2    1    1    2  502    0 -0.39624797968E+02  0.35757238565E+02  0.12089450733E+04  0.12101226777E+04  0.00000000000E+00 0. -1.
         -4    1    3    3    0  502  0.13793688853E+03  0.32078156617E+03 -0.12517716270E+03  0.37094031929E+03  0.00000000000E+00 0. -1.
</event>
<event>
 7    1  0.9434649E-006  0.1220125E+04  0.7818608E-02  0.8741229E-01
          4   -1    0    0  501    0 -0.00000000000E+00  0.00000000000E+00  0.93645229767E+03  0.93645229767E+03  0.00000000000E+00 0.  1.
          2   -1    0    0  502    0  0.00000000000E+00 -0.00000000000E+00 -0.37212620255E+04  0.37212620255E+04  0.00000000000E+00 0. -1.
    9000010    2    1    2  502    0 -0.16867442640E+03  0.76957510493E+03 -0.10498578346E+04  0.16758633117E+04  0.10419306418E+04 0.  0.
        -13    1    3    3    0    0  0.13763235545E+03  0.34738601386E+03 -0.10904426076E+04  0.11526859067E+04  0.10566000000E+00 0.  1.
         13    1    1    2    0    0  0.40992371919E+03 -0.47398810839E+03  0.44511135645E+03  0.76865227070E+03  0.10566000000E+00 0. -1.
          2    1    1    2  501    0 -0.24124929279E+03 -0.29558699654E+03 -0.21800632496E+04  0.22131987408E+04  0.00000000000E+00 0. -1.
          4    1    3    3  502    0 -0.30630678185E+03  0.42218909107E+03  0.40584773008E+02  0.52317740493E+03  0.00000000000E+00 0.  1.
</event>
<event>
 6    1  0.9434649E-006  0.2796576E+03  0.7818608E-02  0.1016074E+00
          4   -1    0    0  501    0 -0.00000000000E+00  0.00000000000E+00  0.96268498365E+02  0.96268498365E+02  0.00000000000E+00 0.  1.
          2   -1    0    0  502    0  0.00000000000E+00 -0.00000000000E+00 -0.99271514958E+03  0.99271514958E+03  0.00000000000E+00 0.  1.
        -13    1    1    2    0    0  0.30820377609E+02  0.98467597536E+01  0.83790294118E+02  0.89820258884E+02  0.10566000000E+00 0.  1.
         13    1    1    2    0    0 -0.47687938382E+02 -0.20657243501E+02 -0.86014261966E+02  0.10049540090E+03  0.10566000000E+00 0. -1.
          2    1    1    2  501    0 -0.13352098682E+02  0.93821338032E+01 -0.78935312715E+03  0.78952179344E+03  0.00000000000E+00 0.  1.
          4    1    1    2  502    0  0.30219659455E+02  0.14283499441E+01 -0.10486955621E+03  0.10914619472E+03  0.00000000000E+00 0.  1.
</event>
<event>
 7    1  0.9434649E-006  0.1045393E+04  0.7818608E-02  0.9153638E-01
         -2   -1    0    0    0  501  0.00000000000E+00  0.00000000000E+00  0.43402860138E+03  0.43402860138E+03  0.00000000000E+00 0.  1.
         -4   -1    0    0    0  502 -0.00000000000E+00 -0.00000000000E+00 -0.16476507094E+04  0.16476507094E+04  0.00000000000E+00 0. -1.
   -9000010    2    1    2    0  501  0.36620682086E+03 -0.31752572772E+03 -0.70976265351E+03  0.13111290646E+04  0.99013452436E+03 0.  0.
        -13    1    1    2    0    0 -0.16401570616E+03  0.88409119513E+02 -0.41086300466E+03  0.45113827597E+03  0.10566000000E+00 0.  1.
         13    1    3    3    0    0  0.95739176549E+02 -0.46064914062E+03  0.67956578987E+02  0.47537535535E+03  0.10566000000E+00 0. -1.
         -2    1    1    2    0  502 -0.20219111470E+03  0.22911660821E+03 -0.92996449833E+02  0.31941197019E+03  0.00000000000E+00 0.  1.
         -4    1    3    3    0  501  0.27046764431E+03  0.14312341290E+03 -0.77771923249E+03  0.83575370925E+03  0.00000000000E+00 0. -1.
</event>
<event>
 7    1  0.9434649E-006  0.1071009E+04  0.7818608E-02  0.9064811E-01
         -4   -1    0    0    0  501 -0.00000000000E+00  0.00000000000E+00  0.25905557008E+03  0.25905557008E+03  0.00000000000E+00 0. -1.
          2   -1    0    0  501    0  0.00000000000E+00 -0.00000000000E+00 -0.26625270120E+04  0.26625270120E+04  0.00000000000E+00 0. -1.
   -9000010    2    1    2    0  502 -0.22507608082E+03  0.73191966309E+02 -0.15119106346E+04  0.18515876093E+04  0.10423466802E+04 0.  0.
        -13    1    1    2    0    0  0.23204558337E+03 -0.84913324036E+02 -0.82037269125E+02  0.26035658249E+03  0.10566000000E+00 0.  1.
         13    1    3    3    0    0  0.22216404406E+03 -0.30989988521E+03 -0.10038479180E+04  0.10738274791E+04  0.10566000000E+00 0. -1.
          2    1    1    2  502    0 -0.69695025450E+01  0.11721357727E+02 -0.80952353818E+03  0.80963839031E+03  0.00000000000E+00 0. -1.
         -4    1    3    3    0  502 -0.44724012489E+03  0.38309185152E+03 -0.50806271663E+03  0.77776013014E+03  0.00000000000E+00 0. -1.
</event>
<event>
 7    1  0.9434649E-006  0.1006663E+04  0.7818608E-02  0.9220385E-01
          1   -1    0    0  501    0  0.00000000000E+00  0.00000000000E+00  0.16161025346E+04  0.16161025346E+04  0.00000000000E+00 0.  1.
         -4   -1    0    0    0  501 -0.00000000000E+00 -0.00000000000E+00 -0.83821748959E+03  0.83821748959E+03  0.00000000000E+00 0. -1.
   -9000010    2    1    2    0  502  0.20662084281E+03 -0.28306867189E+02  0.10845634499E+03  0.10211287948E+04  0.99370407339E+03 0.  0.
        -13    1    1    2    0    0 -0.88377397497E+02  0.13539306987E+03 -0.35833357433E+03  0.39312187603E+03  0.10566000000E+00 0.  1.
         13    1    3    3    0    0  0.45947008110E+03 -0.17046703531E+03  0.38280991950E+03  0.62186430287E+03  0.10566000000E+00 0. -1.
          1    1    1    2  502    0 -0.11824344532E+03 -0.10708620268E+03  0.10277622743E+04  0.10400693533E+04  0.00000000000E+00 0.  1.
         -4    1    3    3    0  502 -0.25284923828E+03  0.14216016813E+03 -0.27435357451E+03  0.39926449197E+03  0.00000000000E+00 0. -1.
</event>
<event>
 7    1  0.9434649E-006  0.1372559E+04  0.7818608E-02  0.9020578E-01
         -4   -1    0    0    0  501 -0.00000000000E+00  0.00000000000E+00  0.98626370519E+03  0.98626370519E+03  0.00000000000E+00 0. -1.
          2   -1    0    0  501    0  0.00000000000E+00 -0.00000000000E+00 -0.16294853508E+04  0.16294853508E+04  0.00000000000E+00 0.  1.
   -9000010    2    1    2    0  502  0.93433913522E+03  0.20800150085E+03 -0.59506880664E+03  0.15211975922E+04  0.10216070604E+04 0.  0.
        -13    1    1    2    0    0 -0.49506409713E+02 -0.13053623888E+03  0.12757366667E+03  0.18911807385E+03  0.10566000000E+00 0.  1.
         13    1    3    3    0    0 -0.85613038846E+02 -0.23507338207E+03  0.18972743820E+02  0.25089651961E+03  0.10566000000E+00 0. -1.
          2    1    1    2  502    0 -0.88483272551E+03 -0.77465261969E+02 -0.17572650569E+03  0.90543339001E+03  0.00000000000E+00 0.  1.
         -4    1    3    3    0  502  0.10199521741E+04  0.44307488292E+03 -0.61404155046E+03  0.12703010726E+04  0.00000000000E+00 0. -1.
</event>
<event>
 7    1  0.9434649E-006  0.1050275E+04  0.7818608E-02  0.9281643E-01
         -4   -1    0    0    0  501 -0.00000000000E+00  0.00000000000E+00  0.10985484376E+04  0.10985484376E+04  0.00000000000E+00 0. -1.
          2   -1    0    0  501    0  0.00000000000E+00 -0.00000000000E+00 -0.89261195988E+03  0.89261195988E+03  0.00000000000E+00 0. -1.
   -9000010    2    1    2    0  502 -0.15932423052E+03 -0.13625001346E+03  0.54556846603E+03  0.11624496882E+04  0.10048363299E+04 0.  0.
        -13    1    1    2    0    0 -0.11083909501E+03 -0.16859271369E+02  0.18659763551E+03  0.21768837534E+03  0.10566000000E+00 0.  1.
         13    1    3    3    0    0  0.39118512898E+03 -0.10893075667E+03  0.29109188493E+02  0.40711063718E+03  0.10566000000E+00 0. -1.
          2    1    1    2  502    0  0.27016332554E+03  0.15310928483E+03 -0.52622962382E+03  0.61102233392E+03  0.00000000000E+00 0. -1.
         -4    1    3    3    0  502 -0.55050935950E+03 -0.27319256796E+02  0.51645927754E+03  0.75533905105E+03  0.00000000000E+00 0. -1.
</event>
<event>
 7    1  0.9434649E-006  0.9451340E+03  0.7818608E-02  0.9505379E-01
         -4   -1    0    0    0  501 -0.00000000000E+00  0.00000000000E+00  0.28894251410E+03  0.28894251410E+03  0.00000000000E+00 0. -1.
          4   -1    0    0  501    0  0.00000000000E+00 -0.00000000000E+00 -0.17257719057E+04  0.17257719057E+04  0.00000000000E+00 0. -1.
   -9000010    2    1    2    0  502  0.29448110128E+02 -0.61210738342E+02 -0.49657464956E+03  0.10677028977E+04  0.94275614528E+03 0.  0.
        -13    1    1    2    0    0 -0.38049180718E+02  0.54969955776E+02 -0.33201284862E+03  0.33867680612E+03  0.10566000000E+00 0.  1.
         13    1    3    3    0    0  0.43097185300E+03  0.16112470892E+03 -0.12393660337E+03  0.47650624625E+03  0.10566000000E+00 0. -1.
          4    1    1    2  502    0  0.86010705905E+01  0.62407825668E+01 -0.60824189341E+03  0.60833471599E+03  0.00000000000E+00 0. -1.
         -4    1    3    3    0  502 -0.40152374287E+03 -0.22233544726E+03 -0.37263804619E+03  0.59119665143E+03  0.00000000000E+00 0. -1.
</event>
<event>
 7    1  0.9434649E-006  0.1077803E+04  0.7818608E-02  0.9058309E-01
         -4   -1    0    0    0  501 -0.00000000000E+00  0.00000000000E+00  0.39996077430E+03  0.39996077430E+03  0.00000000000E+00 0. -1.
          2   -1    0    0  501    0  0.00000000000E+00 -0.00000000000E+00 -0.29808429192E+04  0.29808429192E+04  0.00000000000E+00 0. -1.
   -9000010    2    1    2    0  502  0.20021280655E+03  0.14042188260E+03 -0.11017600189E+04  0.15407506717E+04  0.10489204070E+04 0.  0.
        -13    1    1    2    0    0 -0.24209413770E+03 -0.58665495618E+02  0.92520781577E+02  0.26572790232E+03  0.10566000000E+00 0.  1.
         13    1    3    3    0    0  0.56052366359E+03 -0.13654268670E+03 -0.83138502626E+03  0.10119445419E+04  0.10566000000E+00 0. -1.
          2    1    1    2  502    0  0.41881331150E+02 -0.81756386986E+02 -0.15716429077E+04  0.15743251195E+04  0.00000000000E+00 0. -1.
         -4    1    3    3    0  502 -0.36031085704E+03  0.27696456931E+03 -0.27037499260E+03  0.52880612986E+03  0.00000000000E+00 0. -1.
</event>
<event>
 7    1  0.9434649E-006  0.1792794E+04  0.7818608E-02  0.8630383E-01
          2   -1    0    0  502    0  0.00000000000E+00  0.00000000000E+00  0.20830457402E+04  0.20830457402E+04  0.00000000000E+00 0. -1.
          4   -1    0    0  501    0 -0.00000000000E+00 -0.00000000000E+00 -0.17051670040E+04  0.17051670040E+04  0.00000000000E+00 0.  1.
    9000010    2    1    2  502    0  0.14255072034E+04 -0.22422969215E+03  0.24061535855E+03  0.17675844410E+04  0.99202281404E+03 0.  0.
        -13    1    3    3    0    0 -0.87516860855E+02  0.16266902587E+03 -0.14040852002E+02  0.18525001916E+03  0.10566000000E+00 0.  1.
         13    1    1    2    0    0  0.20694500923E+02 -0.32328051406E+03 -0.26979463198E+03  0.42157764143E+03  0.10566000000E+00 0. -1.
          2    1    1    2  501    0 -0.14462017043E+04  0.54751020621E+03  0.40705800960E+03  0.15990506617E+04  0.00000000000E+00 0. -1.
          4    1    3    3  502    0  0.15130240643E+04 -0.38689871801E+03  0.25465621055E+03  0.15823344219E+04  0.00000000000E+00 0.  1.
</event>
<event>
 7    1  0.9434649E-006  0.1088625E+04  0.7818608E-02  0.8852995E-01
         -4   -1    0    0    0  501 -0.00000000000E+00  0.00000000000E+00  0.14391053155E+04  0.14391053155E+04  0.00000000000E+00 0. -1.
          5   -1    0    0  501    0  0.00000000000E+00 -0.00000000000E+00 -0.11340997372E+04  0.11340997372E+04  0.00000000000E+00 0. -1.
   -9000010    2    1    2    0  502 -0.30359847951E+03  0.20476931330E+03 -0.35622203094E+03  0.11217238268E+04  0.99863291542E+03 0.  0.
        -13    1    1    2    0    0  0.38427585704E+03  0.40285784535E+03  0.62564046307E+03  0.83748933012E+03  0.10566000000E+00 0.  1.
         13    1    3    3    0    0  0.30647374968E+03  0.22779705511E+03 -0.33954761627E+03  0.51098948368E+03  0.10566000000E+00 0. -1.
          5    1    1    2  502    0 -0.80677377535E+02 -0.60762715865E+03  0.35587146231E+02  0.61399189583E+03  0.00000000000E+00 0. -1.
         -4    1    3    3    0  502 -0.61007222918E+03 -0.23027741809E+02 -0.16674414672E+02  0.61073434308E+03  0.00000000000E+00 0. -1.
</event>
<event>
 7    1  0.9434649E-006  0.1058914E+04  0.7818608E-02  0.8991760E-01
          2   -1    0    0  502    0  0.00000000000E+00  0.00000000000E+00  0.12836440223E+04  0.12836440223E+04  0.00000000000E+00 0.  1.
          4   -1    0    0  501    0 -0.00000000000E+00 -0.00000000000E+00 -0.12039761215E+04  0.12039761215E+04  0.00000000000E+00 0.  1.
    9000010    2    1    2  502    0  0.48856707452E+03  0.17931922539E+03 -0.59047655653E+03  0.12744171423E+04  0.10023089932E+04 0.  0.
        -13    1    3    3    0    0 -0.77270553367E+02 -0.15163351079E+03 -0.59502516770E+03  0.61888482077E+03  0.10566000000E+00 0.  1.
         13    1    1    2    0    0 -0.29991194047E+03 -0.68549918633E+01 -0.16322109421E+03  0.34151910592E+03  0.10566000000E+00 0. -1.
          2    1    1    2  501    0 -0.18865513405E+03 -0.17246423353E+03  0.83336555150E+03  0.87168389562E+03  0.00000000000E+00 0.  1.
          4    1    3    3  502    0  0.56583762788E+03  0.33095273619E+03  0.45486111729E+01  0.65553232154E+03  0.00000000000E+00 0.  1.
</event>
<event>
 7    1  0.9434649E-006  0.1044902E+04  0.7818608E-02  0.9073262E-01
          2   -1    0    0  501    0  0.00000000000E+00  0.00000000000E+00  0.26932494114E+04  0.26932494114E+04  0.00000000000E+00 0. -1.
         -4   -1    0    0    0  501 -0.00000000000E+00 -0.00000000000E+00 -0.33900814292E+03  0.33900814292E+03  0.00000000000E+00 0. -1.
   -9000010    2    1    2    0  502 -0.25703622019E+03  0.91334233009E+02  0.10703849031E+04  0.14987622213E+04  0.10129929884E+04 0.  0.
        -13    1    1    2    0    0  0.23604302462E+03 -0.95433582723E+02  0.51983482288E+01  0.25465842254E+03  0.10566000000E+00 0.  1.
         13    1    3    3    0    0 -0.42545990630E+02  0.26864457015E+03  0.11715089080E+04  0.12026691977E+04  0.10566000000E+00 0. -1.
          2    1    1    2  502    0  0.20993195576E+02  0.40993497137E+01  0.12786580172E+04  0.12788369106E+04  0.00000000000E+00 0. -1.
         -4    1    3    3    0  502 -0.21449022956E+03 -0.17731033714E+03 -0.10112400490E+03  0.29609302356E+03  0.00000000000E+00 0. -1.
</event>
<event>
 7    1  0.9434649E-006  0.1056136E+04  0.7818608E-02  0.8976348E-01
          2   -1    0    0  502    0  0.00000000000E+00  0.00000000000E+00  0.10270448175E+04  0.10270448175E+04  0.00000000000E+00 0. -1.
          4   -1    0    0  501    0 -0.00000000000E+00 -0.00000000000E+00 -0.52364464996E+03  0.52364464996E+03  0.00000000000E+00 0.  1.
    9000010    2    1    2  502    0 -0.33271352912E+03  0.12234656185E+03  0.27176400537E+03  0.10865578199E+04  0.99049747483E+03 0.  0.
        -13    1    3    3    0    0  0.16014946365E+03 -0.10317666688E+03  0.47180166778E+03  0.50881244106E+03  0.10566000000E+00 0.  1.
         13    1    1    2    0    0  0.35345828946E+03 -0.11593553715E+03  0.19123101928E+03  0.41826202920E+03  0.10566000000E+00 0. -1.
          2    1    1    2  501    0 -0.20744760343E+02 -0.64110247016E+01  0.40405142845E+02  0.45869618352E+02  0.00000000000E+00 0. -1.
          4    1    3    3  502    0 -0.49286299277E+03  0.22552322874E+03 -0.20003766241E+03  0.57774537880E+03  0.00000000000E+00 0.  1.
</event>
<event>
 7    1  0.9434649E-006  0.1250330E+04  0.7818608E-02  0.8690449E-01
         -4   -1    0    0    0  501 -0.00000000000E+00  0.00000000000E+00  0.16958679602E+04  0.16958679602E+04  0.00000000000E+00 0. -1.
          1   -1    0    0  501    0  0.00000000000E+00 -0.00000000000E+00 -0.13644087671E+04  0.13644087671E+04  0.00000000000E+00 0. -1.
   -9000010    2    1    2    0  502 -0.65841869927E+03  0.34394588563E+03  0.96829414113E+03  0.15853385125E+04  0.10118748439E+04 0.  0.
        -13    1    1    2    0    0  0.68004361074E+03 -0.26068563322E+03  0.98199313042E+02  0.73488735744E+03  0.10566000000E+00 0.  1.
         13    1    3    3    0    0 -0.88672033209E+03  0.18452053629E+03  0.94016944056E+03  0.13054651906E+04  0.10566000000E+00 0. -1.
          1    1    1    2  502    0 -0.21624911472E+02 -0.83260252403E+02 -0.73503426107E+03  0.74005085729E+03  0.00000000000E+00 0. -1.
         -4    1    3    3    0  502  0.22830163283E+03  0.15942534934E+03  0.28124700570E+02  0.27987332196E+03  0.00000000000E+00 0. -1.
</event>
<event>
 7    1  0.9434649E-006  0.1053122E+04  0.7818608E-02  0.9000142E-01
          2   -1    0    0  502    0  0.00000000000E+00  0.00000000000E+00  0.60186480381E+03  0.60186480381E+03  0.00000000000E+00 0.  1.
          4   -1    0    0  501    0 -0.00000000000E+00 -0.00000000000E+00 -0.19065850035E+04  0.19065850035E+04  0.00000000000E+00 0.  1.
    9000010    2    1    2  502    0  0.91439726879E+02  0.28479574763E+03 -0.64977572975E+02  0.10440746478E+04  0.99819834884E+03 0.  0.
        -13    1    3    3    0    0  0.25762442858E+03  0.29964443205E+03  0.39259320991E+03  0.55703372563E+03  0.10566000000E+00 0.  1.
         13    1    1    2    0    0 -0.69385402564E+02 -0.33008885885E+03 -0.13239539577E+04  0.13662456155E+04  0.10566000000E+00 0. -1.
          2    1    1    2  501    0 -0.22054324315E+02  0.45293111224E+02  0.84211330940E+02  0.98129543992E+02  0.00000000000E+00 0.  1.
          4    1    3    3  502    0 -0.16618470170E+03 -0.14848684417E+02 -0.45757078288E+03  0.48704092215E+03  0.00000000000E+00 0.  1.
</event>
<event>
 7    1  0.9434649E-006  0.9729266E+03  0.7818608E-02  0.9449376E-01
          2   -1    0    0  501    0  0.00000000000E+00  0.00000000000E+00  0.28786368168E+03  0.28786368168E+03  0.00000000000E+00 0. -1.
         -4   -1    0    0    0  501 -0.00000000000E+00 -0.00000000000E+00 -0.22334727072E+04  0.22334727072E+04  0.00000000000E+00 0. -1.
   -9000010    2    1    2    0  502 -0.48075271833E+02 -0.46705815207E+03 -0.12225296422E+04  0.15518655803E+04  0.83261846257E+03 0.  0.
        -13    1    1    2    0    0 -0.64688595406E+02 -0.38646642194E+02 -0.27283717989E+03  0.28305178894E+03  0.10566000000E+00 0.  1.
         13    1    3    3    0    0  0.39202886025E+03 -0.18832797054E+03 -0.56109997986E+03  0.70992059438E+03  0.10566000000E+00 0. -1.
          2    1    1    2  502    0  0.11276386724E+03  0.50570479426E+03 -0.45024220342E+03  0.68641901958E+03  0.00000000000E+00 0. -1.
         -4    1    3    3    0  502 -0.44010413208E+03 -0.27873018153E+03 -0.66142966231E+03  0.84194498594E+03  0.00000000000E+00 0. -1.
</event>
<event>
 7    1  0.2983384E-005  0.1357772E+04  0.7818608E-02  0.8579611E-01
          4   -1    0    0  501    0  0.00000000000E+00  0.00000000000E+00  0.18970534125E+04  0.18970534125E+04  0.00000000000E+00 0.  1.
         -4   -1    0    0    0  501 -0.00000000000E+00 -0.00000000000E+00 -0.15338572538E+04  0.15338572538E+04  0.00000000000E+00 0. -1.
   -9000010    2    1    2    0  502  0.17073851628E+03 -0.88981888905E+03 -0.87537226380E+03  0.15996576712E+04  0.98574782205E+03 0.  0.
        -13    1    1    2    0    0 -0.31012024120E+03  0.95742565634E+03  0.59462607239E+03  0.11689391039E+04  0.10566000000E+00 0.  1.
         13    1    3    3    0    0  0.17962960287E+03  0.14740845729E+03  0.14728620212E+02  0.23283683326E+03  0.10566000000E+00 0. -1.
          4    1    1    2  502    0  0.13938172491E+03 -0.67606767287E+02  0.64394235006E+03  0.66231389116E+03  0.00000000000E+00 0.  1.
         -4    1    3    3    0  502 -0.88910865804E+01 -0.10372273463E+04 -0.89010088402E+03  0.13668208380E+04  0.00000000000E+00 0. -1.
</event>
<event>
 6    1  0.9434649E-006  0.1368112E+04  0.7818608E-02  0.8489696E-01
          4   -1    0    0  501    0 -0.00000000000E+00  0.00000000000E+00  0.39083274171E+03  0.39083274171E+03  0.00000000000E+00 0.  1.
          2   -1    0    0  502    0  0.00000000000E+00 -0.00000000000E+00 -0.15689078849E+04  0.15689078849E+04  0.00000000000E+00 0. -1.
        -13    1    1    2    0    0 -0.46211931256E+03  0.34040301263E+03 -0.78681502566E+01  0.57401253383E+03  0.10566000000E+00 0.  1.
         13    1    1    2    0    0  0.44796749928E+03 -0.34823479306E+03 -0.64666950067E+03  0.86030448433E+03  0.10566000000E+00 0. -1.
          2    1    1    2  501    0 -0.86849754329E+01  0.77856210304E+01 -0.37126558323E+03  0.37144875553E+03  0.00000000000E+00 0. -1.
          4    1    1    2  502    0  0.22836788712E+02  0.46159405245E-01 -0.15227190900E+03  0.15397485288E+03  0.00000000000E+00 0.  1.
</event>
<event>
 6    1  0.9434649E-006  0.5871261E+03  0.7818608E-02  0.9305086E-01
          2   -1    0    0  502    0  0.00000000000E+00  0.00000000000E+00  0.87796450497E+02  0.87796450497E+02  0.00000000000E+00 0. -1.
          4   -1    0    0  501    0 -0.00000000000E+00 -0.00000000000E+00 -0.15272859610E+04  0.15272859610E+04  0.00000000000E+00 0.  1.
        -13    1    1    2    0    0  0.14127073433E+02  0.13897884752E+03 -0.14993375558E+03  0.20492641725E+03  0.10566000000E+00 0.  1.
         13    1    1    2    0    0  0.98095596505E+02 -0.13817561009E+03 -0.35555094747E+03  0.39386765885E+03  0.10566000000E+00 0. -1.
          2    1    1    2  501    0  0.14386938840E+03 -0.89864165366E+01 -0.32013835939E+03  0.35109503806E+03  0.00000000000E+00 0. -1.
          4    1    1    2  502    0 -0.25609205833E+03  0.81831791041E+01 -0.61386644807E+03  0.66519329734E+03  0.00000000000E+00 0.  1.
</event>
<event>
 7    1  0.9434649E-006  0.1115231E+04  0.7818608E-02  0.8879794E-01
         -4   -1    0    0    0  501 -0.00000000000E+00  0.00000000000E+00  0.26377456153E+04  0.26377456153E+04  0.00000000000E+00 0. -1.
          2   -1    0    0  501    0  0.00000000000E+00 -0.00000000000E+00 -0.51314183562E+03  0.51314183562E+03  0.00000000000E+00 0. -1.
   -9000010    2    1    2    0  502 -0.35986761928E+03  0.32043364514E+03  0.73391728978E+03  0.13416862679E+04  0.10145467111E+04 0.  0.
        -13    1    1    2    0    0  0.36089548122E+03 -0.28698288155E+03  0.15650992244E+04  0.16316066671E+04  0.10566000000E+00 0.  1.
         13    1    3    3    0    0  0.71870618784E+02  0.43622968893E+03  0.77559117986E+03  0.89275047846E+03  0.10566000000E+00 0. -1.
          2    1    1    2  502    0 -0.10278619435E+01 -0.33450763586E+02 -0.17441273455E+03  0.17759451585E+03  0.00000000000E+00 0. -1.
         -4    1    3    3    0  502 -0.43173823806E+03 -0.11579604379E+03 -0.41673890079E+02  0.44893578948E+03  0.00000000000E+00 0. -1.
</event>
<event>
 7    1  0.9434649E-006  0.1393738E+04  0.7818608E-02  0.8564755E-01
          2   -1    0    0  502    0  0.00000000000E+00  0.00000000000E+00  0.80150579852E+03  0.80150579852E+03  0.00000000000E+00 0. -1.
          4   -1    0    0  501    0 -0.00000000000E+00 -0.00000000000E+00 -0.25831527980E+04  0.25831527980E+04  0.00000000000E+00 0.  1.
    9000010    2    1    2  502    0 -0.41911923705E+03  0.91254316066E+03 -0.13787077579E+04  0.20001998022E+04  0.10447814184E+04 0.  0.
        -13    1    3    3    0    0  0.26550475081E+03  0.12650635379E+03 -0.69211826187E+03  0.75201351706E+03  0.10566000000E+00 0.  1.
         13    1    1    2    0    0  0.68360212492E+03 -0.56124250441E+03 -0.25491097541E+03  0.92048065188E+03  0.10566000000E+00 0. -1.
          2    1    1    2  501    0 -0.26448288787E+03 -0.35130065625E+03 -0.14802826623E+03  0.46397814244E+03  0.00000000000E+00 0. -1.
          4    1    3    3  502    0 -0.68462398785E+03  0.78603680687E+03 -0.68658949601E+03  0.12481862852E+04  0.00000000000E+00 0.  1.
</event>
<event>
 7    1  0.9434649E-006  0.1004857E+04  0.7818608E-02  0.9261674E-01
          2   -1    0    0  502    0  0.00000000000E+00  0.00000000000E+00  0.36654974414E+04  0.36654974414E+04  0.00000000000E+00 0.  1.
          4   -1    0    0  501    0 -0.00000000000E+00 -0.00000000000E+00 -0.26278546062E+03  0.26278546062E+03  0.00000000000E+00 0.  1.
    9000010    2    1    2  502    0 -0.33487764001E+02  0.16723645015E+03  0.11341713672E+04  0.15185807647E+04  0.99531572283E+03 0.  0.
        -13    1    3    3    0    0 -0.46175917902E+03  0.27962345640E+03  0.44580451306E+03  0.70010891425E+03  0.10566000000E+00 0.  1.
         13    1    1    2    0    0 -0.34648161817E+02 -0.13287707056E+03 -0.25363130299E+01  0.13734356573E+03  0.10566000000E+00 0. -1.
          2    1    1    2  501    0  0.68135925818E+02 -0.34359379590E+02  0.22710769267E+04  0.22723585717E+04  0.00000000000E+00 0.  1.
          4    1    3    3  502    0  0.42827141502E+03 -0.11238700625E+03  0.68836685409E+03  0.81847185041E+03  0.00000000000E+00 0.  1.
</event>
<event>
 7    1  0.9434649E-006  0.1075001E+04  0.7818608E-02  0.8939107E-01
          2   -1    0    0  501    0  0.00000000000E+00  0.00000000000E+00  0.13493236722E+04  0.13493236722E+04  0.00000000000E+00 0.  1.
         -4   -1    0    0    0  501 -0.00000000000E+00 -0.00000000000E+00 -0.51188079610E+03  0.51188079610E+03  0.00000000000E+00 0. -1.
   -9000010    2    1    2    0  502 -0.11064639429E+03  0.38623277844E+03  0.71991379717E+03  0.12928871784E+04  0.99592318825E+03 0.  0.
        -13    1    1    2    0    0  0.10175967147E+03 -0.39223992920E+03 -0.42936812307E+02  0.40749328069E+03  0.10566000000E+00 0.  1.
         13    1    3    3    0    0 -0.34551985619E+03  0.64050361135E+03  0.48956437122E+03  0.87709870135E+03  0.10566000000E+00 0. -1.
          2    1    1    2  502    0  0.88867228230E+01  0.60071507544E+01  0.16046589124E+03  0.16082400926E+03  0.00000000000E+00 0.  1.
         -4    1    3    3    0  502  0.23487346190E+03 -0.25427083291E+03  0.23034942595E+03  0.41578847701E+03  0.00000000000E+00 0. -1.
</event>
<event>
 7    1  0.9434649E-006  0.1225590E+04  0.7818608E-02  0.8708757E-01
          4   -1    0    0  501    0 -0.00000000000E+00  0.00000000000E+00  0.22712356840E+04  0.22712356840E+04  0.00000000000E+00 0.  1.
          2   -1    0    0  502    0  0.00000000000E+00 -0.00000000000E+00 -0.88115030293E+03  0.88115030293E+03  0.00000000000E+00 0.  1.
    9000010    2    1    2  502    0 -0.23536201102E+03 -0.69646999174E+03  0.10119367459E+04  0.15961100971E+04  0.99150680218E+03 0.  0.
        -13    1    3    3    0    0  0.30596617347E+03 -0.10136141763E+03  0.62542685430E+03  0.70359661564E+03  0.10566000000E+00 0.  1.
         13    1    1    2    0    0  0.23023836372E+03  0.67559748377E+03  0.83524754769E+03  0.10986719899E+04  0.10566000000E+00 0. -1.
          2    1    1    2  501    0  0.51236473051E+01  0.20872507969E+02 -0.45709891257E+03  0.45760389992E+03  0.00000000000E+00 0.  1.
          4    1    3    3  502    0 -0.54132818450E+03 -0.59510857410E+03  0.38650989161E+03  0.89251348147E+03  0.00000000000E+00 0.  1.
</event>
<event>
 7    1  0.9434649E-006  0.1005222E+04  0.7818608E-02  0.8967347E-01
          2   -1    0    0  501    0  0.00000000000E+00  0.00000000000E+00  0.17181621714E+04  0.17181621714E+04  0.00000000000E+00 0. -1.
         -4   -1    0    0    0  501 -0.00000000000E+00 -0.00000000000E+00 -0.32515359249E+03  0.32515359249E+03  0.00000000000E+00 0. -1.
   -9000010    2    1    2    0  502 -0.22353964275E+01 -0.44055737273E+03  0.97719440232E+03  0.14017978790E+04  0.90334522631E+03 0.  0.
        -13    1    1    2    0    0 -0.28399390066E+02  0.44047001411E+03  0.33208206040E+03  0.55235755149E+03  0.10566000000E+00 0.  1.
         13    1    3    3    0    0  0.27107084992E+03  0.72181068986E+02  0.18944815751E+02  0.28115552565E+03  0.10566000000E+00 0. -1.
          2    1    1    2  502    0  0.30634786493E+02  0.87358622802E-01  0.83732116239E+02  0.89160333472E+02  0.00000000000E+00 0. -1.
         -4    1    3    3    0  502 -0.27330624634E+03 -0.51273844172E+03  0.95824958656E+03  0.11206423533E+04  0.00000000000E+00 0. -1.
</event>
<event>
 7    1  0.9434649E-006  0.1226261E+04  0.7818608E-02  0.8702893E-01
          2   -1    0    0  501    0  0.00000000000E+00  0.00000000000E+00  0.16736251153E+04  0.16736251153E+04  0.00000000000E+00 0. -1.
         -4   -1    0    0    0  501 -0.00000000000E+00 -0.00000000000E+00 -0.62034811656E+03  0.62034811656E+03  0.00000000000E+00 0. -1.
   -9000010    2    1    2    0  502  0.73646695866E+03 -0.12304941467E+03  0.39027168284E+03  0.12920377621E+04  0.97955339451E+03 0.  0.
        -13    1    1    2    0    0 -0.71985862439E+03  0.11644970373E+03  0.62688188810E+03  0.96163292653E+03  0.10566000000E+00 0.  1.
         13    1    3    3    0    0  0.25710240527E+03  0.14508756905E+03 -0.29261921614E+03  0.41566581085E+03  0.10566000000E+00 0. -1.
          2    1    1    2  502    0 -0.16608334278E+02  0.65997109433E+01  0.36123427753E+02  0.40302543153E+02  0.00000000000E+00 0. -1.
         -4    1    3    3    0  502  0.47936455339E+03 -0.26813698372E+03  0.68289089898E+03  0.87637195128E+03  0.00000000000E+00 0. -1.
</event>
<event>
 7    1  0.9434649E-006  0.1017311E+04  0.7818608E-02  0.9365188E-01
          2   -1    0    0  502    0  0.00000000000E+00  0.00000000000E+00  0.66697600422E+03  0.66697600422E+03  0.00000000000E+00 0.  1.
          4   -1    0    0  501    0 -0.00000000000E+00 -0.00000000000E+00 -0.15849537167E+04  0.15849537167E+04  0.00000000000E+00 0.  1.
    9000010    2    1    2  502    0  0.67529798234E+02  0.40263319956E+02 -0.97694235253E+03  0.14097565225E+04  0.10133191423E+04 0.  0.
        -13    1    3    3    0    0 -0.35260394748E+03  0.34209678115E+03 -0.38911975680E+03  0.62671680028E+03  0.10566000000E+00 0.  1.
         13    1    1    2    0    0 -0.76328913591E+02 -0.48265599722E+02 -0.38631723125E+03  0.39673251126E+03  0.10566000000E+00 0. -1.
          2    1    1    2  501    0  0.87991153569E+01  0.80022797655E+01  0.44528187125E+03  0.44544068716E+03  0.00000000000E+00 0.  1.
          4    1    3    3  502    0  0.42013374572E+03 -0.30183346119E+03 -0.58782259573E+03  0.78303972226E+03  0.00000000000E+00 0.  1.
</event>
<event>
 7    1  0.9434649E-006  0.1012971E+04  0.7818608E-02  0.9211120E-01
          2   -1    0    0  501    0  0.00000000000E+00  0.00000000000E+00  0.16802026605E+04  0.16802026605E+04  0.00000000000E+00 0. -1.
         -4   -1    0    0    0  501 -0.00000000000E+00 -0.00000000000E+00 -0.12244939958E+04  0.12244939958E+04  0.00000000000E+00 0. -1.
   -9000010    2    1    2    0  502 -0.13273166106E+02  0.35308269285E+03  0.74264505770E+02  0.10552996903E+04  0.99161416622E+03 0.  0.
        -13    1    1    2    0    0 -0.45346882026E+02 -0.15736709867E+03 -0.71528834300E+03  0.73379708929E+03  0.10566000000E+00 0.  1.
         13    1    3    3    0    0  0.22238261722E+03  0.20618910991E+03 -0.40226078192E+03  0.50376753103E+03  0.10566000000E+00 0. -1.
          2    1    1    2  502    0  0.58620048133E+02 -0.19571559418E+03  0.10967325020E+04  0.11155998766E+04  0.00000000000E+00 0. -1.
         -4    1    3    3    0  502 -0.23565578333E+03  0.14689358294E+03  0.47652528769E+03  0.55153215929E+03  0.00000000000E+00 0. -1.
</event>
<event>
 7    1  0.9434649E-006  0.1000412E+04  0.7818608E-02  0.9309727E-01
          4   -1    0    0  501    0 -0.00000000000E+00  0.00000000000E+00  0.22851079537E+04  0.22851079537E+04  0.00000000000E+00 0.  1.
          2   -1    0    0  502    0  0.00000000000E+00 -0.00000000000E+00 -0.11166728775E+04  0.11166728775E+04  0.00000000000E+00 0. -1.
    9000010    2    1    2  502    0  0.12232814221E+03  0.66469854428E+02  0.21158402525E+04  0.23416633501E+04  0.99359189563E+03 0.  0.
        -13    1    3    3    0    0 -0.24979376926E+02 -0.45553096016E+03  0.85476041987E+03  0.96888998936E+03  0.10566000000E+00 0.  1.
         13    1    1    2    0    0 -0.10314054801E+03 -0.29484570802E+02  0.44368740320E+01  0.10736391188E+03  0.10566000000E+00 0. -1.
          2    1    1    2  501    0 -0.19187594200E+02 -0.36985283626E+02 -0.95184205034E+03  0.95275356928E+03  0.00000000000E+00 0. -1.
          4    1    3    3  502    0  0.14730751913E+03  0.52200081459E+03  0.12610798326E+04  0.13727733607E+04  0.00000000000E+00 0.  1.
</event>
<event>
 7    1  0.9434649E-006  0.1503876E+04  0.7818608E-02  0.8767121E-01
          1   -1    0    0  501    0  0.00000000000E+00  0.00000000000E+00  0.24584051578E+04  0.24584051578E+04  0.00000000000E+00 0.  1.
         -4   -1    0    0    0  501 -0.00000000000E+00 -0.00000000000E+00 -0.22128675590E+04  0.22128675590E+04  0.00000000000E+00 0. -1.
   -9000010    2    1    2    0  502 -0.12287071312E+04  0.22817454901E+03 -0.14032499607E+04  0.21302569670E+04  0.10035434491E+04 0.  0.
        -13    1    1    2    0    0  0.21089829747E+03  0.21828051907E+03 -0.21433723175E+03  0.37157090435E+03  0.10566000000E+00 0.  1.
         13    1    3    3    0    0 -0.96790335521E+02 -0.20547586229E+03 -0.68413839410E+03  0.72085647149E+03  0.10566000000E+00 0. -1.
          1    1    1    2  502    0  0.10178088337E+04 -0.44645506808E+03  0.18631247912E+04  0.21694448454E+04  0.00000000000E+00 0.  1.
         -4    1    3    3    0  502 -0.11319167956E+04  0.43365041130E+03 -0.71911156657E+03  0.14094004955E+04  0.00000000000E+00 0. -1.
</event>
<event>
 6    1  0.9434649E-006  0.6927837E+03  0.7818608E-02  0.9133512E-01
         -4   -1    0    0    0  501 -0.00000000000E+00  0.00000000000E+00  0.16504913970E+03  0.16504913970E+03  0.00000000000E+00 0. -1.
          1   -1    0    0  501    0  0.00000000000E+00 -0.00000000000E+00 -0.13531942457E+04  0.13531942457E+04  0.00000000000E+00 0. -1.
        -13    1    1    2    0    0 -0.40943899792E+02 -0.33904527545E+02 -0.64754306607E+02  0.83779778625E+02  0.10566000000E+00 0.  1.
         13    1    1    2    0    0 -0.20032735205E+03  0.11099749400E+03 -0.11339165415E+03  0.25555658874E+03  0.10566000000E+00 0. -1.
          1    1    1    2  502    0  0.11808147750E+03  0.17253512933E+03 -0.10878770085E+03  0.23568277416E+03  0.00000000000E+00 0. -1.
         -4    1    1    2    0  502  0.12318977434E+03 -0.24962809578E+03 -0.90121144439E+03  0.94322424386E+03  0.00000000000E+00 0. -1.
</event>
<event>
 7    1  0.9434649E-006  0.1006929E+04  0.7818608E-02  0.9216034E-01
         -4   -1    0    0    0  501 -0.00000000000E+00  0.00000000000E+00  0.49057239238E+03  0.49057239238E+03  0.00000000000E+00 0. -1.
          2   -1    0    0  501    0  0.00000000000E+00 -0.00000000000E+00 -0.23384938359E+04  0.23384938359E+04  0.00000000000E+00 0. -1.
   -9000010    2    1    2    0  502  0.30797396714E+03  0.11465962591E+03 -0.41595430701E+03  0.11247035095E+04  0.99194012144E+03 0.  0.
        -13    1    1    2    0    0 -0.16145995708E+03 -0.26382271912E+02  0.80444154178E+02  0.18230911967E+03  0.10566000000E+00 0.  1.
         13    1    3    3    0    0  0.22931617546E+03  0.52099209586E+03 -0.48574891950E+02  0.57129519828E+03  0.10566000000E+00 0. -1.
          2    1    1    2  502    0 -0.14651401006E+03 -0.88277354003E+02 -0.15124112907E+04  0.15220535991E+04  0.00000000000E+00 0. -1.
         -4    1    3    3    0  502  0.78657791675E+02 -0.40633246995E+03 -0.36737941506E+03  0.55340831123E+03  0.00000000000E+00 0. -1.
</event>
<event>
 7    1  0.9434649E-006  0.1017267E+04  0.7818608E-02  0.9226370E-01
          4   -1    0    0  501    0 -0.00000000000E+00  0.00000000000E+00  0.31493393029E+03  0.31493393029E+03  0.00000000000E+00 0.  1.
          2   -1    0    0  502    0  0.00000000000E+00 -0.00000000000E+00 -0.15462537924E+04  0.15462537924E+04  0.00000000000E+00 0.  1.
    9000010    2    1    2  502    0 -0.15108597870E+03 -0.17511554655E+02 -0.59520821792E+03  0.11785553680E+04  0.10057764689E+04 0.  0.
        -13    1    3    3    0    0 -0.40633485790E+03 -0.13499847057E+03 -0.74563940525E+03  0.85983180775E+03  0.10566000000E+00 0.  1.
         13    1    1    2    0    0  0.15278935130E+03  0.18463110880E+00 -0.22985935488E+03  0.27600716323E+03  0.10566000000E+00 0. -1.
          2    1    1    2  501    0 -0.17033726077E+01  0.17326923546E+02 -0.40625228933E+03  0.40662519148E+03  0.00000000000E+00 0.  1.
          4    1    3    3  502    0  0.25524887920E+03  0.11748691592E+03  0.15043118733E+03  0.31872356026E+03  0.00000000000E+00 0.  1.
</event>
<event>
 7    1  0.9434649E-006  0.1309026E+04  0.7818608E-02  0.8625274E-01
          2   -1    0    0  502    0  0.00000000000E+00  0.00000000000E+00  0.89837120127E+03  0.89837120127E+03  0.00000000000E+00 0. -1.
          4   -1    0    0  501    0 -0.00000000000E+00 -0.00000000000E+00 -0.19524366625E+04  0.19524366625E+04  0.00000000000E+00 0.  1.
    9000010    2    1    2  502    0  0.80825583185E+03 -0.30234962147E+03 -0.12542156926E+04  0.18184905014E+04  0.99456418426E+03 0.  0.
        -13    1    3    3    0    0 -0.74944253632E+02  0.22733015376E+03 -0.45784970539E+03  0.51664494951E+03  0.10566000000E+00 0.  1.
         13    1    1    2    0    0 -0.81324760602E+03  0.19607560635E+03  0.36780493432E+02  0.83735901975E+03  0.10566000000E+00 0. -1.
          2    1    1    2  501    0  0.49917741753E+01  0.10627401512E+03  0.16336973794E+03  0.19495834266E+03  0.00000000000E+00 0. -1.
          4    1    3    3  502    0  0.88320008548E+03 -0.52967977523E+03 -0.79636598722E+03  0.13018455518E+04  0.00000000000E+00 0.  1.
</event>
<event>
 7    1  0.9434649E-006  0.1049194E+04  0.7818608E-02  0.8973732E-01
          2   -1    0    0  502    0  0.00000000000E+00  0.00000000000E+00  0.13361396013E+04  0.13361396013E+04  0.00000000000E+00 0. -1.
          4   -1    0    0  501    0 -0.00000000000E+00 -0.00000000000E+00 -0.13953172411E+04  0.13953172411E+04  0.00000000000E+00 0.  1.
    9000010    2    1    2  502    0 -0.98123961277E+02  0.41833023224E+03  0.12097134282E+03  0.10757799672E+04  0.97879516600E+03 0.  0.
        -13    1    3    3    0    0  0.70864788286E+02  0.71527901038E+03  0.14503522790E+03  0.73326742012E+03  0.10566000000E+00 0.  1.
         13    1    1    2    0    0 -0.28957126875E+02 -0.37459017519E+03 -0.87273574729E+03  0.95017051644E+03  0.10566000000E+00 0. -1.
          2    1    1    2  501    0  0.12708108815E+03 -0.43740057043E+02  0.69258676475E+03  0.70550635877E+03  0.00000000000E+00 0. -1.
          4    1    3    3  502    0 -0.16898874956E+03 -0.29694877814E+03 -0.24063885083E+02  0.34251254705E+03  0.00000000000E+00 0.  1.
</event>
<event>
 7    1  0.9434649E-006  0.1025492E+04  0.7818608E-02  0.9115747E-01
         -4   -1    0    0    0  501 -0.00000000000E+00  0.00000000000E+00  0.20408556182E+04  0.20408556182E+04  0.00000000000E+00 0. -1.
          4   -1    0    0  501    0  0.00000000000E+00 -0.00000000000E+00 -0.18531983141E+04  0.18531983141E+04  0.00000000000E+00 0. -1.
   -9000010    2    1    2    0  502  0.20820864422E+03  0.27532385110E+02  0.11339383222E+04  0.15261336279E+04  0.99957934148E+03 0.  0.
        -13    1    1    2    0    0 -0.22601951807E+03 -0.47463116361E+02  0.69194856094E+03  0.72947268086E+03  0.10566000000E+00 0.  1.
         13    1    3    3    0    0 -0.70144751283E+01 -0.25892349773E+03  0.11387156905E+04  0.11678030722E+04  0.10566000000E+00 0. -1.
          4    1    1    2  502    0  0.17810873851E+02  0.19930731250E+02 -0.16382295791E+04  0.16384476235E+04  0.00000000000E+00 0. -1.
         -4    1    3    3    0  502  0.21522311935E+03  0.28645588284E+03 -0.47773682691E+01  0.35833055572E+03  0.00000000000E+00 0. -1.
</event>
<event>
 6    1  0.9434649E-006  0.4611616E+03  0.7818608E-02  0.9630372E-01
          2   -1    0    0  502    0  0.00000000000E+00  0.00000000000E+00  0.28693544549E+04  0.28693544549E+04  0.00000000000E+00 0. -1.
          4   -1    0    0  501    0 -0.00000000000E+00 -0.00000000000E+00 -0.37977520827E+03  0.37977520827E+03  0.00000000000E+00 0.  1.
        -13    1    1    2    0    0 -0.17308099281E+03  0.10611275644E+02  0.69214718263E+02  0.18670917929E+03  0.10566000000E+00 0.  1.
         13    1    1    2    0    0  0.22986123809E+03  0.28816575331E+03 -0.13631710799E+02  0.36886518521E+03  0.10566000000E+00 0. -1.
          2    1    1    2  501    0  0.81962377380E+02 -0.44945509962E+03  0.24460741167E+04  0.24883742287E+04  0.00000000000E+00 0. -1.
          4    1    1    2  502    0 -0.13874262266E+03  0.15067807066E+03 -0.12077877568E+02  0.20518106990E+03  0.00000000000E+00 0.  1.
</event>
<event>
 6    1  0.9434649E-006  0.2138255E+04  0.7818608E-02  0.8114312E-01
          4   -1    0    0  501    0  0.00000000000E+00  0.00000000000E+00  0.35062795586E+04  0.35062795586E+04  0.00000000000E+00 0.  1.
         -4   -1    0    0    0  501 -0.00000000000E+00 -0.00000000000E+00 -0.14568211751E+04  0.14568211751E+04  0.00000000000E+00 0. -1.
        -13    1    1    2    0    0 -0.59977005369E+03 -0.25249618388E+03  0.32231653700E+03  0.72619997339E+03  0.10566000000E+00 0.  1.
         13    1    1    2    0    0  0.40545589720E+03  0.35384999098E+03 -0.69784341842E+03  0.88124329699E+03  0.10566000000E+00 0. -1.
          4    1    1    2  502    0 -0.36182646027E+03 -0.99055236670E+01  0.27030567673E+04  0.27271839677E+04  0.00000000000E+00 0.  1.
         -4    1    1    2    0  502  0.55614061676E+03 -0.91448283440E+02 -0.27807150242E+03  0.62847349555E+03  0.00000000000E+00 0. -1.
</event>
<event>
 7    1  0.9434649E-006  0.1207438E+04  0.7818608E-02  0.8734880E-01
         -4   -1    0    0    0  501  0.00000000000E+00  0.00000000000E+00  0.28063408940E+04  0.28063408940E+04  0.00000000000E+00 0. -1.
         -4   -1    0    0    0  502 -0.00000000000E+00 -0.00000000000E+00 -0.10245069335E+04  0.10245069335E+04  0.00000000000E+00 0. -1.
   -9000010    2    1    2    0  501  0.56772006708E+03  0.32858635565E+03  0.10698477182E+03  0.12026698953E+04  0.10023442862E+04 0.  0.
        -13    1    1    2    0    0 -0.48573959589E+03 -0.48426489959E+03 -0.22372955156E+03  0.72146404720E+03  0.10566000000E+00 0.  1.
         13    1    3    3    0    0  0.54244099801E+03  0.87242082437E+02 -0.37352608276E+03  0.66436071749E+03  0.10566000000E+00 0. -1.
         -4    1    1    2    0  502 -0.81980471189E+02  0.15567854394E+03  0.18985787402E+04  0.19067138851E+04  0.00000000000E+00 0. -1.
         -4    1    3    3    0  501  0.25279069061E+02  0.24134427322E+03  0.48051085458E+03  0.53830917781E+03  0.00000000000E+00 0. -1.
</event>
<event>
 7    1  0.9434649E-006  0.1205870E+04  0.7818608E-02  0.8718331E-01
          4   -1    0    0  501    0 -0.00000000000E+00  0.00000000000E+00  0.97041048754E+03  0.97041048754E+03  0.00000000000E+00 0.  1.
          2   -1    0    0  502    0  0.00000000000E+00 -0.00000000000E+00 -0.13696277173E+04  0.13696277173E+04  0.00000000000E+00 0. -1.
    9000010    2    1    2  502    0  0.19827017431E+03  0.69329793021E+03  0.13255998857E+02  0.12031653326E+04  0.96304621594E+03 0.  0.
        -13    1    3    3    0    0  0.38423237507E+03  0.86355688271E+03  0.58577599009E+02  0.94699332310E+03  0.10566000000E+00 0.  1.
         13    1    1    2    0    0 -0.21307135389E+03 -0.69676056744E+03 -0.45088902902E+01  0.72862543975E+03  0.10566000000E+00 0. -1.
          2    1    1    2  501    0  0.14801179586E+02  0.34626372320E+01 -0.40796433832E+03  0.40824743247E+03  0.00000000000E+00 0. -1.
          4    1    3    3  502    0 -0.18596220077E+03 -0.17025895250E+03 -0.45321600152E+02  0.25617200952E+03  0.00000000000E+00 0.  1.
</event>
<event>
 7    1  0.9434649E-006  0.1195643E+04  0.7818608E-02  0.8751669E-01
          4   -1    0    0  501    0 -0.00000000000E+00  0.00000000000E+00  0.69713689193E+03  0.69713689193E+03  0.00000000000E+00 0.  1.
          2   -1    0    0  502    0  0.00000000000E+00 -0.00000000000E+00 -0.16566277932E+04  0.16566277932E+04  0.00000000000E+00 0.  1.
    9000010    2    1    2  502    0 -0.21081829270E+03 -0.71036052310E+03 -0.21304943500E+03  0.12679698469E+04  0.10066285539E+04 0.  0.
        -13    1    3    3    0    0 -0.53269510699E+03 -0.16557829637E+03 -0.29311973814E+03  0.63015826686E+03  0.10566000000E+00 0.  1.
         13    1    1    2    0    0  0.43286026951E+02  0.56519964433E+03 -0.53635306808E+03  0.78038384330E+03  0.10566000000E+00 0. -1.
          2    1    1    2  501    0  0.16753226575E+03  0.14516087877E+03 -0.21008839816E+03  0.30541099495E+03  0.00000000000E+00 0.  1.
          4    1    3    3  502    0  0.32187681429E+03 -0.54478222673E+03  0.80070303139E+02  0.63781158000E+03  0.00000000000E+00 0.  1.
</event>
<event>
 7    1  0.9434649E-006  0.1027172E+04  0.7818608E-02  0.9269106E-01
         -4   -1    0    0    0  501 -0.00000000000E+00  0.00000000000E+00  0.14923808086E+04  0.14923808086E+04  0.00000000000E+00 0. -1.
          2   -1    0    0  501    0  0.00000000000E+00 -0.00000000000E+00 -0.38361246620E+03  0.38361246620E+03  0.00000000000E+00 0. -1.
   -9000010    2    1    2    0  502 -0.90450116546E+02 -0.64400161075E+02  0.62040048107E+03  0.11985424067E+04  0.10194501162E+04 0.  0.
        -13    1    1    2    0    0  0.75862314620E+02  0.10083500826E+03  0.57163569071E+03  0.58539744083E+03  0.10566000000E+00 0.  1.
         13    1    3    3    0    0  0.42707984229E+03 -0.11374334017E+03  0.49531102091E+03  0.66382810857E+03  0.10566000000E+00 0. -1.
          2    1    1    2  502    0  0.14587801925E+02 -0.36434847184E+02 -0.83267829398E+02  0.92053427242E+02  0.00000000000E+00 0. -1.
         -4    1    3    3    0  502 -0.51752995883E+03  0.49343179094E+02  0.12508946016E+03  0.53471429816E+03  0.00000000000E+00 0. -1.
</event>
<event>
 7    1  0.9434649E-006  0.1066078E+04  0.7818608E-02  0.9217723E-01
          2   -1    0    0  502    0  0.00000000000E+00  0.00000000000E+00  0.66679370508E+03  0.66679370508E+03  0.00000000000E+00 0.  1.
          4   -1    0    0  501    0 -0.00000000000E+00 -0.00000000000E+00 -0.10082773701E+04  0.10082773701E+04  0.00000000000E+00 0.  1.
    9000010    2    1    2  502    0 -0.81994584318E+02  0.34321159972E+03 -0.28226680805E+03  0.11044841783E+04  0.10078161713E+04 0.  0.
        -13    1    3    3    0    0 -0.22106712647E+03 -0.15261617666E+03 -0.48227612657E+03  0.55204406092E+03  0.10566000000E+00 0.  1.
         13    1    1    2    0    0 -0.12366555738E+03 -0.58857589122E+02 -0.15497934130E+03  0.20682358007E+03  0.10566000000E+00 0. -1.
          2    1    1    2  501    0  0.20566014169E+03 -0.28435401060E+03  0.95762484348E+02  0.36376331678E+03  0.00000000000E+00 0.  1.
          4    1    3    3  502    0  0.13907254215E+03  0.49582777637E+03  0.20000931852E+03  0.55244011739E+03  0.00000000000E+00 0.  1.
</event>
<event>
 6    1  0.9434649E-006  0.6544155E+03  0.7818608E-02  0.9372012E-01
          4   -1    0    0  501    0 -0.00000000000E+00  0.00000000000E+00  0.98930345645E+03  0.98930345645E+03  0.00000000000E+00 0.  1.
          2   -1    0    0  502    0  0.00000000000E+00 -0.00000000000E+00 -0.13487758878E+04  0.13487758878E+04  0.00000000000E+00 0.  1.
        -13    1    1    2    0    0  0.12398157964E+02 -0.16562635005E+03  0.67836727740E+02  0.17940912726E+03  0.10566000000E+00 0.  1.
         13    1    1    2    0    0  0.13009390761E+03 -0.30799769358E+03  0.30311383635E+03  0.45129260241E+03  0.10566000000E+00 0. -1.
          2    1    1    2  501    0  0.15736988305E+02  0.23636044040E+02 -0.11022274787E+04  0.11025931843E+04  0.00000000000E+00 0.  1.
          4    1    1    2  502    0 -0.15822905387E+03  0.44998799958E+03  0.37180448326E+03  0.60478443022E+03  0.00000000000E+00 0.  1.
</event>
<event>
 7    1  0.9434649E-006  0.1088846E+04  0.7818608E-02  0.8920242E-01
          4   -1    0    0  501    0 -0.00000000000E+00  0.00000000000E+00  0.38566373176E+03  0.38566373176E+03  0.00000000000E+00 0.  1.
          2   -1    0    0  502    0  0.00000000000E+00 -0.00000000000E+00 -0.37469123762E+04  0.37469123762E+04  0.00000000000E+00 0.  1.
    9000010    2    1    2  502    0 -0.40640173383E+03 -0.19760663884E+03 -0.19801283470E+04  0.22657426195E+04  0.10042263660E+04 0.  0.
        -13    1    3    3    0    0 -0.31758235862E+03  0.39171867367E+03 -0.95466360887E+03  0.10796687877E+04  0.10566000000E+00 0.  1.
         13    1    1    2    0    0  0.42176144345E+03  0.87063180945E+00  0.47699498954E+02  0.42445108852E+03  0.10566000000E+00 0. -1.
          2    1    1    2  501    0 -0.15359709627E+02  0.19673600703E+03 -0.14288197963E+04  0.14423823999E+04  0.00000000000E+00 0.  1.
          4    1    3    3  502    0 -0.88819375206E+02 -0.58932531251E+03 -0.10254647382E+04  0.11860738319E+04  0.00000000000E+00 0.  1.
</event>
<event>
 7    1  0.9434649E-006  0.1024245E+04  0.7818608E-02  0.9199553E-01
          4   -1    0    0  501    0 -0.00000000000E+00  0.00000000000E+00  0.60624391932E+03  0.60624391932E+03  0.00000000000E+00 0.  1.
          2   -1    0    0  502    0  0.00000000000E+00 -0.00000000000E+00 -0.31412849319E+04  0.31412849319E+04  0.00000000000E+00 0.  1.
    9000010    2    1    2  502    0  0.90133487222E+02 -0.94085131681E+02 -0.19292314342E+03  0.10372197995E+04  0.10107569023E+04 0.  0.
        -13    1    3    3    0    0 -0.34987570321E+03  0.21602709173E+03  0.10166392649E+03  0.42357558614E+03  0.10566000000E+00 0.  1.
         13    1    1    2    0    0 -0.12998951748E+03  0.10632642202E+03  0.14558568937E+03  0.22225612880E+03  0.10566000000E+00 0. -1.
          2    1    1    2  501    0  0.39856030263E+02 -0.12241290335E+02 -0.24877035585E+04  0.24880529230E+04  0.00000000000E+00 0.  1.
          4    1    3    3  502    0  0.44000919044E+03 -0.31011222341E+03 -0.29458706991E+03  0.61364421332E+03  0.00000000000E+00 0.  1.
</event>
<event>
 7    1  0.9434649E-006  0.1301504E+04  0.7818608E-02  0.8823577E-01
         -4   -1    0    0    0  501 -0.00000000000E+00  0.00000000000E+00  0.28737837703E+04  0.28737837703E+04  0.00000000000E+00 0. -1.
          1   -1    0    0  501    0  0.00000000000E+00 -0.00000000000E+00 -0.89764145940E+03  0.89764145940E+03  0.00000000000E+00 0. -1.
   -9000010    2    1    2    0  502 -0.72177500564E+03  0.20360393514E+03  0.52477586311E+03  0.13552918727E+04  0.99950619433E+03 0.  0.
        -13    1    1    2    0    0  0.33714846426E+02  0.36707659475E+03  0.14765351537E+04  0.15218534715E+04  0.10566000000E+00 0.  1.
         13    1    3    3    0    0 -0.66838274859E+03  0.56171154307E+03  0.27473684565E+03  0.91527902945E+03  0.10566000000E+00 0. -1.
          1    1    1    2  502    0  0.68806015921E+03 -0.57068052990E+03 -0.25168705950E+02  0.89427988552E+03  0.00000000000E+00 0. -1.
         -4    1    3    3    0  502 -0.53392257050E+02 -0.35810760792E+03  0.25003901746E+03  0.44001284324E+03  0.00000000000E+00 0. -1.
</event>
<event>
 6    1  0.9434649E-006  0.6239373E+03  0.7818608E-02  0.9241285E-01
          4   -1    0    0  501    0 -0.00000000000E+00  0.00000000000E+00  0.18285806249E+03  0.18285806249E+03  0.00000000000E+00 0.  1.
          2   -1    0    0  502    0  0.00000000000E+00 -0.00000000000E+00 -0.13016192372E+04  0.13016192372E+04  0.00000000000E+00 0.  1.
        -13    1    1    2    0    0 -0.18298249436E+03  0.82639697386E+02  0.25358217604E+02  0.20237332628E+03  0.10566000000E+00 0.  1.
         13    1    1    2    0    0  0.20374921615E+03 -0.20727923220E+02 -0.13387660094E+03  0.24467600071E+03  0.10566000000E+00 0. -1.
          2    1    1    2  501    0  0.82423605258E+02 -0.31638874158E+02 -0.75927028627E+03  0.76438605212E+03  0.00000000000E+00 0.  1.
          4    1    1    2  502    0 -0.10319032706E+03 -0.30272900008E+02 -0.25097250512E+03  0.27304192059E+03  0.00000000000E+00 0.  1.
</event>
<event>
 7    1  0.9434649E-006  0.1013035E+04  0.7818608E-02  0.9144546E-01
          4   -1    0    0  501    0 -0.00000000000E+00  0.00000000000E+00  0.19169928718E+04  0.19169928718E+04  0.00000000000E+00 0.  1.
          2   -1    0    0  502    0  0.00000000000E+00 -0.00000000000E+00 -0.75054966209E+03  0.75054966209E+03  0.00000000000E+00 0.  1.
    9000010    2    1    2  502    0 -0.16612018526E+03  0.11209000398E+03  0.51174572856E+03  0.11328120360E+04  0.99056515848E+03 0.  0.
        -13    1    3    3    0    0  0.17138330485E+03  0.48087581017E+03  0.27032090802E+03  0.57765663370E+03  0.10566000000E+00 0.  1.
         13    1    1    2    0    0  0.17883797951E+03 -0.11491194054E+03  0.10842947808E+04  0.11049357266E+04  0.10566000000E+00 0. -1.
          2    1    1    2  501    0 -0.12717794248E+02  0.28219365587E+01 -0.42959729966E+03  0.42979477136E+03  0.00000000000E+00 0.  1.
          4    1    3    3  502    0 -0.33750349011E+03 -0.36878580619E+03  0.24142482055E+03  0.55515540227E+03  0.00000000000E+00 0.  1.
</event>
<event>
 7    1  0.9434649E-006  0.1192320E+04  0.7818608E-02  0.8753553E-01
          1   -1    0    0  501    0  0.00000000000E+00  0.00000000000E+00  0.91980385071E+03  0.91980385071E+03  0.00000000000E+00 0.  1.
         -4   -1    0    0    0  501 -0.00000000000E+00 -0.00000000000E+00 -0.20118329394E+04  0.20118329394E+04  0.00000000000E+00 0. -1.
   -9000010    2    1    2    0  502 -0.74207327441E+02 -0.62310732268E+03  0.38488404606E+02  0.11833744321E+04  0.10025588393E+04 0.  0.
        -13    1    1    2    0    0 -0.14422920979E+02  0.64802587551E+03 -0.13569574795E+04  0.15038215214E+04  0.10566000000E+00 0.  1.
         13    1    3    3    0    0  0.94047731465E+02  0.95976977015E+02  0.35523993881E+03  0.37980518849E+03  0.10566000000E+00 0. -1.
          1    1    1    2  502    0  0.88630248420E+02 -0.24918552828E+02  0.22643998621E+03  0.24444083654E+03  0.00000000000E+00 0.  1.
         -4    1    3    3    0  502 -0.16825505891E+03 -0.71908429969E+03 -0.31675153421E+03  0.80356924365E+03  0.00000000000E+00 0. -1.
</event>
<event>
 7    1  0.9434649E-006  0.1009021E+04  0.7818608E-02  0.9274035E-01
          2   -1    0    0  502    0  0.00000000000E+00  0.00000000000E+00  0.19945091660E+04  0.19945091660E+04  0.00000000000E+00 0.  1.
          4   -1    0    0  501    0 -0.00000000000E+00 -0.00000000000E+00 -0.19456344786E+03  0.19456344786E+03  0.00000000000E+00 0.  1.
    9000010    2    1    2  502    0 -0.10874084776E+03 -0.79614274858E+02  0.11999455286E+04  0.15681890151E+04  0.10005920802E+04 0.  0.
        -13    1    3    3    0    0  0.41862405768E+03  0.29147722356E+01  0.27692665990E+03  0.50193922310E+03  0.10566000000E+00 0.  1.
         13    1    1    2    0    0  0.85833672493E+02  0.96577911025E+02  0.52453630445E+03  0.54021575142E+03  0.10566000000E+00 0. -1.
          2    1    1    2  501    0  0.22907175269E+02 -0.16963636167E+02  0.75463885081E+02  0.80667847265E+02  0.00000000000E+00 0.  1.
          4    1    3    3  502    0 -0.52736490544E+03 -0.82529047093E+02  0.92301886867E+03  0.10662497920E+04  0.00000000000E+00 0.  1.
</event>
<event>
 7    1  0.9434649E-006  0.1323119E+04  0.7818608E-02  0.8616315E-01
         -4   -1    0    0    0  501 -0.00000000000E+00  0.00000000000E+00  0.30501287018E+04  0.30501287018E+04  0.00000000000E+00 0. -1.
          2   -1    0    0  501    0  0.00000000000E+00 -0.00000000000E+00 -0.72231913305E+03  0.72231913305E+03  0.00000000000E+00 0.  1.
   -9000010    2    1    2    0  502 -0.43445029834E+03  0.81314819503E+03  0.21076951952E+04  0.25115306667E+04  0.10076954923E+04 0.  0.
        -13    1    1    2    0    0  0.36998271559E+02 -0.81322413696E+03  0.27594564037E+03  0.85956289859E+03  0.10566000000E+00 0.  1.
         13    1    3    3    0    0 -0.24248487224E+03 -0.11925413816E+03  0.10688520422E+04  0.11024813658E+04  0.10566000000E+00 0. -1.
          2    1    1    2  502    0  0.39745202678E+03  0.75941928865E-01 -0.55831266775E+02  0.40135426958E+03  0.00000000000E+00 0.  1.
         -4    1    3    3    0  502 -0.19196542610E+03  0.93240233319E+03  0.10388431530E+04  0.14090493009E+04  0.00000000000E+00 0. -1.
</event>
<event>
 7    1  0.9434649E-006  0.1199946E+04  0.7818608E-02  0.8789516E-01
          2   -1    0    0  501    0  0.00000000000E+00  0.00000000000E+00  0.14655528145E+04  0.14655528145E+04  0.00000000000E+00 0.  1.
         -4   -1    0    0    0  501 -0.00000000000E+00 -0.00000000000E+00 -0.16212873038E+04  0.16212873038E+04  0.00000000000E+00 0. -1.
   -9000010    2    1    2    0  502 -0.46856787599E+03  0.26794597779E+03  0.25541345801E+03  0.12253087785E+04  0.10699507777E+04 0.  0.
        -13    1    1    2    0    0  0.45402621551E+03 -0.29892592856E+03 -0.10708601120E+04  0.12009320987E+04  0.10566000000E+00 0.  1.
         13    1    3    3    0    0 -0.27479551551E+03  0.20127054457E+03  0.67627299834E+03  0.75721039804E+03  0.10566000000E+00 0. -1.
          2    1    1    2  502    0  0.14541660474E+02  0.30979950771E+02  0.65971216463E+03  0.66059924114E+03  0.00000000000E+00 0.  1.
         -4    1    3    3    0  502 -0.19377236048E+03  0.66675433224E+02 -0.42085954033E+03  0.46809838044E+03  0.00000000000E+00 0. -1.
</event>
<event>
 7    1  0.9434649E-006  0.1157888E+04  0.7818608E-02  0.8804294E-01
          4   -1    0    0  501    0 -0.00000000000E+00  0.00000000000E+00  0.14004755607E+04  0.14004755607E+04  0.00000000000E+00 0.  1.
          2   -1    0    0  502    0  0.00000000000E+00 -0.00000000000E+00 -0.17179220309E+04  0.17179220309E+04  0.00000000000E+00 0. -1.
    9000010    2    1    2  502    0  0.52929229592E+03  0.20934986997E+03  0.77798358277E+03  0.13955079429E+04  0.10090620699E+04 0.  0.
        -13    1    3    3    0    0 -0.14583882746E+03 -0.25623035599E+03  0.38826540194E+03  0.48751717142E+03  0.10566000000E+00 0.  1.
         13    1    1    2    0    0 -0.52019335562E+03 -0.22543974189E+03  0.57463808455E+02  0.56984761551E+03  0.10566000000E+00 0. -1.
          2    1    1    2  501    0 -0.90989402984E+01  0.16089871916E+02 -0.11528938614E+04  0.11530420332E+04  0.00000000000E+00 0. -1.
          4    1    3    3  502    0  0.67513112338E+03  0.46558022596E+03  0.38971818082E+03  0.90799077144E+03  0.00000000000E+00 0.  1.
</event>
<event>
 6    1  0.9434649E-006  0.6538834E+03  0.7818608E-02  0.9192703E-01
          4   -1    0    0  501    0 -0.00000000000E+00  0.00000000000E+00  0.15487326075E+04  0.15487326075E+04  0.00000000000E+00 0.  1.
          2   -1    0    0  502    0  0.00000000000E+00 -0.00000000000E+00 -0.88199132927E+02  0.88199132927E+02  0.00000000000E+00 0. -1.
        -13    1    1    2    0    0  0.31517326292E+03 -0.61704576969E+02  0.87768279168E+03  0.93459549242E+03  0.10566000000E+00 0.  1.
         13    1    1    2    0    0 -0.29808281661E+03  0.54491203286E+02  0.56544201955E+03  0.64151955966E+03  0.10566000000E+00 0. -1.
          2    1    1    2  501    0  0.18633668572E+01  0.12522551345E+02 -0.16987749103E+02  0.21186553467E+02  0.00000000000E+00 0. -1.
          4    1    1    2  502    0 -0.18953813170E+02 -0.53091776621E+01  0.34396412419E+02  0.39630134853E+02  0.00000000000E+00 0.  1.
</event>
<event>
 7    1  0.9434649E-006  0.1054290E+04  0.7818608E-02  0.9003070E-01
         -4   -1    0    0    0  501 -0.00000000000E+00  0.00000000000E+00  0.78414855904E+03  0.78414855904E+03  0.00000000000E+00 0. -1.
          3   -1    0    0  501    0  0.00000000000E+00 -0.00000000000E+00 -0.95422870695E+03  0.95422870695E+03  0.00000000000E+00 0. -1.
   -9000010    2    1    2    0  502 -0.52173555069E+01  0.33891752545E+03 -0.43249879268E+03  0.11420053925E+04  0.10011137802E+04 0.  0.
        -13    1    1    2    0    0  0.18339352938E+02 -0.32944035398E+03  0.36528475963E+03  0.49224002832E+03  0.10566000000E+00 0.  1.
         13    1    3    3    0    0 -0.30481530174E+03  0.59114979905E+03 -0.28271743721E+03  0.72270299124E+03  0.10566000000E+00 0. -1.
          3    1    1    2  502    0 -0.13121997431E+02 -0.94771714709E+01 -0.10286611487E+03  0.10413184520E+03  0.00000000000E+00 0. -1.
         -4    1    3    3    0  502  0.29959794623E+03 -0.25223227360E+03 -0.14978135547E+03  0.41930240123E+03  0.00000000000E+00 0. -1.
</event>
<event>
 7    1  0.9434649E-006  0.1335112E+04  0.7818608E-02  0.9125679E-01
         -4   -1    0    0    0  501 -0.00000000000E+00  0.00000000000E+00  0.70513201385E+03  0.70513201385E+03  0.00000000000E+00 0. -1.
          1   -1    0    0  501    0  0.00000000000E+00 -0.00000000000E+00 -0.20339509069E+04  0.20339509069E+04  0.00000000000E+00 0. -1.
   -9000010    2    1    2    0  502 -0.44182158363E+03  0.75940053225E+03 -0.85426660904E+03  0.15925092896E+04  0.10170638712E+04 0.  0.
        -13    1    1    2    0    0  0.96269057374E+02  0.26388759229E+02  0.77149205076E+02  0.12615906241E+03  0.10566000000E+00 0.  1.
         13    1    3    3    0    0  0.14134157994E+03  0.68461385308E+03 -0.23230094339E+03  0.73663919901E+03  0.10566000000E+00 0. -1.
          1    1    1    2  502    0  0.34555252625E+03 -0.78578929148E+03 -0.55170148906E+03  0.10204145687E+04  0.00000000000E+00 0. -1.
         -4    1    3    3    0  502 -0.58316316357E+03  0.74786679167E+02 -0.62196566565E+03  0.85587009060E+03  0.00000000000E+00 0. -1.
</event>
<event>
 7    1  0.9434649E-006  0.1152729E+04  0.7818608E-02  0.8794095E-01
          4   -1    0    0  501    0 -0.00000000000E+00  0.00000000000E+00  0.44693135402E+03  0.44693135402E+03  0.00000000000E+00 0.  1.
          2   -1    0    0  502    0  0.00000000000E+00 -0.00000000000E+00 -0.22545861455E+04  0.22545861455E+04  0.00000000000E+00 0.  1.
    9000010    2    1    2  502    0 -0.45271582909E+02  0.59661479739E+03 -0.67817420952E+03  0.13362520933E+04  0.98369236333E+03 0.  0.
        -13    1    3    3    0    0  0.46532554997E+03  0.20837116899E+03 -0.29245303650E+03  0.58777138519E+03  0.10566000000E+00 0.  1.
         13    1    1    2    0    0  0.70541914882E+02 -0.59903806549E+03 -0.65619478779E+03  0.89129926307E+03  0.10566000000E+00 0. -1.
          2    1    1    2  501    0 -0.25270331973E+02  0.24232681058E+01 -0.47328579420E+03  0.47396614320E+03  0.00000000000E+00 0.  1.
          4    1    3    3  502    0 -0.51059713287E+03  0.38824362839E+03 -0.38572117301E+03  0.74848070810E+03  0.00000000000E+00 0.  1.
</event>
<event>
 7    1  0.9434649E-006  0.1113444E+04  0.7818608E-02  0.8892305E-01
          1   -1    0    0  501    0  0.00000000000E+00  0.00000000000E+00  0.15742944380E+04  0.15742944380E+04  0.00000000000E+00 0. -1.
         -4   -1    0    0    0  501 -0.00000000000E+00 -0.00000000000E+00 -0.77177777213E+03  0.77177777213E+03  0.00000000000E+00 0. -1.
   -9000010    2    1    2    0  502 -0.96312400541E+02  0.42722000638E+03 -0.17973548728E+03  0.11263719473E+04  0.10220645312E+04 0.  0.
        -13    1    1    2    0    0  0.87092082617E+02 -0.43656796736E+03  0.29886592006E+03  0.53618790579E+03  0.10566000000E+00 0.  1.
         13    1    3    3    0    0 -0.47533888482E+03  0.51521482609E+03 -0.22118884817E+03  0.73506318787E+03  0.10566000000E+00 0. -1.
          1    1    1    2  502    0  0.92203179238E+01  0.93479609833E+01  0.68338623311E+03  0.68351235705E+03  0.00000000000E+00 0. -1.
         -4    1    3    3    0  502  0.37902648428E+03 -0.87994819712E+02  0.41453360895E+02  0.39130875944E+03  0.00000000000E+00 0. -1.
</event>
<event>
 7    1  0.9434649E-006  0.1053542E+04  0.7818608E-02  0.8987295E-01
          1   -1    0    0  501    0  0.00000000000E+00  0.00000000000E+00  0.38538122949E+03  0.38538122949E+03  0.00000000000E+00 0. -1.
         -4   -1    0    0    0  501 -0.00000000000E+00 -0.00000000000E+00 -0.27802267798E+04  0.27802267798E+04  0.00000000000E+00 0. -1.
   -9000010    2    1    2    0  502 -0.17611389959E+03  0.31817328286E+03 -0.15388114523E+04  0.18669261945E+04  0.99258369241E+03 0.  0.
        -13    1    1    2    0    0  0.15893905136E+03 -0.31337070534E+03 -0.10482848435E+04  0.11056056916E+04  0.10566000000E+00 0.  1.
         13    1    3    3    0    0 -0.11625713883E+03 -0.29514178051E+03 -0.15700939465E+03  0.35394399855E+03  0.10566000000E+00 0. -1.
          1    1    1    2  502    0  0.17174848232E+02 -0.48025775167E+01  0.19225074555E+03  0.19307612314E+03  0.00000000000E+00 0. -1.
         -4    1    3    3    0  502 -0.59856760761E+02  0.61331506337E+03 -0.13818020576E+04  0.15129821960E+04  0.00000000000E+00 0. -1.
</event>
<event>
 7    1  0.9434649E-006  0.1019603E+04  0.7818608E-02  0.9173280E-01
          1   -1    0    0  501    0  0.00000000000E+00  0.00000000000E+00  0.71466320778E+03  0.71466320778E+03  0.00000000000E+00 0.  1.
         -4   -1    0    0    0  501 -0.00000000000E+00 -0.00000000000E+00 -0.29770502873E+04  0.29770502873E+04  0.00000000000E+00 0. -1.
   -9000010    2    1    2    0  502  0.15118383365E+03  0.43402455870E+02 -0.20640633745E+04  0.23000202803E+04  0.10024945641E+04 0.  0.
        -13    1    1    2    0    0 -0.18438928175E+03 -0.40355896637E+02 -0.78332332668E+03  0.80574403560E+03  0.10566000000E+00 0.  1.
         13    1    3    3    0    0  0.16434109628E+03 -0.44561806053E+03 -0.13768674435E+04  0.14564846103E+04  0.10566000000E+00 0. -1.
          1    1    1    2  502    0  0.33205448107E+02 -0.30465592328E+01  0.58499962164E+03  0.58594917922E+03  0.00000000000E+00 0.  1.
         -4    1    3    3    0  502 -0.13157262635E+02  0.48902051640E+03 -0.68719593098E+03  0.84353567001E+03  0.00000000000E+00 0. -1.
</event>
<event>
 7    1  0.9434649E-006  0.1080905E+04  0.7818608E-02  0.9057659E-01
          4   -1    0    0  501    0 -0.00000000000E+00  0.00000000000E+00  0.90839409019E+03  0.90839409019E+03  0.00000000000E+00 0.  1.
          2   -1    0    0  502    0  0.00000000000E+00 -0.00000000000E+00 -0.23722028330E+04  0.23722028330E+04  0.00000000000E+00 0.  1.
    9000010    2    1    2  502    0  0.61293966039E+02  0.21049462491E+03 -0.57425466233E+03  0.11716173230E+04  0.99742357951E+03 0.  0.
        -13    1    3    3    0    0  0.11368067673E+03  0.57649941971E+03 -0.54381627808E+03  0.80063164604E+03  0.10566000000E+00 0.  1.
         13    1    1    2    0    0  0.20115791152E+03  0.14221597253E+03  0.55060757238E+03  0.60320692813E+03  0.10566000000E+00 0. -1.
          2    1    1    2  501    0 -0.26245187756E+03 -0.35271059744E+03 -0.14401616529E+04  0.15057726721E+04  0.00000000000E+00 0.  1.
          4    1    3    3  502    0 -0.52386710687E+02 -0.36600479479E+03 -0.30438384248E+02  0.37098567695E+03  0.00000000000E+00 0.  1.
</event>
<event>
 7    1  0.9434649E-006  0.1047359E+04  0.7818608E-02  0.9053541E-01
          2   -1    0    0  501    0  0.00000000000E+00  0.00000000000E+00  0.36642546828E+03  0.36642546828E+03  0.00000000000E+00 0.  1.
         -4   -1    0    0    0  501 -0.00000000000E+00 -0.00000000000E+00 -0.30284561783E+04  0.30284561783E+04  0.00000000000E+00 0. -1.
   -9000010    2    1    2    0  502 -0.14242789024E+03  0.18697753321E+03 -0.22421821359E+04  0.24705881404E+04  0.10105338823E+04 0.  0.
        -13    1    1    2    0    0  0.15013865856E+03 -0.24382610511E+03 -0.63768771135E+03  0.69902676251E+03  0.10566000000E+00 0.  1.
         13    1    3    3    0    0  0.28701047817E+03  0.26189892662E+03 -0.18295120639E+04  0.18703156058E+04  0.10566000000E+00 0. -1.
          2    1    1    2  502    0 -0.77107683162E+01  0.56848571899E+02  0.21783913724E+03  0.22526674364E+03  0.00000000000E+00 0.  1.
         -4    1    3    3    0  502 -0.42943836841E+03 -0.74921393408E+02 -0.41267007202E+03  0.60027253460E+03  0.00000000000E+00 0. -1.
</event>
<event>
 7    1  0.9434649E-006  0.1216467E+04  0.7818608E-02  0.8722838E-01
         -4   -1    0    0    0  501 -0.00000000000E+00  0.00000000000E+00  0.21233439946E+04  0.21233439946E+04  0.00000000000E+00 0. -1.
          4   -1    0    0  501    0  0.00000000000E+00 -0.00000000000E+00 -0.10793541712E+04  0.10793541712E+04  0.00000000000E+00 0.  1.
   -9000010    2    1    2    0  502  0.46638309000E+03 -0.30309739064E+02  0.28965300458E+03  0.11408017729E+04  0.99954887581E+03 0.  0.
        -13    1    1    2    0    0 -0.72619942260E+03 -0.20725863931E+03  0.12461131678E+04  0.14570929219E+04  0.10566000000E+00 0.  1.
         13    1    3    3    0    0 -0.28500352489E+03 -0.27379560170E+02 -0.88414944405E+02  0.29965624151E+03  0.10566000000E+00 0. -1.
          4    1    1    2  502    0  0.25981633261E+03  0.23756837837E+03 -0.49177634893E+03  0.60480347094E+03  0.00000000000E+00 0.  1.
         -4    1    3    3    0  502  0.75138661489E+03 -0.29301788933E+01  0.37806794899E+03  0.84114553142E+03  0.00000000000E+00 0. -1.
</event>
<event>
 6    1  0.9434649E-006  0.1270754E+04  0.7818608E-02  0.8555106E-01
          4   -1    0    0  501    0 -0.00000000000E+00  0.00000000000E+00  0.23349250489E+04  0.23349250489E+04  0.00000000000E+00 0.  1.
          2   -1    0    0  502    0  0.00000000000E+00 -0.00000000000E+00 -0.17662965673E+04  0.17662965673E+04  0.00000000000E+00 0. -1.
        -13    1    1    2    0    0  0.33255875593E+03  0.39504719549E+03  0.95193587889E+03  0.10829771657E+04  0.10566000000E+00 0.  1.
         13    1    1    2    0    0 -0.40564007378E+03 -0.34671460485E+03  0.56842240143E+03  0.77965307944E+03  0.10566000000E+00 0. -1.
          2    1    1    2  501    0  0.24027836074E+02 -0.20148765805E+01 -0.15933006354E+04  0.15934830753E+04  0.00000000000E+00 0. -1.
          4    1    1    2  502    0  0.49053481777E+02 -0.46317714061E+02  0.64157083663E+03  0.64510829566E+03  0.00000000000E+00 0.  1.
</event>
<event>
 7    1  0.9434649E-006  0.1477825E+04  0.7818608E-02  0.8687321E-01
          2   -1    0    0  502    0  0.00000000000E+00  0.00000000000E+00  0.21584585990E+04  0.21584585990E+04  0.00000000000E+00 0. -1.
          4   -1    0    0  501    0 -0.00000000000E+00 -0.00000000000E+00 -0.43574678258E+04  0.43574678258E+04  0.00000000000E+00 0.  1.
    9000010    2    1    2  502    0  0.10899547822E+04 -0.13691661262E+03 -0.27619236596E+04  0.31325029787E+04  0.98873910795E+03 0.  0.
        -13    1    3    3    0    0  0.45600058204E+03  0.31940389625E+03 -0.53326507914E+03  0.77092608955E+03  0.10566000000E+00 0.  1.
         13    1    1    2    0    0 -0.32226066163E+02  0.44973753001E+03 -0.12123025654E+04  0.12934372371E+04  0.10566000000E+00 0. -1.
          2    1    1    2  501    0 -0.10577287161E+04 -0.31282091739E+03  0.17752169982E+04  0.20899862090E+04  0.00000000000E+00 0. -1.
          4    1    3    3  502    0  0.63395420018E+03 -0.45632050888E+03 -0.22286585805E+04  0.23615768891E+04  0.00000000000E+00 0.  1.
</event>
<event>
 7    1  0.9434649E-006  0.1082423E+04  0.7818608E-02  0.8981201E-01
          4   -1    0    0  501    0  0.00000000000E+00  0.00000000000E+00  0.10662947292E+04  0.10662947292E+04  0.00000000000E+00 0. -1.
          4   -1    0    0  502    0 -0.00000000000E+00 -0.00000000000E+00 -0.15961237981E+04  0.15961237981E+04  0.00000000000E+00 0.  1.
    9000010    2    1    2  501    0  0.15532990991E+03 -0.11039161667E+03 -0.94868681128E+03  0.14077796905E+04  0.10225083379E+04 0.  0.
        -13    1    3    3    0    0 -0.32669478325E+03 -0.19735183228E+03 -0.50878427690E+02  0.38505305177E+03  0.10566000000E+00 0.  1.
         13    1    1    2    0    0 -0.22273015671E+03 -0.24863467337E+03 -0.29966810316E+03  0.44858545086E+03  0.10566000000E+00 0. -1.
          4    1    3    3  501    0  0.48202469316E+03  0.86960215610E+02 -0.89780838359E+03  0.10227266387E+04  0.00000000000E+00 0.  1.
          4    1    1    2  502    0  0.67400246807E+02  0.35902629004E+03  0.71852584552E+03  0.80605338588E+03  0.00000000000E+00 0. -1.
</event>
<event>
 7    1  0.9434649E-006  0.9834727E+03  0.7818608E-02  0.9174394E-01
          4   -1    0    0  502    0  0.00000000000E+00  0.00000000000E+00  0.19120541622E+04  0.19120541622E+04  0.00000000000E+00 0.  1.
          4   -1    0    0  501    0 -0.00000000000E+00 -0.00000000000E+00 -0.76122896381E+03  0.76122896381E+03  0.00000000000E+00 0.  1.
    9000010    2    1    2  502    0  0.52224386526E+02  0.16659550948E+03 -0.11740967089E+03  0.98432703298E+03  0.96157850783E+03 0.  0.
        -13    1    3    3    0    0 -0.13352267829E+03  0.20731522078E+03 -0.49976782753E+03  0.55729327914E+03  0.10566000000E+00 0.  1.
         13    1    1    2    0    0  0.49038995037E+02 -0.20745200592E+03 -0.15372069394E+03  0.26281404206E+03  0.10566000000E+00 0. -1.
          4    1    1    2  501    0 -0.10126338156E+03  0.40856496436E+02  0.14219555632E+04  0.14261420510E+04  0.00000000000E+00 0.  1.
          4    1    3    3  502    0  0.18574706481E+03 -0.40719711296E+02  0.38235815664E+03  0.42703375384E+03  0.00000000000E+00 0.  1.
</event>
<event>
 7    1  0.9434649E-006  0.1020610E+04  0.7818608E-02  0.9408724E-01
         -4   -1    0    0    0  501 -0.00000000000E+00  0.00000000000E+00  0.61957163171E+03  0.61957163171E+03  0.00000000000E+00 0. -1.
          1   -1    0    0  501    0  0.00000000000E+00 -0.00000000000E+00 -0.11136867950E+04  0.11136867950E+04  0.00000000000E+00 0.  1.
   -9000010    2    1    2    0  502  0.15996157378E+03 -0.23065579890E+03 -0.28301354190E+01  0.10104656478E+04  0.97069202788E+03 0.  0.
        -13    1    1    2    0    0 -0.39732893045E+02 -0.64591797189E+02  0.52653058466E+02  0.92320955279E+02  0.10566000000E+00 0.  1.
         13    1    3    3    0    0 -0.26321616437E+03  0.16092696154E+03 -0.23611967807E+03  0.38850064308E+03  0.10566000000E+00 0. -1.
          1    1    1    2  502    0 -0.12022868073E+03  0.29524759608E+03 -0.54393808629E+03  0.63047182362E+03  0.00000000000E+00 0.  1.
         -4    1    3    3    0  502  0.42317773815E+03 -0.39158276044E+03  0.23328954265E+03  0.62196500468E+03  0.00000000000E+00 0. -1.
</event>
<event>
 7    1  0.9434649E-006  0.1013050E+04  0.7818608E-02  0.9086025E-01
          1   -1    0    0  501    0  0.00000000000E+00  0.00000000000E+00  0.84797654586E+03  0.84797654586E+03  0.00000000000E+00 0. -1.
         -4   -1    0    0    0  501 -0.00000000000E+00 -0.00000000000E+00 -0.10513540879E+04  0.10513540879E+04  0.00000000000E+00 0. -1.
   -9000010    2    1    2    0  502  0.23891913469E+03  0.93711370637E+02 -0.54565412525E+02  0.10117665269E+04  0.97715400360E+03 0.  0.
        -13    1    1    2    0    0 -0.22437913494E+03 -0.14734354682E+03 -0.48096099868E+03  0.55079906535E+03  0.10566000000E+00 0.  1.
         13    1    3    3    0    0  0.20304270758E+03 -0.42016227955E+03  0.93201912607E+02  0.47586688258E+03  0.10566000000E+00 0. -1.
          1    1    1    2  502    0 -0.14539999752E+02  0.53632176179E+02  0.33214886916E+03  0.33676504153E+03  0.00000000000E+00 0. -1.
         -4    1    3    3    0  502  0.35876427107E+02  0.51387365019E+03 -0.14776732513E+03  0.53589964429E+03  0.00000000000E+00 0. -1.
</event>
<event>
 7    1  0.9434649E-006  0.1032232E+04  0.7818608E-02  0.9055404E-01
          4   -1    0    0  501    0 -0.00000000000E+00  0.00000000000E+00  0.12402747908E+04  0.12402747908E+04  0.00000000000E+00 0.  1.
          2   -1    0    0  502    0  0.00000000000E+00 -0.00000000000E+00 -0.16059423972E+04  0.16059423972E+04  0.00000000000E+00 0.  1.
    9000010    2    1    2  502    0  0.16205831794E+03  0.21334254970E+03 -0.13359590720E+04  0.16854070342E+04  0.99198401546E+03 0.  0.
        -13    1    3    3    0    0  0.11180339517E+03 -0.20413395507E+03 -0.12299253042E+04  0.12517535444E+04  0.10566000000E+00 0.  1.
         13    1    1    2    0    0 -0.14627399009E+03 -0.24538616885E+03  0.10421324744E+04  0.10805788066E+04  0.10566000000E+00 0. -1.
          2    1    1    2  501    0 -0.15784327855E+02  0.32043619145E+02 -0.71841008807E+02  0.80231347241E+02  0.00000000000E+00 0.  1.
          4    1    3    3  502    0  0.50254922771E+02  0.41747650477E+03 -0.10603376778E+03  0.43365348979E+03  0.00000000000E+00 0.  1.
</event>
<event>
 7    1  0.9434649E-006  0.1092472E+04  0.7818608E-02  0.8952873E-01
          4   -1    0    0  501    0 -0.00000000000E+00  0.00000000000E+00  0.35615496923E+04  0.35615496923E+04  0.00000000000E+00 0.  1.
          2   -1    0    0  502    0  0.00000000000E+00 -0.00000000000E+00 -0.32214219139E+03  0.32214219139E+03  0.00000000000E+00 0.  1.
    9000010    2    1    2  502    0 -0.19035204878E+03  0.30951226663E+03  0.22235608896E+04  0.24772850502E+04  0.10298963273E+04 0.  0.
        -13    1    3    3    0    0  0.34793631061E+03  0.38649650443E+03  0.80810535356E+03  0.96097528469E+03  0.10566000000E+00 0.  1.
         13    1    1    2    0    0  0.24991646513E+03 -0.26735689081E+03  0.11753465263E+04  0.12310066672E+04  0.10566000000E+00 0. -1.
          2    1    1    2  501    0 -0.59564416355E+02 -0.42155375829E+02 -0.15949991502E+03  0.17540016619E+03  0.00000000000E+00 0.  1.
          4    1    3    3  502    0 -0.53828835938E+03 -0.76984237795E+02  0.14154555360E+04  0.15163097656E+04  0.00000000000E+00 0.  1.
</event>
<event>
 7    1  0.9434649E-006  0.1009573E+04  0.7818608E-02  0.9254388E-01
         -4   -1    0    0    0  501 -0.00000000000E+00  0.00000000000E+00  0.19204165057E+04  0.19204165057E+04  0.00000000000E+00 0. -1.
          2   -1    0    0  501    0  0.00000000000E+00 -0.00000000000E+00 -0.35932413409E+03  0.35932413409E+03  0.00000000000E+00 0. -1.
   -9000010    2    1    2    0  502  0.34411886618E+02  0.14896021535E+03  0.11917459257E+04  0.15630899324E+04  0.99980921261E+03 0.  0.
        -13    1    1    2    0    0 -0.23477784327E+02 -0.13746939503E+03  0.53365588998E+03  0.55157742975E+03  0.10566000000E+00 0.  1.
         13    1    3    3    0    0 -0.10912221354E+03  0.56197673954E+03  0.63037703588E+03  0.85152846800E+03  0.10566000000E+00 0. -1.
          2    1    1    2  502    0 -0.10934102291E+02 -0.11490820323E+02 -0.16430944413E+03  0.16507327760E+03  0.00000000000E+00 0. -1.
         -4    1    3    3    0  502  0.14353410016E+03 -0.41301652418E+03  0.56136888985E+03  0.71156146442E+03  0.00000000000E+00 0. -1.
</event>
<event>
 7    1  0.9434649E-006  0.1457166E+04  0.7818608E-02  0.8504978E-01
          4   -1    0    0  501    0 -0.00000000000E+00  0.00000000000E+00  0.11872651971E+04  0.11872651971E+04  0.00000000000E+00 0.  1.
          2   -1    0    0  502    0  0.00000000000E+00 -0.00000000000E+00 -0.26096095029E+04  0.26096095029E+04  0.00000000000E+00 0. -1.
    9000010    2    1    2  502    0 -0.67375534722E+03 -0.80654462799E+03  0.29106607550E+03  0.14820779559E+04  0.10036807770E+04 0.  0.
        -13    1    3    3    0    0 -0.51929634169E+03 -0.50843384308E+03 -0.31275037351E+03  0.79119306782E+03  0.10566000000E+00 0.  1.
         13    1    1    2    0    0  0.64627829455E+03  0.84736666254E+03 -0.64589655250E+03  0.12461493741E+04  0.10566000000E+00 0. -1.
          2    1    1    2  501    0  0.27477052670E+02 -0.40822034547E+02 -0.10675138288E+04  0.10686473701E+04  0.00000000000E+00 0. -1.
          4    1    3    3  502    0 -0.15445900553E+03 -0.29811078492E+03  0.60381644901E+03  0.69088488808E+03  0.00000000000E+00 0.  1.
</event>
<event>
 7    1  0.9434649E-006  0.9650867E+03  0.7818608E-02  0.8987394E-01
         -4   -1    0    0    0  501 -0.00000000000E+00  0.00000000000E+00  0.21748411294E+04  0.21748411294E+04  0.00000000000E+00 0. -1.
          2   -1    0    0  501    0  0.00000000000E+00 -0.00000000000E+00 -0.55345597941E+03  0.55345597941E+03  0.00000000000E+00 0. -1.
   -9000010    2    1    2    0  502  0.41701755223E+03 -0.22603392841E+03  0.38039983323E+03  0.10441093909E+04  0.84880233937E+03 0.  0.
        -13    1    1    2    0    0 -0.40701241306E+03  0.20925293924E+03  0.14262597102E+04  0.14978860668E+04  0.10566000000E+00 0.  1.
         13    1    3    3    0    0  0.30577489275E+03 -0.54324709165E+03  0.16497275648E+03  0.64485014474E+03  0.10566000000E+00 0. -1.
          2    1    1    2  502    0 -0.10005139165E+02  0.16780989171E+02 -0.18527439337E+03  0.18630165122E+03  0.00000000000E+00 0. -1.
         -4    1    3    3    0  502  0.11124265948E+03  0.31721316325E+03  0.21542707675E+03  0.39925924613E+03  0.00000000000E+00 0. -1.
</event>
<event>
 7    1  0.9434649E-006  0.1044522E+04  0.7818608E-02  0.9073144E-01
         -4   -1    0    0    0  501 -0.00000000000E+00  0.00000000000E+00  0.15896391581E+04  0.15896391581E+04  0.00000000000E+00 0. -1.
          2   -1    0    0  501    0  0.00000000000E+00 -0.00000000000E+00 -0.17835191275E+04  0.17835191275E+04  0.00000000000E+00 0.  1.
   -9000010    2    1    2    0  502 -0.15449102475E+03 -0.17576595525E+03  0.12727736720E+04  0.16431274049E+04  0.10124987411E+04 0.  0.
        -13    1    1    2    0    0  0.16469811221E+03  0.21963433845E+03 -0.12113414401E+02  0.27479348021E+03  0.10566000000E+00 0.  1.
         13    1    3    3    0    0  0.38982666300E+03 -0.41343729973E+01  0.22533180998E+03  0.45028474988E+03  0.10566000000E+00 0. -1.
          2    1    1    2  502    0 -0.10207087458E+02 -0.43868383201E+02 -0.14545402270E+04  0.14552374005E+04  0.00000000000E+00 0.  1.
         -4    1    3    3    0  502 -0.54431768775E+03 -0.17163158225E+03  0.10474418621E+04  0.11928426550E+04  0.00000000000E+00 0. -1.
</event>
<event>
 7    1  0.9434649E-006  0.1212963E+04  0.7818608E-02  0.8742280E-01
         -4   -1    0    0    0  501 -0.00000000000E+00  0.00000000000E+00  0.21535696534E+04  0.21535696534E+04  0.00000000000E+00 0. -1.
          2   -1    0    0  501    0  0.00000000000E+00 -0.00000000000E+00 -0.88574293686E+03  0.88574293686E+03  0.00000000000E+00 0. -1.
   -9000010    2    1    2    0  502  0.44566125931E+03  0.22066166354E+03 -0.19766639876E+03  0.11592354231E+04  0.10283235061E+04 0.  0.
        -13    1    1    2    0    0 -0.42830785973E+03 -0.50592238152E+03  0.14494547280E+04  0.15938394206E+04  0.10566000000E+00 0.  1.
         13    1    3    3    0    0 -0.33324143230E+03  0.64750518730E+02 -0.12424474238E+03  0.36149584929E+03  0.10566000000E+00 0. -1.
          2    1    1    2  502    0 -0.17353399575E+02  0.28526071798E+03  0.16038387321E+02  0.28623774658E+03  0.00000000000E+00 0. -1.
         -4    1    3    3    0  502  0.77890269161E+03  0.15591114482E+03 -0.73421656376E+02  0.79773957386E+03  0.00000000000E+00 0. -1.
</event>
<event>
 7    1  0.9434649E-006  0.1299793E+04  0.7818608E-02  0.8647707E-01
         -4   -1    0    0    0  501 -0.00000000000E+00  0.00000000000E+00  0.28994820600E+04  0.28994820600E+04  0.00000000000E+00 0. -1.
          2   -1    0    0  501    0  0.00000000000E+00 -0.00000000000E+00 -0.15697721455E+04  0.15697721455E+04  0.00000000000E+00 0.  1.
   -9000010    2    1    2    0  502 -0.88280049183E+02 -0.83323072432E+03  0.17380475667E+04  0.21691828130E+04  0.99120024462E+03 0.  0.
        -13    1    1    2    0    0 -0.67165841549E+03  0.41160283935E+03  0.58427136620E+03  0.98077263675E+03  0.10566000000E+00 0.  1.
         13    1    3    3    0    0  0.24030560579E+03  0.10512616698E+03  0.61894371068E+03  0.67222735984E+03  0.10566000000E+00 0. -1.
          2    1    1    2  502    0  0.75993846468E+03  0.42162788497E+03 -0.99260901846E+03  0.13192987558E+04  0.00000000000E+00 0.  1.
         -4    1    3    3    0  502 -0.32858565497E+03 -0.93835689130E+03  0.11191038560E+04  0.14969554531E+04  0.00000000000E+00 0. -1.
</event>
<event>
 7    1  0.9434649E-006  0.1028044E+04  0.7818608E-02  0.9030486E-01
         -4   -1    0    0    0  501 -0.00000000000E+00  0.00000000000E+00  0.26464164664E+04  0.26464164664E+04  0.00000000000E+00 0. -1.
          1   -1    0    0  501    0  0.00000000000E+00 -0.00000000000E+00 -0.43443699460E+03  0.43443699460E+03  0.00000000000E+00 0.  1.
   -9000010    2    1    2    0  502  0.36882617986E+03 -0.15634947374E+03  0.21798926013E+04  0.24222613673E+04  0.97721055521E+03 0.  0.
        -13    1    1    2    0    0 -0.26662419934E+03  0.85265265289E+02  0.27073129803E+03  0.38942788297E+03  0.10566000000E+00 0.  1.
         13    1    3    3    0    0  0.68349591574E+03  0.14405615131E+02  0.12313273862E+04  0.14083825232E+04  0.10566000000E+00 0. -1.
          1    1    1    2  502    0 -0.10220198052E+03  0.71084208451E+02 -0.23864442759E+03  0.26916421072E+03  0.00000000000E+00 0.  1.
         -4    1    3    3    0  502 -0.31466973588E+03 -0.17075508887E+03  0.94856521518E+03  0.10138788441E+04  0.00000000000E+00 0. -1.
</event>
<event>
 7    1  0.9434649E-006  0.1030551E+04  0.7818608E-02  0.9107834E-01
         -4   -1    0    0    0  501 -0.00000000000E+00  0.00000000000E+00  0.31841998968E+04  0.31841998968E+04  0.00000000000E+00 0. -1.
          2   -1    0    0  501    0  0.00000000000E+00 -0.00000000000E+00 -0.81143736889E+03  0.81143736889E+03  0.00000000000E+00 0. -1.
   -9000010    2    1    2    0  502 -0.20081030725E+03 -0.11771746879E+03  0.21036873717E+04  0.23425381852E+04  0.10038936244E+04 0.  0.
        -13    1    1    2    0    0  0.19067911291E+03  0.13386295523E+03  0.94683229931E+03  0.97507396082E+03  0.10566000000E+00 0.  1.
         13    1    3    3    0    0  0.22829211111E+03  0.28648741831E+03  0.41313281822E+03  0.55215130671E+03  0.10566000000E+00 0. -1.
          2    1    1    2  502    0  0.10131194341E+02 -0.16145486440E+02 -0.67775714315E+03  0.67802511968E+03  0.00000000000E+00 0. -1.
         -4    1    3    3    0  502 -0.42910241836E+03 -0.40420488710E+03  0.16905545535E+04  0.17903868785E+04  0.00000000000E+00 0. -1.
</event>
<event>
 7    1  0.9434649E-006  0.1173942E+04  0.7818608E-02  0.8797151E-01
          1   -1    0    0  501    0  0.00000000000E+00  0.00000000000E+00  0.70377968956E+03  0.70377968956E+03  0.00000000000E+00 0.  1.
         -4   -1    0    0    0  501 -0.00000000000E+00 -0.00000000000E+00 -0.17140347384E+04  0.17140347384E+04  0.00000000000E+00 0. -1.
   -9000010    2    1    2    0  502  0.17959444742E+02 -0.55104780386E+03 -0.11618129645E+04  0.16481790714E+04  0.10308776180E+04 0.  0.
        -13    1    1    2    0    0  0.57516536150E+01  0.57316890663E+03 -0.40719816634E+02  0.57464231630E+03  0.10566000000E+00 0.  1.
         13    1    3    3    0    0 -0.25965201443E+03  0.13345902224E+03 -0.74471311082E+03  0.79989256016E+03  0.10566000000E+00 0. -1.
          1    1    1    2  502    0 -0.23711098357E+02 -0.22121102772E+02  0.19227773234E+03  0.19499304020E+03  0.00000000000E+00 0.  1.
         -4    1    3    3    0  502  0.27761145918E+03 -0.68450682610E+03 -0.41709985369E+03  0.84828651126E+03  0.00000000000E+00 0. -1.
</event>
<event>
 7    1  0.9434649E-006  0.1230889E+04  0.7818608E-02  0.8702865E-01
         -4   -1    0    0    0  501 -0.00000000000E+00  0.00000000000E+00  0.19831922662E+04  0.19831922662E+04  0.00000000000E+00 0. -1.
          2   -1    0    0  501    0  0.00000000000E+00 -0.00000000000E+00 -0.56336977829E+03  0.56336977829E+03  0.00000000000E+00 0. -1.
   -9000010    2    1    2    0  502 -0.57623720540E+03  0.43678873741E+03  0.86246578557E+03  0.14998707379E+04  0.99142890876E+03 0.  0.
        -13    1    1    2    0    0  0.58691559686E+03 -0.43889464866E+03  0.63414037685E+03  0.96914006169E+03  0.10566000000E+00 0.  1.
         13    1    3    3    0    0 -0.68502478100E+03  0.37724697873E+03  0.10288667986E+04  0.12923394035E+04  0.10566000000E+00 0. -1.
          2    1    1    2  502    0 -0.10678391464E+02  0.21059112486E+01 -0.76783674537E+02  0.77551244876E+02  0.00000000000E+00 0. -1.
         -4    1    3    3    0  502  0.10878757561E+03  0.59541758678E+02 -0.16640101298E+03  0.20753133439E+03  0.00000000000E+00 0. -1.
</event>
<event>
 7    1  0.9434649E-006  0.1004613E+04  0.7818608E-02  0.9466210E-01
          2   -1    0    0  502    0  0.00000000000E+00  0.00000000000E+00  0.16591681660E+04  0.16591681660E+04  0.00000000000E+00 0.  1.
          4   -1    0    0  501    0 -0.00000000000E+00 -0.00000000000E+00 -0.39710421947E+03  0.39710421947E+03  0.00000000000E+00 0.  1.
    9000010    2    1    2  502    0  0.18933804844E+02  0.41492927502E+02  0.81039084399E+03  0.12899298868E+04  0.10025495703E+04 0.  0.
        -13    1    3    3    0    0 -0.20796664272E+03  0.39680612091E+03  0.92570582906E+02  0.45746534957E+03  0.10566000000E+00 0.  1.
         13    1    1    2    0    0 -0.45471253477E+02 -0.45725809463E+02 -0.15041466049E+03  0.16365532621E+03  0.10566000000E+00 0. -1.
          2    1    1    2  501    0  0.26537448633E+02  0.42328819606E+01  0.60208776302E+03  0.60268717246E+03  0.00000000000E+00 0.  1.
          4    1    3    3  502    0  0.22690044756E+03 -0.35531319341E+03  0.71782026108E+03  0.83246453722E+03  0.00000000000E+00 0.  1.
</event>
<event>
 7    1  0.9434649E-006  0.1181067E+04  0.7818608E-02  0.8764920E-01
          4   -1    0    0  501    0 -0.00000000000E+00  0.00000000000E+00  0.28619645484E+04  0.28619645484E+04  0.00000000000E+00 0.  1.
          2   -1    0    0  502    0  0.00000000000E+00 -0.00000000000E+00 -0.99595156750E+03  0.99595156750E+03  0.00000000000E+00 0. -1.
    9000010    2    1    2  502    0  0.54145095748E+03  0.30403634960E+03  0.14658033649E+04  0.18785681393E+04  0.99741240631E+03 0.  0.
        -13    1    3    3    0    0  0.13054665280E+03 -0.32510384928E+03  0.80491654014E+03  0.87785282886E+03  0.10566000000E+00 0.  1.
         13    1    1    2    0    0 -0.59620723515E+03 -0.23051447899E+03  0.11007200455E+04  0.12728647304E+04  0.10566000000E+00 0. -1.
          2    1    1    2  501    0  0.54756277671E+02 -0.73521870606E+02 -0.70051042944E+03  0.70648324620E+03  0.00000000000E+00 0. -1.
          4    1    3    3  502    0  0.41090430468E+03  0.62914019888E+03  0.66088682476E+03  0.10007153105E+04  0.00000000000E+00 0.  1.
</event>
<event>
 7    1  0.9434649E-006  0.9031124E+03  0.7818608E-02  0.9220140E-01
          2   -1    0    0  501    0  0.00000000000E+00  0.00000000000E+00  0.47342351054E+03  0.47342351054E+03  0.00000000000E+00 0. -1.
         -4   -1    0    0    0  501 -0.00000000000E+00 -0.00000000000E+00 -0.33848063883E+04  0.33848063883E+04  0.00000000000E+00 0. -1.
   -9000010    2    1    2    0  502 -0.96365697714E+02  0.16891419668E+03 -0.21565083531E+04  0.23354109900E+04  0.87509877257E+03 0.  0.
        -13    1    1    2    0    0  0.11166275576E+03 -0.19742992562E+03 -0.11268435900E+04  0.11494449243E+04  0.10566000000E+00 0.  1.
         13    1    3    3    0    0  0.34311775702E+03  0.24300883513E+03 -0.74800093284E+03  0.85807254695E+03  0.10566000000E+00 0. -1.
          2    1    1    2  502    0 -0.15297058045E+02  0.28515728942E+02  0.37196906531E+03  0.37337398454E+03  0.00000000000E+00 0. -1.
         -4    1    3    3    0  502 -0.43948345474E+03 -0.74094638450E+02 -0.14085074202E+04  0.14773384430E+04  0.00000000000E+00 0. -1.
</event>
<event>
 7    1  0.9434649E-006  0.1229060E+04  0.7818608E-02  0.8844402E-01
         -4   -1    0    0    0  501 -0.00000000000E+00  0.00000000000E+00  0.12833213526E+04  0.12833213526E+04  0.00000000000E+00 0. -1.
          1   -1    0    0  501    0  0.00000000000E+00 -0.00000000000E+00 -0.30286784862E+04  0.30286784862E+04  0.00000000000E+00 0. -1.
   -9000010    2    1    2    0  502  0.30087485818E+02 -0.83950646545E+03  0.56261289825E+03  0.14206612247E+04  0.99803240409E+03 0.  0.
        -13    1    1    2    0    0 -0.34855523884E+03  0.19837061315E+03  0.70739840595E+02  0.40724168610E+03  0.10566000000E+00 0.  1.
         13    1    3    3    0    0 -0.40973214975E+03 -0.13803243695E+03  0.24189025917E+02  0.43303407295E+03  0.10566000000E+00 0. -1.
          1    1    1    2  502    0  0.31846775303E+03  0.64113585230E+03 -0.23787098724E+04  0.24840969280E+04  0.00000000000E+00 0. -1.
         -4    1    3    3    0  502  0.43981963557E+03 -0.70147402849E+03  0.53842387233E+03  0.98762715171E+03  0.00000000000E+00 0. -1.
</event>
<event>
 7    1  0.9434649E-006  0.1172516E+04  0.7818608E-02  0.8776755E-01
          2   -1    0    0  501    0  0.00000000000E+00  0.00000000000E+00  0.55776059931E+03  0.55776059931E+03  0.00000000000E+00 0.  1.
         -4   -1    0    0    0  501 -0.00000000000E+00 -0.00000000000E+00 -0.23915053185E+04  0.23915053185E+04  0.00000000000E+00 0. -1.
   -9000010    2    1    2    0  502  0.37367520320E+03  0.79981697503E+03 -0.79233650893E+03  0.15505178168E+04  0.99848285200E+03 0.  0.
        -13    1    1    2    0    0 -0.86945261222E+02 -0.53898961381E+03 -0.59405000109E+03  0.80682383281E+03  0.10566000000E+00 0.  1.
         13    1    3    3    0    0 -0.28190114585E+01  0.84733658871E+03 -0.24052971627E+03  0.88081882187E+03  0.10566000000E+00 0. -1.
          2    1    1    2  502    0 -0.28672994197E+03 -0.26082736122E+03 -0.44735820920E+03  0.59192426823E+03  0.00000000000E+00 0.  1.
         -4    1    3    3    0  502  0.37649421465E+03 -0.47519613685E+02 -0.55180679266E+03  0.66969899491E+03  0.00000000000E+00 0. -1.
</event>
<event>
 7    1  0.9434649E-006  0.1025487E+04  0.7818608E-02  0.9233375E-01
          2   -1    0    0  501    0  0.00000000000E+00  0.00000000000E+00  0.20900452608E+04  0.20900452608E+04  0.00000000000E+00 0.  1.
         -4   -1    0    0    0  501 -0.00000000000E+00 -0.00000000000E+00 -0.16693878090E+04  0.16693878090E+04  0.00000000000E+00 0. -1.
   -9000010    2    1    2    0  502 -0.17243306465E+02 -0.26830602842E+03 -0.86703862509E+03  0.13588646083E+04  0.10111733728E+04 0.  0.
        -13    1    1    2    0    0 -0.74227601242E+02  0.12440681850E+03 -0.54297765040E+03  0.56197111427E+03  0.10566000000E+00 0.  1.
         13    1    3    3    0    0  0.24135649431E+03  0.30433664531E+02 -0.92774507618E+03  0.95910901509E+03  0.10566000000E+00 0. -1.
          2    1    1    2  502    0  0.91470907707E+02  0.14389920991E+03  0.18306737273E+04  0.18385973473E+04  0.00000000000E+00 0.  1.
         -4    1    3    3    0  502 -0.25859980078E+03 -0.29873969295E+03  0.60706451085E+02  0.39975559322E+03  0.00000000000E+00 0. -1.
</event>
<event>
 7    1  0.9434649E-006  0.1059665E+04  0.7818608E-02  0.9023424E-01
          4   -1    0    0  501    0 -0.00000000000E+00  0.00000000000E+00  0.75576741723E+03  0.75576741723E+03  0.00000000000E+00 0.  1.
          2   -1    0    0  502    0  0.00000000000E+00 -0.00000000000E+00 -0.19178961622E+04  0.19178961622E+04  0.00000000000E+00 0. -1.
    9000010    2    1    2  502    0 -0.18596187292E+02  0.35517389467E+03 -0.33197951127E+03  0.11267803815E+04  0.10163313035E+04 0.  0.
        -13    1    3    3    0    0 -0.21308571784E+03 -0.31221207859E+03 -0.16137749897E+03  0.41100439597E+03  0.10566000000E+00 0.  1.
         13    1    1    2    0    0  0.49576559058E+02 -0.29125906478E+03  0.29616356803E+03  0.41833305896E+03  0.10566000000E+00 0. -1.
          2    1    1    2  501    0 -0.30980371766E+02 -0.63914829889E+02 -0.11263128017E+04  0.11285501390E+04  0.00000000000E+00 0. -1.
          4    1    3    3  502    0  0.19448953055E+03  0.66738597326E+03 -0.17060201230E+03  0.71577598549E+03  0.00000000000E+00 0.  1.
</event>
<event>
 7    1  0.9434649E-006  0.1019926E+04  0.7818608E-02  0.9284663E-01
          2   -1    0    0  502    0  0.00000000000E+00  0.00000000000E+00  0.83983817124E+03  0.83983817124E+03  0.00000000000E+00 0. -1.
          4   -1    0    0  501    0 -0.00000000000E+00 -0.00000000000E+00 -0.24806640597E+04  0.24806640597E+04  0.00000000000E+00 0.  1.
    9000010    2    1    2  502    0  0.14785837910E+03 -0.12389707590E+02 -0.19441113621E+04  0.21871915893E+04  0.99107136726E+03 0.  0.
        -13    1    3    3    0    0 -0.26800201603E+03 -0.36775092590E+03 -0.87088487247E+03  0.98260179949E+03  0.10566000000E+00 0.  1.
         13    1    1    2    0    0  0.65416785845E+02 -0.10182130955E+03 -0.38508966385E+03  0.40365950418E+03  0.10566000000E+00 0. -1.
          2    1    1    2  501    0 -0.21327516495E+03  0.11421101714E+03  0.68837513750E+03  0.72965113743E+03  0.00000000000E+00 0. -1.
          4    1    3    3  502    0  0.41586039514E+03  0.35536121831E+03 -0.10732264897E+04  0.12045897899E+04  0.00000000000E+00 0.  1.
</event>
<event>
 6    1  0.1817254E-005  0.3016550E+03  0.7818608E-02  0.1009316E+00
         -4   -1    0    0    0  501  0.00000000000E+00  0.00000000000E+00  0.16096037870E+04  0.16096037870E+04  0.00000000000E+00 0.  1.
         -4   -1    0    0    0  502 -0.00000000000E+00 -0.00000000000E+00 -0.22377552472E+03  0.22377552472E+03  0.00000000000E+00 0. -1.
        -13    1    1    2    0    0 -0.20889630443E+03  0.35077174145E+02  0.37065019875E+03  0.42690708023E+03  0.10566000000E+00 0.  1.
         13    1    1    2    0    0  0.20651862588E+03  0.15321149171E+02 -0.85520933174E+02  0.22405026583E+03  0.10566000000E+00 0. -1.
         -4    1    1    2    0  502 -0.88250567424E+02 -0.76405079184E+01  0.10754364222E+04  0.10790783281E+04  0.00000000000E+00 0.  1.
         -4    1    1    2    0  501  0.90628245976E+02 -0.42757815398E+02  0.25262574487E+02  0.10334363752E+03  0.00000000000E+00 0. -1.
</event>
<event>
 7    1  0.9434649E-006  0.1016584E+04  0.7818608E-02  0.9263907E-01
          1   -1    0    0  501    0  0.00000000000E+00  0.00000000000E+00  0.10952323054E+04  0.10952323054E+04  0.00000000000E+00 0. -1.
         -4   -1    0    0    0  501 -0.00000000000E+00 -0.00000000000E+00 -0.40461356458E+03  0.40461356458E+03  0.00000000000E+00 0. -1.
   -9000010    2    1    2    0  502 -0.12168917998E+03 -0.59991440135E+02  0.68681514887E+03  0.12272193211E+04  0.10079409625E+04 0.  0.
        -13    1    1    2    0    0  0.12879242709E+03  0.30190412409E+02 -0.99082319203E+02  0.16527633654E+03  0.10566000000E+00 0.  1.
         13    1    3    3    0    0  0.39829116350E+03 -0.23470616824E+03  0.38176972205E+03  0.59955897806E+03  0.10566000000E+00 0. -1.
          1    1    1    2  502    0 -0.71032471075E+01  0.29801027727E+02  0.10288591118E+03  0.10735021235E+03  0.00000000000E+00 0. -1.
         -4    1    3    3    0  502 -0.51998034347E+03  0.17471472811E+03  0.30504542682E+03  0.62766034305E+03  0.00000000000E+00 0. -1.
</event>
<event>
 7    1  0.9434649E-006  0.1048310E+04  0.7818608E-02  0.9123567E-01
          2   -1    0    0  501    0  0.00000000000E+00  0.00000000000E+00  0.13984023415E+04  0.13984023415E+04  0.00000000000E+00 0. -1.
         -4   -1    0    0    0  501 -0.00000000000E+00 -0.00000000000E+00 -0.33935150076E+03  0.33935150076E+03  0.00000000000E+00 0. -1.
   -9000010    2    1    2    0  502 -0.17785865647E+03 -0.46524980432E+02  0.86649292975E+03  0.13565865645E+04  0.10274817926E+04 0.  0.
        -13    1    1    2    0    0  0.19848116483E+03  0.70358250189E+02  0.26614972069E+02  0.21225791873E+03  0.10566000000E+00 0.  1.
         13    1    3    3    0    0  0.39111511911E+03 -0.13167109373E+03  0.58549885772E+03  0.71632202038E+03  0.10566000000E+00 0. -1.
          2    1    1    2  502    0 -0.20622508360E+02 -0.23833269756E+02  0.16594293888E+03  0.16890935902E+03  0.00000000000E+00 0. -1.
         -4    1    3    3    0  502 -0.56897377558E+03  0.85146113302E+02  0.28099407203E+03  0.64026454410E+03  0.00000000000E+00 0. -1.
</event>
<event>
 7    1  0.9434649E-006  0.1033589E+04  0.7818608E-02  0.9301364E-01
          4   -1    0    0  501    0 -0.00000000000E+00  0.00000000000E+00  0.44800607669E+03  0.44800607669E+03  0.00000000000E+00 0.  1.
          2   -1    0    0  502    0  0.00000000000E+00 -0.00000000000E+00 -0.31956718963E+04  0.31956718963E+04  0.00000000000E+00 0.  1.
    9000010    2    1    2  502    0  0.23528087472E+03  0.11408033289E+03 -0.28012170907E+04  0.29818725623E+04  0.98811708634E+03 0.  0.
        -13    1    3    3    0    0 -0.21826078414E+03 -0.32325890447E+03 -0.11637372168E+04  0.12273623793E+04  0.10566000000E+00 0.  1.
         13    1    1    2    0    0  0.10758087141E+03 -0.18410501879E+02  0.23731513665E+03  0.26121078791E+03  0.10566000000E+00 0. -1.
          2    1    1    2  501    0 -0.34286174613E+03 -0.95669831010E+02 -0.18376386562E+03  0.40059462282E+03  0.00000000000E+00 0.  1.
          4    1    3    3  502    0  0.45354165887E+03  0.43733923736E+03 -0.16374798739E+04  0.17545101830E+04  0.00000000000E+00 0.  1.
</event>
<event>
 7    1  0.9434649E-006  0.1025626E+04  0.7818608E-02  0.9145168E-01
          1   -1    0    0  501    0  0.00000000000E+00  0.00000000000E+00  0.19443958535E+04  0.19443958535E+04  0.00000000000E+00 0.  1.
         -4   -1    0    0    0  501 -0.00000000000E+00 -0.00000000000E+00 -0.37785269983E+03  0.37785269983E+03  0.00000000000E+00 0. -1.
   -9000010    2    1    2    0  502  0.19995377746E+03  0.28282050646E+02  0.37509098428E+03  0.10916878099E+04  0.10051406072E+04 0.  0.
        -13    1    1    2    0    0 -0.20500056819E+03 -0.16026087535E+02  0.52290646199E+03  0.56188366019E+03  0.10566000000E+00 0.  1.
         13    1    3    3    0    0  0.52198845448E+03 -0.11978783367E+03  0.48299407654E+03  0.72118261269E+03  0.10566000000E+00 0. -1.
          1    1    1    2  502    0  0.50467907285E+01 -0.12255963111E+02  0.66854570746E+03  0.66867708327E+03  0.00000000000E+00 0.  1.
         -4    1    3    3    0  502 -0.32203467702E+03  0.14806988432E+03 -0.10790309226E+03  0.37050519722E+03  0.00000000000E+00 0. -1.
</event>
<event>
 7    1  0.9434649E-006  0.1031922E+04  0.7818608E-02  0.9097472E-01
          4   -1    0    0  501    0 -0.00000000000E+00  0.00000000000E+00  0.14225531408E+04  0.14225531408E+04  0.00000000000E+00 0.  1.
          2   -1    0    0  502    0  0.00000000000E+00 -0.00000000000E+00 -0.16265830493E+04  0.16265830493E+04  0.00000000000E+00 0.  1.
    9000010    2    1    2  502    0 -0.87672010112E+02  0.18680696435E+03  0.16858186136E+03  0.10380104652E+04  0.10032261254E+04 0.  0.
        -13    1    3    3    0    0  0.20181911383E+03 -0.18009551648E+02 -0.35316274857E+03  0.40715996464E+03  0.10566000000E+00 0.  1.
         13    1    1    2    0    0  0.24783193148E+03 -0.88739473106E+01  0.78798947023E+03  0.82609129614E+03  0.10566000000E+00 0. -1.
          2    1    1    2  501    0 -0.16015992137E+03 -0.17793301704E+03 -0.11606012401E+04  0.11850344288E+04  0.00000000000E+00 0.  1.
          4    1    3    3  502    0 -0.28949112394E+03  0.20481651599E+03  0.52174460994E+03  0.63085050057E+03  0.00000000000E+00 0.  1.
</event>
<event>
 7    1  0.9434649E-006  0.1459751E+04  0.7818608E-02  0.8790769E-01
          1   -1    0    0  501    0  0.00000000000E+00  0.00000000000E+00  0.18868026753E+04  0.18868026753E+04  0.00000000000E+00 0. -1.
         -4   -1    0    0    0  501 -0.00000000000E+00 -0.00000000000E+00 -0.13780986954E+04  0.13780986954E+04  0.00000000000E+00 0. -1.
   -9000010    2    1    2    0  502 -0.12539395943E+04 -0.46050714587E+03  0.61798464143E+03  0.16440326232E+04  0.73246632110E+03 0.  0.
        -13    1    1    2    0    0  0.63214805310E+02  0.29339410728E+03 -0.27505396853E+03  0.40710061480E+03  0.10566000000E+00 0.  1.
         13    1    3    3    0    0 -0.23555314807E+03 -0.94923129357E+02  0.49332673146E+03  0.55485760443E+03  0.10566000000E+00 0. -1.
          1    1    1    2  502    0  0.11907247890E+04  0.16711303859E+03  0.16577330693E+03  0.12137681327E+04  0.00000000000E+00 0. -1.
         -4    1    3    3    0  502 -0.10183864462E+04 -0.36558401652E+03  0.12465790997E+03  0.10891750188E+04  0.00000000000E+00 0. -1.
</event>
<event>
 7    1  0.9434649E-006  0.1266481E+04  0.7818608E-02  0.9132151E-01
          2   -1    0    0  502    0  0.00000000000E+00  0.00000000000E+00  0.59646851777E+03  0.59646851777E+03  0.00000000000E+00 0. -1.
          4   -1    0    0  501    0 -0.00000000000E+00 -0.00000000000E+00 -0.15638990419E+04  0.15638990419E+04  0.00000000000E+00 0.  1.
    9000010    2    1    2  502    0  0.18591937376E+03  0.22505078183E+03 -0.97755870644E+03  0.15987328787E+04  0.12308988281E+04 0.  0.
        -13    1    3    3    0    0  0.19803964971E+03  0.13797591795E+03 -0.12703249607E+04  0.12930516516E+04  0.10566000000E+00 0.  1.
         13    1    1    2    0    0 -0.96277145763E+02  0.61053643382E+02 -0.17529860800E+03  0.20910870211E+03  0.10566000000E+00 0. -1.
          2    1    1    2  501    0 -0.89642227998E+02 -0.28610442521E+03  0.18542679032E+03  0.35252597881E+03  0.00000000000E+00 0. -1.
          4    1    3    3  502    0 -0.12120275952E+02  0.87074863885E+02  0.29276625423E+03  0.30568122714E+03  0.00000000000E+00 0.  1.
</event>
<event>
 7    1  0.9434649E-006  0.1097565E+04  0.7818608E-02  0.8909881E-01
         -4   -1    0    0    0  501 -0.00000000000E+00  0.00000000000E+00  0.26287498049E+04  0.26287498049E+04  0.00000000000E+00 0. -1.
          1   -1    0    0  501    0  0.00000000000E+00 -0.00000000000E+00 -0.61124878284E+03  0.61124878284E+03  0.00000000000E+00 0. -1.
   -9000010    2    1    2    0  502 -0.41401096587E+03 -0.52182799844E+02  0.10077933931E+04  0.14867807233E+04  0.10103174113E+04 0.  0.
        -13    1    1    2    0    0  0.42498606921E+03  0.68639066572E+02  0.13476287805E+04  0.14147182835E+04  0.10566000000E+00 0.  1.
         13    1    3    3    0    0 -0.50874082218E+03  0.22260950165E+03  0.10550825873E+04  0.11922967296E+04  0.10566000000E+00 0. -1.
          1    1    1    2  502    0 -0.10975103337E+02 -0.16456266728E+02 -0.33792115156E+03  0.33849958091E+03  0.00000000000E+00 0. -1.
         -4    1    3    3    0  502  0.94729856309E+02 -0.27479230150E+03 -0.47289194180E+02  0.29448399366E+03  0.00000000000E+00 0. -1.
</event>
<event>
 7    1  0.9434649E-006  0.9687922E+03  0.7818608E-02  0.9406762E-01
         -4   -1    0    0    0  501 -0.00000000000E+00  0.00000000000E+00  0.21395802957E+03  0.21395802957E+03  0.00000000000E+00 0. -1.
          2   -1    0    0  501    0  0.00000000000E+00 -0.00000000000E+00 -0.26775185360E+04  0.26775185360E+04  0.00000000000E+00 0. -1.
   -9000010    2    1    2    0  502  0.47157141358E+02  0.56309516751E+02 -0.14272566009E+04  0.17242499059E+04  0.96466666552E+03 0.  0.
        -13    1    1    2    0    0 -0.38877897721E+02 -0.80797831788E+02  0.34527723119E+02  0.96083065004E+02  0.10566000000E+00 0.  1.
         13    1    3    3    0    0  0.41997752703E+03  0.29882714092E+03 -0.66023575980E+03  0.83760972597E+03  0.10566000000E+00 0. -1.
          2    1    1    2  502    0 -0.82792436371E+01  0.24488315036E+02 -0.10708316286E+04  0.10711435946E+04  0.00000000000E+00 0. -1.
         -4    1    3    3    0  502 -0.37282038567E+03 -0.24251762417E+03 -0.76702084112E+03  0.88664017995E+03  0.00000000000E+00 0. -1.
</event>
<event>
 7    1  0.9434649E-006  0.1109894E+04  0.7818608E-02  0.9079596E-01
         -4   -1    0    0    0  501 -0.00000000000E+00  0.00000000000E+00  0.68150460275E+03  0.68150460275E+03  0.00000000000E+00 0. -1.
          2   -1    0    0  501    0  0.00000000000E+00 -0.00000000000E+00 -0.37224603128E+04  0.37224603128E+04  0.00000000000E+00 0. -1.
   -9000010    2    1    2    0  502 -0.47915490197E+03  0.33463506245E+03 -0.32217564964E+03  0.11978357252E+04  0.99470761048E+03 0.  0.
        -13    1    1    2    0    0  0.60990505060E+01 -0.20841240945E+03  0.17439392027E+03  0.27182012696E+03  0.10566000000E+00 0.  1.
         13    1    3    3    0    0 -0.24650539711E+03  0.37497099861E+03  0.29500793147E+03  0.53702686283E+03  0.10566000000E+00 0. -1.
          2    1    1    2  502    0  0.47305585146E+03 -0.12622265299E+03 -0.28931739806E+04  0.29343090633E+04  0.00000000000E+00 0. -1.
         -4    1    3    3    0  502 -0.23264950486E+03 -0.40335936168E+02 -0.61718358111E+03  0.66080886242E+03  0.00000000000E+00 0. -1.
</event>
<event>
 7    1  0.9434649E-006  0.1331763E+04  0.7818608E-02  0.8739589E-01
          4   -1    0    0  501    0 -0.00000000000E+00  0.00000000000E+00  0.18620867796E+04  0.18620867796E+04  0.00000000000E+00 0.  1.
          2   -1    0    0  502    0  0.00000000000E+00 -0.00000000000E+00 -0.10303976093E+04  0.10303976093E+04  0.00000000000E+00 0. -1.
    9000010    2    1    2  502    0  0.45814176689E+03 -0.85234808126E+03  0.29395987070E+03  0.14176685202E+04  0.99346892117E+03 0.  0.
        -13    1    3    3    0    0  0.17926052867E+03 -0.59101170499E+03  0.64908274176E+03  0.89595624301E+03  0.10566000000E+00 0.  1.
         13    1    1    2    0    0  0.29461273090E+03  0.39364419771E+03  0.18382969662E+03  0.52492455089E+03  0.10566000000E+00 0. -1.
          2    1    1    2  501    0 -0.75275449779E+03  0.45870388355E+03  0.35389960292E+03  0.94989131782E+03  0.00000000000E+00 0. -1.
          4    1    3    3  502    0  0.27888123822E+03 -0.26133637627E+03 -0.35512287106E+03  0.52171227717E+03  0.00000000000E+00 0.  1.
</event>
<event>
 7    1  0.9434649E-006  0.1079275E+04  0.7818608E-02  0.8932479E-01
         -2   -1    0    0    0  501  0.00000000000E+00  0.00000000000E+00  0.42671982026E+03  0.42671982026E+03  0.00000000000E+00 0. -1.
         -4   -1    0    0    0  502 -0.00000000000E+00 -0.00000000000E+00 -0.34898369533E+04  0.34898369533E+04  0.00000000000E+00 0. -1.
   -9000010    2    1    2    0  501 -0.29855477678E+03 -0.26608331083E+03 -0.19166965295E+04  0.21976436430E+04  0.99798632878E+03 0.  0.
        -13    1    1    2    0    0  0.31266931545E+03  0.27023562077E+03 -0.14026487431E+04  0.14622629378E+04  0.10566000000E+00 0.  1.
         13    1    3    3    0    0  0.25971477084E+03  0.91921842607E+02 -0.15694457396E+03  0.31706938956E+03  0.10566000000E+00 0. -1.
         -2    1    1    2    0  502 -0.14114538673E+02 -0.41523099353E+01  0.25622813962E+03  0.25665019270E+03  0.00000000000E+00 0. -1.
         -4    1    3    3    0  501 -0.55826954761E+03 -0.35800515344E+03 -0.17597519556E+04  0.18805742535E+04  0.00000000000E+00 0. -1.
</event>
<event>
 7    1  0.9434649E-006  0.9503813E+03  0.7818608E-02  0.9037913E-01
          2   -1    0    0  501    0  0.00000000000E+00  0.00000000000E+00  0.83984087151E+03  0.83984087151E+03  0.00000000000E+00 0. -1.
         -4   -1    0    0    0  501 -0.00000000000E+00 -0.00000000000E+00 -0.16980365916E+04  0.16980365916E+04  0.00000000000E+00 0. -1.
   -9000010    2    1    2    0  502  0.42246362491E+03  0.16371214504E+03 -0.10232482123E+04  0.14148096112E+04  0.86566283922E+03 0.  0.
        -13    1    1    2    0    0 -0.30065100219E+03 -0.22138115003E+03 -0.39705679985E+03  0.54502729489E+03  0.10566000000E+00 0.  1.
         13    1    3    3    0    0  0.21262259026E+03  0.27479556151E+03  0.16945948820E+02  0.34786224696E+03  0.10566000000E+00 0. -1.
          2    1    1    2  502    0 -0.12181262272E+03  0.57669004995E+02  0.56210929212E+03  0.57804055695E+03  0.00000000000E+00 0. -1.
         -4    1    3    3    0  502  0.20984103465E+03 -0.11108341647E+03 -0.10401941612E+04  0.10669473643E+04  0.00000000000E+00 0. -1.
</event>
<event>
 7    1  0.9434649E-006  0.1081844E+04  0.7818608E-02  0.8882459E-01
          4   -1    0    0  501    0 -0.00000000000E+00  0.00000000000E+00  0.11272413004E+04  0.11272413004E+04  0.00000000000E+00 0.  1.
          2   -1    0    0  502    0  0.00000000000E+00 -0.00000000000E+00 -0.16616145005E+04  0.16616145005E+04  0.00000000000E+00 0. -1.
    9000010    2    1    2  502    0  0.38684857174E+03 -0.30331352550E+03  0.14183691255E+03  0.10864894674E+04  0.95848356315E+03 0.  0.
        -13    1    3    3    0    0 -0.17443938292E+03 -0.20959049814E+03 -0.27023021096E+03  0.38390318220E+03  0.10566000000E+00 0.  1.
         13    1    1    2    0    0 -0.32448159896E+03  0.38916506988E+03  0.38468575077E+03  0.63617678179E+03  0.10566000000E+00 0. -1.
          2    1    1    2  501    0 -0.62366972779E+02 -0.85851544381E+02 -0.10608958635E+04  0.10661895517E+04  0.00000000000E+00 0. -1.
          4    1    3    3  502    0  0.56128795465E+03 -0.93723027359E+02  0.41206712351E+03  0.70258628521E+03  0.00000000000E+00 0.  1.
</event>
<event>
 7    1  0.9434649E-006  0.1004645E+04  0.7818608E-02  0.9288002E-01
          2   -1    0    0  501    0  0.00000000000E+00  0.00000000000E+00  0.45382421917E+03  0.45382421917E+03  0.00000000000E+00 0. -1.
         -4   -1    0    0    0  501 -0.00000000000E+00 -0.00000000000E+00 -0.13828496489E+04  0.13828496489E+04  0.00000000000E+00 0. -1.
   -9000010    2    1    2    0  502 -0.15416006188E+02  0.10454805504E+03 -0.24985212725E+03  0.10330888381E+04  0.99683424540E+03 0.  0.
        -13    1    1    2    0    0 -0.98109209975E+01 -0.12494877546E+03 -0.73142214932E+03  0.74208275976E+03  0.10566000000E+00 0.  1.
         13    1    3    3    0    0  0.17076566173E+02  0.44814678781E+03  0.17876713569E+03  0.48278862093E+03  0.10566000000E+00 0. -1.
          2    1    1    2  502    0  0.25226927186E+02  0.20400720426E+02  0.52248846835E+02  0.61502270241E+02  0.00000000000E+00 0. -1.
         -4    1    3    3    0  502 -0.32492572361E+02 -0.34359873277E+03 -0.42861926294E+03  0.55030021714E+03  0.00000000000E+00 0. -1.
</event>
<event>
 7    1  0.9434649E-006  0.1045332E+04  0.7818608E-02  0.9014816E-01
          4   -1    0    0  501    0 -0.00000000000E+00  0.00000000000E+00  0.17639153001E+04  0.17639153001E+04  0.00000000000E+00 0.  1.
          2   -1    0    0  502    0  0.00000000000E+00 -0.00000000000E+00 -0.14992143481E+04  0.14992143481E+04  0.00000000000E+00 0.  1.
    9000010    2    1    2  502    0  0.13760068855E+03  0.25636855748E+03  0.28762913365E+03  0.10749325475E+04  0.99402750281E+03 0.  0.
        -13    1    3    3    0    0  0.16234166935E+03  0.58055045806E+03  0.40836063594E+03  0.72811542500E+03  0.10566000000E+00 0.  1.
         13    1    1    2    0    0 -0.26317229253E+03 -0.19440171803E+03  0.10532744567E+04  0.11029228331E+04  0.10566000000E+00 0. -1.
          2    1    1    2  501    0  0.12557160398E+03 -0.61966839455E+02 -0.10762026384E+04  0.10852742676E+04  0.00000000000E+00 0.  1.
          4    1    3    3  502    0 -0.24740980803E+02 -0.32418190058E+03 -0.12073150229E+03  0.34681712248E+03  0.00000000000E+00 0.  1.
</event>
<event>
 7    1  0.9434649E-006  0.1055181E+04  0.7818608E-02  0.9003803E-01
         -4   -1    0    0    0  501 -0.00000000000E+00  0.00000000000E+00  0.20718416205E+04  0.20718416205E+04  0.00000000000E+00 0. -1.
          2   -1    0    0  501    0  0.00000000000E+00 -0.00000000000E+00 -0.41659918614E+03  0.41659918614E+03  0.00000000000E+00 0.  1.
   -9000010    2    1    2    0  502  0.10229984147E+03 -0.29893220107E+03  0.14529615171E+04  0.17933837412E+04  0.10026476723E+04 0.  0.
        -13    1    1    2    0    0  0.11618226673E+03  0.33989971246E+03  0.28431794594E+03  0.45811225609E+03  0.10566000000E+00 0.  1.
         13    1    3    3    0    0  0.51675671058E+03  0.34134580000E+02  0.76738758187E+03  0.92578959784E+03  0.10566000000E+00 0. -1.
          2    1    1    2  502    0 -0.21848210819E+03 -0.40967511389E+02 -0.82037028666E+02  0.23694480932E+03  0.00000000000E+00 0.  1.
         -4    1    3    3    0  502 -0.41445686912E+03 -0.33306678107E+03  0.68557393520E+03  0.86759414339E+03  0.00000000000E+00 0. -1.
</event>
<event>
 7    1  0.9434649E-006  0.9271863E+03  0.7818608E-02  0.9495376E-01
          4   -1    0    0  501    0 -0.00000000000E+00  0.00000000000E+00  0.42380282760E+03  0.42380282760E+03  0.00000000000E+00 0.  1.
          2   -1    0    0  502    0  0.00000000000E+00 -0.00000000000E+00 -0.90956400406E+03  0.90956400406E+03  0.00000000000E+00 0.  1.
    9000010    2    1    2  502    0 -0.92034865486E+02  0.53049224861E+02 -0.29397109998E+03  0.97568540557E+03  0.92426098387E+03 0.  0.
        -13    1    3    3    0    0 -0.40632629605E+03 -0.15593996045E+03  0.82076020412E+02  0.44289368298E+03  0.10566000000E+00 0.  1.
         13    1    1    2    0    0  0.70294636287E+02 -0.19096557133E+02  0.65071806673E+02  0.97674794972E+02  0.10566000000E+00 0. -1.
          2    1    1    2  501    0  0.21740229199E+02 -0.33952667729E+02 -0.25686188315E+03  0.26000663112E+03  0.00000000000E+00 0.  1.
          4    1    3    3  502    0  0.31429143057E+03  0.20898918531E+03 -0.37604712040E+03  0.53279172259E+03  0.00000000000E+00 0.  1.
</event>
<event>
 7    1  0.9434649E-006  0.1005356E+04  0.7818608E-02  0.9254876E-01
          4   -1    0    0  501    0  0.00000000000E+00  0.00000000000E+00  0.67735053418E+03  0.67735053418E+03  0.00000000000E+00 0. -1.
         -4   -1    0    0    0  501 -0.00000000000E+00 -0.00000000000E+00 -0.82699814318E+03  0.82699814318E+03  0.00000000000E+00 0. -1.
   -9000010    2    1    2    0  502  0.18322010892E+03  0.28045376409E+02 -0.32026073354E+03  0.10618952746E+04  0.99533837727E+03 0.  0.
        -13    1    1    2    0    0 -0.13572417062E+03  0.26064164548E+02 -0.94705372602E+02  0.16753957720E+03  0.10566000000E+00 0.  1.
         13    1    3    3    0    0  0.43363709636E+02  0.50904310250E+03 -0.18065810099E+03  0.54188804391E+03  0.10566000000E+00 0. -1.
          4    1    1    2  502    0 -0.47495938303E+02 -0.54109540957E+02  0.26531849714E+03  0.27491382560E+03  0.00000000000E+00 0. -1.
         -4    1    3    3    0  502  0.13985639929E+03 -0.48099772609E+03 -0.13960263255E+03  0.52000723066E+03  0.00000000000E+00 0. -1.
</event>
<event>
 7    1  0.9434649E-006  0.1015467E+04  0.7818608E-02  0.9199852E-01
          4   -1    0    0  501    0 -0.00000000000E+00  0.00000000000E+00  0.63865831439E+03  0.63865831439E+03  0.00000000000E+00 0.  1.
          2   -1    0    0  502    0  0.00000000000E+00 -0.00000000000E+00 -0.14792786149E+04  0.14792786149E+04  0.00000000000E+00 0. -1.
    9000010    2    1    2  502    0  0.61708466839E+02  0.12550838447E+03  0.18931628692E+03  0.10284638707E+04  0.10011678118E+04 0.  0.
        -13    1    3    3    0    0 -0.27736882472E+03 -0.14383069752E+03 -0.25850474975E+03  0.40551874344E+03  0.10566000000E+00 0.  1.
         13    1    1    2    0    0 -0.18613184065E+03 -0.13471183617E+03 -0.63442501601E+03  0.67474991887E+03  0.10566000000E+00 0. -1.
          2    1    1    2  501    0  0.12442337381E+03  0.92034516965E+01 -0.39551157142E+03  0.41472313970E+03  0.00000000000E+00 0. -1.
          4    1    3    3  502    0  0.33907729156E+03  0.26933908199E+03  0.44782103666E+03  0.62294512729E+03  0.00000000000E+00 0.  1.
</event>
<event>
 6    1  0.9434649E-006  0.1146649E+03  0.7818608E-02  0.1144380E+00
         -4   -1    0    0    0  501 -0.00000000000E+00  0.00000000000E+00  0.41596773742E+03  0.41596773742E+03  0.00000000000E+00 0. -1.
          4   -1    0    0  501    0  0.00000000000E+00 -0.00000000000E+00 -0.15871034279E+03  0.15871034279E+03  0.00000000000E+00 0.  1.
        -13    1    1    2    0    0 -0.15676634289E+02 -0.79697419632E+02 -0.64489615111E+02  0.10371285928E+03  0.10566000000E+00 0.  1.
         13    1    1    2    0    0 -0.10102778944E+03  0.60261237246E+02  0.26028416283E+03  0.28563243432E+03  0.10566000000E+00 0. -1.
          4    1    1    2  502    0 -0.45608165019E+01 -0.17888154378E+02 -0.25522565929E+02  0.31499023569E+02  0.00000000000E+00 0.  1.
         -4    1    1    2    0  502  0.12126524023E+03  0.37324336765E+02  0.86985412841E+02  0.15383376304E+03  0.00000000000E+00 0. -1.
</event>
<event>
 7    1  0.9434649E-006  0.1127956E+04  0.7818608E-02  0.8833504E-01
         -4   -1    0    0    0  501 -0.00000000000E+00  0.00000000000E+00  0.19414626816E+04  0.19414626816E+04  0.00000000000E+00 0. -1.
          2   -1    0    0  501    0  0.00000000000E+00 -0.00000000000E+00 -0.17751216680E+04  0.17751216680E+04  0.00000000000E+00 0. -1.
   -9000010    2    1    2    0  502 -0.16502267371E+03 -0.50693041854E+03  0.21824794699E+03  0.11441744986E+04  0.98858089441E+03 0.  0.
        -13    1    1    2    0    0  0.18189859617E+03  0.51313964065E+03  0.12013862818E+04  0.13189876419E+04  0.10566000000E+00 0.  1.
         13    1    3    3    0    0  0.40970626628E+03 -0.30682209631E+03  0.59971921471E+02  0.51535974420E+03  0.10566000000E+00 0. -1.
          2    1    1    2  502    0 -0.16875922456E+02 -0.62092221021E+01 -0.12532932152E+04  0.12534222092E+04  0.00000000000E+00 0. -1.
         -4    1    3    3    0  502 -0.57472893999E+03 -0.20010832223E+03  0.15827602552E+03  0.62881475440E+03  0.00000000000E+00 0. -1.
</event>
<event>
 7    1  0.9434649E-006  0.9937260E+03  0.7818608E-02  0.9275745E-01
         -4   -1    0    0    0  501 -0.00000000000E+00  0.00000000000E+00  0.93631461685E+03  0.93631461685E+03  0.00000000000E+00 0. -1.
          2   -1    0    0  501    0  0.00000000000E+00 -0.00000000000E+00 -0.25520813793E+04  0.25520813793E+04  0.00000000000E+00 0. -1.
   -9000010    2    1    2    0  502 -0.63898689936E+02  0.43003456011E+02  0.55079836525E+03  0.11306977651E+04  0.98446242027E+03 0.  0.
        -13    1    1    2    0    0  0.55821231547E+02 -0.13900766359E+03  0.35158497494E+02  0.15386770792E+03  0.10566000000E+00 0.  1.
         13    1    3    3    0    0  0.14994807521E+02 -0.46526125629E+03  0.33187825352E+03  0.57169578202E+03  0.10566000000E+00 0. -1.
          2    1    1    2  502    0  0.80774583889E+01  0.96004207582E+02 -0.22017236252E+04  0.22038305232E+04  0.00000000000E+00 0. -1.
         -4    1    3    3    0  502 -0.78893497456E+02  0.50826471230E+03  0.21892011173E+03  0.55900198303E+03  0.00000000000E+00 0. -1.
</event>
<event>
 7    1  0.9434649E-006  0.1002505E+04  0.7818608E-02  0.9273778E-01
         -4   -1    0    0    0  501 -0.00000000000E+00  0.00000000000E+00  0.70507589761E+03  0.70507589761E+03  0.00000000000E+00 0. -1.
          1   -1    0    0  501    0  0.00000000000E+00 -0.00000000000E+00 -0.69726568857E+03  0.69726568857E+03  0.00000000000E+00 0. -1.
   -9000010    2    1    2    0  502 -0.10463957394E+03  0.10074865669E+03 -0.21556065618E+03  0.10271016392E+04  0.99366576297E+03 0.  0.
        -13    1    1    2    0    0  0.10248403264E+03 -0.84067072589E+02  0.28341696442E+03  0.31288246439E+03  0.10566000000E+00 0.  1.
         13    1    3    3    0    0 -0.32030970742E+03 -0.49478214602E-01 -0.53810118891E+03  0.62621977914E+03  0.10566000000E+00 0. -1.
          1    1    1    2  502    0  0.21555412989E+01 -0.16681584102E+02 -0.60046099186E+02  0.62357482582E+02  0.00000000000E+00 0. -1.
         -4    1    3    3    0  502  0.21567013348E+03  0.10079813491E+03  0.32254053272E+03  0.40088186006E+03  0.00000000000E+00 0. -1.
</event>
<event>
 7    1  0.9434649E-006  0.1502528E+04  0.7818608E-02  0.8935085E-01
          1   -1    0    0  501    0  0.00000000000E+00  0.00000000000E+00  0.19356207455E+04  0.19356207455E+04  0.00000000000E+00 0. -1.
         -4   -1    0    0    0  501 -0.00000000000E+00 -0.00000000000E+00 -0.12773006644E+04  0.12773006644E+04  0.00000000000E+00 0. -1.
   -9000010    2    1    2    0  502 -0.10494604005E+04 -0.24128832592E+03  0.96861468413E+03  0.17583167633E+04  0.99693342066E+03 0.  0.
        -13    1    1    2    0    0 -0.10416705733E+03 -0.10886759469E+03 -0.19076955399E+03  0.24309661228E+03  0.10566000000E+00 0.  1.
         13    1    3    3    0    0 -0.25766020664E+03 -0.42904721457E+03  0.77384030976E+03  0.92157426754E+03  0.10566000000E+00 0. -1.
          1    1    1    2  502    0  0.11536274578E+04  0.35015592061E+03 -0.11952504901E+03  0.12115080344E+04  0.00000000000E+00 0. -1.
         -4    1    3    3    0  502 -0.79180019384E+03  0.18775888865E+03  0.19477437438E+03  0.83674249572E+03  0.00000000000E+00 0. -1.
</event>
<event>
 7    1  0.9434649E-006  0.9709108E+03  0.7818608E-02  0.9197896E-01
         -4   -1    0    0    0  501 -0.00000000000E+00  0.00000000000E+00  0.14610443517E+04  0.14610443517E+04  0.00000000000E+00 0. -1.
          1   -1    0    0  501    0  0.00000000000E+00 -0.00000000000E+00 -0.11377547585E+04  0.11377547585E+04  0.00000000000E+00 0. -1.
   -9000010    2    1    2    0  502  0.19057818669E+03  0.37993628518E+02  0.31997386860E+03  0.10220048647E+04  0.95097166406E+03 0.  0.
        -13    1    1    2    0    0 -0.19444949269E+03 -0.23177921338E+02  0.77784359577E+03  0.80211501163E+03  0.10566000000E+00 0.  1.
         13    1    3    3    0    0 -0.74722226745E+02  0.14657294999E+03  0.59947251760E+03  0.62163844103E+03  0.10566000000E+00 0. -1.
          1    1    1    2  502    0  0.38713060004E+01 -0.14815707180E+02 -0.77452787120E+03  0.77467923391E+03  0.00000000000E+00 0. -1.
         -4    1    3    3    0  502  0.26530041343E+03 -0.10857932147E+03 -0.27949864900E+03  0.40036642368E+03  0.00000000000E+00 0. -1.
</event>
<event>
 7    1  0.9434649E-006  0.1007755E+04  0.7818608E-02  0.9004867E-01
          3   -1    0    0  501    0  0.00000000000E+00  0.00000000000E+00  0.34517374001E+03  0.34517374001E+03  0.00000000000E+00 0. -1.
         -4   -1    0    0    0  501 -0.00000000000E+00 -0.00000000000E+00 -0.23520138569E+04  0.23520138569E+04  0.00000000000E+00 0. -1.
   -9000010    2    1    2    0  502 -0.13467429178E+03  0.35791973961E+03 -0.14878111224E+04  0.17983782794E+04  0.93506085088E+03 0.  0.
        -13    1    1    2    0    0  0.84768722602E+02 -0.36476859559E+03 -0.65461759987E+03  0.75416581591E+03  0.10566000000E+00 0.  1.
         13    1    3    3    0    0 -0.19129009413E+03 -0.35756404054E+02  0.57328011422E+02  0.20287171464E+03  0.10566000000E+00 0. -1.
          3    1    1    2  502    0  0.49905569175E+02  0.68488559794E+01  0.13558860537E+03  0.14464350165E+03  0.00000000000E+00 0. -1.
         -4    1    3    3    0  502  0.56615802357E+02  0.39367614366E+03 -0.15451391338E+04  0.15955065647E+04  0.00000000000E+00 0. -1.
</event>
<event>
 7    1  0.9434649E-006  0.9951951E+03  0.7818608E-02  0.9459910E-01
         -4   -1    0    0    0  501 -0.00000000000E+00  0.00000000000E+00  0.61144375063E+03  0.61144375063E+03  0.00000000000E+00 0. -1.
          2   -1    0    0  501    0  0.00000000000E+00 -0.00000000000E+00 -0.10373074872E+04  0.10373074872E+04  0.00000000000E+00 0. -1.
   -9000010    2    1    2    0  502  0.78748433880E+02  0.49849009916E+02 -0.76756272249E+02  0.10002011584E+04  0.99288699879E+03 0.  0.
        -13    1    1    2    0    0 -0.46200194086E+02 -0.49101695772E+02  0.14156456249E+03  0.15679914215E+03  0.10566000000E+00 0.  1.
         13    1    3    3    0    0 -0.12820254964E+03  0.37874031825E+03 -0.34492432115E+03  0.52806526196E+03  0.10566000000E+00 0. -1.
          2    1    1    2  502    0 -0.32548239794E+02 -0.74731414327E+00 -0.49067202676E+03  0.49175093720E+03  0.00000000000E+00 0. -1.
         -4    1    3    3    0  502  0.20695098352E+03 -0.32889130834E+03  0.26816804891E+03  0.47213589647E+03  0.00000000000E+00 0. -1.
</event>
<event>
 7    1  0.9434649E-006  0.1139801E+04  0.7818608E-02  0.8823983E-01
          2   -1    0    0  501    0  0.00000000000E+00  0.00000000000E+00  0.16833941656E+04  0.16833941656E+04  0.00000000000E+00 0. -1.
         -4   -1    0    0    0  501 -0.00000000000E+00 -0.00000000000E+00 -0.20800261773E+04  0.20800261773E+04  0.00000000000E+00 0. -1.
   -9000010    2    1    2    0  502 -0.44281678222E+03 -0.10131725779E+03 -0.34995125448E+03  0.11522972047E+04  0.99948540669E+03 0.  0.
        -13    1    1    2    0    0  0.39787094470E+03  0.41214930939E+03 -0.12459910954E+04  0.13713723648E+04  0.10566000000E+00 0.  1.
         13    1    3    3    0    0 -0.29851314796E+03  0.43756352719E+03 -0.91763442042E+02  0.53758020824E+03  0.10566000000E+00 0. -1.
          2    1    1    2  502    0  0.44945837521E+02 -0.31083205160E+03  0.11993103382E+04  0.12397507733E+04  0.00000000000E+00 0. -1.
         -4    1    3    3    0  502 -0.14430363426E+03 -0.53888078499E+03 -0.25818781244E+03  0.61471699649E+03  0.00000000000E+00 0. -1.
</event>
<event>
 7    1  0.9434649E-006  0.1094159E+04  0.7818608E-02  0.8930840E-01
         -4   -1    0    0    0  501 -0.00000000000E+00  0.00000000000E+00  0.30766909387E+03  0.30766909387E+03  0.00000000000E+00 0. -1.
          2   -1    0    0  501    0  0.00000000000E+00 -0.00000000000E+00 -0.24751013255E+04  0.24751013255E+04  0.00000000000E+00 0. -1.
   -9000010    2    1    2    0  502 -0.39182694685E+03  0.16850027876E+02 -0.11480995303E+04  0.15847654151E+04  0.10195766817E+04 0.  0.
        -13    1    1    2    0    0  0.39874224456E+03  0.25866265763E+01 -0.35657968761E+03  0.53493097967E+03  0.10566000000E+00 0.  1.
         13    1    3    3    0    0 -0.69406840322E+03  0.19520480432E+03 -0.62122894822E+03  0.95171491596E+03  0.10566000000E+00 0. -1.
          2    1    1    2  502    0 -0.69152977050E+01 -0.19436654452E+02 -0.66275301367E+03  0.66307402453E+03  0.00000000000E+00 0. -1.
         -4    1    3    3    0  502  0.30224145637E+03 -0.17835477644E+03 -0.52687058211E+03  0.63305049919E+03  0.00000000000E+00 0. -1.
</event>
<event>
 7    1  0.9434649E-006  0.1097383E+04  0.7818608E-02  0.8891972E-01
         -4   -1    0    0    0  501 -0.00000000000E+00  0.00000000000E+00  0.22067748824E+04  0.22067748824E+04  0.00000000000E+00 0. -1.
          1   -1    0    0  501    0  0.00000000000E+00 -0.00000000000E+00 -0.76576906399E+03  0.76576906399E+03  0.00000000000E+00 0. -1.
   -9000010    2    1    2    0  502  0.33437933042E+03 -0.34269269889E+03  0.12534338393E+04  0.16706552317E+04  0.99536158810E+03 0.  0.
        -13    1    1    2    0    0 -0.35541430840E+03  0.28766781962E+03  0.67259603371E+03  0.81330040009E+03  0.10566000000E+00 0.  1.
         13    1    3    3    0    0  0.65615962533E+03 -0.33662018292E+03  0.63369260564E+03  0.97232964115E+03  0.10566000000E+00 0. -1.
          1    1    1    2  502    0  0.21034977985E+02  0.55024879271E+02 -0.48502405461E+03  0.48858831463E+03  0.00000000000E+00 0. -1.
         -4    1    3    3    0  502 -0.32178029491E+03 -0.60725159684E+01  0.61974123367E+03  0.69832559051E+03  0.00000000000E+00 0. -1.
</event>
<event>
 7    1  0.9434649E-006  0.1041550E+04  0.7818608E-02  0.9178989E-01
          4   -1    0    0  501    0 -0.00000000000E+00  0.00000000000E+00  0.85612983303E+03  0.85612983303E+03  0.00000000000E+00 0.  1.
          2   -1    0    0  502    0  0.00000000000E+00 -0.00000000000E+00 -0.22595800356E+04  0.22595800356E+04  0.00000000000E+00 0.  1.
    9000010    2    1    2  502    0 -0.33525657592E+03  0.26346909515E+03  0.40807949966E+03  0.11690243448E+04  0.10090966776E+04 0.  0.
        -13    1    3    3    0    0  0.17014730198E+03 -0.24390913768E+02  0.54502532334E+03  0.57148721359E+03  0.10566000000E+00 0.  1.
         13    1    1    2    0    0  0.12977452006E+03 -0.11081463983E+03 -0.66769151614E+02  0.18324694057E+03  0.10566000000E+00 0. -1.
          2    1    1    2  501    0  0.20548205586E+03 -0.15265445531E+03 -0.17447605507E+04  0.17634385833E+04  0.00000000000E+00 0.  1.
          4    1    3    3  502    0 -0.50540387790E+03  0.28786000892E+03 -0.13694582368E+03  0.59753713119E+03  0.00000000000E+00 0.  1.
</event>
<event>
 7    1  0.9434649E-006  0.1072463E+04  0.7818608E-02  0.8973831E-01
          1   -1    0    0  501    0  0.00000000000E+00  0.00000000000E+00  0.30790855563E+03  0.30790855563E+03  0.00000000000E+00 0. -1.
         -4   -1    0    0    0  501 -0.00000000000E+00 -0.00000000000E+00 -0.34387785911E+04  0.34387785911E+04  0.00000000000E+00 0. -1.
   -9000010    2    1    2    0  502 -0.28597985996E+03  0.22454618172E+03 -0.23554041342E+04  0.25894497622E+04  0.10124801073E+04 0.  0.
        -13    1    1    2    0    0  0.26876909489E+03 -0.22570004548E+03 -0.93400179061E+03  0.99776585076E+03  0.10566000000E+00 0.  1.
         13    1    3    3    0    0 -0.51998274727E+03  0.17978064747E+03 -0.22709985731E+04  0.23366937473E+04  0.10566000000E+00 0. -1.
          1    1    1    2  502    0  0.17210765066E+02  0.11538637687E+01  0.15853588939E+03  0.15947153370E+03  0.00000000000E+00 0. -1.
         -4    1    3    3    0  502  0.23400288731E+03  0.44765534243E+02 -0.84405561106E+02  0.25275601491E+03  0.00000000000E+00 0. -1.
</event>
<event>
 7    1  0.9434649E-006  0.1278170E+04  0.7818608E-02  0.8854766E-01
          2   -1    0    0  501    0  0.00000000000E+00  0.00000000000E+00  0.21929035947E+04  0.21929035947E+04  0.00000000000E+00 0.  1.
         -4   -1    0    0    0  501 -0.00000000000E+00 -0.00000000000E+00 -0.10803168117E+04  0.10803168117E+04  0.00000000000E+00 0. -1.
   -9000010    2    1    2    0  502 -0.96784025568E+02  0.64276872239E+03  0.85324738788E+03  0.14667050931E+04  0.10003369168E+04 0.  0.
        -13    1    1    2    0    0  0.22578292359E+03  0.25612423658E+03 -0.51175412450E+03  0.61519903142E+03  0.10566000000E+00 0.  1.
         13    1    3    3    0    0  0.24274672903E+03  0.11602537578E+03 -0.13149300977E+03  0.29946332841E+03  0.10566000000E+00 0. -1.
          2    1    1    2  502    0 -0.12899889803E+03 -0.89889295897E+03  0.77109351966E+03  0.11913162819E+04  0.00000000000E+00 0.  1.
         -4    1    3    3    0  502 -0.33953075460E+03  0.52674334661E+03  0.98474039765E+03  0.11672417647E+04  0.00000000000E+00 0. -1.
</event>
<event>
 6    1  0.9434649E-006  0.4075158E+03  0.7818608E-02  0.9982641E-01
          2   -1    0    0  502    0  0.00000000000E+00  0.00000000000E+00  0.15788343624E+04  0.15788343624E+04  0.00000000000E+00 0.  1.
          4   -1    0    0  501    0 -0.00000000000E+00 -0.00000000000E+00 -0.52639951075E+03  0.52639951075E+03  0.00000000000E+00 0.  1.
        -13    1    1    2    0    0 -0.10856481609E+03 -0.11178336786E+03 -0.40286178831E+03  0.43194846019E+03  0.10566000000E+00 0.  1.
         13    1    1    2    0    0 -0.97392381398E+02  0.28554575292E+03  0.15554958092E+03  0.33943679272E+03  0.10566000000E+00 0. -1.
          2    1    1    2  501    0  0.16446634046E+03 -0.17384131541E+03  0.12268366478E+04  0.12499592555E+04  0.00000000000E+00 0.  1.
          4    1    1    2  502    0  0.41490857025E+02  0.78930353185E-01  0.72910411256E+02  0.83889364738E+02  0.00000000000E+00 0.  1.
</event>
<event>
 7    1  0.9434649E-006  0.1098845E+04  0.7818608E-02  0.8885169E-01
         -4   -1    0    0    0  502 -0.00000000000E+00  0.00000000000E+00  0.27154455344E+04  0.27154455344E+04  0.00000000000E+00 0. -1.
         -2   -1    0    0    0  501  0.00000000000E+00 -0.00000000000E+00 -0.62848980399E+03  0.62848980399E+03  0.00000000000E+00 0. -1.
   -9000010    2    1    2    0  501  0.46227607823E+02 -0.47353301068E+03  0.20932268450E+04  0.23645965567E+04  0.99163891985E+03 0.  0.
        -13    1    1    2    0    0 -0.68862713263E+02  0.46660669443E+03  0.37176601165E+03  0.60056128675E+03  0.10566000000E+00 0.  1.
         13    1    3    3    0    0 -0.40483746663E+03 -0.28630731494E+03  0.15806886438E+04  0.16566357031E+04  0.10566000000E+00 0. -1.
         -2    1    1    2    0  502  0.22635105440E+02  0.69263162521E+01 -0.37803712625E+03  0.37877749495E+03  0.00000000000E+00 0. -1.
         -4    1    3    3    0  501  0.45106507445E+03 -0.18722569574E+03  0.51253820120E+03  0.70796085359E+03  0.00000000000E+00 0. -1.
</event>
<event>
 7    1  0.9434649E-006  0.1023959E+04  0.7818608E-02  0.9262976E-01
          2   -1    0    0  501    0  0.00000000000E+00  0.00000000000E+00  0.20683001701E+04  0.20683001701E+04  0.00000000000E+00 0. -1.
         -4   -1    0    0    0  501 -0.00000000000E+00 -0.00000000000E+00 -0.57048184225E+03  0.57048184225E+03  0.00000000000E+00 0. -1.
   -9000010    2    1    2    0  502 -0.63089066356E+02  0.10367361866E+02  0.98941356958E+03  0.14193811113E+04  0.10156848994E+04 0.  0.
        -13    1    1    2    0    0  0.88065595417E+02  0.96802189241E+02 -0.33977837160E+03  0.36410927743E+03  0.10566000000E+00 0.  1.
         13    1    3    3    0    0  0.43559817613E+02  0.38351136879E+03  0.33185551154E+02  0.38740123860E+03  0.10566000000E+00 0. -1.
          2    1    1    2  502    0 -0.24976529061E+02 -0.10716955111E+03  0.84818312983E+03  0.85529162361E+03  0.00000000000E+00 0. -1.
         -4    1    3    3    0  502 -0.10664888397E+03 -0.37314400693E+03  0.95622801843E+03  0.10319798727E+04  0.00000000000E+00 0. -1.
</event>
<event>
 7    1  0.9434649E-006  0.9967303E+03  0.7818608E-02  0.9009769E-01
          4   -1    0    0  501    0 -0.00000000000E+00  0.00000000000E+00  0.20639262585E+03  0.20639262585E+03  0.00000000000E+00 0.  1.
          2   -1    0    0  502    0  0.00000000000E+00 -0.00000000000E+00 -0.29961297272E+04  0.29961297272E+04  0.00000000000E+00 0. -1.
    9000010    2    1    2  502    0  0.28301100273E+03 -0.25015559514E+03 -0.12337938068E+04  0.15853646384E+04  0.92111933521E+03 0.  0.
        -13    1    3    3    0    0  0.32514032701E+00  0.28025103913E+03 -0.79000906891E+03  0.83824524500E+03  0.10566000000E+00 0.  1.
         13    1    1    2    0    0 -0.27564298010E+03  0.26681961443E+03 -0.11804531006E+04  0.12412257220E+04  0.10566000000E+00 0. -1.
          2    1    1    2  501    0 -0.73680226302E+01 -0.16664019288E+02 -0.37549019396E+03  0.37593199260E+03  0.00000000000E+00 0. -1.
          4    1    3    3  502    0  0.28268586240E+03 -0.53040663427E+03 -0.44378473788E+03  0.74711939344E+03  0.00000000000E+00 0.  1.
</event>
<event>
 7    1  0.9434649E-006  0.1119137E+04  0.7818608E-02  0.8860730E-01
          2   -1    0    0  502    0  0.00000000000E+00  0.00000000000E+00  0.15230036704E+04  0.15230036704E+04  0.00000000000E+00 0.  1.
          4   -1    0    0  501    0 -0.00000000000E+00 -0.00000000000E+00 -0.62237649443E+03  0.62237649443E+03  0.00000000000E+00 0.  1.
    9000010    2    1    2  502    0 -0.30575444890E+03 -0.42898064618E+03  0.88647223409E+03  0.14386324717E+04  0.10031551171E+04 0.  0.
        -13    1    3    3    0    0 -0.65171044490E+03 -0.20853754555E+03  0.72736776564E+03  0.99863821755E+03  0.10566000000E+00 0.  1.
         13    1    1    2    0    0  0.28298938779E+03  0.40187146049E+03 -0.16934318768E+03  0.51986612771E+03  0.10566000000E+00 0. -1.
          2    1    1    2  501    0  0.22765061106E+02  0.27109185690E+02  0.18349812953E+03  0.18688156543E+03  0.00000000000E+00 0.  1.
          4    1    3    3  502    0  0.34595599600E+03 -0.22044310063E+03  0.15910446845E+03  0.43999425412E+03  0.00000000000E+00 0.  1.
</event>
<event>
 7    1  0.9434649E-006  0.1030675E+04  0.7818608E-02  0.9390207E-01
          1   -1    0    0  501    0  0.00000000000E+00  0.00000000000E+00  0.80408502605E+03  0.80408502605E+03  0.00000000000E+00 0. -1.
         -4   -1    0    0    0  501 -0.00000000000E+00 -0.00000000000E+00 -0.96290255813E+03  0.96290255813E+03  0.00000000000E+00 0. -1.
   -9000010    2    1    2    0  502  0.20798053733E+03 -0.26207816826E+02  0.35348673256E+03  0.10798753060E+04  0.99861656950E+03 0.  0.
        -13    1    1    2    0    0  0.72397640822E+02 -0.31289408552E+02 -0.34855623906E+03  0.35736802940E+03  0.10566000000E+00 0.  1.
         13    1    3    3    0    0 -0.63147313325E+02  0.13401757192E+03 -0.31102826803E+03  0.34450963331E+03  0.10566000000E+00 0. -1.
          1    1    1    2  502    0 -0.28037817815E+03  0.57497225378E+02 -0.16374802558E+03  0.32974424876E+03  0.00000000000E+00 0. -1.
         -4    1    3    3    0  502  0.27112785065E+03 -0.16022538875E+03  0.66451500059E+03  0.73536567271E+03  0.00000000000E+00 0. -1.
</event>
<event>
 7    1  0.9434649E-006  0.8639581E+03  0.7818608E-02  0.9242895E-01
          4   -1    0    0  501    0 -0.00000000000E+00  0.00000000000E+00  0.37724001396E+03  0.37724001396E+03  0.00000000000E+00 0.  1.
          2   -1    0    0  502    0  0.00000000000E+00 -0.00000000000E+00 -0.98479616191E+03  0.98479616191E+03  0.00000000000E+00 0. -1.
    9000010    2    1    2  502    0  0.38384906529E+02 -0.20956332848E+03 -0.54295957754E+03  0.10159074604E+04  0.83178884068E+03 0.  0.
        -13    1    3    3    0    0 -0.16271506468E+02 -0.35537423046E+03  0.87626170247E+02  0.36637953338E+03  0.10566000000E+00 0.  1.
         13    1    1    2    0    0 -0.59408511458E+02  0.23148754919E+03 -0.13140960517E+03  0.27273494854E+03  0.10566000000E+00 0. -1.
          2    1    1    2  501    0  0.21023604929E+02 -0.21924220705E+02  0.66813034754E+02  0.73393766975E+02  0.00000000000E+00 0. -1.
          4    1    3    3  502    0  0.54656412997E+02  0.14581090198E+03 -0.63058574779E+03  0.64952792698E+03  0.00000000000E+00 0.  1.
</event>
<event>
 7    1  0.9434649E-006  0.9945518E+03  0.7818608E-02  0.9147569E-01
          4   -1    0    0  501    0 -0.00000000000E+00  0.00000000000E+00  0.16492371368E+03  0.16492371368E+03  0.00000000000E+00 0.  1.
          2   -1    0    0  502    0  0.00000000000E+00 -0.00000000000E+00 -0.26722485686E+04  0.26722485686E+04  0.00000000000E+00 0.  1.
    9000010    2    1    2  502    0 -0.40281959280E+02 -0.24429482365E+03 -0.15373974657E+04  0.18343730345E+04  0.96955188886E+03 0.  0.
        -13    1    3    3    0    0  0.42672684124E+03 -0.13396949940E+02 -0.99285206771E+03  0.10807546043E+04  0.10566000000E+00 0.  1.
         13    1    1    2    0    0  0.32706398042E+02  0.20770645319E+03 -0.71932019654E+03  0.74942193422E+03  0.10566000000E+00 0. -1.
          2    1    1    2  501    0  0.75755612378E+01  0.36588370461E+02 -0.25060719274E+03  0.25337731357E+03  0.00000000000E+00 0.  1.
          4    1    3    3  502    0 -0.46700880052E+03 -0.23089787371E+03 -0.54454539796E+03  0.75361843016E+03  0.00000000000E+00 0.  1.
</event>
<event>
 7    1  0.9434649E-006  0.9587251E+03  0.7818608E-02  0.9635632E-01
          1   -1    0    0  501    0  0.00000000000E+00  0.00000000000E+00  0.77971944340E+03  0.77971944340E+03  0.00000000000E+00 0. -1.
         -4   -1    0    0    0  501 -0.00000000000E+00 -0.00000000000E+00 -0.38618184608E+03  0.38618184608E+03  0.00000000000E+00 0. -1.
   -9000010    2    1    2    0  502  0.18628714220E+02  0.23365826785E+02  0.22312999445E+03  0.98397774034E+03  0.95787901543E+03 0.  0.
        -13    1    1    2    0    0 -0.27844013660E+02 -0.30992108918E+02  0.75222065697E+02  0.85989361223E+02  0.10566000000E+00 0.  1.
         13    1    3    3    0    0  0.21102541280E+03 -0.41418276598E+03  0.21880353172E+02  0.46535776505E+03  0.10566000000E+00 0. -1.
          1    1    1    2  502    0  0.92152994394E+01  0.76262821334E+01  0.95185537179E+02  0.95934187916E+02  0.00000000000E+00 0. -1.
         -4    1    3    3    0  502 -0.19239669858E+03  0.43754859276E+03  0.20124964127E+03  0.51861997528E+03  0.00000000000E+00 0. -1.
</event>
<event>
 7    1  0.9434649E-006  0.1195125E+04  0.7818608E-02  0.8751229E-01
          4   -1    0    0  501    0 -0.00000000000E+00  0.00000000000E+00  0.13290658424E+04  0.13290658424E+04  0.00000000000E+00 0.  1.
          2   -1    0    0  502    0  0.00000000000E+00 -0.00000000000E+00 -0.21764634205E+04  0.21764634205E+04  0.00000000000E+00 0.  1.
    9000010    2    1    2  502    0 -0.82587155825E+03  0.37368196570E+03 -0.40916224678E+02  0.13538000931E+04  0.10046882663E+04 0.  0.
        -13    1    3    3    0    0 -0.97731488788E+02 -0.24014640021E+03 -0.26995307698E+03  0.37429455295E+03  0.10566000000E+00 0.  1.
         13    1    1    2    0    0  0.34011050720E+03 -0.51130180453E+03  0.47371622131E+03  0.77557189346E+03  0.10566000000E+00 0. -1.
          2    1    1    2  501    0  0.48576105106E+03  0.13761983883E+03 -0.12801975748E+04  0.13761572763E+04  0.00000000000E+00 0.  1.
          4    1    3    3  502    0 -0.72814006946E+03  0.61382836590E+03  0.22903685230E+03  0.97950554019E+03  0.00000000000E+00 0.  1.
</event>
<event>
 6    1  0.9434649E-006  0.1078166E+04  0.7818608E-02  0.8704427E-01
          4   -1    0    0  501    0 -0.00000000000E+00  0.00000000000E+00  0.10633521883E+04  0.10633521883E+04  0.00000000000E+00 0.  1.
          2   -1    0    0  502    0  0.00000000000E+00 -0.00000000000E+00 -0.59521198048E+03  0.59521198048E+03  0.00000000000E+00 0.  1.
        -13    1    1    2    0    0  0.22617846133E+03  0.50237012464E-01 -0.19706199419E+03  0.29998356557E+03  0.10566000000E+00 0.  1.
         13    1    1    2    0    0 -0.19324641401E+03 -0.72231918299E+02  0.54496510118E+03  0.58270798795E+03  0.10566000000E+00 0. -1.
          2    1    1    2  501    0  0.24747026410E+02 -0.14604362838E+02 -0.32110870145E+03  0.32239184369E+03  0.00000000000E+00 0.  1.
          4    1    1    2  502    0 -0.57679073733E+02  0.86786044124E+02  0.44134580232E+03  0.45348077162E+03  0.00000000000E+00 0.  1.
</event>
<event>
 7    1  0.9434649E-006  0.1082828E+04  0.7818608E-02  0.8958044E-01
          1   -1    0    0  501    0  0.00000000000E+00  0.00000000000E+00  0.16114287194E+04  0.16114287194E+04  0.00000000000E+00 0. -1.
         -4   -1    0    0    0  501 -0.00000000000E+00 -0.00000000000E+00 -0.24506047421E+04  0.24506047421E+04  0.00000000000E+00 0. -1.
   -9000010    2    1    2    0  502  0.33851847466E+03  0.35638414285E+03  0.12061773704E+04  0.16536971507E+04  0.10189435718E+04 0.  0.
        -13    1    1    2    0    0 -0.25851462098E+03 -0.25782299525E+03 -0.21874982005E+04  0.22177580784E+04  0.10566000000E+00 0.  1.
         13    1    3    3    0    0  0.59090034277E+03  0.28996850444E+03  0.12264735078E+04  0.13919347058E+04  0.10566000000E+00 0. -1.
          1    1    1    2  502    0 -0.80003853681E+02 -0.98561147599E+02  0.14214480735E+03  0.19057823243E+03  0.00000000000E+00 0. -1.
         -4    1    3    3    0  502 -0.25238186811E+03  0.66415638414E+02 -0.20296137434E+02  0.26176244492E+03  0.00000000000E+00 0. -1.
</event>
<event>
 7    1  0.9434649E-006  0.1413842E+04  0.7818608E-02  0.8539267E-01
          4   -1    0    0  501    0 -0.00000000000E+00  0.00000000000E+00  0.14473495915E+04  0.14473495915E+04  0.00000000000E+00 0.  1.
          2   -1    0    0  502    0  0.00000000000E+00 -0.00000000000E+00 -0.22063130523E+04  0.22063130523E+04  0.00000000000E+00 0. -1.
    9000010    2    1    2  502    0  0.19339819488E+03 -0.10079979553E+04  0.67967179009E+03  0.15915367095E+04  0.10087480437E+04 0.  0.
        -13    1    3    3    0    0  0.28388006828E+03 -0.52208306195E+02 -0.14762399806E+03  0.32420125905E+03  0.10566000000E+00 0.  1.
         13    1    1    2    0    0 -0.57671305754E+03  0.79264469284E+03 -0.70722408012E+03  0.12087387933E+04  0.10566000000E+00 0. -1.
          2    1    1    2  501    0  0.38331486266E+03  0.21535326250E+03 -0.73141117078E+03  0.85338714095E+03  0.00000000000E+00 0. -1.
          4    1    3    3  502    0 -0.90481873408E+02 -0.95578964915E+03  0.82729578815E+03  0.12673354504E+04  0.00000000000E+00 0.  1.
</event>
<event>
 6    1  0.9434649E-006  0.3053954E+03  0.7818608E-02  0.1005103E+00
          1   -1    0    0  501    0  0.00000000000E+00  0.00000000000E+00  0.21616527115E+03  0.21616527115E+03  0.00000000000E+00 0. -1.
         -4   -1    0    0    0  501 -0.00000000000E+00 -0.00000000000E+00 -0.19518879045E+03  0.19518879045E+03  0.00000000000E+00 0. -1.
        -13    1    1    2    0    0 -0.80667667930E+02  0.68496952573E+02 -0.59556608679E+02  0.12143354546E+03  0.10566000000E+00 0.  1.
         13    1    1    2    0    0  0.77406340280E+02 -0.81520827808E+02  0.41395318630E+02  0.11979553602E+03  0.10566000000E+00 0. -1.
          1    1    1    2  502    0 -0.51305924066E+01 -0.36415619226E+02  0.90898890884E+02  0.98056252559E+02  0.00000000000E+00 0. -1.
         -4    1    1    2    0  502  0.83919200567E+01  0.49439494461E+02 -0.51761120131E+02  0.72068727560E+02  0.00000000000E+00 0. -1.
</event>
<event>
 7    1  0.9434649E-006  0.1072673E+04  0.7818608E-02  0.8968147E-01
          2   -1    0    0  502    0  0.00000000000E+00  0.00000000000E+00  0.82162321258E+03  0.82162321258E+03  0.00000000000E+00 0.  1.
          4   -1    0    0  501    0 -0.00000000000E+00 -0.00000000000E+00 -0.10258724147E+04  0.10258724147E+04  0.00000000000E+00 0.  1.
    9000010    2    1    2  502    0  0.20768625271E+03 -0.29810129689E+03  0.13706073454E+03  0.10819328275E+04  0.10098490162E+04 0.  0.
        -13    1    3    3    0    0 -0.18416535394E+03 -0.22496852533E+03 -0.34840830524E+03  0.45377976300E+03  0.10566000000E+00 0.  1.
         13    1    1    2    0    0 -0.22821611186E+03  0.28053898753E+03 -0.49303694202E+03  0.61144922487E+03  0.10566000000E+00 0. -1.
          2    1    1    2  501    0  0.20529859147E+02  0.17562309357E+02  0.15172700532E+03  0.15411357490E+03  0.00000000000E+00 0.  1.
          4    1    3    3  502    0  0.39185160666E+03 -0.73132771561E+02  0.48546903978E+03  0.62815306455E+03  0.00000000000E+00 0.  1.
</event>
<event>
 7    1  0.9434649E-006  0.1072824E+04  0.7818608E-02  0.8940680E-01
          4   -1    0    0  501    0 -0.00000000000E+00  0.00000000000E+00  0.20811816166E+04  0.20811816166E+04  0.00000000000E+00 0.  1.
          2   -1    0    0  502    0  0.00000000000E+00 -0.00000000000E+00 -0.52976990963E+03  0.52976990963E+03  0.00000000000E+00 0. -1.
    9000010    2    1    2  502    0 -0.41410832914E+03  0.12925031139E+03  0.13806556090E+04  0.17554799855E+04  0.99363409646E+03 0.  0.
        -13    1    3    3    0    0  0.25378924811E+03  0.28978418328E+03  0.62585841537E+03  0.73490313823E+03  0.10566000000E+00 0.  1.
         13    1    1    2    0    0  0.33416272221E+03 -0.21372407976E+03  0.42166544492E+03  0.57891663112E+03  0.10566000000E+00 0. -1.
          2    1    1    2  501    0  0.79945606926E+02  0.84473768369E+02 -0.25090934697E+03  0.27655490957E+03  0.00000000000E+00 0. -1.
          4    1    3    3  502    0 -0.66789757724E+03 -0.16053387188E+03  0.75479719365E+03  0.10205768473E+04  0.00000000000E+00 0.  1.
</event>
<event>
 7    1  0.9434649E-006  0.1001170E+04  0.7818608E-02  0.9403586E-01
          2   -1    0    0  502    0  0.00000000000E+00  0.00000000000E+00  0.72771615954E+03  0.72771615954E+03  0.00000000000E+00 0.  1.
          4   -1    0    0  501    0 -0.00000000000E+00 -0.00000000000E+00 -0.78180816953E+03  0.78180816953E+03  0.00000000000E+00 0.  1.
    9000010    2    1    2  502    0  0.50052714342E+02  0.97358862614E+02 -0.41001819348E+03  0.10843137948E+04  0.99781634793E+03 0.  0.
        -13    1    3    3    0    0  0.25325101567E+02  0.26476138390E+03  0.27270591219E+03  0.38093106579E+03  0.10566000000E+00 0.  1.
         13    1    1    2    0    0 -0.28222076033E+01 -0.79155969858E+02  0.15083282275E+02  0.80629702890E+02  0.10566000000E+00 0. -1.
          2    1    1    2  501    0 -0.47230506739E+02 -0.18202892756E+02  0.34084290122E+03  0.34458083142E+03  0.00000000000E+00 0.  1.
          4    1    3    3  502    0  0.24727612775E+02 -0.16740252129E+03 -0.68272410567E+03  0.70338272898E+03  0.00000000000E+00 0.  1.
</event>
<event>
 7    1  0.9434649E-006  0.1238970E+04  0.7818608E-02  0.8783850E-01
          2   -1    0    0  501    0  0.00000000000E+00  0.00000000000E+00  0.29192378748E+04  0.29192378748E+04  0.00000000000E+00 0. -1.
         -4   -1    0    0    0  501 -0.00000000000E+00 -0.00000000000E+00 -0.15404027594E+04  0.15404027594E+04  0.00000000000E+00 0. -1.
   -9000010    2    1    2    0  502  0.60969475544E+03  0.52753684694E+03 -0.66608647614E+03  0.14457699805E+04  0.99827692701E+03 0.  0.
        -13    1    1    2    0    0 -0.46556804034E+03  0.19690625006E+03 -0.27761211512E+03  0.57670977894E+03  0.10566000000E+00 0.  1.
         13    1    3    3    0    0  0.63399380628E+03  0.37828193527E+03 -0.90196277970E+03  0.11655823592E+04  0.10566000000E+00 0. -1.
          2    1    1    2  502    0 -0.14412671510E+03 -0.72444309700E+03  0.23225337067E+04  0.24371608748E+04  0.00000000000E+00 0. -1.
         -4    1    3    3    0  502 -0.24299050838E+02  0.14925491167E+03  0.23587630355E+03  0.28018762126E+03  0.00000000000E+00 0. -1.
</event>
<event>
 6    1  0.1348314E-005  0.4451219E+03  0.7818608E-02  0.9607116E-01
          2   -1    0    0  502    0  0.00000000000E+00  0.00000000000E+00  0.14609109539E+04  0.14609109539E+04  0.00000000000E+00 0.  1.
          4   -1    0    0  501    0 -0.00000000000E+00 -0.00000000000E+00 -0.10599475484E+03  0.10599475484E+03  0.00000000000E+00 0.  1.
        -13    1    1    2    0    0  0.11935120442E+02 -0.86420694526E+02 -0.74919773173E+02  0.11499550912E+03  0.10566000000E+00 0.  1.
         13    1    1    2    0    0 -0.16438255338E+02  0.89107285612E+02  0.18074472309E+03  0.20218553528E+03  0.10566000000E+00 0. -1.
          2    1    1    2  501    0  0.73561996594E+01  0.13329323156E+02  0.99327617220E+03  0.99339284212E+03  0.00000000000E+00 0.  1.
          4    1    1    2  502    0 -0.28530647641E+01 -0.16015914241E+02  0.25581507694E+03  0.25633182221E+03  0.00000000000E+00 0.  1.
</event>
<event>
 7    1  0.9434649E-006  0.1173822E+04  0.7818608E-02  0.8769260E-01
          2   -1    0    0  502    0  0.00000000000E+00  0.00000000000E+00  0.17556673955E+04  0.17556673955E+04  0.00000000000E+00 0.  1.
          4   -1    0    0  501    0 -0.00000000000E+00 -0.00000000000E+00 -0.27920564159E+04  0.27920564159E+04  0.00000000000E+00 0.  1.
    9000010    2    1    2  502    0  0.62392678907E+03  0.12157580221E+03 -0.16069596568E+04  0.19910280034E+04  0.98884167480E+03 0.  0.
        -13    1    3    3    0    0  0.13615673978E+03  0.51262722393E+02  0.12407525321E+03  0.19120984315E+03  0.10566000000E+00 0.  1.
         13    1    1    2    0    0 -0.61358693836E+03 -0.14741107712E+03 -0.89266671684E+03  0.10931938689E+04  0.10566000000E+00 0. -1.
          2    1    1    2  501    0 -0.10339850712E+02  0.25835274905E+02  0.14632373532E+04  0.14635019391E+04  0.00000000000E+00 0.  1.
          4    1    3    3  502    0  0.48777004929E+03  0.70313079822E+02 -0.17310349100E+04  0.17998181602E+04  0.00000000000E+00 0.  1.
</event>
<event>
 7    1  0.9434649E-006  0.1188798E+04  0.7818608E-02  0.8752676E-01
         -4   -1    0    0    0  501 -0.00000000000E+00  0.00000000000E+00  0.28443235576E+04  0.28443235576E+04  0.00000000000E+00 0. -1.
          2   -1    0    0  501    0  0.00000000000E+00 -0.00000000000E+00 -0.13972841472E+04  0.13972841472E+04  0.00000000000E+00 0.  1.
   -9000010    2    1    2    0  502  0.67951664143E+03  0.89868517243E+02  0.12458623542E+04  0.17343805933E+04  0.99301753276E+03 0.  0.
        -13    1    1    2    0    0 -0.61544790455E+03 -0.19647698177E+03  0.12733492001E+04  0.14278646729E+04  0.10566000000E+00 0.  1.
         13    1    3    3    0    0 -0.15487336486E+03 -0.20966634968E+03  0.85937334280E+02  0.27446488649E+03  0.10566000000E+00 0. -1.
          2    1    1    2  502    0 -0.64068736881E+02  0.10660846452E+03 -0.10721721439E+04  0.10793624386E+04  0.00000000000E+00 0.  1.
         -4    1    3    3    0  502  0.83439000628E+03  0.29953486692E+03  0.11599250199E+04  0.14599157068E+04  0.00000000000E+00 0. -1.
</event>
<event>
 7    1  0.9434649E-006  0.1229622E+04  0.7818608E-02  0.8766584E-01
          4   -1    0    0  501    0 -0.00000000000E+00  0.00000000000E+00  0.10562472711E+04  0.10562472711E+04  0.00000000000E+00 0.  1.
          2   -1    0    0  502    0  0.00000000000E+00 -0.00000000000E+00 -0.17045266165E+04  0.17045266165E+04  0.00000000000E+00 0.  1.
    9000010    2    1    2  502    0  0.35961884865E+03  0.74500152818E+03 -0.84344977059E+01  0.12915862219E+04  0.99185222418E+03 0.  0.
        -13    1    3    3    0    0 -0.40928485835E+02 -0.22873582993E+03  0.47600915800E+02  0.23719418036E+03  0.10566000000E+00 0.  1.
         13    1    1    2    0    0  0.32474440952E+03 -0.45198226011E+03 -0.40589468938E+03  0.68883772036E+03  0.10566000000E+00 0. -1.
          2    1    1    2  501    0 -0.68436325817E+03 -0.29301926808E+03 -0.23395015830E+03  0.78034994532E+03  0.00000000000E+00 0.  1.
          4    1    3    3  502    0  0.40054733448E+03  0.97373735811E+03 -0.56035413506E+02  0.10543920416E+04  0.00000000000E+00 0.  1.
</event>
<event>
 7    1  0.9434649E-006  0.1313292E+04  0.7818608E-02  0.8619974E-01
          4   -1    0    0  501    0 -0.00000000000E+00  0.00000000000E+00  0.18099627554E+04  0.18099627554E+04  0.00000000000E+00 0.  1.
          2   -1    0    0  502    0  0.00000000000E+00 -0.00000000000E+00 -0.22792399593E+04  0.22792399593E+04  0.00000000000E+00 0. -1.
    9000010    2    1    2  502    0  0.86603971309E+03 -0.78740897574E+02  0.20712761466E+03  0.13339719441E+04  0.99012846903E+03 0.  0.
        -13    1    3    3    0    0  0.59248318341E+03 -0.49152886661E+03  0.30701990991E+03  0.82879321038E+03  0.10566000000E+00 0.  1.
         13    1    1    2    0    0 -0.86116592125E+03  0.11207078220E+02  0.86013761206E+03  0.12171972171E+04  0.10566000000E+00 0. -1.
          2    1    1    2  501    0 -0.48737918370E+01  0.67533819354E+02 -0.15365424306E+04  0.15380335535E+04  0.00000000000E+00 0. -1.
          4    1    3    3  502    0  0.27355652967E+03  0.41278796903E+03 -0.99892295247E+02  0.50517873367E+03  0.00000000000E+00 0.  1.
</event>
<event>
 7    1  0.9434649E-006  0.8267160E+03  0.7818608E-02  0.9130544E-01
         -4   -1    0    0    0  501 -0.00000000000E+00  0.00000000000E+00  0.21989553601E+03  0.21989553601E+03  0.00000000000E+00 0. -1.
          2   -1    0    0  501    0  0.00000000000E+00 -0.00000000000E+00 -0.27628193546E+04  0.27628193546E+04  0.00000000000E+00 0.  1.
   -9000010    2    1    2    0  502  0.32953899752E+03  0.21372352707E+03 -0.10662761304E+04  0.13433346888E+04  0.71647023870E+03 0.  0.
        -13    1    1    2    0    0 -0.33068023053E+03 -0.26224956351E+03 -0.47047417070E+03  0.63203655344E+03  0.10566000000E+00 0.  1.
         13    1    3    3    0    0  0.38386779020E+03  0.44005247860E+03 -0.74421478795E+03  0.94596845933E+03  0.10566000000E+00 0. -1.
          2    1    1    2  502    0  0.11412330114E+01  0.48526036440E+02 -0.10061735175E+04  0.10073436484E+04  0.00000000000E+00 0.  1.
         -4    1    3    3    0  502 -0.54328792680E+02 -0.22632895154E+03 -0.32206134241E+03  0.39736622943E+03  0.00000000000E+00 0. -1.
</event>
<event>
 7    1  0.9434649E-006  0.1021853E+04  0.7818608E-02  0.9106735E-01
         -4   -1    0    0    0  501 -0.00000000000E+00  0.00000000000E+00  0.41873261750E+03  0.41873261750E+03  0.00000000000E+00 0. -1.
          1   -1    0    0  501    0  0.00000000000E+00 -0.00000000000E+00 -0.19134462756E+04  0.19134462756E+04  0.00000000000E+00 0. -1.
   -9000010    2    1    2    0  502 -0.40032024007E+02 -0.76569244566E+02 -0.15695197278E+04  0.18594302756E+04  0.99328916325E+03 0.  0.
        -13    1    1    2    0    0  0.23936722006E+03  0.66834171753E+02  0.10703207411E+03  0.27059074006E+03  0.10566000000E+00 0.  1.
         13    1    3    3    0    0 -0.11361662639E+03 -0.38942830011E+03 -0.14670362414E+04  0.15220901693E+04  0.10566000000E+00 0. -1.
          1    1    1    2  502    0 -0.19933519605E+03  0.97350728123E+01 -0.32226004381E+02  0.20215787738E+03  0.00000000000E+00 0. -1.
         -4    1    3    3    0  502  0.73584602387E+02  0.31285905554E+03 -0.10248348637E+03  0.33734010631E+03  0.00000000000E+00 0. -1.
</event>
<event>
 7    1  0.9434649E-006  0.7998263E+03  0.7818608E-02  0.9255512E-01
         -4   -1    0    0    0  501 -0.00000000000E+00  0.00000000000E+00  0.12989377211E+04  0.12989377211E+04  0.00000000000E+00 0. -1.
          2   -1    0    0  501    0  0.00000000000E+00 -0.00000000000E+00 -0.20943350054E+04  0.20943350054E+04  0.00000000000E+00 0.  1.
   -9000010    2    1    2    0  502 -0.81083361369E+02 -0.27793282830E+03  0.10825666215E+04  0.13478978092E+04  0.74903727915E+03 0.  0.
        -13    1    1    2    0    0  0.71308632083E+02  0.25632369118E+03 -0.12799409903E+03  0.29524440083E+03  0.10566000000E+00 0.  1.
         13    1    3    3    0    0  0.91244393308E+02  0.15227764815E+03  0.80554533277E+01  0.17770459457E+03  0.10566000000E+00 0. -1.
          2    1    1    2  502    0  0.97747292859E+01  0.21609137119E+02 -0.17499698067E+04  0.17501305165E+04  0.00000000000E+00 0.  1.
         -4    1    3    3    0  502 -0.17232775468E+03 -0.43021047646E+03  0.10745111681E+04  0.11701932146E+04  0.00000000000E+00 0. -1.
</event>
<event>
 7    1  0.9434649E-006  0.1011054E+04  0.7818608E-02  0.9098988E-01
         -4   -1    0    0    0  501 -0.00000000000E+00  0.00000000000E+00  0.34747784654E+03  0.34747784654E+03  0.00000000000E+00 0. -1.
          2   -1    0    0  501    0  0.00000000000E+00 -0.00000000000E+00 -0.14193693783E+04  0.14193693783E+04  0.00000000000E+00 0. -1.
   -9000010    2    1    2    0  502 -0.19600789480E+03  0.13160397756E+03 -0.61872407035E+03  0.11813385034E+04  0.97826503700E+03 0.  0.
        -13    1    1    2    0    0  0.21174396280E+03 -0.15260303024E+03 -0.19447803865E+03  0.32549179606E+03  0.10566000000E+00 0.  1.
         13    1    3    3    0    0  0.10382893012E+03  0.51098188320E+03 -0.29023075994E+03  0.59675525709E+03  0.10566000000E+00 0. -1.
          2    1    1    2  502    0 -0.15736068005E+02  0.20999052676E+02 -0.25868942280E+03  0.26001692544E+03  0.00000000000E+00 0. -1.
         -4    1    3    3    0  502 -0.29983682491E+03 -0.37937790564E+03 -0.32849331041E+03  0.58458324629E+03  0.00000000000E+00 0. -1.
</event>
<event>
 7    1  0.9434649E-006  0.1019169E+04  0.7818608E-02  0.9249810E-01
          2   -1    0    0  501    0  0.00000000000E+00  0.00000000000E+00  0.23084897504E+04  0.23084897504E+04  0.00000000000E+00 0. -1.
         -4   -1    0    0    0  501 -0.00000000000E+00 -0.00000000000E+00 -0.32124083715E+03  0.32124083715E+03  0.00000000000E+00 0. -1.
   -9000010    2    1    2    0  502 -0.19260182835E+03  0.43128286262E+02  0.14230056807E+04  0.17498482237E+04  0.99903359561E+03 0.  0.
        -13    1    1    2    0    0  0.67818404959E+02  0.12082371557E+03 -0.10869868058E+03  0.17610542473E+03  0.10566000000E+00 0.  1.
         13    1    3    3    0    0 -0.27835551660E+03 -0.35151771795E+03  0.25908303817E+03  0.51785184318E+03  0.10566000000E+00 0. -1.
          2    1    1    2  502    0  0.12478342339E+03 -0.16395200184E+03  0.67294191315E+03  0.70377693919E+03  0.00000000000E+00 0. -1.
         -4    1    3    3    0  502  0.85753688253E+02  0.39464600421E+03  0.11639226425E+04  0.12319963805E+04  0.00000000000E+00 0. -1.
</event>
<event>
 7    1  0.9434649E-006  0.1060218E+04  0.7818608E-02  0.9012667E-01
         -4   -1    0    0    0  501 -0.00000000000E+00  0.00000000000E+00  0.27877171273E+03  0.27877171273E+03  0.00000000000E+00 0. -1.
          2   -1    0    0  501    0  0.00000000000E+00 -0.00000000000E+00 -0.28596869768E+04  0.28596869768E+04  0.00000000000E+00 0.  1.
   -9000010    2    1    2    0  502 -0.22588474090E+03 -0.25453161920E+03 -0.92863963009E+03  0.14157838418E+04  0.10130459333E+04 0.  0.
        -13    1    1    2    0    0  0.19527495214E+03  0.22475519486E+03 -0.60270144125E+03  0.67223228351E+03  0.10566000000E+00 0.  1.
         13    1    3    3    0    0  0.33406798334E+01  0.38170826856E+03 -0.24165276130E+03  0.45178361041E+03  0.10566000000E+00 0. -1.
          2    1    1    2  502    0  0.30609788759E+02  0.29776424336E+02 -0.10495741927E+04  0.10504425641E+04  0.00000000000E+00 0.  1.
         -4    1    3    3    0  502 -0.22922542073E+03 -0.63623988776E+03 -0.68698686879E+03  0.96400023142E+03  0.00000000000E+00 0. -1.
</event>
<event>
 7    1  0.9434649E-006  0.1137799E+04  0.7818608E-02  0.8844810E-01
         -4   -1    0    0    0  501 -0.00000000000E+00  0.00000000000E+00  0.36624830046E+03  0.36624830046E+03  0.00000000000E+00 0. -1.
          2   -1    0    0  501    0  0.00000000000E+00 -0.00000000000E+00 -0.26244457121E+04  0.26244457121E+04  0.00000000000E+00 0. -1.
   -9000010    2    1    2    0  502  0.15030870938E+03 -0.52186495603E+03 -0.19282105353E+04  0.22478562976E+04  0.10197677804E+04 0.  0.
        -13    1    1    2    0    0 -0.79890562540E+02  0.49296643374E+03 -0.11180642167E+03  0.51176077797E+03  0.10566000000E+00 0.  1.
         13    1    3    3    0    0 -0.42650743151E+03 -0.34597425581E+03 -0.83661069192E+03  0.10007618277E+04  0.10566000000E+00 0. -1.
          2    1    1    2  502    0 -0.70418146839E+02  0.28898522287E+02 -0.21818045470E+03  0.23107693698E+03  0.00000000000E+00 0. -1.
         -4    1    3    3    0  502  0.57681614089E+03 -0.17589070022E+03 -0.10915998434E+04  0.12470944699E+04  0.00000000000E+00 0. -1.
</event>
<event>
 7    1  0.9434649E-006  0.1055684E+04  0.7818608E-02  0.8973768E-01
          2   -1    0    0  502    0  0.00000000000E+00  0.00000000000E+00  0.72895380684E+03  0.72895380684E+03  0.00000000000E+00 0.  1.
          4   -1    0    0  501    0 -0.00000000000E+00 -0.00000000000E+00 -0.12378774876E+04  0.12378774876E+04  0.00000000000E+00 0.  1.
    9000010    2    1    2  502    0 -0.48267471493E+02 -0.10449319424E+03  0.14486411820E+03  0.10055653754E+04  0.98839644629E+03 0.  0.
        -13    1    3    3    0    0 -0.31360173043E+02 -0.27731478853E+03  0.52113494988E+03  0.59115869235E+03  0.10566000000E+00 0.  1.
         13    1    1    2    0    0  0.11620380487E+03  0.39029041911E+03 -0.42786746664E+03  0.59067801355E+03  0.10566000000E+00 0. -1.
          2    1    1    2  501    0 -0.67936333378E+02 -0.28579722487E+03 -0.22592033233E+03  0.37058790549E+03  0.00000000000E+00 0.  1.
          4    1    3    3  502    0 -0.16907298450E+02  0.17282159429E+03 -0.37627083168E+03  0.41440668306E+03  0.00000000000E+00 0.  1.
</event>
<event>
 7    1  0.9434649E-006  0.9998562E+03  0.7818608E-02  0.9332599E-01
          2   -1    0    0  501    0  0.00000000000E+00  0.00000000000E+00  0.13917243960E+04  0.13917243960E+04  0.00000000000E+00 0.  1.
         -4   -1    0    0    0  501 -0.00000000000E+00 -0.00000000000E+00 -0.22690503229E+04  0.22690503229E+04  0.00000000000E+00 0. -1.
   -9000010    2    1    2    0  502  0.62142351698E+02 -0.86013285402E+02 -0.19634219301E+04  0.22032965778E+04  0.99409766973E+03 0.  0.
        -13    1    1    2    0    0 -0.48184832823E+02  0.96037781089E+02 -0.17008403158E+03  0.20118057181E+03  0.10566000000E+00 0.  1.
         13    1    3    3    0    0  0.66291687300E+02 -0.53882643817E+03 -0.97144847198E+03  0.11128524894E+04  0.10566000000E+00 0. -1.
          2    1    1    2  502    0 -0.13957518875E+02 -0.10024495687E+02  0.12561800348E+04  0.12562975693E+04  0.00000000000E+00 0.  1.
         -4    1    3    3    0  502 -0.41493356019E+01  0.45281315277E+03 -0.99197345808E+03  0.10904440884E+04  0.00000000000E+00 0. -1.
</event>
<event>
 7    1  0.9434649E-006  0.1018268E+04  0.7818608E-02  0.9772747E-01
          2   -1    0    0  502    0  0.00000000000E+00  0.00000000000E+00  0.15010839741E+04  0.15010839741E+04  0.00000000000E+00 0.  1.
          4   -1    0    0  501    0 -0.00000000000E+00 -0.00000000000E+00 -0.34918234699E+03  0.34918234699E+03  0.00000000000E+00 0.  1.
    9000010    2    1    2  502    0  0.20708013680E+03 -0.72336374082E+02  0.88420557782E+03  0.13466356787E+04  0.99171236421E+03 0.  0.
        -13    1    3    3    0    0 -0.21509605176E+03  0.22108634391E+03  0.75637434791E+03  0.81685228058E+03  0.10566000000E+00 0.  1.
         13    1    1    2    0    0  0.17625652883E+02  0.11147945204E+02 -0.81373912129E+02  0.84003958604E+02  0.10566000000E+00 0. -1.
          2    1    1    2  501    0 -0.22470578968E+03  0.61188428878E+02  0.34906996138E+03  0.41962668371E+03  0.00000000000E+00 0.  1.
          4    1    3    3  502    0  0.42217618856E+03 -0.29342271800E+03  0.12783122991E+03  0.52978339816E+03  0.00000000000E+00 0.  1.
</event>
<event>
 7    1  0.9434649E-006  0.1019293E+04  0.7818608E-02  0.9308424E-01
          4   -1    0    0  501    0  0.00000000000E+00  0.00000000000E+00  0.27893418830E+03  0.27893418830E+03  0.00000000000E+00 0.  1.
          4   -1    0    0  502    0 -0.00000000000E+00 -0.00000000000E+00 -0.19411144234E+04  0.19411144234E+04  0.00000000000E+00 0.  1.
    9000010    2    1    2  501    0  0.69049545689E+02 -0.89622273389E+02 -0.13400925252E+04  0.16838436389E+04  0.10132528967E+04 0.  0.
        -13    1    3    3    0    0 -0.32998652943E+03 -0.39161536944E+03 -0.77624135486E+03  0.92994857888E+03  0.10566000000E+00 0.  1.
         13    1    1    2    0    0 -0.75328116711E+02  0.81149046731E+02 -0.42172162585E+03  0.43601448809E+03  0.10566000000E+00 0. -1.
          4    1    3    3  501    0  0.39903607512E+03  0.30199309606E+03 -0.56385117033E+03  0.75389506007E+03  0.00000000000E+00 0.  1.
          4    1    1    2  502    0  0.62785710215E+01  0.84732266578E+01  0.99633915913E+02  0.10019048470E+03  0.00000000000E+00 0.  1.
</event>
<event>
 7    1  0.9434649E-006  0.1200816E+04  0.7818608E-02  0.8730160E-01
          2   -1    0    0  501    0  0.00000000000E+00  0.00000000000E+00  0.12589539400E+04  0.12589539400E+04  0.00000000000E+00 0.  1.
         -4   -1    0    0    0  501 -0.00000000000E+00 -0.00000000000E+00 -0.84609624491E+03  0.84609624491E+03  0.00000000000E+00 0. -1.
   -9000010    2    1    2    0  502  0.21436746440E+03  0.66902292216E+03  0.13913030436E+03  0.12112208669E+04  0.97680789648E+03 0.  0.
        -13    1    1    2    0    0 -0.20479363580E+03 -0.66526765883E+03  0.80937765615E+02  0.70076559863E+03  0.10566000000E+00 0.  1.
         13    1    3    3    0    0  0.36124329599E+03  0.46692407260E+03  0.49909516631E+03  0.77305291194E+03  0.10566000000E+00 0. -1.
          2    1    1    2  502    0 -0.95738285976E+01 -0.37552633300E+01  0.19278962515E+03  0.19306371944E+03  0.00000000000E+00 0.  1.
         -4    1    3    3    0  502 -0.14687583159E+03  0.20209884956E+03 -0.35996486195E+03  0.43816795494E+03  0.00000000000E+00 0. -1.
</event>
<event>
 7    1  0.9434649E-006  0.1090521E+04  0.7818608E-02  0.8907591E-01
          2   -1    0    0  501    0  0.00000000000E+00  0.00000000000E+00  0.95790621526E+03  0.95790621526E+03  0.00000000000E+00 0. -1.
         -4   -1    0    0    0  501 -0.00000000000E+00 -0.00000000000E+00 -0.14610308232E+04  0.14610308232E+04  0.00000000000E+00 0. -1.
   -9000010    2    1    2    0  502 -0.19873355465E+03 -0.40851072390E+03 -0.40446145649E+03  0.11680742953E+04  0.99721234062E+03 0.  0.
        -13    1    1    2    0    0  0.18403606221E+03  0.39852062208E+03 -0.60319896424E+03  0.74601404815E+03  0.10566000000E+00 0.  1.
         13    1    3    3    0    0 -0.52467209054E+03 -0.23778707873E+03 -0.52651911779E+03  0.78041392220E+03  0.10566000000E+00 0. -1.
          2    1    1    2  502    0  0.14697492439E+02  0.99901018187E+01  0.50453581280E+03  0.50484869498E+03  0.00000000000E+00 0. -1.
         -4    1    3    3    0  502  0.32593853589E+03 -0.17072364517E+03  0.12205766130E+03  0.38766037311E+03  0.00000000000E+00 0. -1.
</event>
<event>
 6    1  0.9434649E-006  0.4739904E+03  0.7818608E-02  0.9536877E-01
         -2   -1    0    0    0  501  0.00000000000E+00  0.00000000000E+00  0.47872319743E+03  0.47872319743E+03  0.00000000000E+00 0.  1.
         -4   -1    0    0    0  502 -0.00000000000E+00 -0.00000000000E+00 -0.19041804692E+03  0.19041804692E+03  0.00000000000E+00 0. -1.
        -13    1    1    2    0    0 -0.66699749027E+02 -0.67778153291E+02 -0.32556127156E+02  0.10051192548E+03  0.10566000000E+00 0.  1.
         13    1    1    2    0    0  0.48524179341E+02  0.10479070028E+03 -0.95339733656E+02  0.14975100275E+03  0.10566000000E+00 0. -1.
         -2    1    1    2    0  502  0.12513972648E+02 -0.57016519005E+01  0.18310004237E+03  0.18361572335E+03  0.00000000000E+00 0.  1.
         -4    1    1    2    0  501  0.56615970379E+01 -0.31310895089E+02  0.23310096895E+03  0.23526259278E+03  0.00000000000E+00 0. -1.
</event>
<event>
 7    1  0.9434649E-006  0.1799154E+04  0.7818608E-02  0.8293863E-01
         -4   -1    0    0    0  501 -0.00000000000E+00  0.00000000000E+00  0.30616758994E+04  0.30616758994E+04  0.00000000000E+00 0. -1.
          2   -1    0    0  501    0  0.00000000000E+00 -0.00000000000E+00 -0.10089596004E+04  0.10089596004E+04  0.00000000000E+00 0.  1.
   -9000010    2    1    2    0  502  0.11747437771E+04 -0.92419943886E+03  0.11474102757E+04  0.21323452456E+04  0.99808735133E+03 0.  0.
        -13    1    1    2    0    0 -0.11862994250E+04  0.91589586516E+03  0.10263127913E+04  0.18164497016E+04  0.10566000000E+00 0.  1.
         13    1    3    3    0    0  0.59160887356E+03 -0.26944469918E+03  0.10701978214E+04  0.12521680771E+04  0.10566000000E+00 0. -1.
          2    1    1    2  502    0  0.11555647925E+02  0.83035737002E+01 -0.12100676808E+03  0.12184055260E+03  0.00000000000E+00 0.  1.
         -4    1    3    3    0  502  0.58313490354E+03 -0.65475473968E+03  0.77212454340E+02  0.88017716851E+03  0.00000000000E+00 0. -1.
</event>
<event>
 7    1  0.9434649E-006  0.1216899E+04  0.7818608E-02  0.8724082E-01
         -4   -1    0    0    0  501 -0.00000000000E+00  0.00000000000E+00  0.14466845704E+04  0.14466845704E+04  0.00000000000E+00 0. -1.
          1   -1    0    0  501    0  0.00000000000E+00 -0.00000000000E+00 -0.15167819738E+04  0.15167819738E+04  0.00000000000E+00 0.  1.
   -9000010    2    1    2    0  502  0.28036228287E+03  0.60253019717E+03  0.39077973485E+02  0.12039351060E+04  0.10031385763E+04 0.  0.
        -13    1    1    2    0    0 -0.84008049670E+03 -0.44224969910E+02  0.26895440958E+03  0.88319169747E+03  0.10566000000E+00 0.  1.
         13    1    3    3    0    0  0.36619390379E+03 -0.11225706135E+03 -0.21652982500E+03  0.43998272611E+03  0.10566000000E+00 0. -1.
          1    1    1    2  502    0  0.55971821383E+03 -0.55830522726E+03 -0.37812978650E+03  0.87633974069E+03  0.00000000000E+00 0.  1.
         -4    1    3    3    0  502 -0.85831620925E+02  0.71478725852E+03  0.25560779849E+03  0.76395237989E+03  0.00000000000E+00 0. -1.
</event>
<event>
 7    1  0.9434649E-006  0.1005396E+04  0.7818608E-02  0.9225446E-01
          2   -1    0    0  502    0  0.00000000000E+00  0.00000000000E+00  0.66674469069E+03  0.66674469069E+03  0.00000000000E+00 0.  1.
          4   -1    0    0  501    0 -0.00000000000E+00 -0.00000000000E+00 -0.14240253501E+04  0.14240253501E+04  0.00000000000E+00 0.  1.
    9000010    2    1    2  502    0  0.21478998208E+02  0.16545218384E+03 -0.96474004648E+03  0.13943677230E+04  0.99282537093E+03 0.  0.
        -13    1    3    3    0    0 -0.44867050448E+03  0.19564385953E+03 -0.69940887896E+03  0.85367120866E+03  0.10566000000E+00 0.  1.
         13    1    1    2    0    0  0.80171621239E+01 -0.15758138090E+03 -0.21840884956E+03  0.26944127974E+03  0.10566000000E+00 0. -1.
          2    1    1    2  501    0 -0.29496160332E+02 -0.78708029370E+01  0.42586823665E+03  0.42696103803E+03  0.00000000000E+00 0.  1.
          4    1    3    3  502    0  0.47014950269E+03 -0.30191675692E+02 -0.26533116752E+03  0.54069651434E+03  0.00000000000E+00 0.  1.
</event>
<event>
 7    1  0.9434649E-006  0.1012958E+04  0.7818608E-02  0.9214488E-01
         -4   -1    0    0    0  501 -0.00000000000E+00  0.00000000000E+00  0.14601486088E+03  0.14601486088E+03  0.00000000000E+00 0. -1.
          4   -1    0    0  501    0  0.00000000000E+00 -0.00000000000E+00 -0.31656648006E+04  0.31656648006E+04  0.00000000000E+00 0.  1.
   -9000010    2    1    2    0  502  0.13160542958E+03 -0.15165663605E+03 -0.17747899275E+04  0.20469854281E+04  0.99997516553E+03 0.  0.
        -13    1    1    2    0    0 -0.62587223596E+02  0.13470373412E+03 -0.73053109021E+03  0.74547833065E+03  0.10566000000E+00 0.  1.
         13    1    3    3    0    0  0.14956924216E+03 -0.57160288192E+03 -0.11664378389E+04  0.13075465789E+04  0.10566000000E+00 0. -1.
          4    1    1    2  502    0 -0.69018205979E+02  0.16952901932E+02 -0.51432892201E+03  0.51921590273E+03  0.00000000000E+00 0.  1.
         -4    1    3    3    0  502 -0.17963812582E+02  0.41994624586E+03 -0.60835208864E+03  0.73943884922E+03  0.00000000000E+00 0. -1.
</event>
<event>
 7    1  0.9434649E-006  0.1033889E+04  0.7818608E-02  0.9116698E-01
         -4   -1    0    0    0  501 -0.00000000000E+00  0.00000000000E+00  0.10454341321E+04  0.10454341321E+04  0.00000000000E+00 0. -1.
          1   -1    0    0  501    0  0.00000000000E+00 -0.00000000000E+00 -0.15209198838E+04  0.15209198838E+04  0.00000000000E+00 0. -1.
   -9000010    2    1    2    0  502  0.15895858813E+03  0.16397349106E+03 -0.15113747734E+03  0.10461013756E+04  0.10096189442E+04 0.  0.
        -13    1    1    2    0    0 -0.11768922142E+03 -0.18903492887E+03  0.57655213193E+03  0.61805932496E+03  0.10566000000E+00 0.  1.
         13    1    3    3    0    0  0.49038666928E+03  0.37079339547E+03 -0.21284728565E+03  0.65059265728E+03  0.10566000000E+00 0. -1.
          1    1    1    2  502    0 -0.41269366705E+02  0.25061437810E+02 -0.90090040626E+03  0.90219331536E+03  0.00000000000E+00 0. -1.
         -4    1    3    3    0  502 -0.33142808115E+03 -0.20681990441E+03  0.61709808311E+02  0.39550871834E+03  0.00000000000E+00 0. -1.
</event>
<event>
 6    1  0.9434649E-006  0.3527296E+03  0.7818608E-02  0.9876480E-01
         -4   -1    0    0    0  501 -0.00000000000E+00  0.00000000000E+00  0.38655669344E+03  0.38655669344E+03  0.00000000000E+00 0. -1.
          1   -1    0    0  501    0  0.00000000000E+00 -0.00000000000E+00 -0.10690978207E+03  0.10690978207E+03  0.00000000000E+00 0. -1.
        -13    1    1    2    0    0 -0.74094433008E+01 -0.29589014613E+02  0.73012590673E+02  0.79128118875E+02  0.10566000000E+00 0.  1.
         13    1    1    2    0    0 -0.24164797039E+02 -0.14769003486E+03  0.12305411462E+03  0.19374883251E+03  0.10566000000E+00 0. -1.
          1    1    1    2  502    0  0.16825139894E+02  0.18902366916E+02 -0.18713887968E+02  0.31473709828E+02  0.00000000000E+00 0. -1.
         -4    1    1    2    0  502  0.14749100446E+02  0.15837668255E+03  0.10229409404E+03  0.18911581429E+03  0.00000000000E+00 0. -1.
</event>
<event>
 7    1  0.9434649E-006  0.1079905E+04  0.7818608E-02  0.8936550E-01
         -4   -1    0    0    0  502 -0.00000000000E+00  0.00000000000E+00  0.16543073749E+04  0.16543073749E+04  0.00000000000E+00 0. -1.
         -2   -1    0    0    0  501  0.00000000000E+00 -0.00000000000E+00 -0.59947294087E+03  0.59947294087E+03  0.00000000000E+00 0.  1.
   -9000010    2    1    2    0  501 -0.22506203222E+03  0.33797009553E+03  0.69373637942E+03  0.12843702755E+04  0.10017285743E+04 0.  0.
        -13    1    1    2    0    0  0.23242271821E+03 -0.32908027040E+03  0.60410746650E+03  0.72612670144E+03  0.10566000000E+00 0.  1.
         13    1    3    3    0    0 -0.18289057005E+03  0.69486191118E+03  0.41675387810E+03  0.83064182551E+03  0.10566000000E+00 0. -1.
         -2    1    1    2    0  502 -0.73606859832E+01 -0.88898251357E+01 -0.24300941189E+03  0.24328333883E+03  0.00000000000E+00 0.  1.
         -4    1    3    3    0  501 -0.42171462176E+02 -0.35689181564E+03  0.27698250132E+03  0.45372844999E+03  0.00000000000E+00 0. -1.
</event>
<event>
 7    1  0.9434649E-006  0.1161953E+04  0.7818608E-02  0.8822851E-01
          2   -1    0    0  501    0  0.00000000000E+00  0.00000000000E+00  0.30058244585E+03  0.30058244585E+03  0.00000000000E+00 0. -1.
         -4   -1    0    0    0  501 -0.00000000000E+00 -0.00000000000E+00 -0.51392934126E+04  0.51392934126E+04  0.00000000000E+00 0. -1.
   -9000010    2    1    2    0  502 -0.47971700099E+03  0.12227204633E+03 -0.36217421666E+04  0.38002934731E+04  0.10392955816E+04 0.  0.
        -13    1    1    2    0    0  0.49174550882E+03 -0.21303446811E+03 -0.13644911700E+04  0.14659582171E+04  0.10566000000E+00 0.  1.
         13    1    3    3    0    0 -0.34449290153E+03  0.21173644001E+03 -0.38126158853E+03  0.55575902088E+03  0.10566000000E+00 0. -1.
          2    1    1    2  502    0 -0.12028507825E+02  0.90762421785E+02  0.14752236984E+03  0.17362416828E+03  0.00000000000E+00 0. -1.
         -4    1    3    3    0  502 -0.13522409946E+03 -0.89464393685E+02 -0.32404805780E+04  0.32445344522E+04  0.00000000000E+00 0. -1.
</event>
<event>
 7    1  0.9434649E-006  0.1068617E+04  0.7818608E-02  0.8846606E-01
          2   -1    0    0  501    0  0.00000000000E+00  0.00000000000E+00  0.97040803638E+03  0.97040803638E+03  0.00000000000E+00 0.  1.
         -4   -1    0    0    0  501 -0.00000000000E+00 -0.00000000000E+00 -0.13114359119E+04  0.13114359119E+04  0.00000000000E+00 0. -1.
   -9000010    2    1    2    0  502 -0.42855300068E+03 -0.39012961583E+03 -0.57022813730E+03  0.11989438049E+04  0.88116248623E+03 0.  0.
        -13    1    1    2    0    0  0.48199036708E+03  0.39485564908E+03 -0.19689023036E+03  0.65344584438E+03  0.10566000000E+00 0.  1.
         13    1    3    3    0    0 -0.49099346204E+02 -0.49036058118E+03 -0.63222784542E+03  0.80160857347E+03  0.10566000000E+00 0. -1.
          2    1    1    2  502    0 -0.53437366399E+02 -0.47260332568E+01  0.42609049210E+03  0.42945429905E+03  0.00000000000E+00 0.  1.
         -4    1    3    3    0  502 -0.37945365447E+03  0.10023096535E+03  0.61999708121E+02  0.39733523140E+03  0.00000000000E+00 0. -1.
</event>
<event>
 7    1  0.9434649E-006  0.1282769E+04  0.7818608E-02  0.8658902E-01
         -4   -1    0    0    0  501 -0.00000000000E+00  0.00000000000E+00  0.27646812064E+04  0.27646812064E+04  0.00000000000E+00 0. -1.
          2   -1    0    0  501    0  0.00000000000E+00 -0.00000000000E+00 -0.14062176238E+04  0.14062176238E+04  0.00000000000E+00 0.  1.
   -9000010    2    1    2    0  502 -0.85091006162E+03  0.36625676666E+01  0.11331851972E+04  0.17449232056E+04  0.10181291446E+04 0.  0.
        -13    1    1    2    0    0  0.72920702824E+03 -0.22970046808E+03  0.11973275437E+04  0.14205979210E+04  0.10566000000E+00 0.  1.
         13    1    3    3    0    0 -0.10573539275E+04  0.13651183209E+03  0.10166852685E+04  0.14731876169E+04  0.10566000000E+00 0. -1.
          2    1    1    2  502    0  0.12170303338E+03  0.22603790042E+03 -0.97204915824E+03  0.10053777036E+04  0.00000000000E+00 0.  1.
         -4    1    3    3    0  502  0.20644386586E+03 -0.13284926442E+03  0.11649992875E+03  0.27173558877E+03  0.00000000000E+00 0. -1.
</event>
<event>
 6    1  0.9434649E-006  0.7293568E+03  0.7818608E-02  0.9081446E-01
          1   -1    0    0  501    0  0.00000000000E+00  0.00000000000E+00  0.11162702757E+04  0.11162702757E+04  0.00000000000E+00 0. -1.
         -4   -1    0    0    0  501 -0.00000000000E+00 -0.00000000000E+00 -0.27433390332E+03  0.27433390332E+03  0.00000000000E+00 0. -1.
        -13    1    1    2    0    0 -0.16614770304E+03  0.26522437615E+02 -0.11490947801E+03  0.20374665206E+03  0.10566000000E+00 0.  1.
         13    1    1    2    0    0 -0.39506241120E+02 -0.99222708863E+02  0.27665920458E+03  0.29655727219E+03  0.10566000000E+00 0. -1.
          1    1    1    2  502    0  0.68707124705E+02 -0.14337570865E+03  0.60223614816E+03  0.62286887943E+03  0.00000000000E+00 0. -1.
         -4    1    1    2    0  502  0.13694681945E+03  0.21607597990E+03  0.77950497693E+02  0.26743137538E+03  0.00000000000E+00 0. -1.
</event>
<event>
 7    1  0.9434649E-006  0.1028002E+04  0.7818608E-02  0.9092794E-01
          3   -1    0    0  501    0  0.00000000000E+00  0.00000000000E+00  0.75607860987E+03  0.75607860987E+03  0.00000000000E+00 0. -1.
         -4   -1    0    0    0  501 -0.00000000000E+00 -0.00000000000E+00 -0.93964529533E+03  0.93964529533E+03  0.00000000000E+00 0. -1.
   -9000010    2    1    2    0  502  0.11619852857E+03 -0.26897893159E+03 -0.19867643582E+02  0.10397249092E+04  0.99738728679E+03 0.  0.
        -13    1    1    2    0    0 -0.93457442977E+02  0.22735266060E+03 -0.37005762324E+03  0.44425913790E+03  0.10566000000E+00 0.  1.
         13    1    3    3    0    0  0.51165291263E+03 -0.30957732386E+03 -0.15857762410E+03  0.61868707476E+03  0.10566000000E+00 0. -1.
          3    1    1    2  502    0 -0.22741085589E+02  0.41626270990E+02  0.20635858136E+03  0.21173985811E+03  0.00000000000E+00 0. -1.
         -4    1    3    3    0  502 -0.39545438406E+03  0.40598392268E+02  0.13870998052E+03  0.42103783443E+03  0.00000000000E+00 0. -1.
</event>
<event>
 7    1  0.9434649E-006  0.1109343E+04  0.7818608E-02  0.8882029E-01
          2   -1    0    0  502    0  0.00000000000E+00  0.00000000000E+00  0.74290937437E+03  0.74290937437E+03  0.00000000000E+00 0.  1.
          4   -1    0    0  501    0 -0.00000000000E+00 -0.00000000000E+00 -0.17528872337E+04  0.17528872337E+04  0.00000000000E+00 0.  1.
    9000010    2    1    2  502    0 -0.96004025194E+02  0.50168906958E+03  0.87302489816E+02  0.11322062931E+04  0.10066581694E+04 0.  0.
        -13    1    3    3    0    0 -0.12238367629E+03 -0.25569361997E+03 -0.17159251864E+03  0.33136233209E+03  0.10566000000E+00 0.  1.
         13    1    1    2    0    0  0.31246978921E+03 -0.34992220088E+03 -0.39526801859E+03  0.61344904721E+03  0.10566000000E+00 0. -1.
          2    1    1    2  501    0 -0.21646576401E+03 -0.15176686870E+03 -0.70201233057E+03  0.75014126783E+03  0.00000000000E+00 0.  1.
          4    1    3    3  502    0  0.26379651100E+02  0.75738268954E+03  0.25889500845E+03  0.80084396096E+03  0.00000000000E+00 0.  1.
</event>
<event>
 7    1  0.9434649E-006  0.1128003E+04  0.7818608E-02  0.8838792E-01
          4   -1    0    0  501    0  0.00000000000E+00  0.00000000000E+00  0.86423506643E+03  0.86423506643E+03  0.00000000000E+00 0.  1.
         -4   -1    0    0    0  501 -0.00000000000E+00 -0.00000000000E+00 -0.23908556436E+04  0.23908556436E+04  0.00000000000E+00 0. -1.
   -9000010    2    1    2    0  502  0.25516125591E+01  0.68399626838E+03 -0.16864987903E+04  0.20742274048E+04  0.99513001721E+03 0.  0.
        -13    1    1    2    0    0 -0.31184418191E+03 -0.36628387356E+03 -0.27973516380E+03  0.55647321845E+03  0.10566000000E+00 0.  1.
         13    1    3    3    0    0 -0.22741045422E+02  0.51992037096E+03 -0.17996067472E+04  0.18733442831E+04  0.10566000000E+00 0. -1.
          4    1    1    2  502    0  0.30929256935E+03 -0.31771239482E+03  0.43961337696E+03  0.62439008679E+03  0.00000000000E+00 0.  1.
         -4    1    3    3    0  502  0.25292657981E+02  0.16407589742E+03  0.11310795689E+03  0.20088312168E+03  0.00000000000E+00 0. -1.
</event>
<event>
 6    1  0.9434649E-006  0.3256552E+03  0.7818608E-02  0.9972447E-01
         -4   -1    0    0    0  501 -0.00000000000E+00  0.00000000000E+00  0.71643345713E+03  0.71643345713E+03  0.00000000000E+00 0. -1.
          2   -1    0    0  501    0  0.00000000000E+00 -0.00000000000E+00 -0.36243759986E+03  0.36243759986E+03  0.00000000000E+00 0. -1.
        -13    1    1    2    0    0 -0.20832638824E+02  0.70903067014E+02  0.57186688576E+02  0.93442882376E+02  0.10566000000E+00 0.  1.
         13    1    1    2    0    0 -0.33449426299E+02 -0.86773101304E+02  0.51501667574E+03  0.52334560539E+03  0.10566000000E+00 0. -1.
          2    1    1    2  502    0  0.10631790018E+03 -0.48138940544E+02 -0.31440005815E+03  0.33536286327E+03  0.00000000000E+00 0. -1.
         -4    1    1    2    0  502 -0.52035835055E+02  0.64008974834E+02  0.96192551108E+02  0.12671970596E+03  0.00000000000E+00 0. -1.
</event>
<event>
 6    1  0.9434649E-006  0.8157920E+03  0.7818608E-02  0.8970093E-01
         -4   -1    0    0    0  501 -0.00000000000E+00  0.00000000000E+00  0.24179242338E+03  0.24179242338E+03  0.00000000000E+00 0. -1.
          2   -1    0    0  501    0  0.00000000000E+00 -0.00000000000E+00 -0.10297771531E+04  0.10297771531E+04  0.00000000000E+00 0. -1.
        -13    1    1    2    0    0  0.26158994460E+03 -0.17771334652E+03 -0.28627490098E+03  0.42657316224E+03  0.10566000000E+00 0.  1.
         13    1    1    2    0    0 -0.31242873460E+03  0.24358424227E+03 -0.98685550945E+02  0.40826933073E+03  0.10566000000E+00 0. -1.
          2    1    1    2  502    0  0.31153315169E+02  0.33462033423E+01 -0.33888425047E+03  0.34032963629E+03  0.00000000000E+00 0. -1.
         -4    1    1    2    0  502  0.19685474829E+02 -0.69217099102E+02 -0.64140027380E+02  0.96397447267E+02  0.00000000000E+00 0. -1.
</event>
<event>
 7    1  0.9434649E-006  0.1086807E+04  0.7818608E-02  0.8918232E-01
         -4   -1    0    0    0  501 -0.00000000000E+00  0.00000000000E+00  0.17828271488E+04  0.17828271488E+04  0.00000000000E+00 0. -1.
          2   -1    0    0  501    0  0.00000000000E+00 -0.00000000000E+00 -0.86534746612E+03  0.86534746612E+03  0.00000000000E+00 0. -1.
   -9000010    2    1    2    0  502  0.42749434689E+03  0.62219856090E+02  0.98916352810E+03  0.14710906065E+04  0.99952006486E+03 0.  0.
        -13    1    1    2    0    0 -0.42157695475E+03 -0.53663681660E+02  0.47094984717E+03  0.63435060433E+03  0.10566000000E+00 0.  1.
         13    1    3    3    0    0 -0.38001217472E+02  0.17683070185E+03 -0.15012101343E+03  0.23505216333E+03  0.10566000000E+00 0. -1.
          2    1    1    2  502    0 -0.59173921402E+01 -0.85561744297E+01 -0.54263369257E+03  0.54273340413E+03  0.00000000000E+00 0. -1.
         -4    1    3    3    0  502  0.46549556436E+03 -0.11461084576E+03  0.11392845415E+04  0.12360384432E+04  0.00000000000E+00 0. -1.
</event>
<event>
 7    1  0.9434649E-006  0.1011098E+04  0.7818608E-02  0.9615641E-01
          1   -1    0    0  501    0  0.00000000000E+00  0.00000000000E+00  0.18794106493E+04  0.18794106493E+04  0.00000000000E+00 0. -1.
         -4   -1    0    0    0  501 -0.00000000000E+00 -0.00000000000E+00 -0.18316781855E+03  0.18316781855E+03  0.00000000000E+00 0. -1.
   -9000010    2    1    2    0  502  0.22352951453E+02 -0.41928171278E+02  0.13933040389E+04  0.17217765221E+04  0.10104259604E+04 0.  0.
        -13    1    1    2    0    0 -0.19442303407E+02  0.31156580161E+02 -0.92151257308E+00  0.36736847967E+02  0.10566000000E+00 0.  1.
         13    1    3    3    0    0  0.49047288368E+03  0.47429983464E+02  0.95339532237E+03  0.10732082300E+04  0.10566000000E+00 0. -1.
          1    1    1    2  502    0 -0.29106480468E+01  0.10771591117E+02  0.30386030447E+03  0.30406509777E+03  0.00000000000E+00 0. -1.
         -4    1    3    3    0  502 -0.46811993223E+03 -0.89358154742E+02  0.43990871648E+03  0.64856829217E+03  0.00000000000E+00 0. -1.
</event>
<event>
 7    1  0.9434649E-006  0.1092597E+04  0.7818608E-02  0.8905951E-01
          4   -1    0    0  501    0  0.00000000000E+00  0.00000000000E+00  0.82692249862E+03  0.82692249862E+03  0.00000000000E+00 0.  1.
          4   -1    0    0  502    0 -0.00000000000E+00 -0.00000000000E+00 -0.10963599555E+04  0.10963599555E+04  0.00000000000E+00 0.  1.
    9000010    2    1    2  501    0 -0.40862551950E+03  0.21607657008E+01 -0.10569799050E+02  0.10796472213E+04  0.99927319478E+03 0.  0.
        -13    1    3    3    0    0  0.80847299408E+02 -0.35695764346E+03 -0.23212221449E+03  0.43340025227E+03  0.10566000000E+00 0.  1.
         13    1    1    2    0    0  0.43016926355E+03  0.13498252676E+03 -0.43016718093E+03  0.62314500123E+03  0.10566000000E+00 0. -1.
          4    1    3    3  501    0 -0.48947281890E+03  0.35911840916E+03  0.22155241544E+03  0.64624696907E+03  0.00000000000E+00 0.  1.
          4    1    1    2  502    0 -0.21543744057E+02 -0.13714329246E+03  0.17129952313E+03  0.22049023153E+03  0.00000000000E+00 0.  1.
</event>
<event>
 7    1  0.9434649E-006  0.1071186E+04  0.7818608E-02  0.8934206E-01
          4   -1    0    0  501    0 -0.00000000000E+00  0.00000000000E+00  0.27992727520E+04  0.27992727520E+04  0.00000000000E+00 0.  1.
          2   -1    0    0  502    0  0.00000000000E+00 -0.00000000000E+00 -0.32877437040E+04  0.32877437040E+04  0.00000000000E+00 0. -1.
    9000010    2    1    2  502    0  0.23179731216E+03 -0.52685109825E+03  0.12931436764E+04  0.17253396999E+04  0.98654672396E+03 0.  0.
        -13    1    3    3    0    0  0.39346064417E+03 -0.76155132055E+03  0.96893204697E+03  0.12936773227E+04  0.10566000000E+00 0.  1.
         13    1    1    2    0    0  0.56073647300E+02  0.40065602854E+03  0.12499865742E+04  0.13138249328E+04  0.10566000000E+00 0. -1.
          2    1    1    2  501    0 -0.28787095946E+03  0.12619506971E+03 -0.30316012026E+04  0.30478518233E+04  0.00000000000E+00 0. -1.
          4    1    3    3  502    0 -0.16166333201E+03  0.23470022230E+03  0.32421162941E+03  0.43166237723E+03  0.00000000000E+00 0.  1.
</event>
<event>
 7    1  0.9434649E-006  0.7915210E+03  0.7818608E-02  0.9408346E-01
          4   -1    0    0  501    0 -0.00000000000E+00  0.00000000000E+00  0.61113025401E+03  0.61113025401E+03  0.00000000000E+00 0.  1.
          2   -1    0    0  502    0  0.00000000000E+00 -0.00000000000E+00 -0.10438803270E+04  0.10438803270E+04  0.00000000000E+00 0. -1.
    9000010    2    1    2  502    0 -0.91214691336E+02 -0.14530419198E+03  0.31450816781E+03  0.85343384036E+03  0.77459699465E+03 0.  0.
        -13    1    3    3    0    0  0.59133673366E+01  0.26357143641E+03 -0.81548212906E+02  0.27596193976E+03  0.10566000000E+00 0.  1.
         13    1    1    2    0    0  0.79184437477E+02  0.13389462130E+03 -0.19673527701E+03  0.25080415694E+03  0.10566000000E+00 0. -1.
          2    1    1    2  501    0  0.12030253859E+02  0.11409570680E+02 -0.55052296381E+03  0.55077258374E+03  0.00000000000E+00 0. -1.
          4    1    3    3  502    0 -0.97128058672E+02 -0.40887562839E+03  0.39605638071E+03  0.57747190060E+03  0.00000000000E+00 0.  1.
</event>
<event>
 7    1  0.9434649E-006  0.1037794E+04  0.7818608E-02  0.9292036E-01
         -4   -1    0    0    0  501 -0.00000000000E+00  0.00000000000E+00  0.91834237004E+03  0.91834237004E+03  0.00000000000E+00 0. -1.
          4   -1    0    0  501    0  0.00000000000E+00 -0.00000000000E+00 -0.86899430181E+03  0.86899430181E+03  0.00000000000E+00 0. -1.
   -9000010    2    1    2    0  502 -0.32078817680E+03  0.12830741435E+03 -0.24083839776E+03  0.10777916406E+04  0.99210072059E+03 0.  0.
        -13    1    1    2    0    0  0.24132342689E+02 -0.10906860039E+03  0.38232884399E+03  0.39831355195E+03  0.10566000000E+00 0.  1.
         13    1    3    3    0    0 -0.55452475467E+03 -0.16970320386E+03  0.74870760469E+02  0.58472431357E+03  0.10566000000E+00 0. -1.
          4    1    1    2  502    0  0.29665583411E+03 -0.19238813968E+02 -0.92142378005E+02  0.31123147929E+03  0.00000000000E+00 0. -1.
         -4    1    3    3    0  502  0.23373657787E+03  0.29801061822E+03 -0.31570915823E+03  0.49306732704E+03  0.00000000000E+00 0. -1.
</event>
<event>
 7    1  0.9434649E-006  0.1086253E+04  0.7818608E-02  0.8922529E-01
          2   -1    0    0  501    0  0.00000000000E+00  0.00000000000E+00  0.10514852644E+04  0.10514852644E+04  0.00000000000E+00 0. -1.
         -4   -1    0    0    0  501 -0.00000000000E+00 -0.00000000000E+00 -0.25191990776E+04  0.25191990776E+04  0.00000000000E+00 0. -1.
   -9000010    2    1    2    0  502 -0.29342867679E+03  0.24688415915E+03 -0.10851419890E+04  0.15258496843E+04  0.10018143273E+04 0.  0.
        -13    1    1    2    0    0  0.34284075759E+03 -0.25318985113E+03 -0.11754821312E+04  0.12503612029E+04  0.10566000000E+00 0.  1.
         13    1    3    3    0    0 -0.18565551189E+03  0.11103897355E+03  0.15976216601E+03  0.26892672533E+03  0.10566000000E+00 0. -1.
          2    1    1    2  502    0 -0.49412080797E+02  0.63056919710E+01  0.79291030705E+03  0.79447345487E+03  0.00000000000E+00 0. -1.
         -4    1    3    3    0  502 -0.10777316490E+03  0.13584518560E+03 -0.12449041550E+04  0.12569229590E+04  0.00000000000E+00 0. -1.
</event>
<event>
 7    1  0.9434649E-006  0.1123548E+04  0.7818608E-02  0.8843230E-01
          2   -1    0    0  501    0  0.00000000000E+00  0.00000000000E+00  0.13673118326E+04  0.13673118326E+04  0.00000000000E+00 0. -1.
         -4   -1    0    0    0  501 -0.00000000000E+00 -0.00000000000E+00 -0.14317049214E+04  0.14317049214E+04  0.00000000000E+00 0. -1.
   -9000010    2    1    2    0  502 -0.38880848696E+03  0.35391653894E+03 -0.33262488253E+03  0.11709406576E+04  0.99198475545E+03 0.  0.
        -13    1    1    2    0    0  0.38029260319E+03 -0.36635197166E+03 -0.57731980376E+03  0.78239018281E+03  0.10566000000E+00 0.  1.
         13    1    3    3    0    0  0.18350783081E+03  0.37347744529E+03 -0.42049453136E+03  0.59158785331E+03  0.10566000000E+00 0. -1.
          2    1    1    2  502    0  0.85158837734E+01  0.12435432718E+02  0.84555159757E+03  0.84568591358E+03  0.00000000000E+00 0. -1.
         -4    1    3    3    0  502 -0.57231631777E+03 -0.19560906351E+02  0.87869648827E+02  0.57935280428E+03  0.00000000000E+00 0. -1.
</event>
<event>
 6    1  0.9434649E-006  0.1800111E+04  0.7818608E-02  0.8255021E-01
         -4   -1    0    0    0  501 -0.00000000000E+00  0.00000000000E+00  0.15717452414E+04  0.15717452414E+04  0.00000000000E+00 0. -1.
          4   -1    0    0  501    0  0.00000000000E+00 -0.00000000000E+00 -0.14908108456E+04  0.14908108456E+04  0.00000000000E+00 0.  1.
        -13    1    1    2    0    0 -0.72165937319E+02  0.28625709598E+03  0.21137229661E+03  0.36308305723E+03  0.10566000000E+00 0.  1.
         13    1    1    2    0    0 -0.46114805605E+03 -0.64270772525E+03  0.79302635436E+03  0.11200989062E+04  0.10566000000E+00 0. -1.
          4    1    1    2  502    0 -0.40816999450E+02  0.19735592895E+03 -0.96150098881E+03  0.98239479926E+03  0.00000000000E+00 0.  1.
         -4    1    1    2    0  502  0.57413099282E+03  0.15909470032E+03  0.38036733708E+02  0.59697932435E+03  0.00000000000E+00 0. -1.
</event>
<event>
 7    1  0.9434649E-006  0.1019546E+04  0.7818608E-02  0.9240704E-01
          4   -1    0    0  501    0 -0.00000000000E+00  0.00000000000E+00  0.48304123415E+03  0.48304123415E+03  0.00000000000E+00 0.  1.
          2   -1    0    0  502    0  0.00000000000E+00 -0.00000000000E+00 -0.10925932333E+04  0.10925932333E+04  0.00000000000E+00 0.  1.
    9000010    2    1    2  502    0  0.14537107984E+03  0.36504821672E+02 -0.18827940967E+03  0.10377127221E+04  0.10094222133E+04 0.  0.
        -13    1    3    3    0    0  0.38782818243E+03 -0.49860122663E+01 -0.50495740825E+03  0.63672408052E+03  0.10566000000E+00 0.  1.
         13    1    1    2    0    0 -0.13499524027E+03 -0.45466466535E+02 -0.28948257418E+02  0.14535792805E+03  0.10566000000E+00 0. -1.
          2    1    1    2  501    0 -0.10375839567E+02  0.89616448629E+01 -0.39232433206E+03  0.39256381730E+03  0.00000000000E+00 0.  1.
          4    1    3    3  502    0 -0.24245710259E+03  0.41490833938E+02  0.31667799858E+03  0.40098864159E+03  0.00000000000E+00 0.  1.
</event>
<event>
 7    1  0.9434649E-006  0.1174929E+04  0.7818608E-02  0.8773146E-01
          2   -1    0    0  502    0  0.00000000000E+00  0.00000000000E+00  0.11470904490E+04  0.11470904490E+04  0.00000000000E+00 0.  1.
          4   -1    0    0  501    0 -0.00000000000E+00 -0.00000000000E+00 -0.14831065785E+04  0.14831065785E+04  0.00000000000E+00 0.  1.
    9000010    2    1    2  502    0  0.42944785323E+03 -0.48161452282E+03 -0.25229062299E+03  0.12147623180E+04  0.99780705724E+03 0.  0.
        -13    1    3    3    0    0  0.16840702703E+03 -0.26478898222E+03 -0.63193544560E+03  0.70556115995E+03  0.10566000000E+00 0.  1.
         13    1    1    2    0    0 -0.41023216574E+03  0.45663180324E+03 -0.62337179130E+03  0.87486881010E+03  0.10566000000E+00 0. -1.
          2    1    1    2  501    0 -0.19215687488E+02  0.24982719580E+02  0.53964628477E+03  0.54056589940E+03  0.00000000000E+00 0.  1.
          4    1    3    3  502    0  0.26104082620E+03 -0.21682554060E+03  0.37964482261E+03  0.50920115802E+03  0.00000000000E+00 0.  1.
</event>
<event>
 7    1  0.9434649E-006  0.1017849E+04  0.7818608E-02  0.9431529E-01
          2   -1    0    0  501    0  0.00000000000E+00  0.00000000000E+00  0.63292874276E+03  0.63292874276E+03  0.00000000000E+00 0. -1.
         -4   -1    0    0    0  501 -0.00000000000E+00 -0.00000000000E+00 -0.85032002358E+03  0.85032002358E+03  0.00000000000E+00 0. -1.
   -9000010    2    1    2    0  502  0.13331930523E+03  0.49258897178E+01 -0.10702057118E+03  0.10297230058E+04  0.10154199941E+04 0.  0.
        -13    1    1    2    0    0 -0.68903859795E+02  0.10468092716E+02 -0.27097895120E+03  0.27979800932E+03  0.10566000000E+00 0.  1.
         13    1    3    3    0    0 -0.60939942311E+02  0.48641258820E+03 -0.13900195250E+03  0.50954139821E+03  0.10566000000E+00 0. -1.
          2    1    1    2  502    0 -0.64415445430E+02 -0.15393982434E+02  0.16060824156E+03  0.17372775127E+03  0.00000000000E+00 0. -1.
         -4    1    3    3    0  502  0.19425924754E+03 -0.48148669848E+03  0.31981381319E+02  0.52018160754E+03  0.00000000000E+00 0. -1.
</event>
<event>
 6    1  0.9434649E-006  0.1297580E+03  0.7818608E-02  0.1126444E+00
          2   -1    0    0  501    0  0.00000000000E+00  0.00000000000E+00  0.18546704520E+04  0.18546704520E+04  0.00000000000E+00 0.  1.
         -4   -1    0    0    0  501 -0.00000000000E+00 -0.00000000000E+00 -0.39086576190E+02  0.39086576190E+02  0.00000000000E+00 0. -1.
        -13    1    1    2    0    0 -0.95352941084E+02  0.80218995550E+02  0.10998707267E+03  0.16620601054E+03  0.10566000000E+00 0.  1.
         13    1    1    2    0    0  0.89741277973E+02 -0.53679062167E+02  0.25887978109E+03  0.27920188199E+03  0.10566000000E+00 0. -1.
          2    1    1    2  502    0 -0.22019180641E+01 -0.35773814871E+02  0.13846830955E+04  0.13851468836E+04  0.00000000000E+00 0.  1.
         -4    1    1    2    0  502  0.78135811747E+01  0.92338814875E+01  0.62033926574E+02  0.63202252051E+02  0.00000000000E+00 0. -1.
</event>
<event>
 7    1  0.9434649E-006  0.1126953E+04  0.7818608E-02  0.8851090E-01
          4   -1    0    0  501    0 -0.00000000000E+00  0.00000000000E+00  0.13047068996E+04  0.13047068996E+04  0.00000000000E+00 0.  1.
          2   -1    0    0  502    0  0.00000000000E+00 -0.00000000000E+00 -0.96235712755E+03  0.96235712755E+03  0.00000000000E+00 0.  1.
    9000010    2    1    2  502    0 -0.41205354800E+03  0.33265969879E+03 -0.45127954793E+03  0.12240204553E+04  0.10070363662E+04 0.  0.
        -13    1    3    3    0    0 -0.47611404799E+03  0.65001345147E+03 -0.25365360703E+03  0.84471429330E+03  0.10566000000E+00 0.  1.
         13    1    1    2    0    0  0.47162163230E+03 -0.18252053510E+03  0.52040962089E+03  0.72564929164E+03  0.10566000000E+00 0. -1.
          2    1    1    2  501    0 -0.59568084299E+02 -0.15013916369E+03  0.27321969905E+03  0.31739428018E+03  0.00000000000E+00 0.  1.
          4    1    3    3  502    0  0.64060499993E+02 -0.31735375267E+03 -0.19762594090E+03  0.37930616198E+03  0.00000000000E+00 0.  1.
</event>
<event>
 7    1  0.9434649E-006  0.1041874E+04  0.7818608E-02  0.9032705E-01
          2   -1    0    0  501    0  0.00000000000E+00  0.00000000000E+00  0.29939456599E+04  0.29939456599E+04  0.00000000000E+00 0. -1.
         -4   -1    0    0    0  501 -0.00000000000E+00 -0.00000000000E+00 -0.93915782915E+03  0.93915782915E+03  0.00000000000E+00 0. -1.
   -9000010    2    1    2    0  502  0.11938890127E+03 -0.32166494943E+03  0.35920353749E+02  0.10545597899E+04  0.99653601498E+03 0.  0.
        -13    1    1    2    0    0 -0.18121559940E+03  0.24090641936E+03 -0.37577135980E+03  0.48174591058E+03  0.10566000000E+00 0.  1.
         13    1    3    3    0    0  0.84625963648E+02 -0.13088910028E+03 -0.47932580703E+03  0.50403050577E+03  0.10566000000E+00 0. -1.
          2    1    1    2  502    0  0.61826698122E+02  0.80758530073E+02  0.23946388368E+04  0.23967977886E+04  0.00000000000E+00 0. -1.
         -4    1    3    3    0  502  0.34762937626E+02 -0.19077584915E+03  0.51524616078E+03  0.55052928410E+03  0.00000000000E+00 0. -1.
</event>
<event>
 7    1  0.9434649E-006  0.1009832E+04  0.7818608E-02  0.9258233E-01
          4   -1    0    0  501    0 -0.00000000000E+00  0.00000000000E+00  0.11834225415E+04  0.11834225415E+04  0.00000000000E+00 0.  1.
          2   -1    0    0  502    0  0.00000000000E+00 -0.00000000000E+00 -0.50617681079E+03  0.50617681079E+03  0.00000000000E+00 0.  1.
    9000010    2    1    2  502    0 -0.80327962721E+02  0.15425226400E+03  0.31106316064E+03  0.10583050630E+04  0.99649534565E+03 0.  0.
        -13    1    3    3    0    0 -0.36343457736E+03 -0.18450814224E+03  0.43862158607E+03  0.59876276897E+03  0.10566000000E+00 0.  1.
         13    1    1    2    0    0  0.13788866838E+03  0.26614030660E+01  0.43061931637E+03  0.45216520735E+03  0.10566000000E+00 0. -1.
          2    1    1    2  501    0 -0.57560705660E+02 -0.15691366707E+03 -0.64436746257E+02  0.17912908200E+03  0.00000000000E+00 0.  1.
          4    1    3    3  502    0  0.28310661464E+03  0.33876040624E+03 -0.12755842544E+03  0.45954229401E+03  0.00000000000E+00 0.  1.
</event>
<event>
 7    1  0.9434649E-006  0.1015802E+04  0.7818608E-02  0.9143055E-01
          4   -1    0    0  501    0 -0.00000000000E+00  0.00000000000E+00  0.57961902071E+03  0.57961902071E+03  0.00000000000E+00 0.  1.
          2   -1    0    0  502    0  0.00000000000E+00 -0.00000000000E+00 -0.15023187469E+04  0.15023187469E+04  0.00000000000E+00 0.  1.
    9000010    2    1    2  502    0  0.16489747047E+03  0.15761250563E+03 -0.38177365919E+03  0.10884975765E+04  0.99350036214E+03 0.  0.
        -13    1    3    3    0    0  0.32340087409E+03 -0.31627004200E+03 -0.37690048617E+03  0.58878591395E+03  0.10566000000E+00 0.  1.
         13    1    1    2    0    0 -0.72096918991E+02 -0.19945673641E+03  0.17213400062E+03  0.27315028970E+03  0.10566000000E+00 0. -1.
          2    1    1    2  501    0 -0.92800551482E+02  0.41844230788E+02 -0.71306006759E+03  0.72028990136E+03  0.00000000000E+00 0.  1.
          4    1    3    3  502    0 -0.15850340361E+03  0.47388254763E+03 -0.48731730145E+01  0.49971166258E+03  0.00000000000E+00 0.  1.
</event>
<event>
 6    1  0.9434649E-006  0.7030230E+03  0.7818608E-02  0.9118604E-01
          4   -1    0    0  501    0  0.00000000000E+00  0.00000000000E+00  0.11482325630E+04  0.11482325630E+04  0.00000000000E+00 0. -1.
          4   -1    0    0  502    0 -0.00000000000E+00 -0.00000000000E+00 -0.15832743536E+04  0.15832743536E+04  0.00000000000E+00 0.  1.
        -13    1    1    2    0    0  0.14107756577E+03  0.17983112906E+03 -0.58821729263E+03  0.63106395005E+03  0.10566000000E+00 0.  1.
         13    1    1    2    0    0  0.25415379747E+02 -0.13303917907E+03 -0.47726246514E+03  0.49610970207E+03  0.10566000000E+00 0. -1.
          4    1    1    2  501    0 -0.24730687963E+03 -0.17397538175E+03 -0.43418556483E+03  0.52909850772E+03  0.00000000000E+00 0.  1.
          4    1    1    2  502    0  0.80813934107E+02  0.12718343176E+03  0.10646235320E+04  0.10752347568E+04  0.00000000000E+00 0. -1.
</event>
<event>
 7    1  0.9434649E-006  0.1155769E+04  0.7818608E-02  0.8770959E-01
         -4   -1    0    0    0  501 -0.00000000000E+00  0.00000000000E+00  0.13583357539E+04  0.13583357539E+04  0.00000000000E+00 0. -1.
          2   -1    0    0  501    0  0.00000000000E+00 -0.00000000000E+00 -0.21098916611E+04  0.21098916611E+04  0.00000000000E+00 0.  1.
   -9000010    2    1    2    0  502  0.62831430121E+03 -0.13037143924E+03  0.55708045340E+02  0.11480214596E+04  0.95030222145E+03 0.  0.
        -13    1    1    2    0    0 -0.65545120110E+03  0.95324558992E+02  0.61107496229E+03  0.90117460531E+03  0.10566000000E+00 0.  1.
         13    1    3    3    0    0  0.74246016963E+03  0.36192384041E+02  0.32512499208E+03  0.81133424912E+03  0.10566000000E+00 0. -1.
          2    1    1    2  502    0  0.27136899890E+02  0.35046880248E+02 -0.14183389149E+04  0.14190313501E+04  0.00000000000E+00 0.  1.
         -4    1    3    3    0  502 -0.11414586843E+03 -0.16656382328E+03 -0.26941694674E+03  0.33668721047E+03  0.00000000000E+00 0. -1.
</event>
<event>
 6    1  0.9434649E-006  0.7021345E+03  0.7818608E-02  0.9119887E-01
          4   -1    0    0  501    0 -0.00000000000E+00  0.00000000000E+00  0.27656274434E+03  0.27656274434E+03  0.00000000000E+00 0.  1.
          2   -1    0    0  502    0  0.00000000000E+00 -0.00000000000E+00 -0.58784446888E+03  0.58784446888E+03  0.00000000000E+00 0.  1.
        -13    1    1    2    0    0 -0.26669736106E+03  0.95166910137E+02 -0.21130373805E+03  0.35331785132E+03  0.10566000000E+00 0.  1.
         13    1    1    2    0    0  0.17758471017E+02 -0.12211137998E+03  0.83272977174E+02  0.14886555110E+03  0.10566000000E+00 0. -1.
          2    1    1    2  501    0  0.76908249664E+02 -0.46751446728E+02  0.13119754119E+02  0.90954409380E+02  0.00000000000E+00 0.  1.
          4    1    1    2  502    0  0.17203064038E+03  0.73695916571E+02 -0.19637071777E+03  0.27126940142E+03  0.00000000000E+00 0.  1.
</event>
<event>
 7    1  0.9434649E-006  0.1013103E+04  0.7818608E-02  0.9201314E-01
          4   -1    0    0  501    0 -0.00000000000E+00  0.00000000000E+00  0.52443519244E+03  0.52443519244E+03  0.00000000000E+00 0.  1.
          2   -1    0    0  502    0  0.00000000000E+00 -0.00000000000E+00 -0.18139798957E+04  0.18139798957E+04  0.00000000000E+00 0.  1.
    9000010    2    1    2  502    0  0.57222591369E+02 -0.11312716477E+03 -0.53885292721E+03  0.11418847214E+04  0.99873222614E+03 0.  0.
        -13    1    3    3    0    0  0.49481636189E+03  0.67833635521E+02 -0.12954637502E+03  0.51597180984E+03  0.10566000000E+00 0.  1.
         13    1    1    2    0    0 -0.10721529736E+03  0.13430304134E+03  0.18889870608E+03  0.25537258902E+03  0.10566000000E+00 0. -1.
          2    1    1    2  501    0  0.49992705992E+02 -0.21175876564E+02 -0.93959048214E+03  0.94115777771E+03  0.00000000000E+00 0.  1.
          4    1    3    3  502    0 -0.43759377052E+03 -0.18096080029E+03 -0.40930655218E+03  0.62591291160E+03  0.00000000000E+00 0.  1.
</event>
<event>
 7    1  0.9434649E-006  0.1123127E+04  0.7818608E-02  0.9130592E-01
          4   -1    0    0  501    0 -0.00000000000E+00  0.00000000000E+00  0.91735931764E+03  0.91735931764E+03  0.00000000000E+00 0.  1.
          2   -1    0    0  502    0  0.00000000000E+00 -0.00000000000E+00 -0.14982894356E+04  0.14982894356E+04  0.00000000000E+00 0. -1.
    9000010    2    1    2  502    0  0.34111787817E+03 -0.20325481904E+02 -0.53154472778E+03  0.12167343148E+04  0.10397730825E+04 0.  0.
        -13    1    3    3    0    0  0.80188822217E+02  0.23875399956E+03 -0.74854036135E+03  0.78977617288E+03  0.10566000000E+00 0.  1.
         13    1    1    2    0    0  0.74731425686E+02 -0.14651265823E+03  0.47880987784E+03  0.50627033814E+03  0.10566000000E+00 0. -1.
          2    1    1    2  501    0 -0.41584930386E+03  0.16683814013E+03 -0.52819526800E+03  0.69264410028E+03  0.00000000000E+00 0. -1.
          4    1    3    3  502    0  0.26092905595E+03 -0.25907948146E+03  0.21699563358E+03  0.42695814191E+03  0.00000000000E+00 0.  1.
</event>
<event>
 7    1  0.9434649E-006  0.8819766E+03  0.7818608E-02  0.9114888E-01
          2   -1    0    0  502    0  0.00000000000E+00  0.00000000000E+00  0.25782889576E+04  0.25782889576E+04  0.00000000000E+00 0.  1.
          4   -1    0    0  501    0 -0.00000000000E+00 -0.00000000000E+00 -0.24577422616E+04  0.24577422616E+04  0.00000000000E+00 0.  1.
    9000010    2    1    2  502    0  0.21126393041E+03  0.23287277279E+03 -0.86488637474E+03  0.12223882201E+04  0.80457587761E+03 0.  0.
        -13    1    3    3    0    0  0.50248939835E+03  0.14381433404E+03 -0.36662542083E+03  0.63842961123E+03  0.10566000000E+00 0.  1.
         13    1    1    2    0    0 -0.21265973985E+03 -0.30015310281E+03 -0.13896977642E+04  0.14375590203E+04  0.10566000000E+00 0. -1.
          2    1    1    2  501    0  0.13958094384E+01  0.67280330022E+02  0.23751308350E+04  0.23760839788E+04  0.00000000000E+00 0.  1.
          4    1    3    3  502    0 -0.29122546793E+03  0.89058438749E+02 -0.49826095391E+03  0.58395860887E+03  0.00000000000E+00 0.  1.
</event>
<event>
 7    1  0.9434649E-006  0.1054855E+04  0.7818608E-02  0.8997028E-01
          4   -1    0    0  501    0 -0.00000000000E+00  0.00000000000E+00  0.21321611698E+04  0.21321611698E+04  0.00000000000E+00 0.  1.
          2   -1    0    0  502    0  0.00000000000E+00 -0.00000000000E+00 -0.30398287230E+03  0.30398287230E+03  0.00000000000E+00 0.  1.
    9000010    2    1    2  502    0  0.31927674505E+03 -0.15080133930E+03  0.15762687185E+04  0.18993714376E+04  0.99915469333E+03 0.  0.
        -13    1    3    3    0    0 -0.27276673724E+03  0.22888418269E+03  0.55142738675E+03  0.65640066732E+03  0.10566000000E+00 0.  1.
         13    1    1    2    0    0 -0.29586718473E+03  0.15025632997E+03  0.32229835467E+03  0.46259117618E+03  0.10566000000E+00 0. -1.
          2    1    1    2  501    0 -0.23409560311E+02  0.54500933656E+00 -0.70388775733E+02  0.74181428257E+02  0.00000000000E+00 0.  1.
          4    1    3    3  502    0  0.59204348229E+03 -0.37968552199E+03  0.10248413318E+04  0.12429707703E+04  0.00000000000E+00 0.  1.
</event>
<event>
 7    1  0.9434649E-006  0.1052328E+04  0.7818608E-02  0.9025598E-01
          2   -1    0    0  501    0  0.00000000000E+00  0.00000000000E+00  0.44272262409E+03  0.44272262409E+03  0.00000000000E+00 0. -1.
         -4   -1    0    0    0  501 -0.00000000000E+00 -0.00000000000E+00 -0.16318591200E+04  0.16318591200E+04  0.00000000000E+00 0. -1.
   -9000010    2    1    2    0  502 -0.60438708212E+02  0.30937972725E+03 -0.11870933943E+04  0.15886448758E+04  0.10075877934E+04 0.  0.
        -13    1    1    2    0    0 -0.13875901581E+01 -0.30001862196E+03 -0.14253417788E+03  0.33215824836E+03  0.10566000000E+00 0.  1.
         13    1    3    3    0    0  0.19769757456E+03 -0.31198410882E+03 -0.30361505308E+03  0.47812187438E+03  0.10566000000E+00 0. -1.
          2    1    1    2  502    0  0.61826298371E+02 -0.93611052918E+01  0.14049107623E+03  0.15377861998E+03  0.00000000000E+00 0. -1.
         -4    1    3    3    0  502 -0.25813628278E+03  0.62136383606E+03 -0.88347834120E+03  0.11105230014E+04  0.00000000000E+00 0. -1.
</event>
<event>
 7    1  0.9434649E-006  0.1167252E+04  0.7818608E-02  0.8783774E-01
          1   -1    0    0  501    0  0.00000000000E+00  0.00000000000E+00  0.62099611943E+03  0.62099611943E+03  0.00000000000E+00 0. -1.
         -4   -1    0    0    0  501 -0.00000000000E+00 -0.00000000000E+00 -0.18877252636E+04  0.18877252636E+04  0.00000000000E+00 0. -1.
   -9000010    2    1    2    0  502 -0.11675401635E+03 -0.58625606610E+03 -0.41295485562E+03  0.12347733322E+04  0.99840161950E+03 0.  0.
        -13    1    1    2    0    0 -0.52664675775E+02  0.60842528714E+03 -0.90837098243E+03  0.10945742327E+04  0.10566000000E+00 0.  1.
         13    1    3    3    0    0  0.15888525809E+03 -0.61446064474E+03  0.10887803881E+03  0.64394164928E+03  0.10566000000E+00 0. -1.
          1    1    1    2  502    0  0.16941869212E+03 -0.22169221039E+02  0.54596693924E+02  0.17937381801E+03  0.00000000000E+00 0. -1.
         -4    1    3    3    0  502 -0.27563927444E+03  0.28204578640E+02 -0.52183289443E+03  0.59083168295E+03  0.00000000000E+00 0. -1.
</event>
<event>
 6    1  0.9434649E-006  0.8829456E+03  0.7818608E-02  0.8893107E-01
          2   -1    0    0  502    0  0.00000000000E+00  0.00000000000E+00  0.97028762209E+03  0.97028762209E+03  0.00000000000E+00 0. -1.
          4   -1    0    0  501    0 -0.00000000000E+00 -0.00000000000E+00 -0.34472891799E+03  0.34472891799E+03  0.00000000000E+00 0.  1.
        -13    1    1    2    0    0 -0.11593078494E+03 -0.12185738490E+03 -0.19869082966E+03  0.26032139003E+03  0.10566000000E+00 0.  1.
         13    1    1    2    0    0 -0.17631427892E+03  0.71743079641E+02  0.26409614384E+03  0.32554658466E+03  0.10566000000E+00 0. -1.
          2    1    1    2  501    0  0.12343181839E+02 -0.12942704439E+01  0.40466972964E+03  0.40485999970E+03  0.00000000000E+00 0. -1.
          4    1    1    2  502    0  0.27990188203E+03  0.51408575704E+02  0.15548366028E+03  0.32428856568E+03  0.00000000000E+00 0.  1.
</event>
<event>
 7    1  0.9434649E-006  0.1068903E+04  0.7818608E-02  0.8973948E-01
         -4   -1    0    0    0  501 -0.00000000000E+00  0.00000000000E+00  0.47363313925E+03  0.47363313925E+03  0.00000000000E+00 0. -1.
          2   -1    0    0  501    0  0.00000000000E+00 -0.00000000000E+00 -0.17783034420E+04  0.17783034420E+04  0.00000000000E+00 0. -1.
   -9000010    2    1    2    0  502 -0.36322943803E+03  0.21336733667E+03 -0.62998720198E+03  0.12607305887E+04  0.10075199738E+04 0.  0.
        -13    1    1    2    0    0  0.29720908528E+03 -0.17343422598E+03 -0.33880982910E+02  0.34577536534E+03  0.10566000000E+00 0.  1.
         13    1    3    3    0    0 -0.18924756980E+02  0.41924589583E+03  0.96697547940E+02  0.43066889201E+03  0.10566000000E+00 0. -1.
          2    1    1    2  502    0  0.66020352753E+02 -0.39933110694E+02 -0.64080211786E+03  0.64543062722E+03  0.00000000000E+00 0. -1.
         -4    1    3    3    0  502 -0.34430468105E+03 -0.20587855916E+03 -0.72668474992E+03  0.83006169667E+03  0.00000000000E+00 0. -1.
</event>
<event>
 7    1  0.9434649E-006  0.1130737E+04  0.7818608E-02  0.8932582E-01
          2   -1    0    0  502    0  0.00000000000E+00  0.00000000000E+00  0.27842328463E+04  0.27842328463E+04  0.00000000000E+00 0.  1.
          4   -1    0    0  501    0 -0.00000000000E+00 -0.00000000000E+00 -0.10238390190E+04  0.10238390190E+04  0.00000000000E+00 0.  1.
    9000010    2    1    2  502    0  0.71923089209E+03  0.28232686635E+03  0.15251913268E+04  0.19812180743E+04  0.10010069625E+04 0.  0.
        -13    1    3    3    0    0  0.67693565348E+03 -0.16307006523E+03  0.48405633072E+03  0.84802374236E+03  0.10566000000E+00 0.  1.
         13    1    1    2    0    0 -0.35664130595E+03  0.19622947334E+02 -0.69635164710E+03  0.78261338396E+03  0.10566000000E+00 0. -1.
          2    1    1    2  501    0 -0.36258958614E+03 -0.30194981368E+03  0.93155414758E+03  0.10442404071E+04  0.00000000000E+00 0.  1.
          4    1    3    3  502    0  0.42295238616E+02  0.44539693158E+03  0.10411349960E+04  0.11331943319E+04  0.00000000000E+00 0.  1.
</event>
<event>
 7    1  0.9434649E-006  0.1011355E+04  0.7818608E-02  0.9066615E-01
          4   -1    0    0  501    0 -0.00000000000E+00  0.00000000000E+00  0.35011882342E+03  0.35011882342E+03  0.00000000000E+00 0.  1.
          2   -1    0    0  502    0  0.00000000000E+00 -0.00000000000E+00 -0.18490887813E+04  0.18490887813E+04  0.00000000000E+00 0.  1.
    9000010    2    1    2  502    0 -0.92188692417E+02  0.27136001220E+03 -0.49982644460E+03  0.11272035107E+04  0.96882726460E+03 0.  0.
        -13    1    3    3    0    0 -0.21256934111E+03 -0.31939940508E+03 -0.31557125048E+03  0.49677653934E+03  0.10566000000E+00 0.  1.
         13    1    1    2    0    0  0.70403401703E+02 -0.28470162518E+03 -0.56026938588E+03  0.63238710476E+03  0.10566000000E+00 0. -1.
          2    1    1    2  501    0  0.21785290714E+02  0.13341612983E+02 -0.43887412740E+03  0.43961698924E+03  0.00000000000E+00 0.  1.
          4    1    3    3  502    0  0.12038064869E+03  0.59075941728E+03 -0.18425519412E+03  0.63042697138E+03  0.00000000000E+00 0.  1.
</event>
<event>
 7    1  0.9434649E-006  0.1021122E+04  0.7818608E-02  0.9147785E-01
          4   -1    0    0  502    0  0.00000000000E+00  0.00000000000E+00  0.17664635541E+04  0.17664635541E+04  0.00000000000E+00 0. -1.
          4   -1    0    0  501    0 -0.00000000000E+00 -0.00000000000E+00 -0.12559329332E+04  0.12559329332E+04  0.00000000000E+00 0.  1.
    9000010    2    1    2  502    0  0.67374305681E+02 -0.18163954866E+03 -0.10193668963E+04  0.14413482884E+04  0.10004218093E+04 0.  0.
        -13    1    3    3    0    0 -0.21752156545E+03 -0.46999647229E+03 -0.25754639713E+03  0.57839646717E+03  0.10566000000E+00 0.  1.
         13    1    1    2    0    0 -0.79728691591E+02  0.21782093608E+03  0.50816155188E+03  0.55859717008E+03  0.10566000000E+00 0. -1.
          4    1    1    2  501    0  0.12354385910E+02 -0.36181387416E+02  0.10217359653E+04  0.10224510289E+04  0.00000000000E+00 0. -1.
          4    1    3    3  502    0  0.28489587113E+03  0.28835692362E+03 -0.76182049917E+03  0.86295182122E+03  0.00000000000E+00 0.  1.
</event>
<event>
 6    1  0.9434649E-006  0.1141008E+03  0.7818608E-02  0.1163754E+00
          4   -1    0    0  501    0 -0.00000000000E+00  0.00000000000E+00  0.62282735000E+02  0.62282735000E+02  0.00000000000E+00 0.  1.
          2   -1    0    0  502    0  0.00000000000E+00 -0.00000000000E+00 -0.12058783165E+04  0.12058783165E+04  0.00000000000E+00 0. -1.
        -13    1    1    2    0    0 -0.23734628538E+02  0.38468429039E+02 -0.46180364379E+02  0.64620351615E+02  0.10566000000E+00 0.  1.
         13    1    1    2    0    0  0.39405428383E+02 -0.56198494804E+02 -0.15780873873E+01  0.68655372173E+02  0.10566000000E+00 0. -1.
          2    1    1    2  501    0  0.60453084568E+02  0.52592643415E+02 -0.10161313668E+04  0.10192857873E+04  0.00000000000E+00 0. -1.
          4    1    1    2  502    0 -0.76123884413E+02 -0.34862577649E+02 -0.79705762892E+02  0.11559954038E+03  0.00000000000E+00 0.  1.
</event>
<event>
 7    1  0.9434649E-006  0.1063405E+04  0.7818608E-02  0.9371683E-01
         -4   -1    0    0    0  501 -0.00000000000E+00  0.00000000000E+00  0.54551058150E+03  0.54551058150E+03  0.00000000000E+00 0. -1.
          1   -1    0    0  501    0  0.00000000000E+00 -0.00000000000E+00 -0.12696762557E+04  0.12696762557E+04  0.00000000000E+00 0. -1.
   -9000010    2    1    2    0  502  0.18418965082E+03 -0.33559583528E+03 -0.78179457453E+03  0.13199308395E+04  0.99220172954E+03 0.  0.
        -13    1    1    2    0    0  0.64895243452E+02  0.41328041178E+02  0.77506712429E+02  0.10920943753E+03  0.10566000000E+00 0.  1.
         13    1    3    3    0    0  0.56037713080E+03 -0.76919025184E+02 -0.24822636194E+03  0.61770171044E+03  0.10566000000E+00 0. -1.
          1    1    1    2  502    0 -0.24908489427E+03  0.29426779410E+03 -0.19877812062E+02  0.38604656016E+03  0.00000000000E+00 0. -1.
         -4    1    3    3    0  502 -0.37618747998E+03 -0.25867681010E+03 -0.53356821259E+03  0.70222912903E+03  0.00000000000E+00 0. -1.
</event>
<event>
 7    1  0.9434649E-006  0.9263683E+03  0.7818608E-02  0.9222956E-01
          2   -1    0    0  502    0  0.00000000000E+00  0.00000000000E+00  0.16156316250E+04  0.16156316250E+04  0.00000000000E+00 0.  1.
          4   -1    0    0  501    0 -0.00000000000E+00 -0.00000000000E+00 -0.77261688823E+03  0.77261688823E+03  0.00000000000E+00 0.  1.
    9000010    2    1    2  502    0 -0.35525734967E+02 -0.24175499451E+03  0.96036399007E+02  0.94087240645E+03  0.90349894304E+03 0.  0.
        -13    1    3    3    0    0  0.17631142288E+03  0.30101486351E+03  0.80523125344E+02  0.35802185795E+03  0.10566000000E+00 0.  1.
         13    1    1    2    0    0  0.10061318410E+03  0.17653018085E+03 -0.31856900668E+03  0.37785200906E+03  0.10566000000E+00 0. -1.
          2    1    1    2  501    0 -0.65087449132E+02  0.65224813665E+02  0.10655473445E+04  0.10695240977E+04  0.00000000000E+00 0.  1.
          4    1    3    3  502    0 -0.21183715785E+03 -0.54276985802E+03  0.15513273662E+02  0.58285054850E+03  0.00000000000E+00 0.  1.
</event>
<event>
 7    1  0.9434649E-006  0.1394362E+04  0.7818608E-02  0.8544369E-01
         -4   -1    0    0    0  501 -0.00000000000E+00  0.00000000000E+00  0.21180076975E+04  0.21180076975E+04  0.00000000000E+00 0. -1.
          2   -1    0    0  501    0  0.00000000000E+00 -0.00000000000E+00 -0.20757725058E+04  0.20757725058E+04  0.00000000000E+00 0.  1.
   -9000010    2    1    2    0  502  0.21095919429E+03 -0.91867976952E+03  0.35728886761E+03  0.13934199549E+04  0.96202262718E+03 0.  0.
        -13    1    1    2    0    0  0.99260631439E+02  0.10490945926E+04  0.99407752229E+03  0.14486691371E+04  0.10566000000E+00 0.  1.
         13    1    3    3    0    0 -0.21262206368E+03 -0.45895773324E+03  0.54222584940E+03  0.74152493268E+03  0.10566000000E+00 0. -1.
          2    1    1    2  502    0 -0.31021982573E+03 -0.13041482309E+03 -0.13091311982E+04  0.13516911113E+04  0.00000000000E+00 0.  1.
         -4    1    3    3    0  502  0.42358125798E+03 -0.45972203628E+03 -0.18493698179E+03  0.65189502221E+03  0.00000000000E+00 0. -1.
</event>
<event>
 7    1  0.9434649E-006  0.1010117E+04  0.7818608E-02  0.9178009E-01
         -4   -1    0    0    0  501 -0.00000000000E+00  0.00000000000E+00  0.34428222338E+04  0.34428222338E+04  0.00000000000E+00 0. -1.
          2   -1    0    0  501    0  0.00000000000E+00 -0.00000000000E+00 -0.67825796951E+03  0.67825796951E+03  0.00000000000E+00 0. -1.
   -9000010    2    1    2    0  502  0.14593504939E+03 -0.42460299541E+02  0.22309263991E+04  0.24464672465E+04  0.99250666202E+03 0.  0.
        -13    1    1    2    0    0 -0.19096908949E+03  0.76471016465E+00  0.10941803664E+04  0.11107206954E+04  0.10566000000E+00 0.  1.
         13    1    3    3    0    0 -0.42581918350E+03  0.34227006228E+02  0.94388014554E+03  0.10360517387E+04  0.10566000000E+00 0. -1.
          2    1    1    2  502    0  0.45034040097E+02  0.41695589377E+02 -0.56054250115E+03  0.56389226146E+03  0.00000000000E+00 0. -1.
         -4    1    3    3    0  502  0.57175423289E+03 -0.76687305770E+02  0.12870462536E+04  0.14104155077E+04  0.00000000000E+00 0. -1.
</event>
<event>
 7    1  0.9434649E-006  0.1080345E+04  0.7818608E-02  0.8906797E-01
          4   -1    0    0  501    0 -0.00000000000E+00  0.00000000000E+00  0.84647884542E+03  0.84647884542E+03  0.00000000000E+00 0.  1.
          2   -1    0    0  502    0  0.00000000000E+00 -0.00000000000E+00 -0.11006973070E+04  0.11006973070E+04  0.00000000000E+00 0.  1.
    9000010    2    1    2  502    0 -0.15945923943E+01  0.42010915481E+03  0.91656823633E+02  0.10698643987E+04  0.97965025063E+03 0.  0.
        -13    1    3    3    0    0  0.18361286204E+03  0.54466772646E+03  0.39195468196E+03  0.69570475004E+03  0.10566000000E+00 0.  1.
         13    1    1    2    0    0 -0.18048249855E+03 -0.44865578785E+03  0.20342455648E+01  0.48360117615E+03  0.10566000000E+00 0. -1.
          2    1    1    2  501    0  0.18207709095E+03  0.28546633040E+02 -0.34790953080E+03  0.39371057761E+03  0.00000000000E+00 0.  1.
          4    1    3    3  502    0 -0.18520745444E+03 -0.12455857165E+03 -0.30029785832E+03  0.37415964863E+03  0.00000000000E+00 0.  1.
</event>
<event>
 7    1  0.9434649E-006  0.9926361E+03  0.7818608E-02  0.9087824E-01
          4   -1    0    0  501    0 -0.00000000000E+00  0.00000000000E+00  0.30193506952E+04  0.30193506952E+04  0.00000000000E+00 0.  1.
          2   -1    0    0  502    0  0.00000000000E+00 -0.00000000000E+00 -0.16476017658E+03  0.16476017658E+03  0.00000000000E+00 0.  1.
    9000010    2    1    2  502    0  0.19517614887E+03 -0.22602720480E+03  0.15524656433E+04  0.18452866085E+04  0.95170954999E+03 0.  0.
        -13    1    3    3    0    0  0.30360694591E+03 -0.35999549330E+03  0.15988840456E+04  0.16667945690E+04  0.10566000000E+00 0.  1.
         13    1    1    2    0    0 -0.19304870160E+03  0.20333905225E+03  0.12611224515E+04  0.12919150205E+04  0.10566000000E+00 0. -1.
          2    1    1    2  501    0 -0.21274472712E+01  0.22688152541E+02  0.41002423859E+02  0.46909242798E+02  0.00000000000E+00 0.  1.
          4    1    3    3  502    0 -0.10843079704E+03  0.13396828851E+03 -0.46418402361E+02  0.17849203946E+03  0.00000000000E+00 0.  1.
</event>
<event>
 7    1  0.9434649E-006  0.1160167E+04  0.7818608E-02  0.8790939E-01
          4   -1    0    0  501    0 -0.00000000000E+00  0.00000000000E+00  0.80848137182E+03  0.80848137182E+03  0.00000000000E+00 0.  1.
          2   -1    0    0  502    0  0.00000000000E+00 -0.00000000000E+00 -0.12089627319E+04  0.12089627319E+04  0.00000000000E+00 0.  1.
    9000010    2    1    2  502    0 -0.32850581634E+03 -0.48889187558E+03 -0.16185043049E+03  0.11671435561E+04  0.99453365014E+03 0.  0.
        -13    1    3    3    0    0  0.10665979888E+03  0.15843137801E+03  0.22611989870E+03  0.29598485432E+03  0.10566000000E+00 0.  1.
         13    1    1    2    0    0  0.34179327368E+03  0.49453232710E+03  0.10014591993E+02  0.60123636591E+03  0.10566000000E+00 0. -1.
          2    1    1    2  501    0 -0.13287457341E+02 -0.56404515135E+01 -0.24864552159E+03  0.24906418173E+03  0.00000000000E+00 0.  1.
          4    1    3    3  502    0 -0.43516561522E+03 -0.64732325359E+03 -0.38797032919E+03  0.87115870175E+03  0.00000000000E+00 0.  1.
</event>
<event>
 7    1  0.9434649E-006  0.1116922E+04  0.7818608E-02  0.8850044E-01
          4   -1    0    0  501    0 -0.00000000000E+00  0.00000000000E+00  0.45235456732E+03  0.45235456732E+03  0.00000000000E+00 0.  1.
          2   -1    0    0  502    0  0.00000000000E+00 -0.00000000000E+00 -0.20879127675E+04  0.20879127675E+04  0.00000000000E+00 0. -1.
    9000010    2    1    2  502    0 -0.38973984768E+03  0.22706453716E+03 -0.70332592062E+03  0.12935458755E+04  0.98749082458E+03 0.  0.
        -13    1    3    3    0    0 -0.54199054986E+03 -0.18969427793E+03 -0.61450728443E+03  0.84104511709E+03  0.10566000000E+00 0.  1.
         13    1    1    2    0    0  0.44391597366E+03 -0.39727898204E+03 -0.87615157044E+03  0.10594968461E+04  0.10566000000E+00 0. -1.
          2    1    1    2  501    0 -0.54176125988E+02  0.17021444488E+03 -0.56080709163E+02  0.18722461327E+03  0.00000000000E+00 0. -1.
          4    1    3    3  502    0  0.15225070218E+03  0.41675881509E+03 -0.88818636197E+02  0.45250075846E+03  0.00000000000E+00 0.  1.
</event>
<event>
 6    1  0.9434649E-006  0.6457104E+03  0.7818608E-02  0.9205687E-01
          2   -1    0    0  502    0  0.00000000000E+00  0.00000000000E+00  0.20346219421E+04  0.20346219421E+04  0.00000000000E+00 0.  1.
          4   -1    0    0  501    0 -0.00000000000E+00 -0.00000000000E+00 -0.34812798770E+03  0.34812798770E+03  0.00000000000E+00 0.  1.
        -13    1    1    2    0    0  0.66865320331E+02  0.17704080800E+02  0.20921115725E+03  0.22034909807E+03  0.10566000000E+00 0.  1.
         13    1    1    2    0    0 -0.10149026120E+02 -0.85931244267E+02 -0.21672161640E+03  0.23335691901E+03  0.10566000000E+00 0. -1.
          2    1    1    2  501    0  0.49326297547E+02 -0.89171100241E+02  0.17324142429E+04  0.17354087927E+04  0.00000000000E+00 0.  1.
          4    1    1    2  502    0 -0.10604259176E+03  0.15739826371E+03 -0.38409829411E+02  0.19363511996E+03  0.00000000000E+00 0.  1.
</event>
<event>
 6    1  0.9434649E-006  0.1034249E+04  0.7818608E-02  0.8743060E-01
          1   -1    0    0  501    0  0.00000000000E+00  0.00000000000E+00  0.24493495491E+03  0.24493495491E+03  0.00000000000E+00 0. -1.
         -4   -1    0    0    0  501 -0.00000000000E+00 -0.00000000000E+00 -0.30605342512E+04  0.30605342512E+04  0.00000000000E+00 0. -1.
        -13    1    1    2    0    0 -0.30058084066E+03 -0.17794538620E+03 -0.50331982130E+03  0.61265345499E+03  0.10566000000E+00 0.  1.
         13    1    1    2    0    0  0.34211320615E+03  0.85990022694E+02 -0.19735870935E+04  0.20048645232E+04  0.10566000000E+00 0. -1.
          1    1    1    2  502    0  0.16820424978E+02 -0.85569867434E+02  0.14511833276E+03  0.16930581624E+03  0.00000000000E+00 0. -1.
         -4    1    1    2    0  502 -0.58352790475E+02  0.17752523094E+03 -0.48381071430E+03  0.51864541167E+03  0.00000000000E+00 0. -1.
</event>
<event>
 7    1  0.9434649E-006  0.1257828E+04  0.7818608E-02  0.8659171E-01
          2   -1    0    0  502    0  0.00000000000E+00  0.00000000000E+00  0.12606687706E+04  0.12606687706E+04  0.00000000000E+00 0.  1.
          4   -1    0    0  501    0 -0.00000000000E+00 -0.00000000000E+00 -0.15939603772E+04  0.15939603772E+04  0.00000000000E+00 0.  1.
    9000010    2    1    2  502    0 -0.13463072612E+03  0.80364084115E+03 -0.45798504998E+03  0.13313203571E+04  0.94799765470E+03 0.  0.
        -13    1    3    3    0    0  0.23840769936E+03  0.45285868188E+03  0.15297267910E+03  0.53415341297E+03  0.10566000000E+00 0.  1.
         13    1    1    2    0    0  0.15650414753E+03 -0.81870084457E+03 -0.45051658213E+03  0.94748605427E+03  0.10566000000E+00 0. -1.
          2    1    1    2  501    0 -0.21873421408E+02  0.15060003421E+02  0.57521002557E+03  0.57582273642E+03  0.00000000000E+00 0.  1.
          4    1    3    3  502    0 -0.37303842548E+03  0.35078215927E+03 -0.61095772908E+03  0.79716694417E+03  0.00000000000E+00 0.  1.
</event>
<event>
 7    1  0.9434649E-006  0.1023574E+04  0.7818608E-02  0.9215250E-01
          4   -1    0    0  501    0 -0.00000000000E+00  0.00000000000E+00  0.57225715377E+03  0.57225715377E+03  0.00000000000E+00 0.  1.
          2   -1    0    0  502    0  0.00000000000E+00 -0.00000000000E+00 -0.10018631884E+04  0.10018631884E+04  0.00000000000E+00 0.  1.
    9000010    2    1    2  502    0  0.81535922551E+02 -0.11981735119E+03 -0.18055712069E+03  0.10377399115E+04  0.10115823969E+04 0.  0.
        -13    1    3    3    0    0 -0.58943262216E+02  0.42509346621E+03  0.44952245234E+02  0.43150837615E+03  0.10566000000E+00 0.  1.
         13    1    1    2    0    0 -0.78803458226E+02  0.13583957793E+03  0.10050417784E+03  0.18644966315E+03  0.10566000000E+00 0. -1.
          2    1    1    2  501    0 -0.27324643248E+01 -0.16022226738E+02 -0.34955309174E+03  0.34993076752E+03  0.00000000000E+00 0.  1.
          4    1    3    3  502    0  0.14047918477E+03 -0.54491081741E+03 -0.22550936592E+03  0.60623153530E+03  0.00000000000E+00 0.  1.
</event>
<event>
 7    1  0.9434649E-006  0.8380613E+03  0.7818608E-02  0.9195863E-01
          2   -1    0    0  502    0  0.00000000000E+00  0.00000000000E+00  0.63588696682E+03  0.63588696682E+03  0.00000000000E+00 0.  1.
          4   -1    0    0  501    0 -0.00000000000E+00 -0.00000000000E+00 -0.55267026392E+03  0.55267026392E+03  0.00000000000E+00 0.  1.
    9000010    2    1    2  502    0  0.30811309062E+03 -0.90961750996E+02  0.14829968837E+03  0.85640148185E+03  0.77988651981E+03 0.  0.
        -13    1    3    3    0    0 -0.15595169051E+03 -0.24524737269E+03 -0.10074663509E+03  0.30759892593E+03  0.10566000000E+00 0.  1.
         13    1    1    2    0    0 -0.29064579155E+03  0.85857028509E+02 -0.47334849088E+02  0.30673605036E+03  0.10566000000E+00 0. -1.
          2    1    1    2  501    0 -0.17467299076E+02  0.51047224876E+01 -0.17748136376E+02  0.25419698533E+02  0.00000000000E+00 0.  1.
          4    1    3    3  502    0  0.46406478113E+03  0.15428562170E+03  0.24904632347E+03  0.54880255592E+03  0.00000000000E+00 0.  1.
</event>
<event>
 6    1  0.1418018E-005  0.3533712E+03  0.7818608E-02  0.9874318E-01
         -4   -1    0    0    0  501 -0.00000000000E+00  0.00000000000E+00  0.21961806179E+03  0.21961806179E+03  0.00000000000E+00 0. -1.
          5   -1    0    0  501    0  0.00000000000E+00 -0.00000000000E+00 -0.83569864443E+03  0.83569864443E+03  0.00000000000E+00 0.  1.
        -13    1    1    2    0    0  0.89225257928E+02  0.66618661603E+01 -0.93637795399E+02  0.12951283722E+03  0.10566000000E+00 0.  1.
         13    1    1    2    0    0 -0.74627963856E+02 -0.41798874439E+01  0.18714768026E+03  0.20152188427E+03  0.10566000000E+00 0. -1.
          5    1    1    2  502    0 -0.74780690871E+01  0.22443052714E+02 -0.69322031553E+03  0.69362383033E+03  0.00000000000E+00 0.  1.
         -4    1    1    2    0  502 -0.71192249846E+01 -0.24925031430E+02 -0.16370151976E+02  0.30658154411E+02  0.00000000000E+00 0. -1.
</event>
<event>
 7    1  0.9434649E-006  0.1023564E+04  0.7818608E-02  0.9099657E-01
         -4   -1    0    0    0  501 -0.00000000000E+00  0.00000000000E+00  0.22166682401E+04  0.22166682401E+04  0.00000000000E+00 0. -1.
          2   -1    0    0  501    0  0.00000000000E+00 -0.00000000000E+00 -0.63747762301E+03  0.63747762301E+03  0.00000000000E+00 0.  1.
   -9000010    2    1    2    0  502 -0.15086736426E+02  0.17212807069E+03  0.45021305517E+03  0.11045188323E+04  0.99368726138E+03 0.  0.
        -13    1    1    2    0    0  0.21955125564E+03 -0.12073273130E+03  0.13909620627E+04  0.14133487246E+04  0.10566000000E+00 0.  1.
         13    1    3    3    0    0 -0.47196083364E+02  0.55037833985E+03  0.52768147283E+02  0.55491285423E+03  0.10566000000E+00 0. -1.
          2    1    1    2  502    0 -0.20446451921E+03 -0.51395339389E+02 -0.26198450086E+03  0.33627830620E+03  0.00000000000E+00 0.  1.
         -4    1    3    3    0  502  0.32109346938E+02 -0.37825026915E+03  0.39744490789E+03  0.54960597803E+03  0.00000000000E+00 0. -1.
</event>
<event>
 6    1  0.9434649E-006  0.4550812E+03  0.7818608E-02  0.9582263E-01
          4   -1    0    0  501    0 -0.00000000000E+00  0.00000000000E+00  0.96359453691E+02  0.96359453691E+02  0.00000000000E+00 0.  1.
          2   -1    0    0  502    0  0.00000000000E+00 -0.00000000000E+00 -0.12224983935E+04  0.12224983935E+04  0.00000000000E+00 0. -1.
        -13    1    1    2    0    0 -0.56717349766E+02 -0.17475535831E+03 -0.18334191161E+03  0.25955839563E+03  0.10566000000E+00 0.  1.
         13    1    1    2    0    0  0.54471546750E+02  0.19195886870E+03 -0.11427901712E+03  0.22994577969E+03  0.10566000000E+00 0. -1.
          2    1    1    2  501    0  0.93991881179E+01 -0.42799032489E+01 -0.68493415568E+03  0.68501201444E+03  0.00000000000E+00 0. -1.
          4    1    1    2  502    0 -0.71533851021E+01 -0.12923607143E+02 -0.14358385539E+03  0.14434165742E+03  0.00000000000E+00 0.  1.
</event>
<event>
 7    1  0.9434649E-006  0.9589228E+03  0.7818608E-02  0.9469930E-01
         -4   -1    0    0    0  501 -0.00000000000E+00  0.00000000000E+00  0.16654519969E+04  0.16654519969E+04  0.00000000000E+00 0. -1.
          2   -1    0    0  501    0  0.00000000000E+00 -0.00000000000E+00 -0.81932161360E+03  0.81932161360E+03  0.00000000000E+00 0.  1.
   -9000010    2    1    2    0  502  0.13400203135E+02 -0.74034648894E+02  0.15120306459E+04  0.17905591608E+04  0.95614054374E+03 0.  0.
        -13    1    1    2    0    0 -0.21774496062E+02  0.68384911011E+02 -0.77120490281E+02  0.10534802285E+03  0.10566000000E+00 0.  1.
         13    1    3    3    0    0  0.42766221571E+03  0.15040458413E+03  0.98075057812E+03  0.10804574112E+04  0.10566000000E+00 0. -1.
          2    1    1    2  502    0  0.83742929268E+01  0.56497378828E+01 -0.58877977237E+03  0.58886642685E+03  0.00000000000E+00 0.  1.
         -4    1    3    3    0  502 -0.41426201258E+03 -0.22443923303E+03  0.53128006781E+03  0.71010174964E+03  0.00000000000E+00 0. -1.
</event>
<event>
 7    1  0.9434649E-006  0.9928548E+03  0.7818608E-02  0.9465070E-01
          2   -1    0    0  501    0  0.00000000000E+00  0.00000000000E+00  0.30031070729E+03  0.30031070729E+03  0.00000000000E+00 0. -1.
         -4   -1    0    0    0  501 -0.00000000000E+00 -0.00000000000E+00 -0.23614652736E+04  0.23614652736E+04  0.00000000000E+00 0. -1.
   -9000010    2    1    2    0  502 -0.76489418580E+02  0.26477583652E+02 -0.20418963296E+04  0.22709407194E+04  0.99059549601E+03 0.  0.
        -13    1    1    2    0    0  0.58221110350E+02 -0.31789888042E+02 -0.19916702315E+03  0.20992334065E+03  0.10566000000E+00 0.  1.
         13    1    3    3    0    0 -0.25853280734E+03 -0.26376711590E+03 -0.24860672358E+03  0.44521637220E+03  0.10566000000E+00 0. -1.
          2    1    1    2  502    0  0.18268308230E+02  0.53123043896E+01  0.17990878643E+03  0.18091192083E+03  0.00000000000E+00 0. -1.
         -4    1    3    3    0  502  0.18204338876E+03  0.29024469955E+03 -0.17932896060E+04  0.18257243472E+04  0.00000000000E+00 0. -1.
</event>
<event>
 7    1  0.9434649E-006  0.1207048E+04  0.7818608E-02  0.9081517E-01
         -4   -1    0    0    0  501 -0.00000000000E+00  0.00000000000E+00  0.81644034001E+03  0.81644034001E+03  0.00000000000E+00 0. -1.
          2   -1    0    0  501    0  0.00000000000E+00 -0.00000000000E+00 -0.27013925394E+04  0.27013925394E+04  0.00000000000E+00 0.  1.
   -9000010    2    1    2    0  502  0.35843726583E+03  0.40002682685E+03 -0.88859130700E+03  0.14479753742E+04  0.10092271488E+04 0.  0.
        -13    1    1    2    0    0  0.10596644373E+03  0.12103282360E+03  0.44239520262E+03  0.47073491272E+03  0.10566000000E+00 0.  1.
         13    1    3    3    0    0  0.48322561198E+03  0.65816611691E+03 -0.81125283453E+03  0.11510086021E+04  0.10566000000E+00 0. -1.
          2    1    1    2  502    0 -0.46440370956E+03 -0.52105965045E+03 -0.14387560950E+04  0.15991225925E+04  0.00000000000E+00 0.  1.
         -4    1    3    3    0  502 -0.12478834615E+03 -0.25813929006E+03 -0.77338472478E+02  0.29696677210E+03  0.00000000000E+00 0. -1.
</event>
<event>
 6    1  0.9434649E-006  0.6356109E+03  0.7818608E-02  0.9222013E-01
          2   -1    0    0  502    0  0.00000000000E+00  0.00000000000E+00  0.87645684249E+03  0.87645684249E+03  0.00000000000E+00 0.  1.
          4   -1    0    0  501    0 -0.00000000000E+00 -0.00000000000E+00 -0.51566106189E+03  0.51566106189E+03  0.00000000000E+00 0.  1.
        -13    1    1    2    0    0 -0.23779499047E+03 -0.58838811413E+02 -0.37379486047E+03  0.44691282383E+03  0.10566000000E+00 0.  1.
         13    1    1    2    0    0  0.78090135871E+02  0.62453801465E+02 -0.14232247687E+02  0.10100056770E+03  0.10566000000E+00 0. -1.
          2    1    1    2  501    0  0.11165386201E+02  0.19801652348E+01  0.68052597256E+03  0.68062044212E+03  0.00000000000E+00 0.  1.
          4    1    1    2  502    0  0.14853946840E+03 -0.55951552872E+01  0.68296916206E+02  0.16358407073E+03  0.00000000000E+00 0.  1.
</event>
<event>
 7    1  0.9434649E-006  0.1152986E+04  0.7818608E-02  0.8801067E-01
          4   -1    0    0  501    0  0.00000000000E+00  0.00000000000E+00  0.22994380392E+04  0.22994380392E+04  0.00000000000E+00 0.  1.
         -4   -1    0    0    0  501 -0.00000000000E+00 -0.00000000000E+00 -0.63030322954E+03  0.63030322954E+03  0.00000000000E+00 0. -1.
   -9000010    2    1    2    0  502 -0.16634078575E+03 -0.51009466685E+03  0.34859533803E+03  0.11827069604E+04  0.99469151919E+03 0.  0.
        -13    1    1    2    0    0  0.27639753419E+03  0.54672420509E+03  0.23630784236E+03  0.65661583964E+03  0.10566000000E+00 0.  1.
         13    1    3    3    0    0 -0.53916633055E+03 -0.31985336036E+03 -0.16753017849E+02  0.62712612679E+03  0.10566000000E+00 0. -1.
          4    1    1    2  502    0 -0.11005674844E+03 -0.36629538244E+02  0.10842316293E+04  0.10904184687E+04  0.00000000000E+00 0.  1.
         -4    1    3    3    0  502  0.37282554479E+03 -0.19024130649E+03  0.36534835588E+03  0.55558083362E+03  0.00000000000E+00 0. -1.
</event>
<event>
 7    1  0.9434649E-006  0.1019859E+04  0.7818608E-02  0.9273000E-01
         -4   -1    0    0    0  501 -0.00000000000E+00  0.00000000000E+00  0.87790696004E+03  0.87790696004E+03  0.00000000000E+00 0. -1.
          2   -1    0    0  501    0  0.00000000000E+00 -0.00000000000E+00 -0.12521878286E+04  0.12521878286E+04  0.00000000000E+00 0.  1.
   -9000010    2    1    2    0  502  0.15060692481E+03  0.56612248096E+02  0.50459443362E+03  0.11421918307E+04  0.10119778868E+04 0.  0.
        -13    1    1    2    0    0 -0.95842355288E+02 -0.72831499038E+02 -0.14048584042E+02  0.12119223654E+03  0.10566000000E+00 0.  1.
         13    1    3    3    0    0 -0.40829412852E+02  0.49083927706E+03  0.67726885361E+02  0.49716916540E+03  0.10566000000E+00 0. -1.
          2    1    1    2  502    0 -0.54764569522E+02  0.16219250942E+02 -0.86482671817E+03  0.86671072143E+03  0.00000000000E+00 0.  1.
         -4    1    3    3    0  502  0.19143633766E+03 -0.43422702896E+03  0.43686754825E+03  0.64502266532E+03  0.00000000000E+00 0. -1.
</event>
<event>
 7    1  0.9434649E-006  0.9945291E+03  0.7818608E-02  0.9033004E-01
         -4   -1    0    0    0  501 -0.00000000000E+00  0.00000000000E+00  0.65044492285E+03  0.65044492285E+03  0.00000000000E+00 0. -1.
          1   -1    0    0  501    0  0.00000000000E+00 -0.00000000000E+00 -0.12637180699E+04  0.12637180699E+04  0.00000000000E+00 0.  1.
   -9000010    2    1    2    0  502 -0.28018500250E+03 -0.22526846909E+03  0.20517673098E+01  0.99823406493E+03  0.93124514487E+03 0.  0.
        -13    1    1    2    0    0  0.26290370221E+03  0.22338967751E+03 -0.47976879204E+02  0.34831465194E+03  0.10566000000E+00 0.  1.
         13    1    3    3    0    0 -0.10061536633E+03 -0.44355927256E+03  0.33248693135E+03  0.56339670827E+03  0.10566000000E+00 0. -1.
          1    1    1    2  502    0  0.17281300285E+02  0.18787915853E+01 -0.56734803512E+03  0.56761427585E+03  0.00000000000E+00 0.  1.
         -4    1    3    3    0  502 -0.17956963617E+03  0.21829080346E+03 -0.33043516404E+03  0.43483735666E+03  0.00000000000E+00 0. -1.
</event>
<event>
 7    1  0.9434649E-006  0.1014922E+04  0.7818608E-02  0.9134176E-01
          2   -1    0    0  502    0  0.00000000000E+00  0.00000000000E+00  0.52158188323E+03  0.52158188323E+03  0.00000000000E+00 0. -1.
          4   -1    0    0  501    0 -0.00000000000E+00 -0.00000000000E+00 -0.19222163233E+04  0.19222163233E+04  0.00000000000E+00 0.  1.
    9000010    2    1    2  502    0  0.13552319648E+03 -0.17979410579E+03 -0.12891942642E+04  0.16414886005E+04  0.99084333647E+03 0.  0.
        -13    1    3    3    0    0 -0.26038055701E+02 -0.51670638433E+03 -0.11151029387E+04  0.12292754139E+04  0.10566000000E+00 0.  1.
         13    1    1    2    0    0 -0.14396815251E+03  0.16507657139E+03 -0.43038352641E+03  0.48291520408E+03  0.10566000000E+00 0. -1.
          2    1    1    2  501    0  0.84449560308E+01  0.14717534406E+02  0.31894335058E+03  0.31939440193E+03  0.00000000000E+00 0. -1.
          4    1    3    3  502    0  0.16156125218E+03  0.33691227854E+03 -0.17409132546E+03  0.41221318664E+03  0.00000000000E+00 0.  1.
</event>
<event>
 6    1  0.1085671E-005  0.4232422E+02  0.7818608E-02  0.1339857E+00
         -4   -1    0    0    0  501 -0.00000000000E+00  0.00000000000E+00  0.66958526632E+02  0.66958526632E+02  0.00000000000E+00 0. -1.
          2   -1    0    0  501    0  0.00000000000E+00 -0.00000000000E+00 -0.76601746212E+03  0.76601746212E+03  0.00000000000E+00 0.  1.
        -13    1    1    2    0    0  0.42306273047E+02 -0.11595474870E+02  0.11500268899E+02  0.45349124858E+02  0.10566000000E+00 0.  1.
         13    1    1    2    0    0 -0.17278106190E+02  0.58000443608E+01  0.17854092690E+02  0.25513785645E+02  0.10566000000E+00 0. -1.
          2    1    1    2  502    0 -0.15029894397E+02  0.24123927824E+02 -0.73841571457E+03  0.73896253568E+03  0.00000000000E+00 0.  1.
         -4    1    1    2    0  502 -0.99982724603E+01 -0.18328497315E+02  0.10002417484E+02  0.23150542575E+02  0.00000000000E+00 0. -1.
</event>
<event>
 7    1  0.9434649E-006  0.1394104E+04  0.7818608E-02  0.8586517E-01
          2   -1    0    0  502    0  0.00000000000E+00  0.00000000000E+00  0.14033135278E+04  0.14033135278E+04  0.00000000000E+00 0.  1.
          4   -1    0    0  501    0 -0.00000000000E+00 -0.00000000000E+00 -0.13850032444E+04  0.13850032444E+04  0.00000000000E+00 0.  1.
    9000010    2    1    2  502    0 -0.57022873619E+02 -0.84595059402E+03  0.47902123423E+03  0.14805873932E+04  0.11152549801E+04 0.  0.
        -13    1    3    3    0    0  0.51277282501E+03 -0.52928448420E+03  0.35099358432E+03  0.81625641968E+03  0.10566000000E+00 0.  1.
         13    1    1    2    0    0  0.29863566753E+02  0.83374907717E+03 -0.68623179459E+03  0.10802515649E+04  0.10566000000E+00 0. -1.
          2    1    1    2  501    0  0.27159306866E+02  0.12201516850E+02  0.22552084373E+03  0.22747781413E+03  0.00000000000E+00 0.  1.
          4    1    3    3  502    0 -0.56979569862E+03 -0.31666610982E+03  0.12802764990E+03  0.66433097355E+03  0.00000000000E+00 0.  1.
</event>
<event>
 7    1  0.9434649E-006  0.1051503E+04  0.7818608E-02  0.9060214E-01
         -4   -1    0    0    0  501 -0.00000000000E+00  0.00000000000E+00  0.16410705992E+04  0.16410705992E+04  0.00000000000E+00 0. -1.
          1   -1    0    0  501    0  0.00000000000E+00 -0.00000000000E+00 -0.41534769873E+03  0.41534769873E+03  0.00000000000E+00 0.  1.
   -9000010    2    1    2    0  502  0.19719468165E+03 -0.17856549581E+03  0.90393867399E+03  0.13868565628E+04  0.10175925612E+04 0.  0.
        -13    1    1    2    0    0 -0.20601206255E+03  0.16632259448E+03  0.45987467358E+03  0.53064950948E+03  0.10566000000E+00 0.  1.
         13    1    3    3    0    0 -0.16008908328E+03 -0.30248990769E+03 -0.63546035786E+02  0.34809017319E+03  0.10566000000E+00 0. -1.
          1    1    1    2  502    0  0.88173808998E+01  0.12242901332E+02 -0.13809044713E+03  0.13891222562E+03  0.00000000000E+00 0.  1.
         -4    1    3    3    0  502  0.35728376494E+03  0.12392441188E+03  0.96748470977E+03  0.10387663896E+04  0.00000000000E+00 0. -1.
</event>
<event>
 7    1  0.9434649E-006  0.1087917E+04  0.7818608E-02  0.8945083E-01
          4   -1    0    0  501    0 -0.00000000000E+00  0.00000000000E+00  0.11795632921E+04  0.11795632921E+04  0.00000000000E+00 0.  1.
          2   -1    0    0  502    0  0.00000000000E+00 -0.00000000000E+00 -0.14250675938E+04  0.14250675938E+04  0.00000000000E+00 0.  1.
    9000010    2    1    2  502    0  0.41021803001E+03  0.20528606933E+03 -0.40887611899E+02  0.11182600626E+04  0.10190253032E+04 0.  0.
        -13    1    3    3    0    0  0.47878017023E+03  0.49060497466E+02  0.41247679132E+03  0.63385684375E+03  0.10566000000E+00 0.  1.
         13    1    1    2    0    0 -0.37807196879E+03  0.23709574164E+02  0.56641204769E+03  0.68141263301E+03  0.10566000000E+00 0. -1.
          2    1    1    2  501    0 -0.32146061220E+02 -0.22899564349E+03 -0.77102873751E+03  0.80495819025E+03  0.00000000000E+00 0.  1.
          4    1    3    3  502    0 -0.68562140222E+02  0.15622557186E+03 -0.45336440322E+03  0.48440321890E+03  0.00000000000E+00 0.  1.
</event>
<event>
 6    1  0.9434649E-006  0.5121945E+03  0.7818608E-02  0.9451638E-01
          4   -1    0    0  501    0 -0.00000000000E+00  0.00000000000E+00  0.12090917016E+03  0.12090917016E+03  0.00000000000E+00 0.  1.
          2   -1    0    0  502    0  0.00000000000E+00 -0.00000000000E+00 -0.12330887884E+04  0.12330887884E+04  0.00000000000E+00 0.  1.
        -13    1    1    2    0    0 -0.62070449757E+02 -0.26553947030E+03 -0.21728416760E+03  0.34867803440E+03  0.10566000000E+00 0.  1.
         13    1    1    2    0    0 -0.10171334763E+03  0.85984335489E+02 -0.14793185680E+03  0.19905465696E+03  0.10566000000E+00 0. -1.
          2    1    1    2  501    0  0.89041586421E+02  0.10736537913E+03 -0.64774098519E+03  0.66258894697E+03  0.00000000000E+00 0.  1.
          4    1    1    2  502    0  0.74742210970E+02  0.72189755685E+02 -0.99222608613E+02  0.14367632020E+03  0.00000000000E+00 0.  1.
</event>
<event>
 7    1  0.9434649E-006  0.1049845E+04  0.7818608E-02  0.9146295E-01
         -4   -1    0    0    0  501 -0.00000000000E+00  0.00000000000E+00  0.17740023868E+04  0.17740023868E+04  0.00000000000E+00 0. -1.
          1   -1    0    0  501    0  0.00000000000E+00 -0.00000000000E+00 -0.66708847952E+03  0.66708847952E+03  0.00000000000E+00 0. -1.
   -9000010    2    1    2    0  502  0.38348076162E+03 -0.27574588550E+03  0.10247531747E+04  0.15135200888E+04  0.10087272685E+04 0.  0.
        -13    1    1    2    0    0 -0.16127784788E+03  0.99179362463E+02  0.43519674157E+03  0.47459804592E+03  0.10566000000E+00 0.  1.
         13    1    3    3    0    0  0.39887960337E+03 -0.34512098243E+03  0.12073737293E+04  0.13175601557E+04  0.10566000000E+00 0. -1.
          1    1    1    2  502    0 -0.22220291374E+03  0.17656652304E+03 -0.35303600900E+03  0.45297273161E+03  0.00000000000E+00 0. -1.
         -4    1    3    3    0  502 -0.15398841754E+02  0.69375096923E+02 -0.18262055462E+03  0.19595993307E+03  0.00000000000E+00 0. -1.
</event>
<event>
 7    1  0.9434649E-006  0.1006895E+04  0.7818608E-02  0.9250110E-01
          2   -1    0    0  501    0  0.00000000000E+00  0.00000000000E+00  0.12855119647E+04  0.12855119647E+04  0.00000000000E+00 0. -1.
         -4   -1    0    0    0  501 -0.00000000000E+00 -0.00000000000E+00 -0.39726686418E+03  0.39726686418E+03  0.00000000000E+00 0. -1.
   -9000010    2    1    2    0  502 -0.48527059082E+02  0.34331521486E+02  0.38634398291E+03  0.10705298686E+04  0.99661376551E+03 0.  0.
        -13    1    1    2    0    0  0.17333587817E+02 -0.16465364720E+03  0.11180624342E+03  0.19977968874E+03  0.10566000000E+00 0.  1.
         13    1    3    3    0    0 -0.44580857092E+03  0.72361307453E+02  0.48157876308E+03  0.66022689807E+03  0.10566000000E+00 0. -1.
          2    1    1    2  502    0  0.31193471265E+02  0.13032212571E+03  0.39009487414E+03  0.41246927150E+03  0.00000000000E+00 0. -1.
         -4    1    3    3    0  502  0.39728151184E+03 -0.38029785967E+02 -0.95234780173E+02  0.41030297053E+03  0.00000000000E+00 0. -1.
</event>
<event>
 7    1  0.9434649E-006  0.1484075E+04  0.7818608E-02  0.8842225E-01
          1   -1    0    0  501    0  0.00000000000E+00  0.00000000000E+00  0.12533046114E+04  0.12533046114E+04  0.00000000000E+00 0. -1.
         -4   -1    0    0    0  501 -0.00000000000E+00 -0.00000000000E+00 -0.20068370349E+04  0.20068370349E+04  0.00000000000E+00 0. -1.
   -9000010    2    1    2    0  502  0.70952652314E+03  0.94205038430E+03 -0.44425969426E+03  0.16142529239E+04  0.10087413012E+04 0.  0.
        -13    1    1    2    0    0 -0.22987971270E+03 -0.18582689789E+01 -0.52093299768E+03  0.56940261214E+03  0.10566000000E+00 0.  1.
         13    1    3    3    0    0  0.16946641316E+03 -0.20835873470E+03 -0.15779530771E+03  0.31149895315E+03  0.10566000000E+00 0. -1.
          1    1    1    2  502    0 -0.47964681044E+03 -0.94019211532E+03  0.21166026845E+03  0.10764861103E+04  0.00000000000E+00 0. -1.
         -4    1    3    3    0  502  0.54006010998E+03  0.11504091190E+04 -0.28646438655E+03  0.13027539707E+04  0.00000000000E+00 0. -1.
</event>
<event>
 7    1  0.9434649E-006  0.1029813E+04  0.7818608E-02  0.9111841E-01
          2   -1    0    0  501    0  0.00000000000E+00  0.00000000000E+00  0.16950869022E+04  0.16950869022E+04  0.00000000000E+00 0.  1.
         -4   -1    0    0    0  501 -0.00000000000E+00 -0.00000000000E+00 -0.19636462533E+04  0.19636462533E+04  0.00000000000E+00 0. -1.
   -9000010    2    1    2    0  502  0.15781152719E+03 -0.32778631450E+03 -0.12486482283E+04  0.16429291866E+04  0.10038653137E+04 0.  0.
        -13    1    1    2    0    0  0.29455314887E+02  0.21772684809E+03 -0.48618698656E+03  0.53352637519E+03  0.10566000000E+00 0.  1.
         13    1    3    3    0    0  0.32587405968E+03  0.20217065261E+03 -0.15031658154E+03  0.41190042656E+03  0.10566000000E+00 0. -1.
          2    1    1    2  502    0 -0.18726684208E+03  0.11005946641E+03  0.14662758637E+04  0.14822775937E+04  0.00000000000E+00 0.  1.
         -4    1    3    3    0  502 -0.16806253249E+03 -0.52995696711E+03 -0.10983316468E+04  0.12310287601E+04  0.00000000000E+00 0. -1.
</event>
<event>
 7    1  0.9434649E-006  0.9860951E+03  0.7818608E-02  0.9504833E-01
         -4   -1    0    0    0  501 -0.00000000000E+00  0.00000000000E+00  0.31282102423E+03  0.31282102423E+03  0.00000000000E+00 0. -1.
          5   -1    0    0  501    0  0.00000000000E+00 -0.00000000000E+00 -0.13751122373E+04  0.13751122373E+04  0.00000000000E+00 0. -1.
   -9000010    2    1    2    0  502  0.16370591814E+03  0.51504975749E+00 -0.80384723269E+03  0.12776229663E+04  0.97946422991E+03 0.  0.
        -13    1    1    2    0    0 -0.53959079410E+02 -0.24133769666E+02  0.52913188351E+02  0.79333711338E+02  0.10566000000E+00 0.  1.
         13    1    3    3    0    0  0.37213150618E+03  0.37850660502E+03 -0.59739992698E+03  0.79914691506E+03  0.10566000000E+00 0. -1.
          5    1    1    2  502    0 -0.10974683873E+03  0.23618719909E+02 -0.31135716873E+03  0.33097658385E+03  0.00000000000E+00 0. -1.
         -4    1    3    3    0  502 -0.20842558804E+03 -0.37799155526E+03 -0.20644730571E+03  0.47847605127E+03  0.00000000000E+00 0. -1.
</event>
<event>
 7    1  0.9434649E-006  0.1208745E+04  0.7818608E-02  0.8730245E-01
          2   -1    0    0  502    0  0.00000000000E+00  0.00000000000E+00  0.25198111411E+04  0.25198111411E+04  0.00000000000E+00 0. -1.
          4   -1    0    0  501    0 -0.00000000000E+00 -0.00000000000E+00 -0.78052989570E+03  0.78052989570E+03  0.00000000000E+00 0.  1.
    9000010    2    1    2  502    0 -0.55111741395E+03 -0.22151555625E+03  0.24006376132E+03  0.11844500464E+04  0.99623880530E+03 0.  0.
        -13    1    3    3    0    0 -0.48342181336E+02  0.37581771277E+03  0.68387736852E+02  0.38503611967E+03  0.10566000000E+00 0.  1.
         13    1    1    2    0    0  0.57322118441E+03  0.50359072679E+03  0.20355752496E+03  0.78969729865E+03  0.10566000000E+00 0. -1.
          2    1    1    2  501    0 -0.22103770459E+02 -0.28207517054E+03  0.12956599591E+04  0.13261936918E+04  0.00000000000E+00 0. -1.
          4    1    3    3  502    0 -0.50277523261E+03 -0.59733326902E+03  0.17167602447E+03  0.79941392669E+03  0.00000000000E+00 0.  1.
</event>
<event>
 6    1  0.9434649E-006  0.3147243E+03  0.7818608E-02  0.1020369E+00
         -4   -1    0    0    0  501 -0.00000000000E+00  0.00000000000E+00  0.84767686776E+02  0.84767686776E+02  0.00000000000E+00 0. -1.
          3   -1    0    0  501    0  0.00000000000E+00 -0.00000000000E+00 -0.92867006698E+03  0.92867006698E+03  0.00000000000E+00 0.  1.
        -13    1    1    2    0    0  0.15363069823E+03  0.69305516820E+02 -0.23535097614E+03  0.28947493715E+03  0.10566000000E+00 0.  1.
         13    1    1    2    0    0 -0.22577935259E+02  0.27028408375E+02  0.33546543520E+02  0.48638254143E+02  0.10566000000E+00 0. -1.
          3    1    1    2  502    0  0.99813516891E+01 -0.44912286430E+01 -0.22894932772E+03  0.22921080512E+03  0.00000000000E+00 0.  1.
         -4    1    1    2    0  502 -0.14103411466E+03 -0.91842696552E+02 -0.41314861985E+03  0.44611375735E+03  0.00000000000E+00 0. -1.
</event>
<event>
 7    1  0.9434649E-006  0.1029000E+04  0.7818608E-02  0.9149258E-01
          3   -1    0    0  501    0  0.00000000000E+00  0.00000000000E+00  0.15581348066E+03  0.15581348066E+03  0.00000000000E+00 0. -1.
         -4   -1    0    0    0  501 -0.00000000000E+00 -0.00000000000E+00 -0.26801673566E+04  0.26801673566E+04  0.00000000000E+00 0. -1.
   -9000010    2    1    2    0  502  0.28511502331E+02  0.20878542967E+03 -0.17940762272E+04  0.20694085333E+04  0.10096226558E+04 0.  0.
        -13    1    1    2    0    0 -0.28377217798E+02 -0.19555810037E+03 -0.72638449325E+03  0.75278328907E+03  0.10566000000E+00 0.  1.
         13    1    3    3    0    0 -0.13455499013E+03  0.13043686151E+03  0.67407195518E+02  0.19915461677E+03  0.10566000000E+00 0. -1.
          3    1    1    2  502    0 -0.13428453350E+00 -0.13227329304E+02 -0.38931554854E+01  0.13789014921E+02  0.00000000000E+00 0. -1.
         -4    1    3    3    0  502  0.16306649246E+03  0.78348568167E+02 -0.18614834227E+04  0.18702539165E+04  0.00000000000E+00 0. -1.
</event>
<event>
 7    1  0.9434649E-006  0.1068979E+04  0.7818608E-02  0.9470533E-01
         -4   -1    0    0    0  501 -0.00000000000E+00  0.00000000000E+00  0.14711961721E+04  0.14711961721E+04  0.00000000000E+00 0. -1.
          3   -1    0    0  501    0  0.00000000000E+00 -0.00000000000E+00 -0.41639325637E+03  0.41639325637E+03  0.00000000000E+00 0. -1.
   -9000010    2    1    2    0  502 -0.10490715782E+03  0.35183338958E+03  0.67726444288E+03  0.12620306850E+04  0.99962096740E+03 0.  0.
        -13    1    1    2    0    0 -0.52517832246E+02 -0.24325524390E+01  0.19334162169E+03  0.20036225657E+03  0.10566000000E+00 0.  1.
         13    1    3    3    0    0  0.14279509772E+03  0.59300120270E+03  0.68372820790E+03  0.91625604487E+03  0.10566000000E+00 0. -1.
          3    1    1    2  502    0  0.15742499007E+03 -0.34940083714E+03  0.18419685112E+03  0.42519648688E+03  0.00000000000E+00 0. -1.
         -4    1    3    3    0  502 -0.24770225554E+03 -0.24116781312E+03 -0.64637650182E+01  0.34577464011E+03  0.00000000000E+00 0. -1.
</event>
<event>
 7    1  0.9434649E-006  0.1059433E+04  0.7818608E-02  0.8963933E-01
          4   -1    0    0  501    0 -0.00000000000E+00  0.00000000000E+00  0.11532947889E+04  0.11532947889E+04  0.00000000000E+00 0.  1.
          2   -1    0    0  502    0  0.00000000000E+00 -0.00000000000E+00 -0.12632099806E+04  0.12632099806E+04  0.00000000000E+00 0.  1.
    9000010    2    1    2  502    0 -0.25641987263E+03  0.35776099116E+03 -0.44813417759E+03  0.11709327690E+04  0.98818785183E+03 0.  0.
        -13    1    3    3    0    0 -0.36033572106E+03 -0.22097102292E+03 -0.39838446595E+03  0.58084440147E+03  0.10566000000E+00 0.  1.
         13    1    1    2    0    0  0.22499980725E+03 -0.30459346481E+03  0.74415432965E+03  0.83496572958E+03  0.10566000000E+00 0. -1.
          2    1    1    2  501    0  0.31420065381E+02 -0.53167526349E+02 -0.40593534379E+03  0.41060627090E+03  0.00000000000E+00 0.  1.
          4    1    3    3  502    0  0.10391584842E+03  0.57873201409E+03 -0.49749711635E+02  0.59008836753E+03  0.00000000000E+00 0.  1.
</event>
<event>
 7    1  0.9434649E-006  0.1028453E+04  0.7818608E-02  0.9101375E-01
          2   -1    0    0  501    0  0.00000000000E+00  0.00000000000E+00  0.11983711851E+04  0.11983711851E+04  0.00000000000E+00 0. -1.
         -4   -1    0    0    0  501 -0.00000000000E+00 -0.00000000000E+00 -0.15178818148E+04  0.15178818148E+04  0.00000000000E+00 0. -1.
   -9000010    2    1    2    0  502 -0.15201081858E+03 -0.18280349816E+03 -0.66252015685E+03  0.12228628144E+04  0.99996804782E+03 0.  0.
        -13    1    1    2    0    0  0.12484357208E+03  0.20593836030E+03 -0.54961068459E+03  0.60005703188E+03  0.10566000000E+00 0.  1.
         13    1    3    3    0    0  0.31421885042E+03  0.10171530285E+03 -0.58419016751E+03  0.67108691819E+03  0.10566000000E+00 0. -1.
          2    1    1    2  502    0  0.27167246495E+02 -0.23134862140E+02  0.89262021172E+03  0.89333315370E+03  0.00000000000E+00 0. -1.
         -4    1    3    3    0  502 -0.46622966900E+03 -0.28451880101E+03 -0.78329989344E+02  0.55177589619E+03  0.00000000000E+00 0. -1.
</event>
<event>
 7    1  0.9434649E-006  0.9612620E+03  0.7818608E-02  0.9055352E-01
          2   -1    0    0  501    0  0.00000000000E+00  0.00000000000E+00  0.18614828262E+04  0.18614828262E+04  0.00000000000E+00 0. -1.
         -4   -1    0    0    0  501 -0.00000000000E+00 -0.00000000000E+00 -0.34872250700E+03  0.34872250700E+03  0.00000000000E+00 0. -1.
   -9000010    2    1    2    0  502  0.29046736827E+03  0.29268568494E+03  0.61462306993E+03  0.11605406829E+04  0.89389985811E+03 0.  0.
        -13    1    1    2    0    0 -0.26503707134E+03 -0.19605160378E+03  0.30810579634E+03  0.45123172920E+03  0.10566000000E+00 0.  1.
         13    1    3    3    0    0  0.28261085790E+03  0.23957383053E+03 -0.14585584208E+03  0.39816887763E+03  0.10566000000E+00 0. -1.
          2    1    1    2  502    0 -0.25430296924E+02 -0.96634081158E+02  0.59003145297E+03  0.59843292117E+03  0.00000000000E+00 0. -1.
         -4    1    3    3    0  502  0.78565103625E+01  0.53111854416E+02  0.76047891201E+03  0.76237180525E+03  0.00000000000E+00 0. -1.
</event>
<event>
 7    1  0.9434649E-006  0.1282146E+04  0.7818608E-02  0.8652565E-01
          2   -1    0    0  502    0  0.00000000000E+00  0.00000000000E+00  0.22461110241E+04  0.22461110241E+04  0.00000000000E+00 0.  1.
          4   -1    0    0  501    0 -0.00000000000E+00 -0.00000000000E+00 -0.99116730301E+03  0.99116730301E+03  0.00000000000E+00 0.  1.
    9000010    2    1    2  502    0 -0.85189580123E+03  0.36195111285E+02  0.34883286998E+03  0.13590839132E+04  0.99919375990E+03 0.  0.
        -13    1    3    3    0    0 -0.82040711675E+03  0.63663026413E+02  0.65397341197E+03  0.10510956440E+04  0.10566000000E+00 0.  1.
         13    1    1    2    0    0  0.78474449914E+03  0.48355452187E+02 -0.16357883182E+03  0.80306925235E+03  0.10566000000E+00 0. -1.
          2    1    1    2  501    0  0.67151302087E+02 -0.84550563472E+02  0.10696896829E+04  0.10751251615E+04  0.00000000000E+00 0.  1.
          4    1    3    3  502    0 -0.31488684475E+02 -0.27467915128E+02 -0.30514054199E+03  0.30798826922E+03  0.00000000000E+00 0.  1.
</event>
<event>
 7    1  0.9434649E-006  0.1016653E+04  0.7818608E-02  0.9316492E-01
          2   -1    0    0  502    0  0.00000000000E+00  0.00000000000E+00  0.23328219014E+04  0.23328219014E+04  0.00000000000E+00 0.  1.
          4   -1    0    0  501    0 -0.00000000000E+00 -0.00000000000E+00 -0.17366044910E+03  0.17366044910E+03  0.00000000000E+00 0.  1.
    9000010    2    1    2  502    0  0.11302766680E+03  0.18681678274E+02  0.20238998475E+04  0.22652035272E+04  0.10108670379E+04 0.  0.
        -13    1    3    3    0    0 -0.33164083742E+03  0.56154059988E+02  0.20845297351E+03  0.39571653596E+03  0.10566000000E+00 0.  1.
         13    1    1    2    0    0 -0.96113583877E+02 -0.49892877590E+02  0.73595887668E+01  0.10854167380E+03  0.10566000000E+00 0. -1.
          2    1    1    2  501    0 -0.16914082928E+02  0.31211199316E+02  0.12790201606E+03  0.13273714957E+03  0.00000000000E+00 0.  1.
          4    1    3    3  502    0  0.44466850423E+03 -0.37472381714E+02  0.18154468740E+04  0.18694869912E+04  0.00000000000E+00 0.  1.
</event>
<event>
 6    1  0.9434649E-006  0.4554115E+03  0.7818608E-02  0.9581451E-01
         -4   -1    0    0    0  501 -0.00000000000E+00  0.00000000000E+00  0.14209936554E+03  0.14209936554E+03  0.00000000000E+00 0. -1.
          2   -1    0    0  501    0  0.00000000000E+00 -0.00000000000E+00 -0.48648774743E+03  0.48648774743E+03  0.00000000000E+00 0. -1.
        -13    1    1    2    0    0  0.24375360835E+02  0.97656659134E+02 -0.19043450359E+02  0.10243849596E+03  0.10566000000E+00 0.  1.
         13    1    1    2    0    0  0.15449388831E+03 -0.56326320724E+02 -0.55294433939E+02  0.17348919713E+03  0.10566000000E+00 0. -1.
          2    1    1    2  502    0 -0.91744518898E+01  0.81569017684E+01 -0.12048835106E+03  0.12111213133E+03  0.00000000000E+00 0. -1.
         -4    1    1    2    0  502 -0.16969479726E+03 -0.49487240178E+02 -0.14956214653E+03  0.23154728854E+03  0.00000000000E+00 0. -1.
</event>
<event>
 6    1  0.9434649E-006  0.8838708E+03  0.7818608E-02  0.8892097E-01
          2   -1    0    0  501    0  0.00000000000E+00  0.00000000000E+00  0.91075944364E+03  0.91075944364E+03  0.00000000000E+00 0.  1.
         -4   -1    0    0    0  501 -0.00000000000E+00 -0.00000000000E+00 -0.13740963642E+04  0.13740963642E+04  0.00000000000E+00 0. -1.
        -13    1    1    2    0    0  0.78980339361E+02  0.28014228049E+03 -0.91093150615E+02  0.30498453170E+03  0.10566000000E+00 0.  1.
         13    1    1    2    0    0 -0.16343625131E+03 -0.26034930277E+03 -0.10628366593E+04  0.11063972809E+04  0.10566000000E+00 0. -1.
          2    1    1    2  502    0  0.14871611618E+02 -0.27370891094E+02  0.76827638738E+03  0.76890762639E+03  0.00000000000E+00 0.  1.
         -4    1    1    2    0  502  0.69584300336E+02  0.75779133818E+01 -0.77683497965E+02  0.10456636878E+03  0.00000000000E+00 0. -1.
</event>
<event>
 7    1  0.9434649E-006  0.1784925E+04  0.7818608E-02  0.8300281E-01
          1   -1    0    0  501    0  0.00000000000E+00  0.00000000000E+00  0.14443313524E+04  0.14443313524E+04  0.00000000000E+00 0.  1.
         -4   -1    0    0    0  501 -0.00000000000E+00 -0.00000000000E+00 -0.25580276307E+04  0.25580276307E+04  0.00000000000E+00 0. -1.
   -9000010    2    1    2    0  502  0.62568318598E+03  0.13591781402E+04 -0.10551617497E+04  0.20802468759E+04  0.98753029345E+03 0.  0.
        -13    1    1    2    0    0 -0.66828658244E+03 -0.13174598148E+04 -0.43576800712E+03  0.15401951458E+04  0.10566000000E+00 0.  1.
         13    1    3    3    0    0  0.48605461625E+03  0.22364566541E+03 -0.16937436790E+02  0.53530679201E+03  0.10566000000E+00 0. -1.
          1    1    1    2  502    0  0.42603396454E+02 -0.41718325412E+02  0.37723347849E+03  0.38191696134E+03  0.00000000000E+00 0.  1.
         -4    1    3    3    0  502  0.13962856973E+03  0.11355324748E+04 -0.10382243129E+04  0.15449400839E+04  0.00000000000E+00 0. -1.
</event>
<event>
 7    1  0.9434649E-006  0.1019754E+04  0.7818608E-02  0.9214851E-01
          2   -1    0    0  501    0  0.00000000000E+00  0.00000000000E+00  0.94406729634E+03  0.94406729634E+03  0.00000000000E+00 0. -1.
         -4   -1    0    0    0  501 -0.00000000000E+00 -0.00000000000E+00 -0.11659768425E+04  0.11659768425E+04  0.00000000000E+00 0. -1.
   -9000010    2    1    2    0  502 -0.15974090456E+03 -0.12153583091E+02 -0.31330692715E+03  0.10670937698E+04  0.10074040980E+04 0.  0.
        -13    1    1    2    0    0  0.15816662745E+03  0.11616869043E+01 -0.46257341737E+03  0.48886829431E+03  0.10566000000E+00 0.  1.
         13    1    3    3    0    0 -0.43481252931E+02 -0.50762846726E+03 -0.12646350332E+03  0.52494791072E+03  0.10566000000E+00 0. -1.
          2    1    1    2  502    0  0.15742771061E+01  0.10991896187E+02  0.55397079837E+03  0.55408207477E+03  0.00000000000E+00 0. -1.
         -4    1    3    3    0  502 -0.11625965163E+03  0.49547488417E+03 -0.18684342382E+03  0.54214585903E+03  0.00000000000E+00 0. -1.
</event>
<event>
 6    1  0.9434649E-006  0.1974307E+03  0.7818608E-02  0.1061912E+00
         -4   -1    0    0    0  501 -0.00000000000E+00  0.00000000000E+00  0.41730668481E+03  0.41730668481E+03  0.00000000000E+00 0. -1.
          1   -1    0    0  501    0  0.00000000000E+00 -0.00000000000E+00 -0.33226175944E+03  0.33226175944E+03  0.00000000000E+00 0. -1.
        -13    1    1    2    0    0  0.81579755826E+01 -0.11333604344E+02 -0.10922425302E+02  0.17728894256E+02  0.10566000000E+00 0.  1.
         13    1    1    2    0    0 -0.58730195802E+02  0.90479423458E+01  0.31743183347E+03  0.32294594164E+03  0.10566000000E+00 0. -1.
          1    1    1    2  502    0  0.10768539675E+02 -0.25336401091E+02 -0.30826249345E+03  0.30948935286E+03  0.00000000000E+00 0. -1.
         -4    1    1    2    0  502  0.39803680545E+02  0.27622063089E+02  0.86798010660E+02  0.99404255486E+02  0.00000000000E+00 0. -1.
</event>
<event>
 7    1  0.9434649E-006  0.1057194E+04  0.7818608E-02  0.9064547E-01
          2   -1    0    0  502    0  0.00000000000E+00  0.00000000000E+00  0.28786522105E+04  0.28786522105E+04  0.00000000000E+00 0. -1.
          4   -1    0    0  501    0 -0.00000000000E+00 -0.00000000000E+00 -0.30614221454E+03  0.30614221454E+03  0.00000000000E+00 0.  1.
    9000010    2    1    2  502    0 -0.49010743711E+02  0.18093901716E+03  0.73946570230E+03  0.12782764670E+04  0.10256901191E+04 0.  0.
        -13    1    3    3    0    0  0.20181361149E+03  0.42408912004E+03  0.10327520526E+02  0.46977333297E+03  0.10566000000E+00 0.  1.
         13    1    1    2    0    0  0.16667132833E+03 -0.26406602287E+03  0.72831308002E+03  0.79243305699E+03  0.10566000000E+00 0. -1.
          2    1    1    2  501    0 -0.11766058461E+03  0.83127005713E+02  0.11047312137E+04  0.11140849010E+04  0.00000000000E+00 0. -1.
          4    1    3    3  502    0 -0.25082435520E+03 -0.24315010289E+03  0.72913818178E+03  0.80850313408E+03  0.00000000000E+00 0.  1.
</event>
<event>
 7    1  0.9434649E-006  0.1104000E+04  0.7818608E-02  0.8912405E-01
          2   -1    0    0  501    0  0.00000000000E+00  0.00000000000E+00  0.23957239732E+04  0.23957239732E+04  0.00000000000E+00 0. -1.
         -4   -1    0    0    0  501 -0.00000000000E+00 -0.00000000000E+00 -0.37215672324E+03  0.37215672324E+03  0.00000000000E+00 0. -1.
   -9000010    2    1    2    0  502 -0.37687388183E+03  0.15541854005E+03  0.79492078051E+03  0.13575709576E+04  0.10222088887E+04 0.  0.
        -13    1    1    2    0    0  0.39877923878E+03 -0.13659135500E+03  0.39982063151E+03  0.58098074675E+03  0.10566000000E+00 0.  1.
         13    1    3    3    0    0 -0.57251185403E+03  0.14192670791E+03  0.94269803260E+03  0.11120218547E+04  0.10566000000E+00 0. -1.
          2    1    1    2  502    0 -0.21905356953E+02 -0.18827185053E+02  0.82882583791E+03  0.82932899210E+03  0.00000000000E+00 0. -1.
         -4    1    3    3    0  502  0.19563797220E+03  0.13491832142E+02 -0.14777725209E+03  0.24554910290E+03  0.00000000000E+00 0. -1.
</event>
<event>
 7    1  0.9434649E-006  0.1159048E+04  0.7818608E-02  0.8830346E-01
          1   -1    0    0  501    0  0.00000000000E+00  0.00000000000E+00  0.64232056958E+03  0.64232056958E+03  0.00000000000E+00 0. -1.
         -4   -1    0    0    0  501 -0.00000000000E+00 -0.00000000000E+00 -0.11950291187E+04  0.11950291187E+04  0.00000000000E+00 0. -1.
   -9000010    2    1    2    0  502 -0.30063447365E+03  0.40977001013E+03 -0.40058516995E+03  0.12267136007E+04  0.10421445350E+04 0.  0.
        -13    1    1    2    0    0  0.32056723934E+03 -0.39289451250E+03 -0.20868029795E+03  0.54834015976E+03  0.10566000000E+00 0.  1.
         13    1    3    3    0    0  0.22052549335E+03  0.51503453645E+03  0.12472026487E+01  0.56026211154E+03  0.10566000000E+00 0. -1.
          1    1    1    2  502    0 -0.19932765685E+02 -0.16875497635E+02  0.56556918763E+02  0.62295927862E+02  0.00000000000E+00 0. -1.
         -4    1    3    3    0  502 -0.52115996700E+03 -0.10526452632E+03 -0.40183237260E+03  0.66645148914E+03  0.00000000000E+00 0. -1.
</event>
<event>
 6    1  0.9434649E-006  0.3574999E+03  0.7818608E-02  0.9860521E-01
          4   -1    0    0  501    0 -0.00000000000E+00  0.00000000000E+00  0.92879251376E+02  0.92879251376E+02  0.00000000000E+00 0.  1.
          2   -1    0    0  502    0  0.00000000000E+00 -0.00000000000E+00 -0.12054051237E+04  0.12054051237E+04  0.00000000000E+00 0.  1.
        -13    1    1    2    0    0 -0.97329204377E+02 -0.10626785750E+03 -0.15205643636E+03  0.20949224942E+03  0.10566000000E+00 0.  1.
         13    1    1    2    0    0 -0.31466990780E+01  0.39009927352E+02  0.14808073899E+02  0.41844549988E+02  0.10566000000E+00 0. -1.
          2    1    1    2  501    0 -0.39024551668E+02  0.10723983195E+03 -0.84268682484E+03  0.85037896373E+03  0.00000000000E+00 0.  1.
          4    1    1    2  502    0  0.13950045512E+03 -0.39981901801E+02 -0.13259068505E+03  0.19656861197E+03  0.00000000000E+00 0.  1.
</event>
<event>
 7    1  0.9434649E-006  0.1094079E+04  0.7818608E-02  0.8897044E-01
         -4   -1    0    0    0  501 -0.00000000000E+00  0.00000000000E+00  0.81184750359E+03  0.81184750359E+03  0.00000000000E+00 0. -1.
          2   -1    0    0  501    0  0.00000000000E+00 -0.00000000000E+00 -0.10587930429E+04  0.10587930429E+04  0.00000000000E+00 0. -1.
   -9000010    2    1    2    0  502  0.42116328512E+03  0.18000481605E+03 -0.29349239169E+03  0.11333459299E+04  0.99426101521E+03 0.  0.
        -13    1    1    2    0    0 -0.40817419871E+03 -0.20425175756E+03  0.25783911174E+03  0.52421939650E+03  0.10566000000E+00 0.  1.
         13    1    3    3    0    0 -0.17702847297E+03 -0.93846610783E+01  0.24779271863E+03  0.30467752571E+03  0.10566000000E+00 0. -1.
          2    1    1    2  502    0 -0.12989086406E+02  0.24246941508E+02 -0.21129225940E+03  0.21307522010E+03  0.00000000000E+00 0. -1.
         -4    1    3    3    0  502  0.59819175808E+03  0.18938947713E+03 -0.54128511032E+03  0.82866840421E+03  0.00000000000E+00 0. -1.
</event>
<event>
 6    1  0.9434649E-006  0.3101154E+03  0.7818608E-02  0.1029649E+00
          2   -1    0    0  501    0  0.00000000000E+00  0.00000000000E+00  0.18938726558E+04  0.18938726558E+04  0.00000000000E+00 0.  1.
         -4   -1    0    0    0  501 -0.00000000000E+00 -0.00000000000E+00 -0.92042200859E+03  0.92042200859E+03  0.00000000000E+00 0. -1.
        -13    1    1    2    0    0 -0.70132319255E+02 -0.11420283304E+03 -0.48359804166E+02  0.14247635278E+03  0.10566000000E+00 0.  1.
         13    1    1    2    0    0 -0.91647369939E+02  0.18447382869E+03 -0.34079781075E+03  0.39821224600E+03  0.10566000000E+00 0. -1.
          2    1    1    2  502    0  0.23030826272E+03 -0.17218905806E+03  0.17981918321E+04  0.18210394923E+04  0.00000000000E+00 0.  1.
         -4    1    1    2    0  502 -0.68528573523E+02  0.10191806241E+03 -0.43558356997E+03  0.45256657329E+03  0.00000000000E+00 0. -1.
</event>
<event>
 7    1  0.9434649E-006  0.9489041E+03  0.7818608E-02  0.9318533E-01
          2   -1    0    0  501    0  0.00000000000E+00  0.00000000000E+00  0.93546956119E+03  0.93546956119E+03  0.00000000000E+00 0. -1.
         -4   -1    0    0    0  501 -0.00000000000E+00 -0.00000000000E+00 -0.14526101260E+04  0.14526101260E+04  0.00000000000E+00 0. -1.
   -9000010    2    1    2    0  502  0.23041413870E+02 -0.18035325482E+03 -0.66848334911E+03  0.11674220827E+04  0.93965213127E+03 0.  0.
        -13    1    1    2    0    0  0.71836141326E+01  0.13048731942E+03 -0.52539913668E+03  0.54140817211E+03  0.10566000000E+00 0.  1.
         13    1    3    3    0    0  0.23773579211E+03 -0.38501524160E+03 -0.18406149246E+02  0.45287287466E+03  0.10566000000E+00 0. -1.
          2    1    1    2  502    0 -0.30225028003E+02  0.49865935399E+02  0.67674192098E+03  0.67924943242E+03  0.00000000000E+00 0. -1.
         -4    1    3    3    0  502 -0.21469437824E+03  0.20466198678E+03 -0.65007719987E+03  0.71454920801E+03  0.00000000000E+00 0. -1.
</event>
<event>
 7    1  0.9434649E-006  0.1039753E+04  0.7818608E-02  0.9063519E-01
         -2   -1    0    0    0  501  0.00000000000E+00  0.00000000000E+00  0.85951676384E+03  0.85951676384E+03  0.00000000000E+00 0.  1.
         -4   -1    0    0    0  502 -0.00000000000E+00 -0.00000000000E+00 -0.15546579783E+04  0.15546579783E+04  0.00000000000E+00 0. -1.
   -9000010    2    1    2    0  501 -0.25559660069E+03 -0.97179757294E+02 -0.91850585251E+03  0.13879508431E+04  0.10039825767E+04 0.  0.
        -13    1    1    2    0    0  0.26240237187E+03  0.64116291845E+02 -0.35544084447E+03  0.44643488744E+03  0.10566000000E+00 0.  1.
         13    1    3    3    0    0 -0.50579786972E+03  0.27931668508E+03 -0.41561080745E+03  0.71174549525E+03  0.10566000000E+00 0. -1.
         -2    1    1    2    0  502 -0.68057711850E+01  0.33063465449E+02  0.57880548255E+03  0.57978901154E+03  0.00000000000E+00 0.  1.
         -4    1    3    3    0  501  0.25020126904E+03 -0.37649644237E+03 -0.50289504506E+03  0.67620534788E+03  0.00000000000E+00 0. -1.
</event>
<event>
 7    1  0.9434649E-006  0.1075325E+04  0.7818608E-02  0.8953452E-01
          2   -1    0    0  501    0  0.00000000000E+00  0.00000000000E+00  0.55204624932E+03  0.55204624932E+03  0.00000000000E+00 0. -1.
         -4   -1    0    0    0  501 -0.00000000000E+00 -0.00000000000E+00 -0.17729614516E+04  0.17729614516E+04  0.00000000000E+00 0. -1.
   -9000010    2    1    2    0  502 -0.15093587933E+03 -0.35266519980E+03 -0.13167904923E+04  0.17006095213E+04  0.10054755892E+04 0.  0.
        -13    1    1    2    0    0  0.16293138070E+03  0.34294048618E+03 -0.12748194763E+03  0.40050776524E+03  0.10566000000E+00 0.  1.
         13    1    3    3    0    0  0.29571121384E+03  0.15470892805E+03 -0.74089024109E+03  0.81258743216E+03  0.10566000000E+00 0. -1.
          2    1    1    2  502    0 -0.11995501374E+02  0.97247136217E+01  0.22335723757E+03  0.22389041445E+03  0.00000000000E+00 0. -1.
         -4    1    3    3    0  502 -0.44664709316E+03 -0.50737412786E+03 -0.57590025118E+03  0.88802208912E+03  0.00000000000E+00 0. -1.
</event>
<event>
 6    1  0.9434649E-006  0.1296804E+03  0.7818608E-02  0.1123079E+00
          2   -1    0    0  501    0  0.00000000000E+00  0.00000000000E+00  0.43768376820E+03  0.43768376820E+03  0.00000000000E+00 0.  1.
         -4   -1    0    0    0  501 -0.00000000000E+00 -0.00000000000E+00 -0.59524664015E+02  0.59524664015E+02  0.00000000000E+00 0. -1.
        -13    1    1    2    0    0  0.14791788164E+02 -0.40313754430E+02  0.32794688787E+02  0.54032384456E+02  0.10566000000E+00 0.  1.
         13    1    1    2    0    0 -0.91822484662E+01  0.40012737647E+02 -0.34785019938E+02  0.53808378874E+02  0.10566000000E+00 0. -1.
          2    1    1    2  502    0  0.43730552345E+01 -0.14498061777E+02  0.36671121753E+03  0.36702375191E+03  0.00000000000E+00 0.  1.
         -4    1    1    2    0  502 -0.99825949327E+01  0.14799078559E+02  0.13438217806E+02  0.22343916970E+02  0.00000000000E+00 0. -1.
</event>
<event>
 7    1  0.9434649E-006  0.1016927E+04  0.7818608E-02  0.9176233E-01
         -4   -1    0    0    0  501 -0.00000000000E+00  0.00000000000E+00  0.19472361934E+03  0.19472361934E+03  0.00000000000E+00 0. -1.
          2   -1    0    0  501    0  0.00000000000E+00 -0.00000000000E+00 -0.20652651629E+04  0.20652651629E+04  0.00000000000E+00 0. -1.
   -9000010    2    1    2    0  502  0.51171451963E+02  0.16848658010E+03 -0.15121572935E+04  0.18213788709E+04  0.99989752758E+03 0.  0.
        -13    1    1    2    0    0 -0.42814529295E+02 -0.18160143732E+03 -0.17902292345E+03  0.25857568377E+03  0.10566000000E+00 0.  1.
         13    1    3    3    0    0 -0.24066798644E+03 -0.17118726875E+03 -0.59519519221E+02  0.30127851734E+03  0.10566000000E+00 0. -1.
          2    1    1    2  502    0 -0.83569226680E+01  0.13114857220E+02 -0.17936132661E+03  0.18003422763E+03  0.00000000000E+00 0. -1.
         -4    1    3    3    0  502  0.29183943841E+03  0.33967384884E+03 -0.14526377743E+04  0.15201003535E+04  0.00000000000E+00 0. -1.
</event>
<event>
 7    1  0.9434649E-006  0.1158922E+04  0.7818608E-02  0.8788456E-01
          1   -1    0    0  501    0  0.00000000000E+00  0.00000000000E+00  0.12990985720E+04  0.12990985720E+04  0.00000000000E+00 0.  1.
         -4   -1    0    0    0  501 -0.00000000000E+00 -0.00000000000E+00 -0.76525676250E+03  0.76525676250E+03  0.00000000000E+00 0. -1.
   -9000010    2    1    2    0  502  0.37190503635E+03  0.56528206420E+03  0.56227993196E+03  0.13229775100E+04  0.98805546497E+03 0.  0.
        -13    1    1    2    0    0 -0.40958669474E+03 -0.42203094759E+03 -0.55792960924E+02  0.59074888648E+03  0.10566000000E+00 0.  1.
         13    1    3    3    0    0  0.27431067553E+03  0.67933048437E+03 -0.86202600244E+01  0.73267357927E+03  0.10566000000E+00 0. -1.
          1    1    1    2  502    0  0.37681658382E+02 -0.14325111661E+03  0.27354838461E+02  0.15062893804E+03  0.00000000000E+00 0.  1.
         -4    1    3    3    0  502  0.97594360826E+02 -0.11404842017E+03  0.57090019198E+03  0.59030393071E+03  0.00000000000E+00 0. -1.
</event>
<event>
 7    1  0.9434649E-006  0.1072264E+04  0.7818608E-02  0.8951410E-01
          2   -1    0    0  502    0  0.00000000000E+00  0.00000000000E+00  0.69702778890E+03  0.69702778890E+03  0.00000000000E+00 0.  1.
          4   -1    0    0  501    0 -0.00000000000E+00 -0.00000000000E+00 -0.15501672582E+04  0.15501672582E+04  0.00000000000E+00 0.  1.
    9000010    2    1    2  502    0  0.34406097315E+03 -0.25423117970E+02 -0.88869018715E+02  0.10612872623E+04  0.99970428754E+03 0.  0.
        -13    1    3    3    0    0 -0.27958984964E+03  0.31040374903E+02  0.22556628004E+03  0.36057474503E+03  0.10566000000E+00 0.  1.
         13    1    1    2    0    0 -0.38094874640E+03 -0.95133178176E+02 -0.91126233103E+03  0.99225567073E+03  0.10566000000E+00 0. -1.
          2    1    1    2  501    0  0.36887773248E+02  0.12055629615E+03  0.14699188044E+03  0.19365211404E+03  0.00000000000E+00 0.  1.
          4    1    3    3  502    0  0.62365082280E+03 -0.56463492874E+02 -0.31443529875E+03  0.70071251730E+03  0.00000000000E+00 0.  1.
</event>
<event>
 6    1  0.9434649E-006  0.3819592E+03  0.7818608E-02  0.9782644E-01
         -4   -1    0    0    0  501 -0.00000000000E+00  0.00000000000E+00  0.65014730649E+03  0.65014730649E+03  0.00000000000E+00 0. -1.
          1   -1    0    0  501    0  0.00000000000E+00 -0.00000000000E+00 -0.23130267582E+03  0.23130267582E+03  0.00000000000E+00 0.  1.
        -13    1    1    2    0    0 -0.12405124761E+03  0.70179043338E+02  0.33289311650E+03  0.36212104100E+03  0.10566000000E+00 0.  1.
         13    1    1    2    0    0  0.11573910521E+03 -0.73407584873E+02  0.28232758850E+03  0.31383609159E+03  0.10566000000E+00 0. -1.
          1    1    1    2  502    0 -0.18419933720E+01  0.20656296196E+02 -0.17453588702E+03  0.17576362357E+03  0.00000000000E+00 0.  1.
         -4    1    1    2    0  502  0.10154135772E+02 -0.17427754660E+02 -0.21840187316E+02  0.29729226155E+02  0.00000000000E+00 0. -1.
</event>
<event>
 7    1  0.9434649E-006  0.1319508E+04  0.7818608E-02  0.8610672E-01
         -4   -1    0    0    0  501 -0.00000000000E+00  0.00000000000E+00  0.21030606454E+04  0.21030606454E+04  0.00000000000E+00 0. -1.
          1   -1    0    0  501    0  0.00000000000E+00 -0.00000000000E+00 -0.68375875626E+03  0.68375875626E+03  0.00000000000E+00 0.  1.
   -9000010    2    1    2    0  502  0.83846458966E+02  0.89069637215E+03  0.87994759232E+03  0.15906635050E+04  0.97751335792E+03 0.  0.
        -13    1    1    2    0    0 -0.80072767583E+02 -0.87744617340E+03  0.64352602660E+03  0.10910770795E+04  0.10566000000E+00 0.  1.
         13    1    3    3    0    0  0.27628078054E+03  0.83355651275E+03  0.22623464127E+03  0.90682393756E+03  0.10566000000E+00 0. -1.
          1    1    1    2  502    0 -0.37736913837E+01 -0.13250198751E+02 -0.10417172982E+03  0.10507881712E+03  0.00000000000E+00 0.  1.
         -4    1    3    3    0  502 -0.19243432157E+03  0.57139859394E+02  0.65371295105E+03  0.68383956746E+03  0.00000000000E+00 0. -1.
</event>
<event>
 6    1  0.1194136E-005  0.8404394E+03  0.7818608E-02  0.8940966E-01
          1   -1    0    0  501    0  0.00000000000E+00  0.00000000000E+00  0.21928505301E+03  0.21928505301E+03  0.00000000000E+00 0.  1.
         -4   -1    0    0    0  501 -0.00000000000E+00 -0.00000000000E+00 -0.21937906199E+04  0.21937906199E+04  0.00000000000E+00 0. -1.
        -13    1    1    2    0    0  0.26446015796E+03 -0.30828026293E+03 -0.96288421956E+03  0.10450463756E+04  0.10566000000E+00 0.  1.
         13    1    1    2    0    0 -0.28923740906E+03  0.27456719460E+03 -0.10651020141E+04  0.11373160224E+04  0.10566000000E+00 0. -1.
          1    1    1    2  502    0 -0.17645103092E+00  0.10288405165E+02  0.13859440939E+03  0.13897587104E+03  0.00000000000E+00 0.  1.
         -4    1    1    2    0  502  0.24953702135E+02  0.23424663170E+02 -0.85113742667E+02  0.91737403962E+02  0.00000000000E+00 0. -1.
</event>
<event>
 7    1  0.9434649E-006  0.1663073E+04  0.7818608E-02  0.8367945E-01
          4   -1    0    0  501    0 -0.00000000000E+00  0.00000000000E+00  0.25175350549E+04  0.25175350549E+04  0.00000000000E+00 0.  1.
          2   -1    0    0  502    0  0.00000000000E+00 -0.00000000000E+00 -0.15727523698E+04  0.15727523698E+04  0.00000000000E+00 0.  1.
    9000010    2    1    2  502    0  0.51381061235E+03 -0.12767285129E+04 -0.65705999654E+03  0.18187067364E+04  0.99092346471E+03 0.  0.
        -13    1    3    3    0    0 -0.16569436909E+03 -0.88673794437E+03 -0.25147003864E+03  0.93648064445E+03  0.10566000000E+00 0.  1.
         13    1    1    2    0    0 -0.54743403528E+03  0.12066069123E+04  0.98790480333E+03  0.16527371768E+04  0.10566000000E+00 0. -1.
          2    1    1    2  501    0  0.33623422932E+02  0.70121600546E+02  0.61393787831E+03  0.61884351161E+03  0.00000000000E+00 0.  1.
          4    1    3    3  502    0  0.67950498144E+03 -0.38999056852E+03 -0.40558995790E+03  0.88222609193E+03  0.00000000000E+00 0.  1.
</event>
<event>
 7    1  0.9434649E-006  0.1095934E+04  0.7818608E-02  0.9262268E-01
          2   -1    0    0  502    0  0.00000000000E+00  0.00000000000E+00  0.20745038786E+04  0.20745038786E+04  0.00000000000E+00 0.  1.
          4   -1    0    0  501    0 -0.00000000000E+00 -0.00000000000E+00 -0.92543161247E+03  0.92543161247E+03  0.00000000000E+00 0.  1.
    9000010    2    1    2  502    0 -0.36692336375E+03  0.28612174538E+03  0.18385219797E+04  0.21433428685E+04  0.99862764537E+03 0.  0.
        -13    1    3    3    0    0 -0.14753243886E+03  0.63359379859E+03  0.83181626620E+03  0.10559949025E+04  0.10566000000E+00 0.  1.
         13    1    1    2    0    0  0.10333646154E+02 -0.10574034702E+03 -0.11224425931E+03  0.15455287168E+03  0.10566000000E+00 0. -1.
          2    1    1    2  501    0  0.35658971760E+03 -0.18038139836E+03 -0.57720545419E+03  0.70203975095E+03  0.00000000000E+00 0.  1.
          4    1    3    3  502    0 -0.21939092489E+03 -0.34747205321E+03  0.10067057135E+04  0.10873479660E+04  0.00000000000E+00 0.  1.
</event>
<event>
 7    1  0.9434649E-006  0.9975645E+03  0.7818608E-02  0.9365761E-01
         -4   -1    0    0    0  501 -0.00000000000E+00  0.00000000000E+00  0.66033220193E+03  0.66033220193E+03  0.00000000000E+00 0. -1.
          2   -1    0    0  501    0  0.00000000000E+00 -0.00000000000E+00 -0.98483871757E+03  0.98483871757E+03  0.00000000000E+00 0. -1.
   -9000010    2    1    2    0  502  0.11126416058E+02 -0.11787387515E+03  0.18858377071E+03  0.10078566048E+04  0.98295119398E+03 0.  0.
        -13    1    1    2    0    0  0.93504100122E+02 -0.18323624599E+02  0.10062641246E+01  0.95287961934E+02  0.10566000000E+00 0.  1.
         13    1    3    3    0    0  0.21946261367E+03  0.19885679721E+03  0.45613586397E+03  0.54384538442E+03  0.10566000000E+00 0. -1.
          2    1    1    2  502    0 -0.10463051618E+03  0.13619749975E+03 -0.51409655047E+03  0.54202635273E+03  0.00000000000E+00 0. -1.
         -4    1    3    3    0  502 -0.20833619762E+03 -0.31673067237E+03 -0.26755209326E+03  0.46401122041E+03  0.00000000000E+00 0. -1.
</event>
<event>
 7    1  0.9434649E-006  0.1031787E+04  0.7818608E-02  0.8959458E-01
          2   -1    0    0  501    0  0.00000000000E+00  0.00000000000E+00  0.15684048631E+04  0.15684048631E+04  0.00000000000E+00 0. -1.
         -4   -1    0    0    0  501 -0.00000000000E+00 -0.00000000000E+00 -0.17026145270E+04  0.17026145270E+04  0.00000000000E+00 0. -1.
   -9000010    2    1    2    0  502 -0.43049167528E+03  0.14981449024E+03 -0.51955301141E+03  0.11683151358E+04  0.94194344883E+03 0.  0.
        -13    1    1    2    0    0  0.22518249392E+03 -0.36659573274E+03 -0.78484206167E+03  0.89502885973E+03  0.10566000000E+00 0.  1.
         13    1    3    3    0    0 -0.44299529628E+03  0.59896151063E+02 -0.77640025355E+03  0.89589605776E+03  0.10566000000E+00 0. -1.
          2    1    1    2  502    0  0.20530918136E+03  0.21678124250E+03  0.11701854092E+04  0.12076753947E+04  0.00000000000E+00 0. -1.
         -4    1    3    3    0  502  0.12503621001E+02  0.89918339175E+02  0.25684724214E+03  0.27241907799E+03  0.00000000000E+00 0. -1.
</event>
<event>
 7    1  0.9434649E-006  0.1094349E+04  0.7818608E-02  0.8912356E-01
          2   -1    0    0  501    0  0.00000000000E+00  0.00000000000E+00  0.25909243052E+04  0.25909243052E+04  0.00000000000E+00 0. -1.
         -4   -1    0    0    0  501 -0.00000000000E+00 -0.00000000000E+00 -0.72575838633E+03  0.72575838633E+03  0.00000000000E+00 0. -1.
   -9000010    2    1    2    0  502  0.30291640385E+03  0.26798956709E+03 -0.16315280164E+02  0.10853839307E+04  0.10070825849E+04 0.  0.
        -13    1    1    2    0    0 -0.39230106283E+03 -0.20982315602E+03  0.11221641536E+03  0.45882285878E+03  0.10566000000E+00 0.  1.
         13    1    3    3    0    0  0.24834145795E+03  0.61129493970E+03 -0.20361749009E+03  0.69051797694E+03  0.10566000000E+00 0. -1.
          2    1    1    2  502    0  0.89384658983E+02 -0.58166411065E+02  0.17692647837E+04  0.17724759021E+04  0.00000000000E+00 0. -1.
         -4    1    3    3    0  502  0.54574945902E+02 -0.34330537262E+03  0.18730220992E+03  0.39486595375E+03  0.00000000000E+00 0. -1.
</event>
<event>
 7    1  0.9434649E-006  0.1120752E+04  0.7818608E-02  0.9027260E-01
          2   -1    0    0  502    0  0.00000000000E+00  0.00000000000E+00  0.57817325577E+04  0.57817325577E+04  0.00000000000E+00 0.  1.
          4   -1    0    0  501    0 -0.00000000000E+00 -0.00000000000E+00 -0.16224716197E+03  0.16224716197E+03  0.00000000000E+00 0.  1.
    9000010    2    1    2  502    0 -0.41290937642E+03 -0.40080924833E+03  0.33701666858E+04  0.35628360656E+04  0.10023148874E+04 0.  0.
        -13    1    3    3    0    0  0.70930060181E+02 -0.52727302991E+03  0.92529536830E+03  0.10673422372E+04  0.10566000000E+00 0.  1.
         13    1    1    2    0    0  0.24259536285E+03 -0.58846839480E+02  0.43264365884E+03  0.49949575302E+03  0.10566000000E+00 0. -1.
          2    1    1    2  501    0  0.17031401357E+03  0.45965608781E+03  0.18166750510E+04  0.18816479010E+04  0.00000000000E+00 0.  1.
          4    1    3    3  502    0 -0.48383943660E+03  0.12646378158E+03  0.24448713175E+04  0.24954938284E+04  0.00000000000E+00 0.  1.
</event>
<event>
 7    1  0.9434649E-006  0.9647451E+03  0.7818608E-02  0.9054899E-01
          2   -1    0    0  502    0  0.00000000000E+00  0.00000000000E+00  0.63703224682E+03  0.63703224682E+03  0.00000000000E+00 0.  1.
          4   -1    0    0  501    0 -0.00000000000E+00 -0.00000000000E+00 -0.22238768542E+04  0.22238768542E+04  0.00000000000E+00 0.  1.
    9000010    2    1    2  502    0  0.35052862362E+03  0.84575424347E+02 -0.85477108137E+03  0.12917667781E+04  0.89889069921E+03 0.  0.
        -13    1    3    3    0    0 -0.43252541030E+01 -0.11449164105E+03  0.16096024811E+03  0.19757342010E+03  0.10566000000E+00 0.  1.
         13    1    1    2    0    0 -0.33626827777E+03 -0.93804330719E+02 -0.11239389999E+04  0.11769088723E+04  0.10566000000E+00 0. -1.
          2    1    1    2  501    0 -0.14260345849E+02  0.92289063722E+01  0.39186547385E+03  0.39223345061E+03  0.00000000000E+00 0.  1.
          4    1    3    3  502    0  0.35485387773E+03  0.19906706540E+03 -0.10157313295E+04  0.10941933580E+04  0.00000000000E+00 0.  1.
</event>
<event>
 6    1  0.9434649E-006  0.6263901E+03  0.7818608E-02  0.9546257E-01
          2   -1    0    0  501    0  0.00000000000E+00  0.00000000000E+00  0.20431532041E+04  0.20431532041E+04  0.00000000000E+00 0. -1.
         -4   -1    0    0    0  501 -0.00000000000E+00 -0.00000000000E+00 -0.26613149285E+03  0.26613149285E+03  0.00000000000E+00 0. -1.
        -13    1    1    2    0    0  0.65432434306E+02  0.18745969191E+03  0.69765609139E+01  0.19867365984E+03  0.10566000000E+00 0.  1.
         13    1    1    2    0    0 -0.19122707072E+03  0.32126045691E+03  0.56248594297E+03  0.67540100752E+03  0.10566000000E+00 0. -1.
          2    1    1    2  502    0 -0.48066554049E+01 -0.47958209151E+03  0.42352933735E+03  0.63984309486E+03  0.00000000000E+00 0. -1.
         -4    1    1    2    0  502  0.13060129182E+03 -0.29138057306E+02  0.78402987002E+03  0.79536693475E+03  0.00000000000E+00 0. -1.
</event>
<event>
 6    1  0.9434649E-006  0.2543204E+03  0.7818608E-02  0.1028178E+00
         -4   -1    0    0    0  501 -0.00000000000E+00  0.00000000000E+00  0.55289697356E+03  0.55289697356E+03  0.00000000000E+00 0. -1.
          4   -1    0    0  501    0  0.00000000000E+00 -0.00000000000E+00 -0.18618051146E+03  0.18618051146E+03  0.00000000000E+00 0.  1.
        -13    1    1    2    0    0 -0.95482554319E+02  0.46853479720E+01  0.12743800204E+03  0.15930890180E+03  0.10566000000E+00 0.  1.
         13    1    1    2    0    0  0.77287165333E+02 -0.23189398831E+02  0.39846401340E+03  0.40655213108E+03  0.10566000000E+00 0. -1.
          4    1    1    2  502    0  0.30500121620E+02  0.11603537018E+02 -0.15514763008E+03  0.15854238112E+03  0.00000000000E+00 0.  1.
         -4    1    1    2    0  502 -0.12304732634E+02  0.69005138406E+01 -0.40379232582E+01  0.14674071033E+02  0.00000000000E+00 0. -1.
</event>
<event>
 7    1  0.9434649E-006  0.1067376E+04  0.7818608E-02  0.8919602E-01
          5   -1    0    0  501    0  0.00000000000E+00  0.00000000000E+00  0.99490340960E+03  0.99490340960E+03  0.00000000000E+00 0.  1.
         -4   -1    0    0    0  501 -0.00000000000E+00 -0.00000000000E+00 -0.20084969897E+04  0.20084969897E+04  0.00000000000E+00 0. -1.
   -9000010    2    1    2    0  502  0.13729196556E+03  0.43462597450E+03 -0.63043848876E+03  0.12425156827E+04  0.96883626699E+03 0.  0.
        -13    1    1    2    0    0 -0.14108894213E+03 -0.42388678398E+03 -0.10254228085E+04  0.11185160002E+04  0.10566000000E+00 0.  1.
         13    1    3    3    0    0  0.16618495791E+03 -0.62484352330E+02  0.20422011077E+03  0.27060598539E+03  0.10566000000E+00 0. -1.
          5    1    1    2  502    0  0.37969765630E+01 -0.10739190525E+02  0.64226771719E+03  0.64236871638E+03  0.00000000000E+00 0.  1.
         -4    1    3    3    0  502 -0.28892992348E+02  0.49711032683E+03 -0.83465859953E+03  0.97190969736E+03  0.00000000000E+00 0. -1.
</event>
<event>
 7    1  0.9434649E-006  0.1014004E+04  0.7818608E-02  0.9220181E-01
          4   -1    0    0  501    0 -0.00000000000E+00  0.00000000000E+00  0.94522336092E+03  0.94522336092E+03  0.00000000000E+00 0.  1.
          2   -1    0    0  502    0  0.00000000000E+00 -0.00000000000E+00 -0.11878997855E+04  0.11878997855E+04  0.00000000000E+00 0.  1.
    9000010    2    1    2  502    0  0.11955815823E+03  0.91503155957E+02  0.54513076854E+03  0.11502968774E+04  0.10016727862E+04 0.  0.
        -13    1    3    3    0    0 -0.82574344729E+02  0.46361802477E+03  0.14145651788E+02  0.47112663471E+03  0.10566000000E+00 0.  1.
         13    1    1    2    0    0 -0.14837197443E+03 -0.60358596353E+02  0.30805581056E+02  0.16311467726E+03  0.10566000000E+00 0. -1.
          2    1    1    2  501    0  0.28813816198E+02 -0.31144559603E+02 -0.81861277416E+03  0.81971159173E+03  0.00000000000E+00 0.  1.
          4    1    3    3  502    0  0.20213250296E+03 -0.37211486882E+03  0.53098511675E+03  0.67917024269E+03  0.00000000000E+00 0.  1.
</event>
<event>
 7    1  0.9434649E-006  0.1142330E+04  0.7818608E-02  0.8814895E-01
          1   -1    0    0  501    0  0.00000000000E+00  0.00000000000E+00  0.20426095341E+04  0.20426095341E+04  0.00000000000E+00 0.  1.
         -4   -1    0    0    0  501 -0.00000000000E+00 -0.00000000000E+00 -0.23383294264E+04  0.23383294264E+04  0.00000000000E+00 0. -1.
   -9000010    2    1    2    0  502 -0.41124241881E+03  0.38879600942E+03 -0.17201844377E+04  0.20650513365E+04  0.99253204414E+03 0.  0.
        -13    1    1    2    0    0  0.39115398576E+03 -0.40827978986E+03 -0.26623258440E+03  0.62495890069E+03  0.10566000000E+00 0.  1.
         13    1    3    3    0    0  0.16551710629E+03 -0.26207685003E+02  0.35265723069E+02  0.17124963538E+03  0.10566000000E+00 0. -1.
          1    1    1    2  502    0  0.20088433049E+02  0.19483780441E+02  0.16906971298E+04  0.16909287234E+04  0.00000000000E+00 0.  1.
         -4    1    3    3    0  502 -0.57675952511E+03  0.41500369442E+03 -0.17554501608E+04  0.18938017011E+04  0.00000000000E+00 0. -1.
</event>
<event>
 7    1  0.9434649E-006  0.1132561E+04  0.7818608E-02  0.9032632E-01
          4   -1    0    0  501    0 -0.00000000000E+00  0.00000000000E+00  0.30655338392E+03  0.30655338392E+03  0.00000000000E+00 0.  1.
          2   -1    0    0  502    0  0.00000000000E+00 -0.00000000000E+00 -0.20205326029E+04  0.20205326029E+04  0.00000000000E+00 0.  1.
    9000010    2    1    2  502    0 -0.51228533309E+01  0.21032139072E+03 -0.12250300884E+04  0.16648153296E+04  0.11075423393E+04 0.  0.
        -13    1    3    3    0    0  0.13982154517E+03  0.16394243574E+03  0.16192822428E+03  0.26953283235E+03  0.10566000000E+00 0.  1.
         13    1    1    2    0    0 -0.13288442252E+03 -0.20590166925E+03 -0.12941047642E+03  0.27712966229E+03  0.10566000000E+00 0. -1.
          2    1    1    2  501    0  0.13800727585E+03 -0.44197214712E+01 -0.35953865423E+03  0.38514099497E+03  0.00000000000E+00 0.  1.
          4    1    3    3  502    0 -0.14494439850E+03  0.46378954974E+02 -0.13869583127E+04  0.13952824973E+04  0.00000000000E+00 0.  1.
</event>
<event>
 7    1  0.9434649E-006  0.1032511E+04  0.7818608E-02  0.9178868E-01
         -4   -1    0    0    0  501 -0.00000000000E+00  0.00000000000E+00  0.14020019110E+04  0.14020019110E+04  0.00000000000E+00 0. -1.
          1   -1    0    0  501    0  0.00000000000E+00 -0.00000000000E+00 -0.97685619422E+03  0.97685619422E+03  0.00000000000E+00 0. -1.
   -9000010    2    1    2    0  502 -0.49238086389E+02  0.21580724551E+03 -0.19469015273E+03  0.10382288286E+04  0.99549871348E+03 0.  0.
        -13    1    1    2    0    0  0.16939620900E+03  0.44928819473E+02  0.91337505466E+03  0.93003638427E+03  0.10566000000E+00 0.  1.
         13    1    3    3    0    0  0.22243904657E+03  0.23481345567E+03 -0.52097941854E+03  0.61321778685E+03  0.10566000000E+00 0. -1.
          1    1    1    2  502    0 -0.12015812261E+03 -0.26073606498E+03 -0.29353918518E+03  0.41059289235E+03  0.00000000000E+00 0. -1.
         -4    1    3    3    0  502 -0.27167713296E+03 -0.19006210160E+02  0.32628926582E+03  0.42501104172E+03  0.00000000000E+00 0. -1.
</event>
<event>
 7    1  0.9434649E-006  0.8624622E+03  0.7818608E-02  0.9101091E-01
          4   -1    0    0  501    0  0.00000000000E+00  0.00000000000E+00  0.19379190998E+04  0.19379190998E+04  0.00000000000E+00 0.  1.
         -4   -1    0    0    0  501 -0.00000000000E+00 -0.00000000000E+00 -0.54047349259E+03  0.54047349259E+03  0.00000000000E+00 0. -1.
   -9000010    2    1    2    0  502  0.28353085684E+03 -0.29732139293E+03  0.19467197686E+03  0.88545502050E+03  0.75983133475E+03 0.  0.
        -13    1    1    2    0    0 -0.25967454957E+03  0.31368791646E+03  0.17801597608E+02  0.40761242458E+03  0.10566000000E+00 0.  1.
         13    1    3    3    0    0  0.38433833809E+03  0.10878637161E+03  0.23770403428E+03  0.46481571816E+03  0.10566000000E+00 0. -1.
          4    1    1    2  502    0 -0.23856307270E+02 -0.16366523522E+02  0.11849720327E+04  0.11853251473E+04  0.00000000000E+00 0.  1.
         -4    1    3    3    0  502 -0.10080748125E+03 -0.40610776455E+03 -0.43032057411E+02  0.42063930233E+03  0.00000000000E+00 0. -1.
</event>
<event>
 7    1  0.9434649E-006  0.1008239E+04  0.7818608E-02  0.9449194E-01
          2   -1    0    0  502    0  0.00000000000E+00  0.00000000000E+00  0.42434935232E+03  0.42434935232E+03  0.00000000000E+00 0. -1.
          4   -1    0    0  501    0 -0.00000000000E+00 -0.00000000000E+00 -0.20033839562E+04  0.20033839562E+04  0.00000000000E+00 0.  1.
    9000010    2    1    2  502    0  0.51367499824E+02  0.75819239475E+02 -0.17477374068E+04  0.20186451686E+04  0.10059597887E+04 0.  0.
        -13    1    3    3    0    0  0.47204339512E+03 -0.31553299906E+02 -0.46070393818E+03  0.66035498592E+03  0.10566000000E+00 0.  1.
         13    1    1    2    0    0  0.14873433165E+02 -0.66310904323E+02 -0.10624125308E+03  0.12611728694E+03  0.10566000000E+00 0. -1.
          2    1    1    2  501    0 -0.66240932989E+02 -0.95083351514E+01  0.27494405604E+03  0.28297085290E+03  0.00000000000E+00 0. -1.
          4    1    3    3  502    0 -0.42067589529E+03  0.10737253938E+03 -0.12870334686E+04  0.13582901827E+04  0.00000000000E+00 0.  1.
</event>
<event>
 7    1  0.9434649E-006  0.1050401E+04  0.7818608E-02  0.8869090E-01
         -4   -1    0    0    0  501 -0.00000000000E+00  0.00000000000E+00  0.54360243680E+03  0.54360243680E+03  0.00000000000E+00 0. -1.
          2   -1    0    0  501    0  0.00000000000E+00 -0.00000000000E+00 -0.28932354694E+04  0.28932354694E+04  0.00000000000E+00 0.  1.
   -9000010    2    1    2    0  502  0.49602804087E+03  0.32502043184E+03 -0.53168223933E+03  0.11840265585E+04  0.87609975987E+03 0.  0.
        -13    1    1    2    0    0 -0.49841179953E+03 -0.28436605533E+03 -0.16185868667E+03  0.59621860164E+03  0.10566000000E+00 0.  1.
         13    1    3    3    0    0  0.36480140222E+03  0.25079500679E+03  0.16407535745E+03  0.47212173491E+03  0.10566000000E+00 0. -1.
          2    1    1    2  502    0  0.23837586528E+01 -0.40654376514E+02 -0.16560921066E+04  0.16565927460E+04  0.00000000000E+00 0.  1.
         -4    1    3    3    0  502  0.13122663865E+03  0.74225425050E+02 -0.69575759678E+03  0.71190482362E+03  0.00000000000E+00 0. -1.
</event>
<event>
 7    1  0.9434649E-006  0.1179038E+04  0.7818608E-02  0.8777579E-01
          1   -1    0    0  501    0  0.00000000000E+00  0.00000000000E+00  0.10520492214E+04  0.10520492214E+04  0.00000000000E+00 0. -1.
         -4   -1    0    0    0  501 -0.00000000000E+00 -0.00000000000E+00 -0.26600427470E+04  0.26600427470E+04  0.00000000000E+00 0. -1.
   -9000010    2    1    2    0  502  0.19646186808E+03  0.50890482023E+03 -0.10014896409E+04  0.15257105698E+04  0.10135234878E+04 0.  0.
        -13    1    1    2    0    0 -0.30676065379E+03 -0.53723726470E+03 -0.13232078451E+04  0.14606864789E+04  0.10566000000E+00 0.  1.
         13    1    3    3    0    0  0.20412314702E+03 -0.28545083389E+03 -0.37865791764E+03  0.51626569465E+03  0.10566000000E+00 0. -1.
          1    1    1    2  502    0  0.11029878571E+03  0.28332444468E+02  0.71670396046E+03  0.72569491970E+03  0.00000000000E+00 0. -1.
         -4    1    3    3    0  502 -0.76612789327E+01  0.79435565413E+03 -0.62283172330E+03  0.10094448752E+04  0.00000000000E+00 0. -1.
</event>
<event>
 6    1  0.9434649E-006  0.6943265E+03  0.7818608E-02  0.9131249E-01
          4   -1    0    0  501    0 -0.00000000000E+00  0.00000000000E+00  0.52052762826E+03  0.52052762826E+03  0.00000000000E+00 0.  1.
          2   -1    0    0  502    0  0.00000000000E+00 -0.00000000000E+00 -0.70644168385E+03  0.70644168385E+03  0.00000000000E+00 0.  1.
        -13    1    1    2    0    0  0.12876138488E+03  0.28505310381E+03  0.27554220151E+03  0.41684323457E+03  0.10566000000E+00 0.  1.
         13    1    1    2    0    0  0.55291817229E+01 -0.89032800193E+02  0.52632205279E+02  0.10357399074E+03  0.10566000000E+00 0. -1.
          2    1    1    2  501    0  0.26409974183E+01 -0.13430572712E+02 -0.47476043192E+03  0.47495770640E+03  0.00000000000E+00 0.  1.
          4    1    1    2  502    0 -0.13693156402E+03 -0.18258973090E+03 -0.39328030460E+02  0.23159438041E+03  0.00000000000E+00 0.  1.
</event>
<event>
 6    1  0.9434649E-006  0.9813797E+03  0.7818608E-02  0.8792286E-01
          1   -1    0    0  501    0  0.00000000000E+00  0.00000000000E+00  0.48036226515E+03  0.48036226515E+03  0.00000000000E+00 0. -1.
         -4   -1    0    0    0  501 -0.00000000000E+00 -0.00000000000E+00 -0.14362763188E+04  0.14362763188E+04  0.00000000000E+00 0. -1.
        -13    1    1    2    0    0 -0.35876997542E+03  0.47335836595E+02 -0.65342450264E+03  0.74694053880E+03  0.10566000000E+00 0.  1.
         13    1    1    2    0    0  0.34427171268E+03 -0.91194813812E+02 -0.68566366736E+03  0.77264104351E+03  0.10566000000E+00 0. -1.
          1    1    1    2  502    0  0.10437077078E+02 -0.20179922917E+01  0.31262197031E+03  0.31280265534E+03  0.00000000000E+00 0. -1.
         -4    1    1    2    0  502  0.40611856668E+01  0.45876969509E+02  0.70552146035E+02  0.84254346301E+02  0.00000000000E+00 0. -1.
</event>
<event>
 7    1  0.9434649E-006  0.1213042E+04  0.7818608E-02  0.8725859E-01
         -4   -1    0    0    0  501 -0.00000000000E+00  0.00000000000E+00  0.10448156444E+04  0.10448156444E+04  0.00000000000E+00 0. -1.
          4   -1    0    0  501    0  0.00000000000E+00 -0.00000000000E+00 -0.23261385790E+04  0.23261385790E+04  0.00000000000E+00 0.  1.
   -9000010    2    1    2    0  502  0.18428608571E+03 -0.69319984844E+03  0.37323285680E+03  0.12841034514E+04  0.99756278861E+03 0.  0.
        -13    1    1    2    0    0  0.16841631101E+03  0.68320255054E+03 -0.45854213774E+03  0.83987539679E+03  0.10566000000E+00 0.  1.
         13    1    3    3    0    0  0.19643907069E+03 -0.48651682735E+03  0.71359140021E+03  0.88571983686E+03  0.10566000000E+00 0. -1.
          4    1    1    2  502    0 -0.35270239672E+03  0.99972978919E+01 -0.11960136537E+04  0.12469753752E+04  0.00000000000E+00 0.  1.
         -4    1    3    3    0  502 -0.12152984982E+02 -0.20668302109E+03 -0.34035854342E+03  0.39838361453E+03  0.00000000000E+00 0. -1.
</event>
<event>
 7    1  0.9434649E-006  0.9135745E+03  0.7818608E-02  0.9523271E-01
         -4   -1    0    0    0  501 -0.00000000000E+00  0.00000000000E+00  0.16991014588E+03  0.16991014588E+03  0.00000000000E+00 0. -1.
          1   -1    0    0  501    0  0.00000000000E+00 -0.00000000000E+00 -0.15485954438E+04  0.15485954438E+04  0.00000000000E+00 0. -1.
   -9000010    2    1    2    0  502 -0.54783785168E+02  0.33768985334E+02 -0.11966979850E+04  0.15053276964E+04  0.91092469438E+03 0.  0.
        -13    1    1    2    0    0  0.29892535990E+02 -0.64442273806E+02 -0.12622080512E+03  0.14483809295E+03  0.10566000000E+00 0.  1.
         13    1    3    3    0    0 -0.16335466914E+02  0.11836220674E+03  0.12931389860E+03  0.17606406504E+03  0.10566000000E+00 0. -1.
          1    1    1    2  502    0  0.24891249178E+02  0.30673288473E+02 -0.55766507805E+02  0.68339800293E+02  0.00000000000E+00 0. -1.
         -4    1    3    3    0  502 -0.38448318253E+02 -0.84593221411E+02 -0.13260118836E+04  0.13292636314E+04  0.00000000000E+00 0. -1.
</event>
<event>
 7    1  0.9434649E-006  0.1050369E+04  0.7818608E-02  0.9008701E-01
          2   -1    0    0  501    0  0.00000000000E+00  0.00000000000E+00  0.10630571382E+04  0.10630571382E+04  0.00000000000E+00 0. -1.
         -4   -1    0    0    0  501 -0.00000000000E+00 -0.00000000000E+00 -0.13597346880E+04  0.13597346880E+04  0.00000000000E+00 0. -1.
   -9000010    2    1    2    0  502 -0.10608659306E+03  0.30415260345E+03 -0.79622216305E+03  0.13168946761E+04  0.99823778911E+03 0.  0.
        -13    1    1    2    0    0  0.99237780240E+02 -0.31307863026E+03 -0.21417200704E+03  0.39209185851E+03  0.10566000000E+00 0.  1.
         13    1    3    3    0    0  0.32701765173E+02  0.19832230419E+03 -0.10163133258E+04  0.10359990006E+04  0.10566000000E+00 0. -1.
          2    1    1    2  502    0  0.68488128234E+01  0.89260268039E+01  0.71371662032E+03  0.71380529160E+03  0.00000000000E+00 0. -1.
         -4    1    3    3    0  502 -0.13878835824E+03  0.10583029926E+03  0.22009116275E+03  0.28089567555E+03  0.00000000000E+00 0. -1.
</event>
<event>
 7    1  0.9434649E-006  0.1285995E+04  0.7818608E-02  0.8716816E-01
          2   -1    0    0  502    0  0.00000000000E+00  0.00000000000E+00  0.20625663446E+04  0.20625663446E+04  0.00000000000E+00 0. -1.
          4   -1    0    0  501    0 -0.00000000000E+00 -0.00000000000E+00 -0.15455299497E+04  0.15455299497E+04  0.00000000000E+00 0.  1.
    9000010    2    1    2  502    0 -0.15677671248E+03 -0.56302744483E+03 -0.10375567412E+04  0.16459536250E+04  0.11362484337E+04 0.  0.
        -13    1    3    3    0    0 -0.12675743058E+03 -0.83191061035E+03 -0.35796115680E+03  0.91448286521E+03  0.10566000000E+00 0.  1.
         13    1    1    2    0    0 -0.48311095335E+02  0.65777599862E+03  0.37008814382E+03  0.75628597214E+03  0.10566000000E+00 0. -1.
          2    1    1    2  501    0  0.20508780782E+03 -0.94748553792E+02  0.11845049924E+04  0.12058566972E+04  0.00000000000E+00 0. -1.
          4    1    3    3  502    0 -0.30019281906E+02  0.26888316553E+03 -0.67959558444E+03  0.73147075976E+03  0.00000000000E+00 0.  1.
</event>
<event>
 7    1  0.9434649E-006  0.9139827E+03  0.7818608E-02  0.9282931E-01
          2   -1    0    0  501    0  0.00000000000E+00  0.00000000000E+00  0.65571344855E+03  0.65571344855E+03  0.00000000000E+00 0.  1.
         -4   -1    0    0    0  501 -0.00000000000E+00 -0.00000000000E+00 -0.82348965097E+03  0.82348965097E+03  0.00000000000E+00 0. -1.
   -9000010    2    1    2    0  502  0.14241358344E+03 -0.33633756816E+02 -0.22169338146E+03  0.93662513323E+03  0.89816803911E+03 0.  0.
        -13    1    1    2    0    0 -0.16357587622E+03  0.50682967913E+02 -0.21355074533E+03  0.27373301320E+03  0.10566000000E+00 0.  1.
         13    1    3    3    0    0  0.33113323934E+03 -0.10068184073E+03 -0.49117854737E+03  0.60086806522E+03  0.10566000000E+00 0. -1.
          2    1    1    2  502    0  0.21162292781E+02 -0.17049211097E+02  0.26746792438E+03  0.26884495310E+03  0.00000000000E+00 0.  1.
         -4    1    3    3    0  502 -0.18871965590E+03  0.67048083914E+02  0.26948516590E+03  0.33575706801E+03  0.00000000000E+00 0. -1.
</event>
<event>
 7    1  0.9434649E-006  0.9729663E+03  0.7818608E-02  0.9111570E-01
          4   -1    0    0  502    0  0.00000000000E+00  0.00000000000E+00  0.70909585300E+03  0.70909585300E+03  0.00000000000E+00 0.  1.
          4   -1    0    0  501    0 -0.00000000000E+00 -0.00000000000E+00 -0.12996162666E+04  0.12996162666E+04  0.00000000000E+00 0.  1.
    9000010    2    1    2  502    0  0.22380710522E+03  0.26126446614E+02  0.16441184456E+03  0.97473971961E+03  0.93397754512E+03 0.  0.
        -13    1    3    3    0    0  0.36608309023E+03 -0.12941887255E+02  0.49320613198E+03  0.61435870726E+03  0.10566000000E+00 0.  1.
         13    1    1    2    0    0 -0.27447581971E+03 -0.19636382114E+01 -0.86657755485E+03  0.90900907653E+03  0.10566000000E+00 0. -1.
          4    1    1    2  501    0  0.50668714489E+02 -0.24162808403E+02  0.11164529668E+03  0.12496332346E+03  0.00000000000E+00 0.  1.
          4    1    3    3  502    0 -0.14227598501E+03  0.39068333869E+02 -0.32879428742E+03  0.36038101235E+03  0.00000000000E+00 0.  1.
</event>
<event>
 7    1  0.9434649E-006  0.1073897E+04  0.7818608E-02  0.8975064E-01
         -4   -1    0    0    0  502 -0.00000000000E+00  0.00000000000E+00  0.19273624013E+04  0.19273624013E+04  0.00000000000E+00 0. -1.
         -2   -1    0    0    0  501  0.00000000000E+00 -0.00000000000E+00 -0.65046889856E+03  0.65046889856E+03  0.00000000000E+00 0. -1.
   -9000010    2    1    2    0  501  0.14680386437E+03  0.25610829674E+03  0.87380744488E+03  0.13715374207E+04  0.10151022664E+04 0.  0.
        -13    1    1    2    0    0 -0.14799201607E+03 -0.32775442201E+03  0.76077999648E+03  0.84149320388E+03  0.10566000000E+00 0.  1.
         13    1    3    3    0    0 -0.30718303701E+03  0.37555600812E+03  0.73736578483E+03  0.88267323811E+03  0.10566000000E+00 0. -1.
         -2    1    1    2    0  502  0.11881517007E+01  0.71646125261E+02 -0.35769393863E+03  0.36480067531E+03  0.00000000000E+00 0. -1.
         -4    1    3    3    0  501  0.45398690139E+03 -0.11944771138E+03  0.13644166005E+03  0.48886418255E+03  0.00000000000E+00 0. -1.
</event>
<event>
 7    1  0.9434649E-006  0.7860063E+03  0.7818608E-02  0.9384958E-01
         -4   -1    0    0    0  501 -0.00000000000E+00  0.00000000000E+00  0.47549952714E+03  0.47549952714E+03  0.00000000000E+00 0. -1.
          2   -1    0    0  501    0  0.00000000000E+00 -0.00000000000E+00 -0.21651831251E+04  0.21651831251E+04  0.00000000000E+00 0.  1.
   -9000010    2    1    2    0  502 -0.14665923350E+03 -0.10517773589E+03 -0.11741778385E+04  0.14128656145E+04  0.76480347892E+03 0.  0.
        -13    1    1    2    0    0  0.15931580035E+03  0.86685796677E+02  0.33290710249E+03  0.37910829803E+03  0.10566000000E+00 0.  1.
         13    1    3    3    0    0 -0.16745596577E+02  0.32600085017E+03 -0.60117935605E+03  0.68408595850E+03  0.10566000000E+00 0. -1.
          2    1    1    2  502    0 -0.12656566851E+02  0.18491939217E+02 -0.84841286191E+03  0.84870873965E+03  0.00000000000E+00 0.  1.
         -4    1    3    3    0  502 -0.12991363692E+03 -0.43117858606E+03 -0.57299848246E+03  0.72877965602E+03  0.00000000000E+00 0. -1.
</event>
<event>
 6    1  0.9434649E-006  0.7884163E+03  0.7818608E-02  0.9003734E-01
         -4   -1    0    0    0  501 -0.00000000000E+00  0.00000000000E+00  0.40945082268E+03  0.40945082268E+03  0.00000000000E+00 0. -1.
          2   -1    0    0  501    0  0.00000000000E+00 -0.00000000000E+00 -0.43355037423E+04  0.43355037423E+04  0.00000000000E+00 0. -1.
        -13    1    1    2    0    0 -0.13407281079E+03 -0.15471622561E+03 -0.16534954191E+03  0.26315985870E+03  0.10566000000E+00 0.  1.
         13    1    1    2    0    0  0.72160445536E+02 -0.83183318716E+00  0.31666267721E+03  0.32478159453E+03  0.10566000000E+00 0. -1.
          2    1    1    2  502    0 -0.52492662874E+02  0.43990923208E+02 -0.39553993748E+04  0.39559922770E+04  0.00000000000E+00 0. -1.
         -4    1    1    2    0  502  0.11440502813E+03  0.11155713559E+03 -0.12196668008E+03  0.20102083477E+03  0.00000000000E+00 0. -1.
</event>
<event>
 7    1  0.9434649E-006  0.1096966E+04  0.7818608E-02  0.9131393E-01
         -4   -1    0    0    0  501 -0.00000000000E+00  0.00000000000E+00  0.21621852115E+04  0.21621852115E+04  0.00000000000E+00 0. -1.
          2   -1    0    0  501    0  0.00000000000E+00 -0.00000000000E+00 -0.56561413957E+03  0.56561413957E+03  0.00000000000E+00 0.  1.
   -9000010    2    1    2    0  502  0.41885260767E+03  0.15614687283E+03  0.63993202849E+03  0.12683689960E+04  0.99971373708E+03 0.  0.
        -13    1    1    2    0    0 -0.82161266507E+02  0.15560696516E+03  0.98414029723E+03  0.99974803682E+03  0.10566000000E+00 0.  1.
         13    1    3    3    0    0 -0.33134733477E+03  0.56630480715E+02  0.16040528930E+03  0.37246199217E+03  0.10566000000E+00 0. -1.
          2    1    1    2  502    0 -0.33669134116E+03 -0.31175383799E+03 -0.27501253829E+02  0.45968231821E+03  0.00000000000E+00 0.  1.
         -4    1    3    3    0  502  0.75019994244E+03  0.99516392117E+02  0.47952673919E+03  0.89590700384E+03  0.00000000000E+00 0. -1.
</event>
<event>
 6    1  0.9434649E-006  0.1239665E+03  0.7818608E-02  0.1140088E+00
          2   -1    0    0  501    0  0.00000000000E+00  0.00000000000E+00  0.98206795571E+02  0.98206795571E+02  0.00000000000E+00 0.  1.
         -4   -1    0    0    0  501 -0.00000000000E+00 -0.00000000000E+00 -0.19138191020E+03  0.19138191020E+03  0.00000000000E+00 0. -1.
        -13    1    1    2    0    0 -0.50132897421E+02 -0.79256265720E+02 -0.96474896817E+02  0.13454471353E+03  0.10566000000E+00 0.  1.
         13    1    1    2    0    0  0.47481153454E+02  0.34883416223E+01 -0.40392926705E+00  0.47610952348E+02  0.10566000000E+00 0. -1.
          2    1    1    2  502    0 -0.98303881643E+01 -0.42297397389E+01  0.21965239498E+02  0.24433562489E+02  0.00000000000E+00 0.  1.
         -4    1    1    2    0  502  0.12482132132E+02  0.79997663836E+02 -0.18261528040E+02  0.82999477397E+02  0.00000000000E+00 0. -1.
</event>
<event>
 7    1  0.9434649E-006  0.1050785E+04  0.7818608E-02  0.9387139E-01
          2   -1    0    0  501    0  0.00000000000E+00  0.00000000000E+00  0.21493481040E+03  0.21493481040E+03  0.00000000000E+00 0. -1.
         -4   -1    0    0    0  501 -0.00000000000E+00 -0.00000000000E+00 -0.35398563730E+04  0.35398563730E+04  0.00000000000E+00 0. -1.
   -9000010    2    1    2    0  502 -0.30286687170E+02 -0.58700424571E+02 -0.32471297821E+04  0.34127257863E+04  0.10480851337E+04 0.  0.
        -13    1    1    2    0    0  0.33238361644E+02  0.68403327396E+02 -0.20282868972E+03  0.21661784880E+03  0.10566000000E+00 0.  1.
         13    1    3    3    0    0 -0.53151676907E+03 -0.52063876776E+02 -0.13879257850E+04  0.14871310362E+04  0.10566000000E+00 0. -1.
          2    1    1    2  502    0 -0.29516744739E+01 -0.97029028245E+01  0.12503690921E+03  0.12544754828E+03  0.00000000000E+00 0. -1.
         -4    1    3    3    0  502  0.50123008189E+03 -0.66365477951E+01 -0.18592039971E+04  0.19255947501E+04  0.00000000000E+00 0. -1.
</event>
<event>
 6    1  0.9434649E-006  0.9349375E+03  0.7818608E-02  0.8838248E-01
          2   -1    0    0  501    0  0.00000000000E+00  0.00000000000E+00  0.55031106941E+03  0.55031106941E+03  0.00000000000E+00 0. -1.
         -4   -1    0    0    0  501 -0.00000000000E+00 -0.00000000000E+00 -0.13979884248E+04  0.13979884248E+04  0.00000000000E+00 0. -1.
        -13    1    1    2    0    0  0.96447502107E+02  0.15780978686E+03 -0.43194849613E+03  0.46987824377E+03  0.10566000000E+00 0.  1.
         13    1    1    2    0    0 -0.32081022357E+03 -0.20361969581E+03 -0.18422720358E+03  0.42227935513E+03  0.10566000000E+00 0. -1.
          2    1    1    2  502    0  0.10974904733E+02  0.48728800575E+01  0.39389400293E+03  0.39407699633E+03  0.00000000000E+00 0. -1.
         -4    1    1    2    0  502  0.21338781673E+03  0.40937028894E+02 -0.62539565856E+03  0.66206489894E+03  0.00000000000E+00 0. -1.
</event>
<event>
 7    1  0.9434649E-006  0.1019822E+04  0.7818608E-02  0.9095574E-01
          4   -1    0    0  501    0 -0.00000000000E+00  0.00000000000E+00  0.12109873019E+04  0.12109873019E+04  0.00000000000E+00 0.  1.
          2   -1    0    0  502    0  0.00000000000E+00 -0.00000000000E+00 -0.78305178040E+03  0.78305178040E+03  0.00000000000E+00 0.  1.
    9000010    2    1    2  502    0  0.22889945949E+03  0.81094371101E+02  0.24828961631E+03  0.10473890150E+04  0.98813195252E+03 0.  0.
        -13    1    3    3    0    0 -0.23370871958E+03 -0.31093550617E+03  0.20444181623E+03  0.43942817614E+03  0.10566000000E+00 0.  1.
         13    1    1    2    0    0 -0.24146001858E+03 -0.75320912772E+02  0.53460551165E+03  0.59142137662E+03  0.10566000000E+00 0. -1.
          2    1    1    2  501    0  0.12560559083E+02 -0.57734583290E+01 -0.35495960646E+03  0.35522869068E+03  0.00000000000E+00 0.  1.
          4    1    3    3  502    0  0.46260817907E+03  0.39202987727E+03  0.43847800077E+02  0.60796083886E+03  0.00000000000E+00 0.  1.
</event>
<event>
 7    1  0.9434649E-006  0.1034398E+04  0.7818608E-02  0.9146750E-01
         -4   -1    0    0    0  501 -0.00000000000E+00  0.00000000000E+00  0.25261286461E+04  0.25261286461E+04  0.00000000000E+00 0. -1.
          2   -1    0    0  501    0  0.00000000000E+00 -0.00000000000E+00 -0.94338958469E+03  0.94338958469E+03  0.00000000000E+00 0. -1.
   -9000010    2    1    2    0  502  0.18921779884E+03 -0.34319497716E+02  0.13347266204E+04  0.16880205172E+04  0.10153506350E+04 0.  0.
        -13    1    1    2    0    0 -0.18764421503E+03 -0.66978154850E+02  0.10015525828E+04  0.10211777573E+04  0.10566000000E+00 0.  1.
         13    1    3    3    0    0  0.12505730032E+03  0.42050722196E+02 -0.15010199031E+03  0.19984546594E+03  0.10566000000E+00 0. -1.
          2    1    1    2  502    0 -0.15735838146E+01  0.10129765257E+03 -0.75354014182E+03  0.76031995628E+03  0.00000000000E+00 0. -1.
         -4    1    3    3    0  502  0.64160498525E+02 -0.76370219912E+02  0.14848286107E+04  0.14881750513E+04  0.00000000000E+00 0. -1.
</event>
<event>
 6    1  0.9434649E-006  0.6199847E+03  0.7818608E-02  0.9247911E-01
          2   -1    0    0  501    0  0.00000000000E+00  0.00000000000E+00  0.51280458522E+03  0.51280458522E+03  0.00000000000E+00 0. -1.
         -4   -1    0    0    0  501 -0.00000000000E+00 -0.00000000000E+00 -0.28239909859E+03  0.28239909859E+03  0.00000000000E+00 0. -1.
        -13    1    1    2    0    0 -0.40229172851E+02 -0.77988833090E+02 -0.39519635418E+02  0.96241660328E+02  0.10566000000E+00 0.  1.
         13    1    1    2    0    0  0.85332630047E+02  0.11690249126E+03 -0.18158515175E+03  0.23220901945E+03  0.10566000000E+00 0. -1.
          2    1    1    2  502    0  0.32626782991E+02 -0.15973411465E+02  0.16823184703E+03  0.17210930015E+03  0.00000000000E+00 0. -1.
         -4    1    1    2    0  502 -0.77730240187E+02 -0.22940246703E+02  0.28327842678E+03  0.29464370388E+03  0.00000000000E+00 0. -1.
</event>
<event>
 7    1  0.9434649E-006  0.1017266E+04  0.7818608E-02  0.9138408E-01
          2   -1    0    0  501    0  0.00000000000E+00  0.00000000000E+00  0.34389826937E+03  0.34389826937E+03  0.00000000000E+00 0. -1.
         -4   -1    0    0    0  501 -0.00000000000E+00 -0.00000000000E+00 -0.17178006017E+04  0.17178006017E+04  0.00000000000E+00 0. -1.
   -9000010    2    1    2    0  502 -0.14766271117E+03  0.23392379971E+03 -0.51129641597E+03  0.11518261954E+04  0.99436157362E+03 0.  0.
        -13    1    1    2    0    0  0.13631693918E+03 -0.16116358516E+03 -0.56072350186E+03  0.59913843625E+03  0.10566000000E+00 0.  1.
         13    1    3    3    0    0  0.14364613110E+03  0.49959460532E+03 -0.17750564433E+02  0.52013851458E+03  0.10566000000E+00 0. -1.
          2    1    1    2  502    0  0.11345771988E+02 -0.72760214559E+02 -0.30188241453E+03  0.31073423945E+03  0.00000000000E+00 0. -1.
         -4    1    3    3    0  502 -0.29130884227E+03 -0.26567080560E+03 -0.49354585154E+03  0.63168768083E+03  0.00000000000E+00 0. -1.
</event>
<event>
 6    1  0.9434649E-006  0.6549799E+03  0.7818608E-02  0.9190976E-01
          2   -1    0    0  501    0  0.00000000000E+00  0.00000000000E+00  0.71181568946E+03  0.71181568946E+03  0.00000000000E+00 0. -1.
         -4   -1    0    0    0  501 -0.00000000000E+00 -0.00000000000E+00 -0.34460160583E+03  0.34460160583E+03  0.00000000000E+00 0. -1.
        -13    1    1    2    0    0  0.72977521226E+02  0.14546948894E+03 -0.23468908471E+02  0.16443202743E+03  0.10566000000E+00 0.  1.
         13    1    1    2    0    0 -0.21557447233E+02 -0.13945224542E+03 -0.22935947511E+03  0.26929060932E+03  0.10566000000E+00 0. -1.
          2    1    1    2  502    0 -0.21379798422E+02 -0.21174729457E+01  0.40003885995E+03  0.40061536284E+03  0.00000000000E+00 0. -1.
         -4    1    1    2    0  502 -0.30040275570E+02 -0.38997705750E+01  0.22000360727E+03  0.22207929570E+03  0.00000000000E+00 0. -1.
</event>
<event>
 7    1  0.9434649E-006  0.1026281E+04  0.7818608E-02  0.8998874E-01
          2   -1    0    0  502    0  0.00000000000E+00  0.00000000000E+00  0.85008532718E+03  0.85008532718E+03  0.00000000000E+00 0.  1.
          4   -1    0    0  501    0 -0.00000000000E+00 -0.00000000000E+00 -0.12492033223E+04  0.12492033223E+04  0.00000000000E+00 0.  1.
    9000010    2    1    2  502    0  0.19654875566E+03  0.32534764277E+03 -0.91304835600E+03  0.13778576753E+04  0.95934976471E+03 0.  0.
        -13    1    3    3    0    0  0.28975426287E+01 -0.27308633169E+03 -0.48824701346E+01  0.27314536421E+03  0.10566000000E+00 0.  1.
         13    1    1    2    0    0 -0.15295406454E+03 -0.31002004642E+03  0.19049216661E+03  0.39470831223E+03  0.10566000000E+00 0. -1.
          2    1    1    2  501    0 -0.43594691115E+02 -0.15327596345E+02  0.32343819427E+03  0.32672266192E+03  0.00000000000E+00 0.  1.
          4    1    3    3  502    0  0.19365121303E+03  0.59843397446E+03 -0.90816588587E+03  0.11047123111E+04  0.00000000000E+00 0.  1.
</event>
<event>
 7    1  0.9434649E-006  0.1051453E+04  0.7818608E-02  0.9006015E-01
          2   -1    0    0  501    0  0.00000000000E+00  0.00000000000E+00  0.10579454038E+04  0.10579454038E+04  0.00000000000E+00 0. -1.
         -4   -1    0    0    0  501 -0.00000000000E+00 -0.00000000000E+00 -0.14165701340E+04  0.14165701340E+04  0.00000000000E+00 0. -1.
   -9000010    2    1    2    0  502 -0.18312046664E+03  0.24617787675E+03  0.61607016863E+02  0.10464308031E+04  0.99854161097E+03 0.  0.
        -13    1    1    2    0    0  0.17140228136E+03 -0.28271703586E+03 -0.89378781346E+03  0.95297656376E+03  0.10566000000E+00 0.  1.
         13    1    3    3    0    0 -0.54026371100E+03 -0.70579907788E+02 -0.74762414104E+02  0.54995984447E+03  0.10566000000E+00 0. -1.
          2    1    1    2  502    0  0.11718185280E+02  0.36539159108E+02  0.47355606639E+03  0.47510817087E+03  0.00000000000E+00 0. -1.
         -4    1    3    3    0  502  0.35714324436E+03  0.31675778454E+03  0.13636943097E+03  0.49647095863E+03  0.00000000000E+00 0. -1.
</event>
<event>
 7    1  0.9434649E-006  0.1017679E+04  0.7818608E-02  0.9120520E-01
          2   -1    0    0  502    0  0.00000000000E+00  0.00000000000E+00  0.15241572236E+04  0.15241572236E+04  0.00000000000E+00 0.  1.
          4   -1    0    0  501    0 -0.00000000000E+00 -0.00000000000E+00 -0.26334029674E+04  0.26334029674E+04  0.00000000000E+00 0.  1.
    9000010    2    1    2  502    0 -0.21000152393E+03 -0.94440345412E+02 -0.17597585958E+04  0.20328628583E+04  0.99134326358E+03 0.  0.
        -13    1    3    3    0    0  0.25405013653E+03 -0.30372067466E+03 -0.12549790046E+04  0.13159635380E+04  0.10566000000E+00 0.  1.
         13    1    1    2    0    0  0.19657065202E+03  0.11979293510E+03 -0.71896554926E+03  0.75491843315E+03  0.10566000000E+00 0. -1.
          2    1    1    2  501    0  0.13430871913E+02 -0.25352589688E+02  0.13694784013E+04  0.13697788996E+04  0.00000000000E+00 0.  1.
          4    1    3    3  502    0 -0.46405166046E+03  0.20928032925E+03 -0.50477959118E+03  0.71689932031E+03  0.00000000000E+00 0.  1.
</event>
<event>
 7    1  0.9434649E-006  0.1093588E+04  0.7818608E-02  0.8898189E-01
         -4   -1    0    0    0  501 -0.00000000000E+00  0.00000000000E+00  0.27478343190E+04  0.27478343190E+04  0.00000000000E+00 0. -1.
          1   -1    0    0  501    0  0.00000000000E+00 -0.00000000000E+00 -0.83305103169E+03  0.83305103169E+03  0.00000000000E+00 0. -1.
   -9000010    2    1    2    0  502  0.43508044363E+03  0.11052754085E+03  0.10211459254E+04  0.14943707272E+04  0.99443126434E+03 0.  0.
        -13    1    1    2    0    0 -0.43457890969E+03 -0.13819128993E+03  0.14548370798E+04  0.15246332678E+04  0.10566000000E+00 0.  1.
         13    1    3    3    0    0  0.62037990114E+02  0.40681070134E+03  0.52411524836E+02  0.41483808654E+03  0.10566000000E+00 0. -1.
          1    1    1    2  502    0 -0.50153393436E+00  0.27663749076E+02 -0.56119971790E+03  0.56188135573E+03  0.00000000000E+00 0. -1.
         -4    1    3    3    0  502  0.37304245351E+03 -0.29628316049E+03  0.96873440058E+03  0.10795326406E+04  0.00000000000E+00 0. -1.
</event>
<event>
 7    1  0.9434649E-006  0.1064140E+04  0.7818608E-02  0.8954669E-01
          2   -1    0    0  502    0  0.00000000000E+00  0.00000000000E+00  0.27675703234E+04  0.27675703234E+04  0.00000000000E+00 0.  1.
          4   -1    0    0  501    0 -0.00000000000E+00 -0.00000000000E+00 -0.97761776491E+03  0.97761776491E+03  0.00000000000E+00 0.  1.
    9000010    2    1    2  502    0 -0.37757466730E+03  0.76474195254E+02 -0.19625433139E+03  0.10798603823E+04  0.98953107618E+03 0.  0.
        -13    1    3    3    0    0 -0.61846053790E+03 -0.23574865603E+03 -0.17660026692E+03  0.68502447489E+03  0.10566000000E+00 0.  1.
         13    1    1    2    0    0  0.39206948756E+03 -0.34042223728E+02 -0.22522892270E+03  0.45343735494E+03  0.10566000000E+00 0. -1.
          2    1    1    2  501    0 -0.14494820260E+02 -0.42431971526E+02  0.22114358126E+04  0.22118903511E+04  0.00000000000E+00 0.  1.
          4    1    3    3  502    0  0.24088587060E+03  0.31222285129E+03 -0.19654064469E+02  0.39483590740E+03  0.00000000000E+00 0.  1.
</event>
<event>
 6    1  0.9434649E-006  0.1031050E+04  0.7818608E-02  0.8745952E-01
          2   -1    0    0  502    0  0.00000000000E+00  0.00000000000E+00  0.42345930035E+04  0.42345930035E+04  0.00000000000E+00 0. -1.
          4   -1    0    0  501    0 -0.00000000000E+00 -0.00000000000E+00 -0.37354316032E+04  0.37354316032E+04  0.00000000000E+00 0.  1.
        -13    1    1    2    0    0 -0.11439844401E+03  0.45439190286E+03 -0.21125441668E+04  0.21638858272E+04  0.10566000000E+00 0.  1.
         13    1    1    2    0    0  0.16875365775E+02 -0.40071497122E+03 -0.14307242571E+04  0.14858765686E+04  0.10566000000E+00 0. -1.
          2    1    1    2  501    0  0.74214684034E+02  0.43154401738E+02  0.41629946650E+04  0.41638797656E+04  0.00000000000E+00 0. -1.
          4    1    1    2  502    0  0.23308394203E+02 -0.96831333380E+02 -0.12056484085E+03  0.15638244535E+03  0.00000000000E+00 0.  1.
</event>
<event>
 7    1  0.9434649E-006  0.1263254E+04  0.7818608E-02  0.8825968E-01
          1   -1    0    0  501    0  0.00000000000E+00  0.00000000000E+00  0.77467849076E+03  0.77467849076E+03  0.00000000000E+00 0.  1.
         -4   -1    0    0    0  501 -0.00000000000E+00 -0.00000000000E+00 -0.20257675425E+04  0.20257675425E+04  0.00000000000E+00 0. -1.
   -9000010    2    1    2    0  502  0.67530496484E+03 -0.40689670124E+02 -0.77553065962E+03  0.14215591747E+04  0.98065806390E+03 0.  0.
        -13    1    1    2    0    0  0.15723488757E+03  0.36681342151E+03 -0.12117746353E+03  0.41708378643E+03  0.10566000000E+00 0.  1.
         13    1    3    3    0    0  0.10532167176E+03 -0.14144037061E+03  0.21269915706E+03  0.27629508783E+03  0.10566000000E+00 0. -1.
          1    1    1    2  502    0 -0.83253985241E+03 -0.32612375138E+03 -0.35438092861E+03  0.96180307217E+03  0.00000000000E+00 0.  1.
         -4    1    3    3    0  502  0.56998329308E+03  0.10075070048E+03 -0.98822981668E+03  0.11452640868E+04  0.00000000000E+00 0. -1.
</event>
<event>
 7    1  0.9434649E-006  0.1082947E+04  0.7818608E-02  0.8908541E-01
          2   -1    0    0  502    0  0.00000000000E+00  0.00000000000E+00  0.42687918693E+03  0.42687918693E+03  0.00000000000E+00 0.  1.
          4   -1    0    0  501    0 -0.00000000000E+00 -0.00000000000E+00 -0.31097772812E+04  0.31097772812E+04  0.00000000000E+00 0.  1.
    9000010    2    1    2  502    0 -0.30757474879E+03 -0.19652095482E+03 -0.14062725798E+04  0.17555813721E+04  0.98551543559E+03 0.  0.
        -13    1    3    3    0    0 -0.53035023938E+02 -0.16848219621E+03  0.11639248686E+03  0.21153294392E+03  0.10566000000E+00 0.  1.
         13    1    1    2    0    0  0.48245051717E+03 -0.51312760389E+02 -0.13782751567E+04  0.14611755266E+04  0.10566000000E+00 0. -1.
          2    1    1    2  501    0 -0.17487576838E+03  0.24783371521E+03  0.10164964215E+03  0.31989956941E+03  0.00000000000E+00 0.  1.
          4    1    3    3  502    0 -0.25453972485E+03 -0.28038758612E+02 -0.15226650666E+04  0.15440484282E+04  0.00000000000E+00 0.  1.
</event>
<event>
 7    1  0.9434649E-006  0.1159190E+04  0.7818608E-02  0.8798150E-01
          2   -1    0    0  501    0  0.00000000000E+00  0.00000000000E+00  0.27501915636E+04  0.27501915636E+04  0.00000000000E+00 0.  1.
         -4   -1    0    0    0  501 -0.00000000000E+00 -0.00000000000E+00 -0.11664668160E+04  0.11664668160E+04  0.00000000000E+00 0. -1.
   -9000010    2    1    2    0  502  0.17478905255E+03  0.49791526619E+03  0.18325987604E+04  0.21657854225E+04  0.10265171477E+04 0.  0.
        -13    1    1    2    0    0 -0.54321017374E+03  0.20579774378E+03  0.41643372132E+03  0.71473565716E+03  0.10566000000E+00 0.  1.
         13    1    3    3    0    0 -0.16014676982E+03 -0.14044462497E+03  0.18629077198E+02  0.21381939634E+03  0.10566000000E+00 0. -1.
          2    1    1    2  502    0  0.36842112119E+03 -0.70371300998E+03 -0.66530773418E+03  0.10361372998E+04  0.00000000000E+00 0.  1.
         -4    1    3    3    0  502  0.33493582238E+03  0.63835989117E+03  0.18139696832E+04  0.19519660262E+04  0.00000000000E+00 0. -1.
</event>
<event>
 6    1  0.9434649E-006  0.1191598E+03  0.7818608E-02  0.1155797E+00
          2   -1    0    0  501    0  0.00000000000E+00  0.00000000000E+00  0.81486670195E+03  0.81486670195E+03  0.00000000000E+00 0. -1.
         -4   -1    0    0    0  501 -0.00000000000E+00 -0.00000000000E+00 -0.38599655380E+02  0.38599655380E+02  0.00000000000E+00 0. -1.
        -13    1    1    2    0    0 -0.65563029081E+02  0.32459450305E+02  0.95949204592E+02  0.12065814404E+03  0.10566000000E+00 0.  1.
         13    1    1    2    0    0  0.22886718906E+02 -0.94421425771E+02  0.84261805060E+02  0.12860509517E+03  0.10566000000E+00 0. -1.
          2    1    1    2  502    0  0.56482159456E+02  0.63398732147E+02  0.52118959195E+03  0.52806081499E+03  0.00000000000E+00 0. -1.
         -4    1    1    2    0  502 -0.13805849282E+02 -0.14367566813E+01  0.74866444968E+02  0.76142303132E+02  0.00000000000E+00 0. -1.
</event>
<event>
 7    1  0.9434649E-006  0.1037568E+04  0.7818608E-02  0.8988579E-01
          2   -1    0    0  501    0  0.00000000000E+00  0.00000000000E+00  0.10588584777E+04  0.10588584777E+04  0.00000000000E+00 0. -1.
         -4   -1    0    0    0  501 -0.00000000000E+00 -0.00000000000E+00 -0.10856938753E+04  0.10856938753E+04  0.00000000000E+00 0. -1.
   -9000010    2    1    2    0  502 -0.35870323581E+03  0.68768349182E+02 -0.24408065047E+03  0.10650039580E+04  0.97018604884E+03 0.  0.
        -13    1    1    2    0    0  0.35874492886E+03 -0.83582922320E+02 -0.35236231098E+03  0.50974821064E+03  0.10566000000E+00 0.  1.
         13    1    3    3    0    0 -0.26017542066E+03 -0.15129261364E+03  0.32741635850E+03  0.44472709321E+03  0.10566000000E+00 0. -1.
          2    1    1    2  502    0 -0.41693051533E-01  0.14814573137E+02  0.56960756383E+03  0.56980018436E+03  0.00000000000E+00 0. -1.
         -4    1    3    3    0  502 -0.98527815152E+02  0.22006096283E+03 -0.57149700896E+03  0.62027686477E+03  0.00000000000E+00 0. -1.
</event>
<event>
 7    1  0.9434649E-006  0.1025388E+04  0.7818608E-02  0.9253599E-01
          2   -1    0    0  502    0  0.00000000000E+00  0.00000000000E+00  0.20659646525E+04  0.20659646525E+04  0.00000000000E+00 0. -1.
          4   -1    0    0  501    0 -0.00000000000E+00 -0.00000000000E+00 -0.53517860176E+03  0.53517860176E+03  0.00000000000E+00 0.  1.
    9000010    2    1    2  502    0  0.49484277762E+02 -0.75196480344E+02  0.20112420953E+03  0.10401893419E+04  0.10165823699E+04 0.  0.
        -13    1    3    3    0    0 -0.70955042471E+02  0.12838776467E+03  0.57739850568E+03  0.59574078398E+03  0.10566000000E+00 0.  1.
         13    1    1    2    0    0 -0.50192813399E+02  0.12759130917E+03 -0.74346007546E+02  0.15596858881E+03  0.10566000000E+00 0. -1.
          2    1    1    2  501    0  0.70853563744E+00 -0.52394828829E+02  0.14040078487E+04  0.14049853235E+04  0.00000000000E+00 0. -1.
          4    1    3    3  502    0  0.12043932023E+03 -0.20358424501E+03 -0.37627429615E+03  0.44444855790E+03  0.00000000000E+00 0.  1.
</event>
<event>
 7    1  0.9434649E-006  0.1014974E+04  0.7818608E-02  0.9175092E-01
          4   -1    0    0  501    0 -0.00000000000E+00  0.00000000000E+00  0.71906350599E+03  0.71906350599E+03  0.00000000000E+00 0.  1.
          2   -1    0    0  502    0  0.00000000000E+00 -0.00000000000E+00 -0.67340133675E+03  0.67340133675E+03  0.00000000000E+00 0.  1.
    9000010    2    1    2  502    0  0.53251407196E+01 -0.20167035954E+03  0.43378897936E+02  0.10186751392E+04  0.99755602318E+03 0.  0.
        -13    1    3    3    0    0  0.34760010238E+03 -0.34809546749E+03 -0.24329701941E+03  0.54880755870E+03  0.10566000000E+00 0.  1.
         13    1    1    2    0    0  0.85319614099E+01  0.18570375779E+03  0.14109293751E+03  0.23337932257E+03  0.10566000000E+00 0. -1.
          2    1    1    2  501    0 -0.13857102130E+02  0.15966601750E+02 -0.13880966622E+03  0.14041038098E+03  0.00000000000E+00 0.  1.
          4    1    3    3  502    0 -0.34227496166E+03  0.14642510795E+03  0.28667591734E+03  0.46986758050E+03  0.00000000000E+00 0.  1.
</event>
<event>
 7    1  0.9434649E-006  0.1138649E+04  0.7818608E-02  0.8828664E-01
          4   -1    0    0  501    0 -0.00000000000E+00  0.00000000000E+00  0.31538585192E+04  0.31538585192E+04  0.00000000000E+00 0.  1.
          2   -1    0    0  502    0  0.00000000000E+00 -0.00000000000E+00 -0.11285621581E+04  0.11285621581E+04  0.00000000000E+00 0.  1.
    9000010    2    1    2  502    0 -0.17744642104E+03  0.49868844809E+03  0.20740800652E+04  0.23639313360E+04  0.10030881536E+04 0.  0.
        -13    1    3    3    0    0  0.32192958627E+03  0.11168510184E+02  0.24041794779E+03  0.40195048815E+03  0.10566000000E+00 0.  1.
         13    1    1    2    0    0  0.88500845184E+01 -0.55459111350E+03  0.84304441523E+03  0.10091449472E+04  0.10566000000E+00 0. -1.
          2    1    1    2  501    0  0.16859633652E+03  0.55902665417E+02 -0.89182811929E+03  0.90934439408E+03  0.00000000000E+00 0.  1.
          4    1    3    3  502    0 -0.49937600731E+03  0.48751993790E+03  0.18336621174E+04  0.19619808478E+04  0.00000000000E+00 0.  1.
</event>
<event>
 7    1  0.9434649E-006  0.7862190E+03  0.7818608E-02  0.9250603E-01
         -2   -1    0    0    0  501  0.00000000000E+00  0.00000000000E+00  0.42021923733E+04  0.42021923733E+04  0.00000000000E+00 0.  1.
         -4   -1    0    0    0  502 -0.00000000000E+00 -0.00000000000E+00 -0.31193637031E+03  0.31193637031E+03  0.00000000000E+00 0. -1.
   -9000010    2    1    2    0  501  0.25781835471E+03  0.14332665377E+03  0.42632191392E+03  0.87903276880E+03  0.70988407548E+03 0.  0.
        -13    1    1    2    0    0 -0.22498422216E+03  0.19979668608E+03  0.21960856670E+03  0.37251114040E+03  0.10566000000E+00 0.  1.
         13    1    3    3    0    0  0.11894127118E+03 -0.20426451000E+03 -0.79852200328E+02  0.24949429071E+03  0.10566000000E+00 0. -1.
         -2    1    1    2    0  502 -0.32834132546E+02 -0.34312333985E+03  0.32443255224E+04  0.32625848344E+04  0.00000000000E+00 0.  1.
         -4    1    3    3    0  501  0.13887708353E+03  0.34759116377E+03  0.50617411424E+03  0.62953847809E+03  0.00000000000E+00 0. -1.
</event>
<event>
 7    1  0.9434649E-006  0.1046890E+04  0.7818608E-02  0.9036239E-01
         -4   -1    0    0    0  501 -0.00000000000E+00  0.00000000000E+00  0.10107492424E+04  0.10107492424E+04  0.00000000000E+00 0. -1.
          1   -1    0    0  501    0  0.00000000000E+00 -0.00000000000E+00 -0.18500865392E+04  0.18500865392E+04  0.00000000000E+00 0. -1.
   -9000010    2    1    2    0  502 -0.46323714757E+02  0.30773701156E+03  0.11484400681E+02  0.10515123992E+04  0.10043398227E+04 0.  0.
        -13    1    1    2    0    0  0.37049548095E+02 -0.29172852770E+03  0.43406683561E+03  0.52430166110E+03  0.10566000000E+00 0.  1.
         13    1    3    3    0    0 -0.50294195065E+02  0.14312800412E+03  0.50707595641E+03  0.52928363696E+03  0.10566000000E+00 0. -1.
          1    1    1    2  502    0  0.92741666623E+01 -0.16008483856E+02 -0.12848885331E+04  0.12850217213E+04  0.00000000000E+00 0. -1.
         -4    1    3    3    0  502  0.39704803077E+01  0.16460900744E+03 -0.49559155573E+03  0.52222876228E+03  0.00000000000E+00 0. -1.
</event>
<event>
 7    1  0.9434649E-006  0.1283907E+04  0.7818608E-02  0.8651130E-01
         -4   -1    0    0    0  501 -0.00000000000E+00  0.00000000000E+00  0.91083064219E+03  0.91083064219E+03  0.00000000000E+00 0. -1.
          2   -1    0    0  501    0  0.00000000000E+00 -0.00000000000E+00 -0.24678749365E+04  0.24678749365E+04  0.00000000000E+00 0. -1.
   -9000010    2    1    2    0  502  0.54631445806E+03  0.37141208356E+03 -0.13722485009E+04  0.18219686752E+04  0.10000487400E+04 0.  0.
        -13    1    1    2    0    0 -0.24393368342E+03 -0.82936503806E+03  0.19895865987E+03  0.88709332528E+03  0.10566000000E+00 0.  1.
         13    1    3    3    0    0  0.15355106463E+03  0.11842897085E+03  0.14001752497E+03  0.23918250155E+03  0.10566000000E+00 0. -1.
          2    1    1    2  502    0 -0.30238077464E+03  0.45795295450E+03 -0.38375445326E+03  0.66964357819E+03  0.00000000000E+00 0. -1.
         -4    1    3    3    0  502  0.39276339342E+03  0.25298311271E+03 -0.15122660259E+04  0.15827861737E+04  0.00000000000E+00 0. -1.
</event>
<event>
 7    1  0.9434649E-006  0.1029027E+04  0.7818608E-02  0.9291946E-01
         -4   -1    0    0    0  501 -0.00000000000E+00  0.00000000000E+00  0.18254866616E+04  0.18254866616E+04  0.00000000000E+00 0. -1.
          3   -1    0    0  501    0  0.00000000000E+00 -0.00000000000E+00 -0.62891625353E+03  0.62891625353E+03  0.00000000000E+00 0. -1.
   -9000010    2    1    2    0  502  0.76586709366E+02 -0.47044388353E+02  0.14401651576E+04  0.17685901783E+04  0.10226225303E+04 0.  0.
        -13    1    1    2    0    0 -0.10607691203E+03  0.49400170103E+02  0.20510585417E+03  0.23613790600E+03  0.10566000000E+00 0.  1.
         13    1    3    3    0    0  0.51665536550E+03 -0.18480285871E+03  0.93891819280E+03  0.10874981596E+04  0.10566000000E+00 0. -1.
          3    1    1    2  502    0  0.29490202664E+02 -0.23557817505E+01 -0.44870060363E+03  0.44967483080E+03  0.00000000000E+00 0. -1.
         -4    1    3    3    0  502 -0.44006865613E+03  0.13775847036E+03  0.50124696476E+03  0.68109201871E+03  0.00000000000E+00 0. -1.
</event>
<event>
 7    1  0.9434649E-006  0.1195874E+04  0.7818608E-02  0.9152902E-01
         -4   -1    0    0    0  502 -0.00000000000E+00  0.00000000000E+00  0.33138559568E+04  0.33138559568E+04  0.00000000000E+00 0. -1.
         -2   -1    0    0    0  501  0.00000000000E+00 -0.00000000000E+00 -0.69280070931E+03  0.69280070931E+03  0.00000000000E+00 0. -1.
   -9000010    2    1    2    0  501 -0.37515652907E+02 -0.67498718461E+03 -0.69360788591E+02  0.12088421017E+04  0.99973655739E+03 0.  0.
        -13    1    1    2    0    0  0.65888019511E+02  0.10602110214E+03  0.15412357380E+03  0.19833252980E+03  0.10566000000E+00 0.  1.
         13    1    3    3    0    0 -0.43507870296E+03 -0.82159355980E+02 -0.19546649329E+03  0.48399462673E+03  0.10566000000E+00 0. -1.
         -2    1    1    2    0  502 -0.28372366604E+02  0.56896608247E+03  0.25362924623E+04  0.25994820347E+04  0.00000000000E+00 0. -1.
         -4    1    3    3    0  501  0.39756305005E+03 -0.59282782863E+03  0.12610570470E+03  0.72484747494E+03  0.00000000000E+00 0. -1.
</event>
<event>
 6    1  0.9434649E-006  0.7582879E+02  0.7818608E-02  0.1217403E+00
          2   -1    0    0  501    0  0.00000000000E+00  0.00000000000E+00  0.11800288263E+04  0.11800288263E+04  0.00000000000E+00 0.  1.
         -4   -1    0    0    0  501 -0.00000000000E+00 -0.00000000000E+00 -0.62087927838E+02  0.62087927838E+02  0.00000000000E+00 0. -1.
        -13    1    1    2    0    0 -0.12685284359E+02  0.59584801539E+02  0.48069035430E+02  0.77600955825E+02  0.10566000000E+00 0.  1.
         13    1    1    2    0    0  0.37599269137E+01 -0.42414896026E+02 -0.17326352918E+02  0.45971449018E+02  0.10566000000E+00 0. -1.
          2    1    1    2  502    0 -0.17011703135E+02  0.56084333506E+01  0.10837002169E+04  0.10838482425E+04  0.00000000000E+00 0.  1.
         -4    1    1    2    0  502  0.25937060580E+02 -0.22778338864E+02  0.34979990572E+01  0.34696106847E+02  0.00000000000E+00 0. -1.
</event>
<event>
 7    1  0.9434649E-006  0.1003009E+04  0.7818608E-02  0.9360835E-01
          1   -1    0    0  501    0  0.00000000000E+00  0.00000000000E+00  0.91469295954E+03  0.91469295954E+03  0.00000000000E+00 0. -1.
         -4   -1    0    0    0  501 -0.00000000000E+00 -0.00000000000E+00 -0.64333992639E+03  0.64333992639E+03  0.00000000000E+00 0. -1.
   -9000010    2    1    2    0  502 -0.86131385730E+02  0.58064999285E+02  0.26234448346E+03  0.10375575943E+04  0.99845429226E+03 0.  0.
        -13    1    1    2    0    0  0.90766083659E+02 -0.29437067487E+02 -0.24598183620E+03  0.26384104644E+03  0.10566000000E+00 0.  1.
         13    1    3    3    0    0 -0.40513539719E+03  0.29284964502E+03 -0.89403629358E+02  0.50782735723E+03  0.10566000000E+00 0. -1.
          1    1    1    2  502    0 -0.46346979289E+01 -0.28627931798E+02  0.25499038589E+03  0.25663424518E+03  0.00000000000E+00 0. -1.
         -4    1    3    3    0  502  0.31900401146E+03 -0.23478464573E+03  0.35174811281E+03  0.52973023707E+03  0.00000000000E+00 0. -1.
</event>
<event>
 7    1  0.9434649E-006  0.9852590E+03  0.7818608E-02  0.9415988E-01
          4   -1    0    0  501    0 -0.00000000000E+00  0.00000000000E+00  0.81495694387E+03  0.81495694387E+03  0.00000000000E+00 0.  1.
          2   -1    0    0  502    0  0.00000000000E+00 -0.00000000000E+00 -0.96274853689E+03  0.96274853689E+03  0.00000000000E+00 0.  1.
    9000010    2    1    2  502    0 -0.80946586391E+02 -0.14302852342E+02  0.50438876068E+03  0.11068725210E+04  0.98183595082E+03 0.  0.
        -13    1    3    3    0    0 -0.43910642657E+03 -0.27154064944E+02  0.59234084015E+03  0.73784786994E+03  0.10566000000E+00 0.  1.
         13    1    1    2    0    0  0.82096840407E+02  0.42456228633E+01 -0.17292364627E+03  0.19146935818E+03  0.10566000000E+00 0. -1.
          2    1    1    2  501    0 -0.11502540162E+01  0.10057229479E+02 -0.47925670742E+03  0.47936360162E+03  0.00000000000E+00 0.  1.
          4    1    3    3  502    0  0.35815984017E+03  0.12851212602E+02 -0.87952079477E+02  0.36902465102E+03  0.00000000000E+00 0.  1.
</event>
<event>
 7    1  0.9434649E-006  0.1300355E+04  0.7818608E-02  0.8635938E-01
         -4   -1    0    0    0  501 -0.00000000000E+00  0.00000000000E+00  0.17041905603E+04  0.17041905603E+04  0.00000000000E+00 0. -1.
          2   -1    0    0  501    0  0.00000000000E+00 -0.00000000000E+00 -0.13004754328E+04  0.13004754328E+04  0.00000000000E+00 0.  1.
   -9000010    2    1    2    0  502 -0.80435645828E+03 -0.17872463571E+03  0.81887368562E+03  0.15343066525E+04  0.10023028402E+04 0.  0.
        -13    1    1    2    0    0  0.81044115781E+03  0.19068214088E+03  0.19902527606E+03  0.85602898362E+03  0.10566000000E+00 0.  1.
         13    1    3    3    0    0 -0.10110531558E+04 -0.25291157546E+03  0.52365592800E+03  0.11663654191E+04  0.10566000000E+00 0. -1.
          2    1    1    2  502    0 -0.60846995283E+01 -0.11957505171E+02 -0.61418383412E+03  0.61433035705E+03  0.00000000000E+00 0.  1.
         -4    1    3    3    0  502  0.20669669749E+03  0.74186939747E+02  0.29521775761E+03  0.36794123334E+03  0.00000000000E+00 0. -1.
</event>
<event>
 7    1  0.9434649E-006  0.1169502E+04  0.7818608E-02  0.8791325E-01
          4   -1    0    0  501    0  0.00000000000E+00  0.00000000000E+00  0.69319617205E+03  0.69319617205E+03  0.00000000000E+00 0.  1.
         -4   -1    0    0    0  501 -0.00000000000E+00 -0.00000000000E+00 -0.23848230439E+04  0.23848230439E+04  0.00000000000E+00 0. -1.
   -9000010    2    1    2    0  502  0.21352188633E+03  0.48815552544E+03 -0.15830288956E+04  0.19541179494E+04  0.10142529580E+04 0.  0.
        -13    1    1    2    0    0 -0.39079366901E+03 -0.50220469945E+03 -0.42200716302E+03  0.76355701077E+03  0.10566000000E+00 0.  1.
         13    1    3    3    0    0  0.40461912366E+03  0.23896897233E+03 -0.15932451124E+03  0.49619261987E+03  0.10566000000E+00 0. -1.
          4    1    1    2  502    0  0.17727178268E+03  0.14049174011E+02  0.31340918685E+03  0.36034425571E+03  0.00000000000E+00 0.  1.
         -4    1    3    3    0  502 -0.19109723733E+03  0.24918655311E+03 -0.14237043844E+04  0.14579253295E+04  0.00000000000E+00 0. -1.
</event>
<event>
 6    1  0.9434649E-006  0.1290742E+03  0.7818608E-02  0.1123800E+00
          2   -1    0    0  501    0  0.00000000000E+00  0.00000000000E+00  0.40412892429E+03  0.40412892429E+03  0.00000000000E+00 0. -1.
         -4   -1    0    0    0  501 -0.00000000000E+00 -0.00000000000E+00 -0.44941175492E+02  0.44941175492E+02  0.00000000000E+00 0. -1.
        -13    1    1    2    0    0  0.26536384597E+02  0.22972667959E+02  0.71313598594E+02  0.79483103168E+02  0.10566000000E+00 0.  1.
         13    1    1    2    0    0 -0.84803749181E+01 -0.34183289996E+02 -0.11277317706E+02  0.36981118593E+02  0.10566000000E+00 0. -1.
          2    1    1    2  502    0 -0.36580239746E+02  0.24065754981E+01  0.30806802915E+03  0.31024154482E+03  0.00000000000E+00 0. -1.
         -4    1    1    2    0  502  0.18524230067E+02  0.88040465393E+01 -0.89165612446E+01  0.22364333200E+02  0.00000000000E+00 0. -1.
</event>
<event>
 6    1  0.9434649E-006  0.2278996E+03  0.7818608E-02  0.1042527E+00
          2   -1    0    0  502    0  0.00000000000E+00  0.00000000000E+00  0.10655750056E+04  0.10655750056E+04  0.00000000000E+00 0.  1.
          4   -1    0    0  501    0 -0.00000000000E+00 -0.00000000000E+00 -0.31878047255E+02  0.31878047255E+02  0.00000000000E+00 0.  1.
        -13    1    1    2    0    0 -0.38417107800E+02  0.84894542653E+02  0.56344735173E+02  0.10889305712E+03  0.10566000000E+00 0.  1.
         13    1    1    2    0    0  0.45541317619E+02 -0.42113936450E+02  0.20179581363E+03  0.21111408484E+03  0.10566000000E+00 0. -1.
          2    1    1    2  501    0  0.18282873484E+01 -0.27228857130E+02  0.65430362250E+03  0.65487249424E+03  0.00000000000E+00 0.  1.
          4    1    1    2  502    0 -0.89524971676E+01 -0.15551749073E+02  0.12125278700E+03  0.12257341661E+03  0.00000000000E+00 0.  1.
</event>
<event>
 6    1  0.9434649E-006  0.6237035E+03  0.7818608E-02  0.9241676E-01
         -4   -1    0    0    0  501 -0.00000000000E+00  0.00000000000E+00  0.40902334140E+03  0.40902334140E+03  0.00000000000E+00 0. -1.
          2   -1    0    0  501    0  0.00000000000E+00 -0.00000000000E+00 -0.17574245621E+04  0.17574245621E+04  0.00000000000E+00 0.  1.
        -13    1    1    2    0    0 -0.45973441801E+02  0.76031100340E+02  0.73740052875E+01  0.89155328993E+02  0.10566000000E+00 0.  1.
         13    1    1    2    0    0  0.39122841635E+02 -0.99790746431E+02  0.32096331020E+03  0.33838771767E+03  0.10566000000E+00 0. -1.
          2    1    1    2  502    0 -0.10208250334E+03  0.11745606009E+03 -0.15133270297E+04  0.15213071558E+04  0.00000000000E+00 0.  1.
         -4    1    1    2    0  502  0.10893310351E+03 -0.93696414004E+02 -0.16341150655E+03  0.21759770107E+03  0.00000000000E+00 0. -1.
</event>
<event>
 6    1  0.9434649E-006  0.7657498E+02  0.7818608E-02  0.1214769E+00
         -4   -1    0    0    0  501 -0.00000000000E+00  0.00000000000E+00  0.86498456416E+02  0.86498456416E+02  0.00000000000E+00 0. -1.
          1   -1    0    0  501    0  0.00000000000E+00 -0.00000000000E+00 -0.62028951475E+03  0.62028951475E+03  0.00000000000E+00 0. -1.
        -13    1    1    2    0    0 -0.57916655122E+02  0.27806667366E+02 -0.14132335421E+02  0.65782092996E+02  0.10566000000E+00 0.  1.
         13    1    1    2    0    0  0.60394964453E+02 -0.19106407260E+02  0.39923249199E+02  0.74876455046E+02  0.10566000000E+00 0. -1.
          1    1    1    2  502    0 -0.13200667893E+02 -0.89358926444E+01 -0.55363807056E+03  0.55386751212E+03  0.00000000000E+00 0. -1.
         -4    1    1    2    0  502  0.10722358562E+02  0.23563253929E+00 -0.59439015575E+01  0.12261911007E+02  0.00000000000E+00 0. -1.
</event>
<event>
 7    1  0.9434649E-006  0.1005479E+04  0.7818608E-02  0.9803375E-01
         -4   -1    0    0    0  501 -0.00000000000E+00  0.00000000000E+00  0.10946216301E+03  0.10946216301E+03  0.00000000000E+00 0. -1.
          2   -1    0    0  501    0  0.00000000000E+00 -0.00000000000E+00 -0.38377428161E+04  0.38377428161E+04  0.00000000000E+00 0. -1.
   -9000010    2    1    2    0  502 -0.29163325849E+02 -0.17664783477E+02 -0.35871966181E+04  0.37255488403E+04  0.10052721226E+04 0.  0.
        -13    1    1    2    0    0  0.19504680161E+02 -0.20262023204E+00  0.37314398099E+02  0.42105214317E+02  0.10566000000E+00 0.  1.
         13    1    3    3    0    0 -0.41333459055E+03 -0.19734448271E+03 -0.27411332987E+04  0.27791369345E+04  0.10566000000E+00 0. -1.
          2    1    1    2  502    0  0.96586456888E+01  0.17867403709E+02 -0.17839843303E+03  0.17955092442E+03  0.00000000000E+00 0. -1.
         -4    1    3    3    0  502  0.38417126470E+03  0.17967969923E+03 -0.84606331941E+03  0.94641190578E+03  0.00000000000E+00 0. -1.
</event>
<event>
 7    1  0.9434649E-006  0.1171197E+04  0.7818608E-02  0.8784396E-01
          4   -1    0    0  501    0 -0.00000000000E+00  0.00000000000E+00  0.15927002598E+04  0.15927002598E+04  0.00000000000E+00 0.  1.
          2   -1    0    0  502    0  0.00000000000E+00 -0.00000000000E+00 -0.15315079966E+04  0.15315079966E+04  0.00000000000E+00 0. -1.
    9000010    2    1    2  502    0 -0.51896087244E+03 -0.28967624310E+03  0.24876806108E+02  0.11700844192E+04  0.10075941543E+04 0.  0.
        -13    1    3    3    0    0 -0.17137726187E+03  0.12173777213E+03 -0.42120791213E+03  0.47075085497E+03  0.10566000000E+00 0.  1.
         13    1    1    2    0    0  0.52768849873E+03  0.28022728797E+03  0.90549347374E+03  0.10848506472E+04  0.10566000000E+00 0. -1.
          2    1    1    2  501    0 -0.87276262938E+01  0.94489551266E+01 -0.86917801666E+03  0.86927319001E+03  0.00000000000E+00 0. -1.
          4    1    3    3  502    0 -0.34758361057E+03 -0.41141401523E+03  0.44608471824E+03  0.69933356427E+03  0.00000000000E+00 0.  1.
</event>
<event>
 7    1  0.9434649E-006  0.1008830E+04  0.7818608E-02  0.9272231E-01
          2   -1    0    0  501    0  0.00000000000E+00  0.00000000000E+00  0.66230410476E+03  0.66230410476E+03  0.00000000000E+00 0. -1.
         -4   -1    0    0    0  501 -0.00000000000E+00 -0.00000000000E+00 -0.10645966556E+04  0.10645966556E+04  0.00000000000E+00 0. -1.
   -9000010    2    1    2    0  502 -0.85143645858E+02  0.45872564130E+02 -0.77950467469E+03  0.12718194667E+04  0.10002717058E+04 0.  0.
        -13    1    1    2    0    0  0.15575336479E+03 -0.35738598594E+02  0.15867995796E+03  0.22520146158E+03  0.10566000000E+00 0.  1.
         13    1    3    3    0    0  0.22646819977E+03  0.41194729571E+03 -0.18002267197E+03  0.50338513440E+03  0.10566000000E+00 0. -1.
          2    1    1    2  502    0 -0.70609718933E+02 -0.10133965537E+02  0.21853216591E+03  0.22987983209E+03  0.00000000000E+00 0. -1.
         -4    1    3    3    0  502 -0.31161184563E+03 -0.36607473158E+03 -0.59948200271E+03  0.76843433227E+03  0.00000000000E+00 0. -1.
</event>
<event>
 7    1  0.9434649E-006  0.1226733E+04  0.7818608E-02  0.8703975E-01
          2   -1    0    0  501    0  0.00000000000E+00  0.00000000000E+00  0.20486285575E+04  0.20486285575E+04  0.00000000000E+00 0.  1.
         -4   -1    0    0    0  501 -0.00000000000E+00 -0.00000000000E+00 -0.99412711455E+03  0.99412711455E+03  0.00000000000E+00 0. -1.
   -9000010    2    1    2    0  502  0.72539968060E+03 -0.12964700100E+02 -0.20885473561E+03  0.12397536209E+04  0.98335952724E+03 0.  0.
        -13    1    1    2    0    0 -0.74067426436E+03  0.30163426468E+02  0.23968796542E+03  0.77907543287E+03  0.10566000000E+00 0.  1.
         13    1    3    3    0    0  0.68177734399E+03  0.17824267336E+03 -0.51734064757E+03  0.87420372578E+03  0.10566000000E+00 0. -1.
          2    1    1    2  502    0  0.15274583759E+02 -0.17198726368E+02  0.10236682132E+04  0.10239266184E+04  0.00000000000E+00 0.  1.
         -4    1    3    3    0  502  0.43622336608E+02 -0.19120737346E+03  0.30848591196E+03  0.36554989508E+03  0.00000000000E+00 0. -1.
</event>
<event>
 7    1  0.9434649E-006  0.1017169E+04  0.7818608E-02  0.9227283E-01
          2   -1    0    0  502    0  0.00000000000E+00  0.00000000000E+00  0.81769226227E+03  0.81769226227E+03  0.00000000000E+00 0.  1.
          4   -1    0    0  501    0 -0.00000000000E+00 -0.00000000000E+00 -0.13025879397E+04  0.13025879397E+04  0.00000000000E+00 0.  1.
    9000010    2    1    2  502    0  0.16396091481E+03  0.18424615524E+02 -0.19675633147E+03  0.10380137190E+04  0.10057518475E+04 0.  0.
        -13    1    3    3    0    0  0.18513262913E+03  0.12573835832E+03 -0.58937969452E+03  0.63043846694E+03  0.10566000000E+00 0.  1.
         13    1    1    2    0    0 -0.70112590855E+02 -0.13622209835E+03 -0.66184839805E+03  0.67934935684E+03  0.10566000000E+00 0. -1.
          2    1    1    2  501    0 -0.93848323959E+02  0.11779748282E+03  0.37370905211E+03  0.40291712610E+03  0.00000000000E+00 0.  1.
          4    1    3    3  502    0 -0.21171714319E+02 -0.10731374279E+03  0.39262336305E+03  0.40757525206E+03  0.00000000000E+00 0.  1.
</event>
<event>
 7    1  0.9434649E-006  0.1004676E+04  0.7818608E-02  0.9078164E-01
         -4   -1    0    0    0  501 -0.00000000000E+00  0.00000000000E+00  0.18007776452E+04  0.18007776452E+04  0.00000000000E+00 0. -1.
          2   -1    0    0  501    0  0.00000000000E+00 -0.00000000000E+00 -0.14446697869E+04  0.14446697869E+04  0.00000000000E+00 0.  1.
   -9000010    2    1    2    0  502  0.22695621236E+03 -0.11944211206E+03  0.54324193905E+03  0.11359278745E+04  0.96407717077E+03 0.  0.
        -13    1    1    2    0    0 -0.23758979856E+03  0.15680100610E+03  0.93977398280E+03  0.98194226806E+03  0.10566000000E+00 0.  1.
         13    1    3    3    0    0  0.55050330946E+03 -0.29976474278E+03  0.32634480612E+03  0.70669211004E+03  0.10566000000E+00 0. -1.
          2    1    1    2  502    0  0.10633586202E+02 -0.37358894042E+02 -0.11269080636E+04  0.11275772895E+04  0.00000000000E+00 0.  1.
         -4    1    3    3    0  502 -0.32354709710E+03  0.18032263073E+03  0.21689713293E+03  0.42923576443E+03  0.00000000000E+00 0. -1.
</event>
<event>
 7    1  0.9434649E-006  0.1132529E+04  0.7818608E-02  0.8885693E-01
         -4   -1    0    0    0  501 -0.00000000000E+00  0.00000000000E+00  0.11704455286E+04  0.11704455286E+04  0.00000000000E+00 0. -1.
          2   -1    0    0  501    0  0.00000000000E+00 -0.00000000000E+00 -0.14356496522E+04  0.14356496522E+04  0.00000000000E+00 0. -1.
   -9000010    2    1    2    0  502 -0.23434548746E+03  0.54917020264E+03 -0.13466121281E+03  0.11794606255E+04  0.10082102984E+04 0.  0.
        -13    1    1    2    0    0 -0.25411515642E+03 -0.34869794767E+03  0.46256317897E+03  0.63255788442E+03  0.10566000000E+00 0.  1.
         13    1    3    3    0    0  0.63109357706E+02 -0.10207312176E+03  0.31289836038E+03  0.33512252731E+03  0.10566000000E+00 0. -1.
          2    1    1    2  502    0  0.48846064387E+03 -0.20047225496E+03 -0.59310608971E+03  0.79407667090E+03  0.00000000000E+00 0. -1.
         -4    1    3    3    0  502 -0.29745484516E+03  0.65124332440E+03 -0.44755957319E+03  0.84433809818E+03  0.00000000000E+00 0. -1.
</event>
<event>
 6    1  0.9434649E-006  0.4269580E+03  0.7818608E-02  0.9654270E-01
         -4   -1    0    0    0  501 -0.00000000000E+00  0.00000000000E+00  0.61923437231E+02  0.61923437231E+02  0.00000000000E+00 0. -1.
          2   -1    0    0  501    0  0.00000000000E+00 -0.00000000000E+00 -0.19460718615E+04  0.19460718615E+04  0.00000000000E+00 0.  1.
        -13    1    1    2    0    0  0.44407617265E+02  0.17133064641E+03 -0.23181410060E+03  0.29165735936E+03  0.10566000000E+00 0.  1.
         13    1    1    2    0    0 -0.56997197713E+02 -0.13337036789E+03 -0.13767889023E+03  0.19997955785E+03  0.10566000000E+00 0. -1.
          2    1    1    2  502    0 -0.81389256158E+01 -0.14691167753E+02 -0.12093582308E+04  0.12094748459E+04  0.00000000000E+00 0.  1.
         -4    1    1    2    0  502  0.20728506064E+02 -0.23269110765E+02 -0.30529720267E+03  0.30688353562E+03  0.00000000000E+00 0. -1.
</event>
<event>
 7    1  0.9434649E-006  0.1601346E+04  0.7818608E-02  0.8407024E-01
          2   -1    0    0  502    0  0.00000000000E+00  0.00000000000E+00  0.91368705163E+03  0.91368705163E+03  0.00000000000E+00 0. -1.
          4   -1    0    0  501    0 -0.00000000000E+00 -0.00000000000E+00 -0.25937882724E+04  0.25937882724E+04  0.00000000000E+00 0.  1.
    9000010    2    1    2  502    0  0.12758385857E+04  0.44432475314E+02 -0.14802319571E+04  0.21977132818E+04  0.10045489936E+04 0.  0.
        -13    1    3    3    0    0  0.72530678002E+03 -0.34073505167E+03 -0.12550946258E+04  0.14891047080E+04  0.10566000000E+00 0.  1.
         13    1    1    2    0    0 -0.12060457620E+04 -0.30017872317E+01 -0.22044539583E+03  0.12260308212E+04  0.10566000000E+00 0. -1.
          2    1    1    2  501    0 -0.69792823724E+02 -0.41430688082E+02  0.20576132188E+02  0.83731221024E+02  0.00000000000E+00 0. -1.
          4    1    3    3  502    0  0.55053180569E+03  0.38516752698E+03 -0.22513733130E+03  0.70860857380E+03  0.00000000000E+00 0.  1.
</event>
<event>
 7    1  0.9434649E-006  0.9393062E+03  0.7818608E-02  0.9188907E-01
         -4   -1    0    0    0  501 -0.00000000000E+00  0.00000000000E+00  0.18846520183E+03  0.18846520183E+03  0.00000000000E+00 0. -1.
          2   -1    0    0  501    0  0.00000000000E+00 -0.00000000000E+00 -0.32357352355E+04  0.32357352355E+04  0.00000000000E+00 0. -1.
   -9000010    2    1    2    0  502 -0.12750064403E+03 -0.22429826362E+03 -0.12237915973E+04  0.15480355827E+04  0.91224019126E+03 0.  0.
        -13    1    1    2    0    0  0.13946275237E+03  0.16228110226E+03 -0.42091984150E+03  0.47218485742E+03  0.10566000000E+00 0.  1.
         13    1    3    3    0    0 -0.32829731826E+03  0.26190757117E+03 -0.59371498029E+03  0.72723599609E+03  0.10566000000E+00 0. -1.
          2    1    1    2  502    0 -0.11962108344E+02  0.62017161353E+02 -0.14025585949E+04  0.14039799971E+04  0.00000000000E+00 0. -1.
         -4    1    3    3    0  502  0.20079667424E+03 -0.48620583479E+03 -0.63007661698E+03  0.82079958664E+03  0.00000000000E+00 0. -1.
</event>
<event>
 7    1  0.9434649E-006  0.1373645E+04  0.7818608E-02  0.9037750E-01
          4   -1    0    0  501    0 -0.00000000000E+00  0.00000000000E+00  0.21241827362E+04  0.21241827362E+04  0.00000000000E+00 0.  1.
          2   -1    0    0  502    0  0.00000000000E+00 -0.00000000000E+00 -0.79569701126E+03  0.79569701126E+03  0.00000000000E+00 0.  1.
    9000010    2    1    2  502    0  0.10004063470E+04 -0.19477508913E+03  0.77203313449E+03  0.16213736790E+04  0.99702921317E+03 0.  0.
        -13    1    3    3    0    0  0.56630235289E+03  0.39441384515E+03  0.43397170743E+03  0.81522517757E+03  0.10566000000E+00 0.  1.
         13    1    1    2    0    0 -0.96899376895E+02  0.86646759575E+02  0.33880387744E+03  0.36288459422E+03  0.10566000000E+00 0. -1.
          2    1    1    2  501    0 -0.90350697009E+03  0.10812832955E+03  0.21764871298E+03  0.93562147417E+03  0.00000000000E+00 0.  1.
          4    1    3    3  502    0  0.43410399410E+03 -0.58918893428E+03  0.33806142705E+03  0.80614850148E+03  0.00000000000E+00 0.  1.
</event>
<event>
 7    1  0.9434649E-006  0.1034764E+04  0.7818608E-02  0.9268682E-01
         -4   -1    0    0    0  501 -0.00000000000E+00  0.00000000000E+00  0.47276213020E+03  0.47276213020E+03  0.00000000000E+00 0. -1.
          1   -1    0    0  501    0  0.00000000000E+00 -0.00000000000E+00 -0.15078142329E+04  0.15078142329E+04  0.00000000000E+00 0. -1.
   -9000010    2    1    2    0  502  0.76627015363E+02 -0.11175022303E+03 -0.53654045503E+03  0.11533979300E+04  0.10119739687E+04 0.  0.
        -13    1    1    2    0    0 -0.56558716651E+02 -0.10941386323E+03  0.11880758403E+03  0.17113017000E+03  0.10566000000E+00 0.  1.
         13    1    3    3    0    0 -0.31380147048E+02 -0.37632457805E+03  0.15264406811E+03  0.40731452757E+03  0.10566000000E+00 0. -1.
          1    1    1    2  502    0 -0.20068298712E+02  0.22116408626E+03 -0.61731923175E+03  0.65604826313E+03  0.00000000000E+00 0. -1.
         -4    1    3    3    0  502  0.10800716241E+03  0.26457435503E+03 -0.68918452314E+03  0.74608340244E+03  0.00000000000E+00 0. -1.
</event>
<event>
 7    1  0.9434649E-006  0.1057589E+04  0.7818608E-02  0.9122089E-01
          1   -1    0    0  501    0  0.00000000000E+00  0.00000000000E+00  0.31170450609E+03  0.31170450609E+03  0.00000000000E+00 0. -1.
         -4   -1    0    0    0  501 -0.00000000000E+00 -0.00000000000E+00 -0.14767500118E+04  0.14767500118E+04  0.00000000000E+00 0. -1.
   -9000010    2    1    2    0  502  0.21472533476E+03 -0.12930408374E+03 -0.93558944137E+03  0.14195630516E+04  0.10377885812E+04 0.  0.
        -13    1    1    2    0    0 -0.16909202036E+03  0.89610313992E+02 -0.79550686499E+02  0.20724488560E+03  0.10566000000E+00 0.  1.
         13    1    3    3    0    0  0.38860618434E+03  0.25434162493E+03 -0.87954832598E+03  0.99464048660E+03  0.10566000000E+00 0. -1.
          1    1    1    2  502    0 -0.45633314406E+02  0.39693769749E+02 -0.14990537785E+03  0.16164658069E+03  0.00000000000E+00 0. -1.
         -4    1    3    3    0  502 -0.17388084957E+03 -0.38364570867E+03 -0.56041115384E+02  0.42492256500E+03  0.00000000000E+00 0. -1.
</event>
<event>
 7    1  0.9434649E-006  0.1036592E+04  0.7818608E-02  0.9448757E-01
         -4   -1    0    0    0  501 -0.00000000000E+00  0.00000000000E+00  0.11126100869E+04  0.11126100869E+04  0.00000000000E+00 0. -1.
          2   -1    0    0  501    0  0.00000000000E+00 -0.00000000000E+00 -0.67378706840E+03  0.67378706840E+03  0.00000000000E+00 0. -1.
   -9000010    2    1    2    0  502 -0.61515844569E+02  0.58098787176E+01  0.60210357899E+03  0.11987369887E+04  0.10347094735E+04 0.  0.
        -13    1    1    2    0    0  0.58902863162E+02  0.21032694540E+02  0.20707979983E+03  0.21631915354E+03  0.10566000000E+00 0.  1.
         13    1    3    3    0    0 -0.50092690342E+03 -0.21452774096E+03  0.30999728690E+03  0.62693559738E+03  0.10566000000E+00 0. -1.
          2    1    1    2  502    0  0.26129814069E+01 -0.26842573258E+02 -0.37036036034E+03  0.37134101299E+03  0.00000000000E+00 0. -1.
         -4    1    3    3    0  502  0.43941105885E+03  0.22033761968E+03  0.29210629209E+03  0.57180139136E+03  0.00000000000E+00 0. -1.
</event>
<event>
 7    1  0.9434649E-006  0.1741011E+04  0.7818608E-02  0.8323486E-01
          2   -1    0    0  502    0  0.00000000000E+00  0.00000000000E+00  0.88723243187E+03  0.88723243187E+03  0.00000000000E+00 0. -1.
          4   -1    0    0  501    0 -0.00000000000E+00 -0.00000000000E+00 -0.32817714598E+04  0.32817714598E+04  0.00000000000E+00 0.  1.
    9000010    2    1    2  502    0  0.12858776313E+04 -0.61825708577E+03 -0.18557762110E+04  0.25399058482E+04  0.98564357945E+03 0.  0.
        -13    1    3    3    0    0  0.56781297627E+03 -0.80188210682E+03 -0.11937995031E+04  0.15461512714E+04  0.10566000000E+00 0.  1.
         13    1    1    2    0    0 -0.12868499515E+04  0.66243133122E+03 -0.58863996213E+03  0.15624644260E+04  0.10566000000E+00 0. -1.
          2    1    1    2  501    0  0.97232019654E+00 -0.44174245444E+02  0.49877145191E+02  0.66633617488E+02  0.00000000000E+00 0. -1.
          4    1    3    3  502    0  0.71806465505E+03  0.18362502105E+03 -0.66197670796E+03  0.99375457688E+03  0.00000000000E+00 0.  1.
</event>
<event>
 7    1  0.9434649E-006  0.1023561E+04  0.7818608E-02  0.9252058E-01
          2   -1    0    0  501    0  0.00000000000E+00  0.00000000000E+00  0.12326526335E+04  0.12326526335E+04  0.00000000000E+00 0. -1.
         -4   -1    0    0    0  501 -0.00000000000E+00 -0.00000000000E+00 -0.12398913221E+04  0.12398913221E+04  0.00000000000E+00 0. -1.
   -9000010    2    1    2    0  502  0.12884800713E+03  0.24072243430E+02 -0.62788041094E+03  0.12002926470E+04  0.10145379964E+04 0.  0.
        -13    1    1    2    0    0 -0.13542814881E+03 -0.10884164657E+02 -0.31157965404E+03  0.33991343090E+03  0.10566000000E+00 0.  1.
         13    1    3    3    0    0 -0.27736268121E+03 -0.11521165128E+03  0.13152826416E+03  0.32787722848E+03  0.10566000000E+00 0. -1.
          2    1    1    2  502    0  0.65801416717E+01 -0.13188078773E+02  0.93222137633E+03  0.93233787769E+03  0.00000000000E+00 0. -1.
         -4    1    3    3    0  502  0.40621068835E+03  0.13928389471E+03 -0.75940867510E+03  0.87241541852E+03  0.00000000000E+00 0. -1.
</event>
<event>
 7    1  0.9434649E-006  0.1002796E+04  0.7818608E-02  0.9273725E-01
         -4   -1    0    0    0  501 -0.00000000000E+00  0.00000000000E+00  0.16175071301E+04  0.16175071301E+04  0.00000000000E+00 0. -1.
          2   -1    0    0  501    0  0.00000000000E+00 -0.00000000000E+00 -0.25118714391E+03  0.25118714391E+03  0.00000000000E+00 0. -1.
   -9000010    2    1    2    0  502  0.17981811512E+03 -0.87630719750E+02  0.89891463903E+03  0.13550052113E+04  0.99397077265E+03 0.  0.
        -13    1    1    2    0    0 -0.12142343058E+03  0.45202420422E+02  0.37292783397E+03  0.39479372946E+03  0.10566000000E+00 0.  1.
         13    1    3    3    0    0  0.22978573363E+03 -0.37605517269E+03  0.34130235025E+02  0.44202246594E+03  0.10566000000E+00 0. -1.
          2    1    1    2  502    0 -0.58394684541E+02  0.42428299329E+02  0.94477513202E+02  0.11889533324E+03  0.00000000000E+00 0. -1.
         -4    1    3    3    0  502 -0.49967618514E+02  0.28842445294E+03  0.86478440401E+03  0.91298274538E+03  0.00000000000E+00 0. -1.
</event>
<event>
 7    1  0.9434649E-006  0.1011913E+04  0.7818608E-02  0.9001303E-01
          4   -1    0    0  501    0 -0.00000000000E+00  0.00000000000E+00  0.14271964521E+04  0.14271964521E+04  0.00000000000E+00 0.  1.
          2   -1    0    0  502    0  0.00000000000E+00 -0.00000000000E+00 -0.63303033714E+03  0.63303033714E+03  0.00000000000E+00 0.  1.
    9000010    2    1    2  502    0  0.39788619374E+02 -0.33228515399E+03  0.64052814397E+03  0.11850843547E+04  0.93922950694E+03 0.  0.
        -13    1    3    3    0    0 -0.21113549329E+03  0.97357242316E+02 -0.13112808264E+03  0.26692923103E+03  0.10566000000E+00 0.  1.
         13    1    1    2    0    0  0.13763366491E+03  0.37347102254E+03  0.40294948610E+03  0.56638496618E+03  0.10566000000E+00 0. -1.
          2    1    1    2  501    0 -0.17742228429E+03 -0.41185868551E+02 -0.24931151509E+03  0.30875746839E+03  0.00000000000E+00 0.  1.
          4    1    3    3  502    0  0.25092411267E+03 -0.42964239631E+03  0.77165622661E+03  0.91815512365E+03  0.00000000000E+00 0.  1.
</event>
<event>
 6    1  0.9434649E-006  0.2779622E+03  0.7818608E-02  0.1016841E+00
          4   -1    0    0  501    0 -0.00000000000E+00  0.00000000000E+00  0.62208427166E+03  0.62208427166E+03  0.00000000000E+00 0.  1.
          2   -1    0    0  502    0  0.00000000000E+00 -0.00000000000E+00 -0.20340145261E+03  0.20340145261E+03  0.00000000000E+00 0. -1.
        -13    1    1    2    0    0 -0.65615449306E+02 -0.10109061433E+03  0.38964606003E+03  0.40785875344E+03  0.10566000000E+00 0.  1.
         13    1    1    2    0    0  0.90271716864E+02  0.65753948162E+02  0.13243698309E+03  0.17324009414E+03  0.10566000000E+00 0. -1.
          2    1    1    2  501    0 -0.93160364164E+01  0.21002356696E+02 -0.17154724437E+03  0.17307901251E+03  0.00000000000E+00 0. -1.
          4    1    1    2  502    0 -0.15340231141E+02  0.14334309474E+02  0.68147020290E+02  0.71307864180E+02  0.00000000000E+00 0.  1.
</event>
<event>
 7    1  0.9434649E-006  0.1030373E+04  0.7818608E-02  0.9063510E-01
         -4   -1    0    0    0  501 -0.00000000000E+00  0.00000000000E+00  0.75674583656E+03  0.75674583656E+03  0.00000000000E+00 0. -1.
          1   -1    0    0  501    0  0.00000000000E+00 -0.00000000000E+00 -0.10374843173E+04  0.10374843173E+04  0.00000000000E+00 0. -1.
   -9000010    2    1    2    0  502 -0.42104547868E+02  0.27374956236E+03 -0.51619389336E+03  0.11522334163E+04  0.99220667917E+03 0.  0.
        -13    1    1    2    0    0  0.80790783486E+02 -0.26602901739E+03  0.39198453960E+03  0.48057307378E+03  0.10566000000E+00 0.  1.
         13    1    3    3    0    0 -0.58746990967E+01 -0.26158324167E+03 -0.55570652832E+03  0.61422313632E+03  0.10566000000E+00 0. -1.
          1    1    1    2  502    0 -0.38686235618E+02 -0.77205449727E+01 -0.15652912698E+03  0.16142366380E+03  0.00000000000E+00 0. -1.
         -4    1    3    3    0  502 -0.36229848771E+02  0.53533280403E+03  0.39512634965E+02  0.53801027995E+03  0.00000000000E+00 0. -1.
</event>
<event>
 7    1  0.9434649E-006  0.1013086E+04  0.7818608E-02  0.9196840E-01
          4   -1    0    0  501    0 -0.00000000000E+00  0.00000000000E+00  0.21902973163E+04  0.21902973163E+04  0.00000000000E+00 0.  1.
          2   -1    0    0  502    0  0.00000000000E+00 -0.00000000000E+00 -0.26011292708E+03  0.26011292708E+03  0.00000000000E+00 0.  1.
    9000010    2    1    2  502    0  0.26102799253E+03  0.69548074837E+02  0.16216120089E+04  0.19232800473E+04  0.99820242704E+03 0.  0.
        -13    1    3    3    0    0  0.46459519674E+03  0.40762191085E+03  0.11724461369E+04  0.13253808035E+04  0.10566000000E+00 0.  1.
         13    1    1    2    0    0 -0.16061706155E+03 -0.22565761930E+02  0.36741490765E+03  0.40162268312E+03  0.10566000000E+00 0. -1.
          2    1    1    2  501    0 -0.10041093098E+03 -0.46982312907E+02 -0.58842527329E+02  0.12550751296E+03  0.00000000000E+00 0.  1.
          4    1    3    3  502    0 -0.20356720421E+03 -0.33807383601E+03  0.44916587193E+03  0.59789924380E+03  0.00000000000E+00 0.  1.
</event>
<event>
 6    1  0.9434649E-006  0.1665899E+03  0.7818608E-02  0.1087524E+00
          2   -1    0    0  502    0  0.00000000000E+00  0.00000000000E+00  0.82204307087E+03  0.82204307087E+03  0.00000000000E+00 0. -1.
          4   -1    0    0  501    0 -0.00000000000E+00 -0.00000000000E+00 -0.61658975598E+03  0.61658975598E+03  0.00000000000E+00 0.  1.
        -13    1    1    2    0    0 -0.21557765674E+02  0.11191883123E+03  0.36203300090E+02  0.11958784280E+03  0.10566000000E+00 0.  1.
         13    1    1    2    0    0  0.33367937494E+02 -0.15946668349E+03 -0.55489238757E+03  0.57831532519E+03  0.10566000000E+00 0. -1.
          2    1    1    2  501    0  0.94576977084E+01  0.39770930954E+02  0.71522443294E+03  0.71639176745E+03  0.00000000000E+00 0. -1.
          4    1    1    2  502    0 -0.21267869528E+02  0.77769213096E+01  0.89179694367E+01  0.24337891408E+02  0.00000000000E+00 0.  1.
</event>
<event>
 7    1  0.9434649E-006  0.1006233E+04  0.7818608E-02  0.9214346E-01
         -4   -1    0    0    0  501 -0.00000000000E+00  0.00000000000E+00  0.12708775983E+04  0.12708775983E+04  0.00000000000E+00 0. -1.
          2   -1    0    0  501    0  0.00000000000E+00 -0.00000000000E+00 -0.31597693307E+04  0.31597693307E+04  0.00000000000E+00 0.  1.
   -9000010    2    1    2    0  502 -0.55661564284E+02 -0.75910558782E+02  0.30325633049E+03  0.10421612329E+04  0.99261020080E+03 0.  0.
        -13    1    1    2    0    0  0.16609796774E+03  0.26177021426E+02  0.58500594104E+03  0.60869182150E+03  0.10566000000E+00 0.  1.
         13    1    3    3    0    0 -0.10155713556E+03 -0.12025521256E+03  0.66063593494E+03  0.67912813049E+03  0.10566000000E+00 0. -1.
          2    1    1    2  502    0 -0.11043640345E+03  0.49733537355E+02 -0.27771540040E+04  0.27797938747E+04  0.00000000000E+00 0.  1.
         -4    1    3    3    0  502  0.45895571277E+02  0.44344653778E+02 -0.35737960444E+03  0.36303310242E+03  0.00000000000E+00 0. -1.
</event>
<event>
 7    1  0.9434649E-006  0.9296618E+03  0.7818608E-02  0.9205522E-01
         -4   -1    0    0    0  501 -0.00000000000E+00  0.00000000000E+00  0.23747688805E+04  0.23747688805E+04  0.00000000000E+00 0. -1.
          1   -1    0    0  501    0  0.00000000000E+00 -0.00000000000E+00 -0.47437471939E+03  0.47437471939E+03  0.00000000000E+00 0.  1.
   -9000010    2    1    2    0  502  0.21014009374E+03 -0.33475682201E+02  0.95208535630E+03  0.13300923188E+04  0.90410152672E+03 0.  0.
        -13    1    1    2    0    0 -0.21561936451E+03  0.21634963724E+02  0.12240083799E+04  0.12430431639E+04  0.10566000000E+00 0.  1.
         13    1    3    3    0    0  0.28828667855E+03 -0.42123958714E+03  0.67881094225E+03  0.84931519784E+03  0.10566000000E+00 0. -1.
          1    1    1    2  502    0  0.54792707639E+01  0.11840718478E+02 -0.27569957512E+03  0.27600811717E+03  0.00000000000E+00 0.  1.
         -4    1    3    3    0  502 -0.78146584802E+02  0.38776390493E+03  0.27327441405E+03  0.48077712098E+03  0.00000000000E+00 0. -1.
</event>
<event>
 7    1  0.9434649E-006  0.1008021E+04  0.7818608E-02  0.9146460E-01
          2   -1    0    0  502    0  0.00000000000E+00  0.00000000000E+00  0.14254181155E+04  0.14254181155E+04  0.00000000000E+00 0.  1.
          4   -1    0    0  501    0 -0.00000000000E+00 -0.00000000000E+00 -0.92390850412E+03  0.92390850412E+03  0.00000000000E+00 0.  1.
    9000010    2    1    2  502    0  0.95400831635E+02 -0.33231781281E+03 -0.50599278311E+02  0.10452333424E+04  0.98509695239E+03 0.  0.
        -13    1    3    3    0    0 -0.28733765819E+03 -0.49422061113E+03 -0.19693361875E+03  0.60464849594E+03  0.10566000000E+00 0.  1.
         13    1    1    2    0    0 -0.14570687441E+03  0.14866406715E+03 -0.33629742108E+03  0.39550912088E+03  0.10566000000E+00 0. -1.
          2    1    1    2  501    0  0.50306042772E+02  0.18365374566E+03  0.88840631076E+03  0.90858415638E+03  0.00000000000E+00 0.  1.
          4    1    3    3  502    0  0.38273848983E+03  0.16190279832E+03  0.14633434044E+03  0.44058484642E+03  0.00000000000E+00 0.  1.
</event>
<event>
 7    1  0.9434649E-006  0.1016852E+04  0.7818608E-02  0.9137453E-01
          4   -1    0    0  501    0 -0.00000000000E+00  0.00000000000E+00  0.17035314711E+04  0.17035314711E+04  0.00000000000E+00 0.  1.
          2   -1    0    0  502    0  0.00000000000E+00 -0.00000000000E+00 -0.77777390646E+03  0.77777390646E+03  0.00000000000E+00 0.  1.
    9000010    2    1    2  502    0  0.21015488190E+03  0.14014527172E+02  0.11927332063E+04  0.15666605695E+04  0.99370587066E+03 0.  0.
        -13    1    3    3    0    0  0.49111277065E+03 -0.44713586492E+02  0.19810985869E+03  0.53144951368E+03  0.10566000000E+00 0.  1.
         13    1    1    2    0    0 -0.20734374508E+03  0.72334543471E+02  0.28284084615E+03  0.35808193227E+03  0.10566000000E+00 0. -1.
          2    1    1    2  501    0 -0.28111368251E+01 -0.86349070643E+02 -0.54981648777E+03  0.55656287579E+03  0.00000000000E+00 0.  1.
          4    1    3    3  502    0 -0.28095788875E+03  0.58728113664E+02  0.99462334758E+03  0.10352110558E+04  0.00000000000E+00 0.  1.
</event>
<event>
 6    1  0.9434649E-006  0.4554843E+03  0.7818608E-02  0.9581271E-01
          2   -1    0    0  501    0  0.00000000000E+00  0.00000000000E+00  0.90763663222E+03  0.90763663222E+03  0.00000000000E+00 0.  1.
         -4   -1    0    0    0  501 -0.00000000000E+00 -0.00000000000E+00 -0.22457985489E+03  0.22457985489E+03  0.00000000000E+00 0. -1.
        -13    1    1    2    0    0  0.48060803773E+02 -0.87290721485E+02 -0.61285453162E+02  0.11698473768E+03  0.10566000000E+00 0.  1.
         13    1    1    2    0    0 -0.18731095526E+03  0.73382547786E+02 -0.33597219452E+02  0.20395876201E+03  0.10566000000E+00 0. -1.
          2    1    1    2  502    0  0.54121910495E+02  0.75835849849E+00  0.67448313618E+03  0.67665150358E+03  0.00000000000E+00 0.  1.
         -4    1    1    2    0  502  0.85128240992E+02  0.13149815200E+02  0.10345631377E+03  0.13462148384E+03  0.00000000000E+00 0. -1.
</event>
<event>
 7    1  0.9434649E-006  0.1091878E+04  0.7818608E-02  0.8909620E-01
          4   -1    0    0  501    0 -0.00000000000E+00  0.00000000000E+00  0.19580199357E+04  0.19580199357E+04  0.00000000000E+00 0.  1.
          2   -1    0    0  502    0  0.00000000000E+00 -0.00000000000E+00 -0.42798927873E+03  0.42798927873E+03  0.00000000000E+00 0. -1.
    9000010    2    1    2  502    0 -0.33682692123E+03  0.49580523980E+03  0.81169210221E+03  0.14213290455E+04  0.10010279596E+04 0.  0.
        -13    1    3    3    0    0 -0.76049003724E+02  0.28301465117E+03  0.99556476791E+03  0.10378005406E+04  0.10566000000E+00 0.  1.
         13    1    1    2    0    0  0.30937897951E+03 -0.25407872802E+03  0.46037522027E+03  0.61009565446E+03  0.10566000000E+00 0. -1.
          2    1    1    2  501    0  0.27447941720E+02 -0.24172651178E+03  0.25796333451E+03  0.35458451455E+03  0.00000000000E+00 0. -1.
          4    1    3    3  502    0 -0.26077791751E+03  0.21279058863E+03 -0.18387266569E+03  0.38352850488E+03  0.00000000000E+00 0.  1.
</event>
<event>
 7    1  0.9434649E-006  0.1021045E+04  0.7818608E-02  0.9160210E-01
         -2   -1    0    0    0  501  0.00000000000E+00  0.00000000000E+00  0.27941245643E+03  0.27941245643E+03  0.00000000000E+00 0. -1.
         -4   -1    0    0    0  502 -0.00000000000E+00 -0.00000000000E+00 -0.27465795112E+04  0.27465795112E+04  0.00000000000E+00 0. -1.
   -9000010    2    1    2    0  501 -0.16242305430E+03  0.15594697931E+03 -0.17577130612E+04  0.20358789160E+04  0.10022709445E+04 0.  0.
        -13    1    1    2    0    0  0.12505812924E+03 -0.14647415262E+03 -0.83596253508E+03  0.85786221755E+03  0.10566000000E+00 0.  1.
         13    1    3    3    0    0 -0.39131739104E+03 -0.20333032129E+03 -0.34375396232E+03  0.55914159018E+03  0.10566000000E+00 0. -1.
         -2    1    1    2    0  502  0.37364925060E+02 -0.94728266875E+01  0.12650854147E+03  0.13225083415E+03  0.00000000000E+00 0. -1.
         -4    1    3    3    0  501  0.22889433675E+03  0.35927730060E+03 -0.14139590989E+04  0.14767373258E+04  0.00000000000E+00 0. -1.
</event>
<event>
 7    1  0.9434649E-006  0.1145934E+04  0.7818608E-02  0.8833503E-01
          4   -1    0    0  501    0 -0.00000000000E+00  0.00000000000E+00  0.16943593385E+04  0.16943593385E+04  0.00000000000E+00 0.  1.
          2   -1    0    0  502    0  0.00000000000E+00 -0.00000000000E+00 -0.74268393771E+03  0.74268393771E+03  0.00000000000E+00 0.  1.
    9000010    2    1    2  502    0  0.30141339163E+03  0.48463607732E+03  0.99576527539E+03  0.15369262055E+04  0.10221895701E+04 0.  0.
        -13    1    3    3    0    0  0.68203523111E+03  0.27158814227E+03  0.64427336124E+03  0.97673965347E+03  0.10566000000E+00 0.  1.
         13    1    1    2    0    0 -0.20479155962E+03 -0.44673127606E+03  0.27598978605E+03  0.56363001080E+03  0.10566000000E+00 0. -1.
          2    1    1    2  501    0 -0.96621832016E+02 -0.37904801265E+02 -0.32007966063E+03  0.33648705997E+03  0.00000000000E+00 0.  1.
          4    1    3    3  502    0 -0.38062183948E+03  0.21304793505E+03  0.35149191415E+03  0.56018655199E+03  0.00000000000E+00 0.  1.
</event>
<event>
 7    1  0.9434649E-006  0.1005313E+04  0.7818608E-02  0.9226791E-01
          1   -1    0    0  501    0  0.00000000000E+00  0.00000000000E+00  0.41199914580E+03  0.41199914580E+03  0.00000000000E+00 0. -1.
         -4   -1    0    0    0  501 -0.00000000000E+00 -0.00000000000E+00 -0.15833035900E+04  0.15833035900E+04  0.00000000000E+00 0. -1.
   -9000010    2    1    2    0  502  0.48669986696E+02 -0.15957427222E+03 -0.10069708658E+04  0.14239399043E+04  0.99286545436E+03 0.  0.
        -13    1    1    2    0    0 -0.33509908290E+02  0.15340166669E+03 -0.35071693130E+03  0.38426210113E+03  0.10566000000E+00 0.  1.
         13    1    3    3    0    0  0.49176231865E+03 -0.45245829487E+02 -0.75325677365E+03  0.90070702304E+03  0.10566000000E+00 0. -1.
          1    1    1    2  502    0 -0.15160078406E+02  0.61726055226E+01  0.18638335295E+03  0.18710073034E+03  0.00000000000E+00 0. -1.
         -4    1    3    3    0  502 -0.44309233196E+03 -0.11432844273E+03 -0.25371409216E+03  0.52323288125E+03  0.00000000000E+00 0. -1.
</event>
<event>
 7    1  0.9434649E-006  0.1116956E+04  0.7818608E-02  0.8849062E-01
          2   -1    0    0  501    0  0.00000000000E+00  0.00000000000E+00  0.89764031968E+03  0.89764031968E+03  0.00000000000E+00 0. -1.
         -4   -1    0    0    0  501 -0.00000000000E+00 -0.00000000000E+00 -0.12752081366E+04  0.12752081366E+04  0.00000000000E+00 0. -1.
   -9000010    2    1    2    0  502 -0.46619911577E+03 -0.15179496757E+03 -0.89016903806E+02  0.11051343853E+04  0.98641506102E+03 0.  0.
        -13    1    1    2    0    0  0.50939150158E+03  0.14975089066E+03 -0.57231607723E+03  0.78067325723E+03  0.10566000000E+00 0.  1.
         13    1    3    3    0    0 -0.71490561956E+03  0.92785939783E+02 -0.18321670991E+03  0.74381963503E+03  0.10566000000E+00 0. -1.
          2    1    1    2  502    0 -0.43192385811E+02  0.20440769053E+01  0.28376516409E+03  0.28704081381E+03  0.00000000000E+00 0. -1.
         -4    1    3    3    0  502  0.24870650379E+03 -0.24458090735E+03  0.94199806106E+02  0.36131475024E+03  0.00000000000E+00 0. -1.
</event>
<event>
 6    1  0.9434649E-006  0.5815083E+03  0.7818608E-02  0.9315256E-01
          5   -1    0    0  501    0  0.00000000000E+00  0.00000000000E+00  0.93883098999E+03  0.93883098999E+03  0.00000000000E+00 0.  1.
         -4   -1    0    0    0  501 -0.00000000000E+00 -0.00000000000E+00 -0.32746343886E+03  0.32746343886E+03  0.00000000000E+00 0. -1.
        -13    1    1    2    0    0 -0.15353740696E+03 -0.19280006584E+03  0.98558145217E+02  0.26544174479E+03  0.10566000000E+00 0.  1.
         13    1    1    2    0    0  0.10534374201E+03  0.17314215704E+03 -0.84919379655E+02  0.21974262838E+03  0.10566000000E+00 0. -1.
          5    1    1    2  502    0 -0.87129557523E+01  0.17342084884E+02  0.68042347492E+03  0.68070020473E+03  0.00000000000E+00 0.  1.
         -4    1    1    2    0  502  0.56906620703E+02  0.23158239203E+01 -0.82694689346E+02  0.10040985094E+03  0.00000000000E+00 0. -1.
</event>
<event>
 7    1  0.9434649E-006  0.1109824E+04  0.7818608E-02  0.8901259E-01
          2   -1    0    0  501    0  0.00000000000E+00  0.00000000000E+00  0.74572726607E+03  0.74572726607E+03  0.00000000000E+00 0.  1.
         -4   -1    0    0    0  501 -0.00000000000E+00 -0.00000000000E+00 -0.25446376248E+04  0.25446376248E+04  0.00000000000E+00 0. -1.
   -9000010    2    1    2    0  502 -0.26451612571E+03  0.49890880321E+03 -0.15075760407E+04  0.19075138618E+04  0.10232032251E+04 0.  0.
        -13    1    1    2    0    0 -0.47561617421E+02 -0.41047530410E+03 -0.72907211368E+03  0.83803236264E+03  0.10566000000E+00 0.  1.
         13    1    3    3    0    0 -0.64593314098E+03  0.34372195891E+03 -0.11451933265E+04  0.13589857151E+04  0.10566000000E+00 0. -1.
          2    1    1    2  502    0  0.31207774313E+03 -0.88433499110E+02  0.43773779565E+03  0.54481866640E+03  0.00000000000E+00 0.  1.
         -4    1    3    3    0  502  0.38141701527E+03  0.15518684430E+03 -0.36238271424E+03  0.54852814674E+03  0.00000000000E+00 0. -1.
</event>
<event>
 7    1  0.9434649E-006  0.1026633E+04  0.7818608E-02  0.9112787E-01
          2   -1    0    0  502    0  0.00000000000E+00  0.00000000000E+00  0.43928909485E+03  0.43928909485E+03  0.00000000000E+00 0.  1.
          4   -1    0    0  501    0 -0.00000000000E+00 -0.00000000000E+00 -0.15240707175E+04  0.15240707175E+04  0.00000000000E+00 0.  1.
    9000010    2    1    2  502    0  0.26338925632E+03 -0.94926118246E+02 -0.25998818429E+03  0.10707921225E+04  0.10003084751E+04 0.  0.
        -13    1    3    3    0    0 -0.29575130193E+02 -0.28453961716E+03  0.29773011867E+03  0.41289310576E+03  0.10566000000E+00 0.  1.
         13    1    1    2    0    0 -0.22043881913E+03  0.62330927791E+02 -0.80191889342E+03  0.83399780594E+03  0.10566000000E+00 0. -1.
          2    1    1    2  501    0 -0.42950437194E+02  0.32595190455E+02 -0.22874544933E+02  0.58569883916E+02  0.00000000000E+00 0.  1.
          4    1    3    3  502    0  0.29296438651E+03  0.18961349891E+03 -0.55771830295E+03  0.65789901671E+03  0.00000000000E+00 0.  1.
</event>
<event>
 7    1  0.9434649E-006  0.1029914E+04  0.7818608E-02  0.9084741E-01
          2   -1    0    0  502    0  0.00000000000E+00  0.00000000000E+00  0.20983018154E+04  0.20983018154E+04  0.00000000000E+00 0.  1.
          4   -1    0    0  501    0 -0.00000000000E+00 -0.00000000000E+00 -0.23539835687E+03  0.23539835687E+03  0.00000000000E+00 0.  1.
    9000010    2    1    2  502    0 -0.17385934749E+03 -0.21157741606E+03  0.11395262047E+04  0.15391135452E+04  0.99767652977E+03 0.  0.
        -13    1    3    3    0    0  0.37578224029E+03  0.32999215205E+01  0.18990848748E+03  0.42105632210E+03  0.10566000000E+00 0.  1.
         13    1    1    2    0    0  0.16503100482E+03  0.18735372788E+03  0.40921277843E+03  0.47936599910E+03  0.10566000000E+00 0. -1.
          2    1    1    2  501    0  0.88283426681E+01  0.24223688187E+02  0.31416447546E+03  0.31522062804E+03  0.00000000000E+00 0.  1.
          4    1    3    3  502    0 -0.54964158778E+03 -0.21487733758E+03  0.94961771718E+03  0.11180572230E+04  0.00000000000E+00 0.  1.
</event>
<event>
 7    1  0.9434649E-006  0.1240502E+04  0.7818608E-02  0.8692409E-01
         -4   -1    0    0    0  501 -0.00000000000E+00  0.00000000000E+00  0.11137130776E+04  0.11137130776E+04  0.00000000000E+00 0. -1.
          1   -1    0    0  501    0  0.00000000000E+00 -0.00000000000E+00 -0.15993633129E+04  0.15993633129E+04  0.00000000000E+00 0. -1.
   -9000010    2    1    2    0  502  0.21886093282E+03 -0.99552031396E+03 -0.66355643913E+03  0.15690960827E+04  0.99135995761E+03 0.  0.
        -13    1    1    2    0    0 -0.30904378337E+03  0.58895837182E+03 -0.54024493271E+02  0.66730703639E+03  0.10566000000E+00 0.  1.
         13    1    3    3    0    0  0.55591817440E+03 -0.52168561765E+03 -0.62591422647E+03  0.98639217877E+03  0.10566000000E+00 0. -1.
          1    1    1    2  502    0  0.90182850553E+02  0.40656194214E+03  0.23193069715E+03  0.47667327134E+03  0.00000000000E+00 0. -1.
         -4    1    3    3    0  502 -0.33705724158E+03 -0.47383469631E+03 -0.37642212657E+02  0.58270390397E+03  0.00000000000E+00 0. -1.
</event>
<event>
 7    1  0.9434649E-006  0.1064982E+04  0.7818608E-02  0.8917755E-01
          4   -1    0    0  501    0 -0.00000000000E+00  0.00000000000E+00  0.23633636603E+04  0.23633636603E+04  0.00000000000E+00 0.  1.
          2   -1    0    0  502    0  0.00000000000E+00 -0.00000000000E+00 -0.52851852587E+03  0.52851852587E+03  0.00000000000E+00 0.  1.
    9000010    2    1    2  502    0  0.50124039945E+03 -0.22873023057E+03  0.37880929546E+03  0.11724975096E+04  0.96316897342E+03 0.  0.
        -13    1    3    3    0    0  0.55113421621E+03 -0.32761110995E+03  0.62944121910E+03  0.89848440337E+03  0.10566000000E+00 0.  1.
         13    1    1    2    0    0 -0.35356637802E+03  0.27438352193E+03  0.14945237689E+04  0.15600951278E+04  0.10566000000E+00 0. -1.
          2    1    1    2  501    0 -0.14767402143E+03 -0.45653291364E+02 -0.38487929862E+02  0.15928954882E+03  0.00000000000E+00 0.  1.
          4    1    3    3  502    0 -0.49893816762E+02  0.98880879381E+02 -0.25063192364E+03  0.27401310626E+03  0.00000000000E+00 0.  1.
</event>
<event>
 7    1  0.9434649E-006  0.9983061E+03  0.7818608E-02  0.9446426E-01
          4   -1    0    0  501    0 -0.00000000000E+00  0.00000000000E+00  0.21661867689E+03  0.21661867689E+03  0.00000000000E+00 0.  1.
          2   -1    0    0  502    0  0.00000000000E+00 -0.00000000000E+00 -0.16805872838E+04  0.16805872838E+04  0.00000000000E+00 0.  1.
    9000010    2    1    2  502    0  0.80547702552E+02  0.99794831909E+01 -0.10669828088E+04  0.14617397116E+04  0.99581280762E+03 0.  0.
        -13    1    3    3    0    0  0.52325306101E+03  0.86114396735E+01 -0.76102527207E+03  0.92359482385E+03  0.10566000000E+00 0.  1.
         13    1    1    2    0    0 -0.62883978159E+02 -0.31160464008E+02 -0.47158708578E+02  0.84553676354E+02  0.10566000000E+00 0. -1.
          2    1    1    2  501    0 -0.17663724394E+02  0.21180980817E+02 -0.34982708955E+03  0.35091257271E+03  0.00000000000E+00 0.  1.
          4    1    3    3  502    0 -0.44270535846E+03  0.13680435173E+01 -0.30595753668E+03  0.53814488775E+03  0.00000000000E+00 0.  1.
</event>
<event>
 7    1  0.9434649E-006  0.1013853E+04  0.7818608E-02  0.9148142E-01
          1   -1    0    0  501    0  0.00000000000E+00  0.00000000000E+00  0.16460253460E+04  0.16460253460E+04  0.00000000000E+00 0.  1.
         -4   -1    0    0    0  501 -0.00000000000E+00 -0.00000000000E+00 -0.16956445118E+04  0.16956445118E+04  0.00000000000E+00 0. -1.
   -9000010    2    1    2    0  502  0.20322868680E+03  0.49890527421E+02 -0.14533126118E+04  0.17720749356E+04  0.99213964036E+03 0.  0.
        -13    1    1    2    0    0 -0.16608838656E+03 -0.14380887881E+03  0.67843799643E+02  0.22993289910E+03  0.10566000000E+00 0.  1.
         13    1    3    3    0    0  0.16303946652E+02 -0.42009440854E+03 -0.10300678238E+04  0.11125578024E+04  0.10566000000E+00 0. -1.
          1    1    1    2  502    0 -0.37140300235E+02  0.93918351391E+02  0.13358496463E+04  0.13396620231E+04  0.00000000000E+00 0.  1.
         -4    1    3    3    0  502  0.18692474015E+03  0.46998493596E+03 -0.42324478794E+03  0.65951713323E+03  0.00000000000E+00 0. -1.
</event>
<event>
 7    1  0.9434649E-006  0.1054029E+04  0.7818608E-02  0.9020096E-01
          4   -1    0    0  501    0 -0.00000000000E+00  0.00000000000E+00  0.27852018184E+04  0.27852018184E+04  0.00000000000E+00 0.  1.
          2   -1    0    0  502    0  0.00000000000E+00 -0.00000000000E+00 -0.36854521213E+03  0.36854521213E+03  0.00000000000E+00 0. -1.
    9000010    2    1    2  502    0  0.29465490078E+03 -0.85130033238E+02  0.22838623475E+04  0.25150876133E+04  0.10077548548E+04 0.  0.
        -13    1    3    3    0    0 -0.22912724089E+03 -0.36509338889E+03  0.68334525866E+03  0.80793145058E+03  0.10566000000E+00 0.  1.
         13    1    1    2    0    0 -0.29270739805E+03  0.10277554800E+03  0.32287022949E+03  0.44775621759E+03  0.10566000000E+00 0. -1.
          2    1    1    2  501    0 -0.19475027338E+01 -0.17645514759E+02 -0.19007597073E+03  0.19090319957E+03  0.00000000000E+00 0. -1.
          4    1    3    3  502    0  0.52378214168E+03  0.27996335565E+03  0.16005170888E+04  0.17071561628E+04  0.00000000000E+00 0.  1.
</event>
<event>
 7    1  0.9434649E-006  0.1168061E+04  0.7818608E-02  0.9092014E-01
          2   -1    0    0  502    0  0.00000000000E+00  0.00000000000E+00  0.33181464498E+04  0.33181464498E+04  0.00000000000E+00 0. -1.
          4   -1    0    0  501    0 -0.00000000000E+00 -0.00000000000E+00 -0.42460632720E+03  0.42460632720E+03  0.00000000000E+00 0.  1.
    9000010    2    1    2  502    0  0.88714672375E+02 -0.45363383137E+03  0.55637598689E+03  0.12297070499E+04  0.99447033320E+03 0.  0.
        -13    1    3    3    0    0 -0.45049837880E+03 -0.23224788368E+03  0.19026875783E+03  0.54137794575E+03  0.10566000000E+00 0.  1.
         13    1    1    2    0    0  0.35625901966E+02 -0.16650337114E+03  0.12229216651E+03  0.20963769376E+03  0.10566000000E+00 0. -1.
          2    1    1    2  501    0 -0.12434057434E+03  0.62013720251E+03  0.22148719692E+04  0.23034080334E+04  0.00000000000E+00 0. -1.
          4    1    3    3  502    0  0.53921305117E+03 -0.22138594770E+03  0.36610722906E+03  0.68832910411E+03  0.00000000000E+00 0.  1.
</event>
<event>
 7    1  0.9434649E-006  0.1010418E+04  0.7818608E-02  0.9392191E-01
          2   -1    0    0  501    0  0.00000000000E+00  0.00000000000E+00  0.24015060756E+04  0.24015060756E+04  0.00000000000E+00 0. -1.
         -4   -1    0    0    0  501 -0.00000000000E+00 -0.00000000000E+00 -0.30625098521E+03  0.30625098521E+03  0.00000000000E+00 0. -1.
   -9000010    2    1    2    0  502 -0.11157642827E+03  0.97891055154E+02  0.19049266614E+04  0.21595289432E+04  0.10063735455E+04 0.  0.
        -13    1    1    2    0    0  0.24989566097E+02 -0.79247632349E+02 -0.16354227631E+03  0.18344141559E+03  0.10566000000E+00 0.  1.
         13    1    3    3    0    0 -0.53704568115E+03 -0.22360646917E+02  0.13280822076E+04  0.14327318044E+04  0.10566000000E+00 0. -1.
          2    1    1    2  502    0  0.86586862170E+02 -0.18643422805E+02  0.35387070530E+03  0.36478670204E+03  0.00000000000E+00 0. -1.
         -4    1    3    3    0  502  0.42546925289E+03  0.12025170207E+03  0.57684445386E+03  0.72679713879E+03  0.00000000000E+00 0. -1.
</event>
<event>
 7    1  0.9434649E-006  0.1663800E+04  0.7818608E-02  0.8368991E-01
          2   -1    0    0  501    0  0.00000000000E+00  0.00000000000E+00  0.14447270329E+04  0.14447270329E+04  0.00000000000E+00 0.  1.
         -4   -1    0    0    0  501 -0.00000000000E+00 -0.00000000000E+00 -0.25887431852E+04  0.25887431852E+04  0.00000000000E+00 0. -1.
   -9000010    2    1    2    0  502  0.30340348567E+03  0.12947419906E+04 -0.70158312186E+03  0.18074799307E+04  0.10031721315E+04 0.  0.
        -13    1    1    2    0    0 -0.33034226115E+03 -0.12841992772E+04 -0.10042845743E+04  0.16633945144E+04  0.10566000000E+00 0.  1.
         13    1    3    3    0    0 -0.14138937568E+03 -0.44648875826E+02 -0.30876035634E+03  0.34251634484E+03  0.10566000000E+00 0. -1.
          2    1    1    2  502    0  0.26938775488E+02 -0.10542713456E+02  0.56185154393E+03  0.56259577304E+03  0.00000000000E+00 0.  1.
         -4    1    3    3    0  502  0.44479286134E+03  0.13393908665E+04 -0.39282276551E+03  0.14649635858E+04  0.00000000000E+00 0. -1.
</event>
<event>
 7    1  0.9434649E-006  0.1050492E+04  0.7818608E-02  0.9079451E-01
          4   -1    0    0  501    0 -0.00000000000E+00  0.00000000000E+00  0.44091186867E+03  0.44091186867E+03  0.00000000000E+00 0.  1.
          2   -1    0    0  502    0  0.00000000000E+00 -0.00000000000E+00 -0.14503204295E+04  0.14503204295E+04  0.00000000000E+00 0.  1.
    9000010    2    1    2  502    0 -0.24729294863E+03  0.28387895984E+02 -0.96379941464E+03  0.14261347168E+04  0.10212694276E+04 0.  0.
        -13    1    3    3    0    0  0.28420390514E+03 -0.19022310444E+03 -0.48558643122E+02  0.34541951617E+03  0.10566000000E+00 0.  1.
         13    1    1    2    0    0  0.24519999504E+03 -0.18409917690E+02  0.13748733129E+03  0.28171748271E+03  0.10566000000E+00 0. -1.
          2    1    1    2  501    0  0.20929535881E+01 -0.99779782940E+01 -0.18309647747E+03  0.18338009862E+03  0.00000000000E+00 0.  1.
          4    1    3    3  502    0 -0.53149685377E+03  0.21861100043E+03 -0.91524077152E+03  0.10807152007E+04  0.00000000000E+00 0.  1.
</event>
<event>
 7    1  0.9434649E-006  0.1033658E+04  0.7818608E-02  0.9399960E-01
          2   -1    0    0  501    0  0.00000000000E+00  0.00000000000E+00  0.15398486326E+04  0.15398486326E+04  0.00000000000E+00 0. -1.
         -4   -1    0    0    0  501 -0.00000000000E+00 -0.00000000000E+00 -0.66587719176E+03  0.66587719176E+03  0.00000000000E+00 0. -1.
   -9000010    2    1    2    0  502 -0.25160362466E+03  0.51287010413E+02  0.22366150987E+03  0.10593006816E+04  0.10030746341E+04 0.  0.
        -13    1    1    2    0    0  0.32282298270E+02  0.68148581415E+02 -0.22441685955E+03  0.23674736312E+03  0.10566000000E+00 0.  1.
         13    1    3    3    0    0  0.42129823142E+02  0.42000643219E+03 -0.16007425640E+03  0.45144667880E+03  0.10566000000E+00 0. -1.
          2    1    1    2  502    0  0.21932132639E+03 -0.11943559183E+03  0.87472679056E+03  0.90967777972E+03  0.00000000000E+00 0. -1.
         -4    1    3    3    0  502 -0.29373344780E+03 -0.36871942177E+03  0.38373576626E+03  0.60785400275E+03  0.00000000000E+00 0. -1.
</event>
<event>
 7    1  0.9434649E-006  0.1081307E+04  0.7818608E-02  0.8928444E-01
         -4   -1    0    0    0  501 -0.00000000000E+00  0.00000000000E+00  0.34246312033E+04  0.34246312033E+04  0.00000000000E+00 0. -1.
          2   -1    0    0  501    0  0.00000000000E+00 -0.00000000000E+00 -0.27702999155E+04  0.27702999155E+04  0.00000000000E+00 0.  1.
   -9000010    2    1    2    0  502 -0.27087530271E+02  0.42405249356E+03  0.97648487097E+03  0.14596937694E+04  0.99831304996E+03 0.  0.
        -13    1    1    2    0    0  0.21046286467E+03 -0.36124597760E+03  0.21829603877E+04  0.22226356740E+04  0.10566000000E+00 0.  1.
         13    1    3    3    0    0  0.37383295138E+02  0.65690990778E+03  0.10203747477E+04  0.12141222239E+04  0.10566000000E+00 0. -1.
          2    1    1    2  502    0 -0.18337533440E+03 -0.62806515958E+02 -0.25051139710E+04  0.25126016754E+04  0.00000000000E+00 0.  1.
         -4    1    3    3    0  502 -0.64470825409E+02 -0.23285741422E+03 -0.43889876748E+02  0.24557154551E+03  0.00000000000E+00 0. -1.
</event>
<event>
 7    1  0.9434649E-006  0.1050582E+04  0.7818608E-02  0.9002334E-01
          1   -1    0    0  501    0  0.00000000000E+00  0.00000000000E+00  0.67970404260E+03  0.67970404260E+03  0.00000000000E+00 0.  1.
         -4   -1    0    0    0  501 -0.00000000000E+00 -0.00000000000E+00 -0.91081246347E+03  0.91081246347E+03  0.00000000000E+00 0. -1.
   -9000010    2    1    2    0  502  0.34866668792E+03  0.91031920522E+02 -0.38105673300E+03  0.11253802373E+04  0.99570134821E+03 0.  0.
        -13    1    1    2    0    0 -0.31522634393E+03 -0.73540137065E+02  0.13941841285E+02  0.32399102730E+03  0.10566000000E+00 0.  1.
         13    1    3    3    0    0  0.48272341986E+02  0.35627499443E+03 -0.57657838384E+03  0.67948858307E+03  0.10566000000E+00 0. -1.
          1    1    1    2  502    0 -0.33440343988E+02 -0.17491783457E+02  0.13600647083E+03  0.14114524152E+03  0.00000000000E+00 0.  1.
         -4    1    3    3    0  502  0.30039434593E+03 -0.26524307390E+03  0.19552165084E+03  0.44589165418E+03  0.00000000000E+00 0. -1.
</event>
<event>
 7    1  0.9434649E-006  0.1077090E+04  0.7818608E-02  0.8942393E-01
         -4   -1    0    0    0  501 -0.00000000000E+00  0.00000000000E+00  0.41163597549E+04  0.41163597549E+04  0.00000000000E+00 0. -1.
          2   -1    0    0  501    0  0.00000000000E+00 -0.00000000000E+00 -0.33442323160E+03  0.33442323160E+03  0.00000000000E+00 0. -1.
   -9000010    2    1    2    0  502  0.35378928708E+03 -0.29019457117E+03  0.64929118411E+03  0.12780916047E+04  0.10012788620E+04 0.  0.
        -13    1    1    2    0    0 -0.30492067566E+03  0.24834542138E+03  0.20044482705E+04  0.20426612414E+04  0.10566000000E+00 0.  1.
         13    1    3    3    0    0  0.61238400494E+03  0.96356057405E+02  0.26254037772E+03  0.67322070705E+03  0.10566000000E+00 0. -1.
          2    1    1    2  502    0 -0.48868611419E+02  0.41849149790E+02  0.11281970687E+04  0.11300301405E+04  0.00000000000E+00 0. -1.
         -4    1    3    3    0  502 -0.25859471786E+03 -0.38655062857E+03  0.38675080639E+03  0.60487089763E+03  0.00000000000E+00 0. -1.
</event>
<event>
 7    1  0.9434649E-006  0.1428035E+04  0.7818608E-02  0.8521038E-01
         -4   -1    0    0    0  501 -0.00000000000E+00  0.00000000000E+00  0.14316880093E+04  0.14316880093E+04  0.00000000000E+00 0. -1.
          4   -1    0    0  501    0  0.00000000000E+00 -0.00000000000E+00 -0.16469824822E+04  0.16469824822E+04  0.00000000000E+00 0.  1.
   -9000010    2    1    2    0  502  0.95318735534E+03 -0.57112046447E+03  0.22649103292E+03  0.14953271189E+04  0.97465906099E+03 0.  0.
        -13    1    1    2    0    0 -0.56789747290E+03  0.84285893459E+03 -0.45071201479E+03  0.11117823774E+04  0.10566000000E+00 0.  1.
         13    1    3    3    0    0 -0.16250266148E+03 -0.17544321579E+03 -0.11205824903E+03  0.26409183875E+03  0.10566000000E+00 0. -1.
          4    1    1    2  502    0 -0.38528988244E+03 -0.27173847013E+03  0.89265089375E+01  0.47156099523E+03  0.00000000000E+00 0.  1.
         -4    1    3    3    0  502  0.11156900168E+04 -0.39567724868E+03  0.33854928195E+03  0.12312352801E+04  0.00000000000E+00 0. -1.
</event>
<event>
 7    1  0.9434649E-006  0.1166706E+04  0.7818608E-02  0.8797022E-01
          4   -1    0    0  501    0 -0.00000000000E+00  0.00000000000E+00  0.17380594826E+04  0.17380594826E+04  0.00000000000E+00 0.  1.
          2   -1    0    0  502    0  0.00000000000E+00 -0.00000000000E+00 -0.67387069709E+03  0.67387069709E+03  0.00000000000E+00 0. -1.
    9000010    2    1    2  502    0  0.46144298344E+03  0.31894944822E+03  0.94980659266E+03  0.15000949696E+04  0.10166090581E+04 0.  0.
        -13    1    3    3    0    0  0.22522972586E+03 -0.34511693525E+02  0.10407076672E+04  0.10653600077E+04  0.10566000000E+00 0.  1.
         13    1    1    2    0    0 -0.48365147561E+03 -0.31896742126E+03  0.34887479961E+03  0.67629328154E+03  0.10566000000E+00 0. -1.
          2    1    1    2  501    0  0.22208492177E+02  0.17973035463E-01 -0.23449260678E+03  0.23554192850E+03  0.00000000000E+00 0. -1.
          4    1    3    3  502    0  0.23621325758E+03  0.35346114175E+03 -0.90901074487E+02  0.43473496193E+03  0.00000000000E+00 0.  1.
</event>
<event>
 7    1  0.1196361E-005  0.9739023E+03  0.7818608E-02  0.9064769E-01
         -4   -1    0    0    0  501 -0.00000000000E+00  0.00000000000E+00  0.17979261908E+04  0.17979261908E+04  0.00000000000E+00 0. -1.
          4   -1    0    0  501    0  0.00000000000E+00 -0.00000000000E+00 -0.29957021015E+04  0.29957021015E+04  0.00000000000E+00 0.  1.
   -9000010    2    1    2    0  502  0.19526941760E+03  0.44999327318E+03  0.15376577147E+04  0.18391636822E+04  0.88176397698E+03 0.  0.
        -13    1    1    2    0    0  0.17933378733E+03 -0.27388962778E+03 -0.19610381642E+03  0.38161872787E+03  0.10566000000E+00 0.  1.
         13    1    3    3    0    0  0.36255670134E+03  0.23595112870E+03  0.15045423496E+04  0.15654928904E+04  0.10566000000E+00 0. -1.
          4    1    1    2  502    0 -0.37460320493E+03 -0.17610364539E+03 -0.25393298089E+04  0.25728458822E+04  0.00000000000E+00 0.  1.
         -4    1    3    3    0  502 -0.16728728374E+03  0.21404214447E+03  0.33115365070E+02  0.27367079186E+03  0.00000000000E+00 0. -1.
</event>
<event>
 7    1  0.9434649E-006  0.1003323E+04  0.7818608E-02  0.9219049E-01
          2   -1    0    0  502    0  0.00000000000E+00  0.00000000000E+00  0.99777900071E+03  0.99777900071E+03  0.00000000000E+00 0.  1.
          4   -1    0    0  501    0 -0.00000000000E+00 -0.00000000000E+00 -0.15319752042E+04  0.15319752042E+04  0.00000000000E+00 0.  1.
    9000010    2    1    2  502    0  0.10723658622E+03  0.10765633317E+03 -0.74016709382E+03  0.12453409750E+04  0.98991779746E+03 0.  0.
        -13    1    3    3    0    0 -0.30199968000E+03  0.39676770689E+03 -0.33159142716E+03  0.59881658768E+03  0.10566000000E+00 0.  1.
         13    1    1    2    0    0 -0.93900842497E+02 -0.13462422940E+03 -0.52641445344E+03  0.55141022779E+03  0.10566000000E+00 0. -1.
          2    1    1    2  501    0 -0.13335743726E+02  0.26967896236E+02  0.73238534372E+03  0.73300300217E+03  0.00000000000E+00 0.  1.
          4    1    3    3  502    0  0.40923626622E+03 -0.28911137372E+03 -0.40857566666E+03  0.64652438732E+03  0.00000000000E+00 0.  1.
</event>
<event>
 7    1  0.9434649E-006  0.1271858E+04  0.7818608E-02  0.8652819E-01
         -4   -1    0    0    0  501 -0.00000000000E+00  0.00000000000E+00  0.27833515964E+04  0.27833515964E+04  0.00000000000E+00 0. -1.
          1   -1    0    0  501    0  0.00000000000E+00 -0.00000000000E+00 -0.75433682930E+03  0.75433682930E+03  0.00000000000E+00 0. -1.
   -9000010    2    1    2    0  502 -0.80750241102E+03 -0.57465341215E+01  0.36647161804E+03  0.13145503177E+04  0.97038545145E+03 0.  0.
        -13    1    1    2    0    0  0.82486113740E+03  0.61713446184E+01  0.18548752977E+04  0.20300237345E+04  0.10566000000E+00 0.  1.
         13    1    3    3    0    0 -0.50735034659E+03 -0.27776786183E+03 -0.20535608223E+03  0.61378374932E+03  0.10566000000E+00 0. -1.
          1    1    1    2  502    0 -0.17358726387E+02 -0.42481049684E+00 -0.19233214866E+03  0.19311437350E+03  0.00000000000E+00 0. -1.
         -4    1    3    3    0  502 -0.30015206443E+03  0.27202132771E+03  0.57182770027E+03  0.70076656834E+03  0.00000000000E+00 0. -1.
</event>
<event>
 7    1  0.9434649E-006  0.1032630E+04  0.7818608E-02  0.9128931E-01
         -4   -1    0    0    0  501 -0.00000000000E+00  0.00000000000E+00  0.17326439243E+04  0.17326439243E+04  0.00000000000E+00 0. -1.
          2   -1    0    0  501    0  0.00000000000E+00 -0.00000000000E+00 -0.12271740323E+04  0.12271740323E+04  0.00000000000E+00 0.  1.
   -9000010    2    1    2    0  502 -0.16187033346E+03 -0.11307960421E+03  0.93779463410E+03  0.13926247385E+04  0.10104236165E+04 0.  0.
        -13    1    1    2    0    0  0.17275227356E+03  0.12696232312E+03  0.54710171733E+03  0.58760793033E+03  0.10566000000E+00 0.  1.
         13    1    3    3    0    0 -0.24017517094E+03 -0.32116306919E+03  0.10639323644E+04  0.11370056802E+04  0.10566000000E+00 0. -1.
          2    1    1    2  502    0 -0.10881940102E+02 -0.13882718915E+02 -0.97942645948E+03  0.97958528778E+03  0.00000000000E+00 0.  1.
         -4    1    3    3    0  502  0.78304837483E+02  0.20808346498E+03 -0.12613773027E+03  0.25561905830E+03  0.00000000000E+00 0. -1.
</event>
<event>
 7    1  0.9434649E-006  0.8657555E+03  0.7818608E-02  0.9218104E-01
          2   -1    0    0  502    0  0.00000000000E+00  0.00000000000E+00  0.15752664370E+04  0.15752664370E+04  0.00000000000E+00 0. -1.
          4   -1    0    0  501    0 -0.00000000000E+00 -0.00000000000E+00 -0.33032757641E+03  0.33032757641E+03  0.00000000000E+00 0.  1.
    9000010    2    1    2  502    0 -0.19034387002E+03 -0.11243697024E+03  0.75028978513E+03  0.11384809676E+04  0.82724318719E+03 0.  0.
        -13    1    3    3    0    0 -0.18339266542E+03 -0.39334956848E+02  0.92770165253E+03  0.94647264928E+03  0.10566000000E+00 0.  1.
         13    1    1    2    0    0  0.84701584902E+02  0.28579770832E+03  0.47811779256E+03  0.56342818823E+03  0.10566000000E+00 0. -1.
          2    1    1    2  501    0  0.10564228512E+03 -0.17336073808E+03  0.16531282936E+02  0.20368485763E+03  0.00000000000E+00 0. -1.
          4    1    3    3  502    0 -0.69512046033E+01 -0.73102013390E+02 -0.17741186740E+03  0.19200831831E+03  0.00000000000E+00 0.  1.
</event>
<event>
 7    1  0.9434649E-006  0.9955765E+03  0.7818608E-02  0.9249590E-01
          4   -1    0    0  501    0 -0.00000000000E+00  0.00000000000E+00  0.55896662499E+03  0.55896662499E+03  0.00000000000E+00 0.  1.
          2   -1    0    0  502    0  0.00000000000E+00 -0.00000000000E+00 -0.12650799590E+04  0.12650799590E+04  0.00000000000E+00 0.  1.
    9000010    2    1    2  502    0 -0.15433886322E+03 -0.86991832708E+01 -0.21695070878E+02  0.99669852482E+03  0.98439885859E+03 0.  0.
        -13    1    3    3    0    0  0.37618716716E+03 -0.11576208690E+03  0.16131815955E+03  0.42537184353E+03  0.10566000000E+00 0.  1.
         13    1    1    2    0    0  0.14701998154E+03  0.16300142058E+02 -0.51630967932E+01  0.14801093992E+03  0.10566000000E+00 0. -1.
          2    1    1    2  501    0  0.73188816829E+01 -0.76009587877E+01 -0.67925516634E+03  0.67933711926E+03  0.00000000000E+00 0.  1.
          4    1    3    3  502    0 -0.53052603038E+03  0.10706290363E+03 -0.18301323042E+03  0.57132668130E+03  0.00000000000E+00 0.  1.
</event>
<event>
 7    1  0.9434649E-006  0.1013494E+04  0.7818608E-02  0.9124569E-01
          4   -1    0    0  501    0 -0.00000000000E+00  0.00000000000E+00  0.13640158512E+04  0.13640158512E+04  0.00000000000E+00 0.  1.
          2   -1    0    0  502    0  0.00000000000E+00 -0.00000000000E+00 -0.52655281737E+03  0.52655281737E+03  0.00000000000E+00 0.  1.
    9000010    2    1    2  502    0  0.94474579577E+02  0.19447174810E+03  0.91971874601E+03  0.13664798821E+04  0.98723856758E+03 0.  0.
        -13    1    3    3    0    0  0.46849335082E+03  0.31825585486E+03  0.32466060710E+03  0.65282258684E+03  0.10566000000E+00 0.  1.
         13    1    1    2    0    0 -0.67982458915E+02 -0.22327149188E+03  0.15723941394E+03  0.28141787126E+03  0.10566000000E+00 0. -1.
          2    1    1    2  501    0 -0.26492120662E+02  0.28799743781E+02 -0.23949512609E+03  0.24267091527E+03  0.00000000000E+00 0.  1.
          4    1    3    3  502    0 -0.37401877125E+03 -0.12378410676E+03  0.59505813892E+03  0.71365729522E+03  0.00000000000E+00 0.  1.
</event>
<event>
 7    1  0.9434649E-006  0.1055550E+04  0.7818608E-02  0.9273418E-01
         -4   -1    0    0    0  501 -0.00000000000E+00  0.00000000000E+00  0.71319300858E+03  0.71319300858E+03  0.00000000000E+00 0. -1.
          2   -1    0    0  501    0  0.00000000000E+00 -0.00000000000E+00 -0.17823317797E+04  0.17823317797E+04  0.00000000000E+00 0.  1.
   -9000010    2    1    2    0  502 -0.72218149890E+02 -0.52064039382E+02  0.28701160035E+03  0.10915591675E+04  0.10493805944E+04 0.  0.
        -13    1    1    2    0    0  0.14987511021E+03 -0.67442732669E+02 -0.33745935664E+03  0.37535303302E+03  0.10566000000E+00 0.  1.
         13    1    3    3    0    0  0.40419907444E+03  0.48656052026E+02  0.42187721277E+03  0.58628039110E+03  0.10566000000E+00 0. -1.
          2    1    1    2  502    0 -0.77656960317E+02  0.11950677205E+03 -0.10186910149E+04  0.10286125878E+04  0.00000000000E+00 0.  1.
         -4    1    3    3    0  502 -0.47641722433E+03 -0.10072009141E+03 -0.13486561242E+03  0.50527877638E+03  0.00000000000E+00 0. -1.
</event>
<event>
 7    1  0.9434649E-006  0.1083347E+04  0.7818608E-02  0.8921981E-01
          4   -1    0    0  501    0 -0.00000000000E+00  0.00000000000E+00  0.18017886154E+04  0.18017886154E+04  0.00000000000E+00 0.  1.
          2   -1    0    0  502    0  0.00000000000E+00 -0.00000000000E+00 -0.12000835603E+04  0.12000835603E+04  0.00000000000E+00 0.  1.
    9000010    2    1    2  502    0  0.25501500859E+03  0.42010785269E+03 -0.32924059778E+03  0.11591306099E+04  0.99682552990E+03 0.  0.
        -13    1    3    3    0    0 -0.90290962126E+01  0.64154558706E+03 -0.46114977446E+03  0.79014010815E+03  0.10566000000E+00 0.  1.
         13    1    1    2    0    0 -0.24933476486E+03 -0.33974279667E+03  0.13509121179E+04  0.14151171521E+04  0.10566000000E+00 0. -1.
          2    1    1    2  501    0 -0.56802437299E+01 -0.80365056025E+02 -0.41996646505E+03  0.42762441367E+03  0.00000000000E+00 0.  1.
          4    1    3    3  502    0  0.26404410480E+03 -0.22143773437E+03  0.13190917668E+03  0.36899050174E+03  0.00000000000E+00 0.  1.
</event>
<event>
 7    1  0.9434649E-006  0.1215799E+04  0.7818608E-02  0.8730102E-01
         -2   -1    0    0    0  501  0.00000000000E+00  0.00000000000E+00  0.92670858172E+03  0.92670858172E+03  0.00000000000E+00 0. -1.
         -4   -1    0    0    0  502 -0.00000000000E+00 -0.00000000000E+00 -0.19612185088E+04  0.19612185088E+04  0.00000000000E+00 0. -1.
   -9000010    2    1    2    0  501 -0.67577448278E+03 -0.88293588594E+02  0.18532557249E+03  0.12344745282E+04  0.10124795720E+04 0.  0.
        -13    1    1    2    0    0  0.66599806652E+03  0.90805684322E+02 -0.13578290245E+04  0.15150903497E+04  0.10566000000E+00 0.  1.
         13    1    3    3    0    0 -0.87255884812E+03 -0.19385302086E+03  0.34695545457E+03  0.95880969736E+03  0.10566000000E+00 0. -1.
         -2    1    1    2    0  502  0.97764162547E+01 -0.25120957277E+01  0.13799352494E+03  0.13836221257E+03  0.00000000000E+00 0. -1.
         -4    1    3    3    0  501  0.19678436535E+03  0.10555943227E+03 -0.16162988208E+03  0.27566483085E+03  0.00000000000E+00 0. -1.
</event>
<event>
 7    1  0.9434649E-006  0.1083603E+04  0.7818608E-02  0.8914407E-01
          2   -1    0    0  501    0  0.00000000000E+00  0.00000000000E+00  0.16463846265E+04  0.16463846265E+04  0.00000000000E+00 0.  1.
         -4   -1    0    0    0  501 -0.00000000000E+00 -0.00000000000E+00 -0.16075426532E+04  0.16075426532E+04  0.00000000000E+00 0. -1.
   -9000010    2    1    2    0  502  0.41741129189E+03  0.16568395156E+02 -0.81436899428E+03  0.13492929925E+04  0.99140709220E+03 0.  0.
        -13    1    1    2    0    0 -0.42048534468E+03  0.17565963995E+03 -0.41835575034E+03  0.61861601920E+03  0.10566000000E+00 0.  1.
         13    1    3    3    0    0  0.21730480152E+03 -0.48457288772E+03 -0.46983112568E+03  0.70906527069E+03  0.10566000000E+00 0. -1.
          2    1    1    2  502    0  0.30740527965E+01 -0.19222803511E+03  0.12715667180E+04  0.12860182680E+04  0.00000000000E+00 0.  1.
         -4    1    3    3    0  502  0.20010649036E+03  0.50114128287E+03 -0.34453786860E+03  0.64022772182E+03  0.00000000000E+00 0. -1.
</event>
<event>
 6    1  0.9434649E-006  0.1131741E+04  0.7818608E-02  0.8659815E-01
         -4   -1    0    0    0  502 -0.00000000000E+00  0.00000000000E+00  0.18009113041E+04  0.18009113041E+04  0.00000000000E+00 0. -1.
         -2   -1    0    0    0  501  0.00000000000E+00 -0.00000000000E+00 -0.24335926962E+03  0.24335926962E+03  0.00000000000E+00 0. -1.
        -13    1    1    2    0    0  0.28838129271E+02  0.28262848069E+03  0.14831973085E+03  0.32048283811E+03  0.10566000000E+00 0.  1.
         13    1    1    2    0    0  0.16551662755E+02 -0.45426359529E+03  0.14049801077E+04  0.14766849649E+04  0.10566000000E+00 0. -1.
         -2    1    1    2    0  502  0.71228712706E+01  0.12940904960E+02 -0.64639550187E+02  0.66305910481E+02  0.00000000000E+00 0. -1.
         -4    1    1    2    0  501 -0.52512663297E+02  0.15869420963E+03  0.68891746165E+02  0.18079686023E+03  0.00000000000E+00 0. -1.
</event>
<event>
 7    1  0.9434649E-006  0.1060041E+04  0.7818608E-02  0.8964119E-01
         -4   -1    0    0    0  501 -0.00000000000E+00  0.00000000000E+00  0.36326513673E+04  0.36326513673E+04  0.00000000000E+00 0. -1.
          2   -1    0    0  501    0  0.00000000000E+00 -0.00000000000E+00 -0.51700398896E+03  0.51700398896E+03  0.00000000000E+00 0. -1.
   -9000010    2    1    2    0  502 -0.33564880394E+03  0.16527185090E+03  0.19348285706E+04  0.22050080440E+04  0.98920370613E+03 0.  0.
        -13    1    1    2    0    0  0.34577366406E+03 -0.16283994613E+03  0.15392876071E+04  0.15860273085E+04  0.10566000000E+00 0.  1.
         13    1    3    3    0    0 -0.52982936667E+03 -0.24337510991E+03  0.86189450136E+03  0.10405828869E+04  0.10566000000E+00 0. -1.
          2    1    1    2  502    0 -0.10124860118E+02 -0.24319047692E+01 -0.35846879938E+03  0.35862000373E+03  0.00000000000E+00 0. -1.
         -4    1    3    3    0  502  0.19418056273E+03  0.40864696081E+03  0.10729340692E+04  0.11644251571E+04  0.00000000000E+00 0. -1.
</event>
