<event>
 8    1  0.1168507E-005  0.1174643E+04  0.7818608E-02  0.8632251E-01
         21   -1    0    0  503  502  0.00000000000E+00  0.00000000000E+00  0.11819528997E+04  0.11819528997E+04  0.00000000000E+00 0.  1.
         21   -1    0    0  501  503 -0.00000000000E+00 -0.00000000000E+00 -0.11422649150E+04  0.11422649150E+04  0.00000000000E+00 0.  1.
    9000010    2    1    2  501    0  0.10410298544E+03  0.54984326278E+03 -0.69737269588E+02  0.11767110440E+04  0.10327732322E+04 0.  0.
   -9000010    2    1    2    0  502 -0.10410298544E+03 -0.54984326278E+03  0.10942525430E+03  0.11475067708E+04  0.99580764082E+03 0.  0.
        -13    1    3    3    0    0 -0.28434763332E+03 -0.17740150401E+03  0.64695767488E+02  0.34133623261E+03  0.10566000000E+00 0.  1.
          4    1    3    3  501    0  0.38845061875E+03  0.72724476679E+03 -0.13443303708E+03  0.83537481138E+03  0.00000000000E+00 0.  1.
         13    1    4    4    0    0 -0.37864625806E+03  0.68786086347E+01  0.31607276804E+03  0.49327711265E+03  0.10566000000E+00 0. -1.
         -4    1    4    4    0  502  0.27454327262E+03 -0.55672187142E+03 -0.20664751374E+03  0.65422965814E+03  0.00000000000E+00 0. -1.
<mgrwt>
<rscale>  2 0.11664665E+04</rscale>
<asrwt>0</asrwt>
<pdfrwt beam="1">  1       21 0.18183891E+00 0.11746428E+04</pdfrwt>
<pdfrwt beam="2">  1       21 0.17573306E+00 0.11746428E+04</pdfrwt>
<totfact> 0.14743032E+01</totfact>
</mgrwt>
</event>
<event>
 8    1  0.1168507E-005  0.1044188E+04  0.7818608E-02  0.8739390E-01
         21   -1    0    0  501  502  0.00000000000E+00  0.00000000000E+00  0.40087706456E+03  0.40087706456E+03  0.00000000000E+00 0.  1.
         21   -1    0    0  502  503 -0.00000000000E+00 -0.00000000000E+00 -0.26612594896E+04  0.26612594896E+04  0.00000000000E+00 0.  1.
   -9000010    2    1    2    0  503 -0.24598109270E+03 -0.74934493284E+02 -0.11052850511E+04  0.15205206333E+04  0.10120306694E+04 0.  0.
    9000010    2    1    2  501    0  0.24598109270E+03  0.74934493284E+02 -0.11550973739E+04  0.15416159209E+04  0.98803230110E+03 0.  0.
        -13    1    4    4    0    0 -0.17874699974E+03  0.41174953177E+03 -0.71109550659E+03  0.84091913849E+03  0.10566000000E+00 0.  1.
          4    1    4    4  501    0  0.42472809244E+03 -0.33681503848E+03 -0.44400186733E+03  0.70069678239E+03  0.00000000000E+00 0.  1.
         13    1    3    3    0    0 -0.27460874727E+03  0.17271258485E+03  0.59101114243E+02  0.32974619620E+03  0.10566000000E+00 0. -1.
         -4    1    3    3    0  503  0.28627654568E+02 -0.24764707814E+03 -0.11643861653E+04  0.11907744371E+04  0.00000000000E+00 0. -1.
<mgrwt>
<rscale>  2 0.10383280E+04</rscale>
<asrwt>0</asrwt>
<pdfrwt beam="1">  1       21 0.61673396E-01 0.10441877E+04</pdfrwt>
<pdfrwt beam="2">  1       21 0.40942453E+00 0.10441877E+04</pdfrwt>
<totfact> 0.58861434E+00</totfact>
</mgrwt>
</event>
<event>
 8    1  0.1168507E-005  0.1033374E+04  0.7818608E-02  0.8752104E-01
         21   -1    0    0  501  502  0.00000000000E+00  0.00000000000E+00  0.19994895837E+04  0.19994895837E+04  0.00000000000E+00 0.  1.
         21   -1    0    0  502  503 -0.00000000000E+00 -0.00000000000E+00 -0.52594504462E+03  0.52594504462E+03  0.00000000000E+00 0.  1.
   -9000010    2    1    2    0  503 -0.12505136284E+03 -0.13345421861E+03  0.92589709352E+03  0.13874968116E+04  0.10170615038E+04 0.  0.
    9000010    2    1    2  501    0  0.12505136284E+03  0.13345421861E+03  0.54764744558E+03  0.11379378168E+04  0.98057986845E+03 0.  0.
        -13    1    4    4    0    0  0.31824340121E+03  0.40690751757E+03  0.60790281097E+03  0.79774584237E+03  0.10566000000E+00 0.  1.
          4    1    4    4  501    0 -0.19319203837E+03 -0.27345329896E+03 -0.60255365391E+02  0.34019197442E+03  0.00000000000E+00 0.  1.
         13    1    3    3    0    0  0.33120599452E+03 -0.10338008927E+03 -0.86646528240E+01  0.34707339431E+03  0.10566000000E+00 0. -1.
         -4    1    3    3    0  503 -0.45625735737E+03 -0.30074129334E+02  0.93456174635E+03  0.10404234172E+04  0.00000000000E+00 0. -1.
<mgrwt>
<rscale>  2 0.10242836E+04</rscale>
<asrwt>0</asrwt>
<pdfrwt beam="1">  1       21 0.30761378E+00 0.10333741E+04</pdfrwt>
<pdfrwt beam="2">  1       21 0.80914623E-01 0.10333741E+04</pdfrwt>
<totfact> 0.15988405E+01</totfact>
</mgrwt>
</event>
<event>
 8    1  0.1168507E-005  0.1193468E+04  0.7818608E-02  0.8617721E-01
         21   -1    0    0  501  502  0.00000000000E+00  0.00000000000E+00  0.13280308159E+04  0.13280308159E+04  0.00000000000E+00 0. -1.
         21   -1    0    0  502  503 -0.00000000000E+00 -0.00000000000E+00 -0.12978002655E+04  0.12978002655E+04  0.00000000000E+00 0. -1.
   -9000010    2    1    2    0  503 -0.54632702869E+03  0.31019734886E+03 -0.56568052929E+03  0.13207423548E+04  0.10147267065E+04 0.  0.
    9000010    2    1    2  501    0  0.54632702869E+03 -0.31019734886E+03  0.59591107961E+03  0.13050887266E+04  0.97644813076E+03 0.  0.
        -13    1    4    4    0    0  0.16776728037E+03  0.33245497753E+03  0.37195525500E+03  0.52632964512E+03  0.10566000000E+00 0.  1.
          4    1    4    4  501    0  0.37855974832E+03 -0.64265232639E+03  0.22395582462E+03  0.77875908152E+03  0.00000000000E+00 0.  1.
         13    1    3    3    0    0 -0.37255555115E+03 -0.29824740149E+03 -0.48910289285E+03  0.68335261919E+03  0.10566000000E+00 0. -1.
         -4    1    3    3    0  503 -0.17377147754E+03  0.60844475035E+03 -0.76577636431E+02  0.63738973559E+03  0.00000000000E+00 0. -1.
<mgrwt>
<rscale>  2 0.11852917E+04</rscale>
<asrwt>0</asrwt>
<pdfrwt beam="1">  1       21 0.20431243E+00 0.11934680E+04</pdfrwt>
<pdfrwt beam="2">  1       21 0.19966158E+00 0.11934680E+04</pdfrwt>
<totfact> 0.62531488E+00</totfact>
</mgrwt>
</event>
<event>
 8    1  0.1168507E-005  0.1145087E+04  0.7818608E-02  0.8660017E-01
         21   -1    0    0  503  502  0.00000000000E+00  0.00000000000E+00  0.13894218189E+04  0.13894218189E+04  0.00000000000E+00 0.  1.
         21   -1    0    0  501  503 -0.00000000000E+00 -0.00000000000E+00 -0.10990380808E+04  0.10990380808E+04  0.00000000000E+00 0.  1.
    9000010    2    1    2  501    0  0.53528813648E+03 -0.74842061824E+02 -0.38106477235E+03  0.12068279906E+04  0.10094992397E+04 0.  0.
   -9000010    2    1    2    0  502 -0.53528813648E+03  0.74842061824E+02  0.67144851045E+03  0.12816319091E+04  0.94847378724E+03 0.  0.
        -13    1    3    3    0    0  0.78366040911E+03 -0.24193898908E+03 -0.38820658893E+03  0.90739323234E+03  0.10566000000E+00 0.  1.
          4    1    3    3  501    0 -0.24837227264E+03  0.16709692725E+03  0.71418165765E+01  0.29943475826E+03  0.00000000000E+00 0.  1.
         13    1    4    4    0    0 -0.78392345355E+03 -0.15163096061E+02  0.33229379328E+03  0.85157799215E+03  0.10566000000E+00 0. -1.
         -4    1    4    4    0  502  0.24863531707E+03  0.90005157885E+02  0.33915471717E+03  0.43005391699E+03  0.00000000000E+00 0. -1.
<mgrwt>
<rscale>  2 0.11314916E+04</rscale>
<asrwt>0</asrwt>
<pdfrwt beam="1">  1       21 0.21375720E+00 0.11450867E+04</pdfrwt>
<pdfrwt beam="2">  1       21 0.16908278E+00 0.11450867E+04</pdfrwt>
<totfact> 0.94580187E+00</totfact>
</mgrwt>
</event>
<event>
 8    1  0.1168507E-005  0.1181725E+04  0.7818608E-02  0.8621565E-01
         21   -1    0    0  501  502  0.00000000000E+00  0.00000000000E+00  0.18910477054E+04  0.18910477054E+04  0.00000000000E+00 0. -1.
         21   -1    0    0  502  503 -0.00000000000E+00 -0.00000000000E+00 -0.10308500151E+04  0.10308500151E+04  0.00000000000E+00 0. -1.
   -9000010    2    1    2    0  503  0.52443396670E+03  0.35030815156E+03 -0.35350689937E+03  0.12279221358E+04  0.99251138890E+03 0.  0.
    9000010    2    1    2  501    0 -0.52443396670E+03 -0.35030815156E+03  0.12137045897E+04  0.16939755848E+04  0.99936362970E+03 0.  0.
        -13    1    4    4    0    0  0.30694480758E+02 -0.57593925776E+03  0.51201510764E+03  0.77123774635E+03  0.10566000000E+00 0.  1.
          4    1    4    4  501    0 -0.55512844746E+03  0.22563110621E+03  0.70168948205E+03  0.92273783844E+03  0.00000000000E+00 0.  1.
         13    1    3    3    0    0  0.86225036611E+02  0.47751483165E+03 -0.54795272945E+03  0.73192033464E+03  0.10566000000E+00 0. -1.
         -4    1    3    3    0  503  0.43820893009E+03 -0.12720668010E+03  0.19444583008E+03  0.49600180111E+03  0.00000000000E+00 0. -1.
<mgrwt>
<rscale>  2 0.11802753E+04</rscale>
<asrwt>0</asrwt>
<pdfrwt beam="1">  1       21 0.29093042E+00 0.11817252E+04</pdfrwt>
<pdfrwt beam="2">  1       21 0.15859231E+00 0.11817252E+04</pdfrwt>
<totfact> 0.31534699E+00</totfact>
</mgrwt>
</event>
<event>
 8    1  0.1168507E-005  0.1295489E+04  0.7818608E-02  0.8555839E-01
         21   -1    0    0  503  502  0.00000000000E+00  0.00000000000E+00  0.11906071712E+04  0.11906071712E+04  0.00000000000E+00 0.  1.
         21   -1    0    0  501  503 -0.00000000000E+00 -0.00000000000E+00 -0.13325034909E+04  0.13325034909E+04  0.00000000000E+00 0.  1.
    9000010    2    1    2  501    0  0.50158329622E+03 -0.43364175824E+03 -0.25629622875E+03  0.12225805223E+04  0.99467803794E+03 0.  0.
   -9000010    2    1    2    0  502 -0.50158329622E+03  0.43364175824E+03  0.11439990910E+03  0.13005301398E+04  0.11129511794E+04 0.  0.
        -13    1    3    3    0    0  0.23578144307E+03 -0.20485763221E+03  0.38251132310E+03  0.49383647277E+03  0.10566000000E+00 0.  1.
          4    1    3    3  501    0  0.26580185315E+03 -0.22878412603E+03 -0.63880755185E+03  0.72874404955E+03  0.00000000000E+00 0.  1.
         13    1    4    4    0    0  0.23298094709E+03 -0.51571853700E+02 -0.25193310984E+03  0.34700155734E+03  0.10566000000E+00 0. -1.
         -4    1    4    4    0  502 -0.73456424331E+03  0.48521361194E+03  0.36633301894E+03  0.95352858244E+03  0.00000000000E+00 0. -1.
<mgrwt>
<rscale>  2 0.12697110E+04</rscale>
<asrwt>0</asrwt>
<pdfrwt beam="1">  1       21 0.18317034E+00 0.12954888E+04</pdfrwt>
<pdfrwt beam="2">  1       21 0.20500054E+00 0.12954888E+04</pdfrwt>
<totfact> 0.81916835E+00</totfact>
</mgrwt>
</event>
<event>
 8    1  0.1168507E-005  0.1135330E+04  0.7818608E-02  0.8659917E-01
         21   -1    0    0  503  502  0.00000000000E+00  0.00000000000E+00  0.27925760207E+04  0.27925760207E+04  0.00000000000E+00 0.  1.
         21   -1    0    0  501  503 -0.00000000000E+00 -0.00000000000E+00 -0.46636763669E+03  0.46636763669E+03  0.00000000000E+00 0.  1.
    9000010    2    1    2  501    0  0.47318960181E+02  0.50145423518E+03  0.92273517228E+03  0.14630154335E+04  0.10174863766E+04 0.  0.
   -9000010    2    1    2    0  502 -0.47318960181E+02 -0.50145423518E+03  0.14034732117E+04  0.17959282239E+04  0.10009623845E+04 0.  0.
        -13    1    3    3    0    0 -0.10405160928E+03  0.79327339385E+03  0.72301711850E+03  0.10783613400E+04  0.10566000000E+00 0.  1.
          4    1    3    3  501    0  0.15137056946E+03 -0.29181915867E+03  0.19971805379E+03  0.38465409354E+03  0.00000000000E+00 0.  1.
         13    1    4    4    0    0 -0.28423843560E+03 -0.73366304869E+03  0.93713487351E+03  0.12236317827E+04  0.10566000000E+00 0. -1.
         -4    1    4    4    0  502  0.23691947542E+03  0.23220881351E+03  0.46633833824E+03  0.57229644120E+03  0.00000000000E+00 0. -1.
<mgrwt>
<rscale>  2 0.11316155E+04</rscale>
<asrwt>0</asrwt>
<pdfrwt beam="1">  1       21 0.42962707E+00 0.11353299E+04</pdfrwt>
<pdfrwt beam="2">  1       21 0.71748869E-01 0.11353299E+04</pdfrwt>
<totfact> 0.29373562E+00</totfact>
</mgrwt>
</event>
<event>
 8    1  0.1168507E-005  0.1190608E+04  0.7818608E-02  0.8618478E-01
         21   -1    0    0  503  502  0.00000000000E+00  0.00000000000E+00  0.88162488379E+03  0.88162488379E+03  0.00000000000E+00 0.  1.
         21   -1    0    0  501  503 -0.00000000000E+00 -0.00000000000E+00 -0.19498011501E+04  0.19498011501E+04  0.00000000000E+00 0.  1.
    9000010    2    1    2  501    0  0.55606901930E+03  0.29853171449E+03 -0.11507900633E+04  0.16379552435E+04  0.97992125762E+03 0.  0.
   -9000010    2    1    2    0  502 -0.55606901930E+03 -0.29853171449E+03  0.82613796983E+02  0.11934707904E+04  0.10095610676E+04 0.  0.
        -13    1    3    3    0    0  0.31944320539E+03  0.40064513406E+03 -0.12583607233E+04  0.13586876779E+04  0.10566000000E+00 0.  1.
          4    1    3    3  501    0  0.23662581392E+03 -0.10211341958E+03  0.10757066007E+03  0.27926756557E+03  0.00000000000E+00 0.  1.
         13    1    4    4    0    0 -0.66867544849E+03 -0.29841614853E+03 -0.30247443434E+03  0.79225617556E+03  0.10566000000E+00 0. -1.
         -4    1    4    4    0  502  0.11260642918E+03 -0.11556595639E+00  0.38508823133E+03  0.40121461483E+03  0.00000000000E+00 0. -1.
<mgrwt>
<rscale>  2 0.11843014E+04</rscale>
<asrwt>0</asrwt>
<pdfrwt beam="1">  1       21 0.13563460E+00 0.11906080E+04</pdfrwt>
<pdfrwt beam="2">  1       21 0.29996941E+00 0.11906080E+04</pdfrwt>
<totfact> 0.43794814E+00</totfact>
</mgrwt>
</event>
<event>
 8    1  0.1168507E-005  0.1036932E+04  0.7818608E-02  0.8741371E-01
         21   -1    0    0  503  502  0.00000000000E+00  0.00000000000E+00  0.11925488808E+04  0.11925488808E+04  0.00000000000E+00 0. -1.
         21   -1    0    0  501  503 -0.00000000000E+00 -0.00000000000E+00 -0.89986169653E+03  0.89986169653E+03  0.00000000000E+00 0. -1.
    9000010    2    1    2  501    0 -0.19654362815E+03  0.47523217292E+02  0.18176307352E+03  0.10495628596E+04  0.10137339530E+04 0.  0.
   -9000010    2    1    2    0  502  0.19654362815E+03 -0.47523217292E+02  0.11092411080E+03  0.10428477178E+04  0.10170247540E+04 0.  0.
        -13    1    3    3    0    0 -0.47338146988E+03  0.36685192913E+03  0.18537565858E+03  0.62692463653E+03  0.10566000000E+00 0.  1.
          4    1    3    3  501    0  0.27683784173E+03 -0.31932871183E+03 -0.36125850602E+01  0.42263822305E+03  0.00000000000E+00 0.  1.
         13    1    4    4    0    0  0.18764077330E+03 -0.34918111301E+03  0.44277351883E+03  0.59429362241E+03  0.10566000000E+00 0. -1.
         -4    1    4    4    0  502  0.89028548496E+01  0.30165789572E+03 -0.33184940803E+03  0.44855409539E+03  0.00000000000E+00 0. -1.
<mgrwt>
<rscale>  2 0.10361238E+04</rscale>
<asrwt>0</asrwt>
<pdfrwt beam="1">  1       21 0.18346906E+00 0.10369316E+04</pdfrwt>
<pdfrwt beam="2">  1       21 0.13844026E+00 0.10369316E+04</pdfrwt>
<totfact> 0.31199241E+01</totfact>
</mgrwt>
</event>
<event>
 8    1  0.1168507E-005  0.1134790E+04  0.7818608E-02  0.8658466E-01
         21   -1    0    0  503  502  0.00000000000E+00  0.00000000000E+00  0.18903876040E+04  0.18903876040E+04  0.00000000000E+00 0.  1.
         21   -1    0    0  501  503 -0.00000000000E+00 -0.00000000000E+00 -0.67796710318E+03  0.67796710318E+03  0.00000000000E+00 0.  1.
    9000010    2    1    2  501    0 -0.20116953935E+03 -0.48413672488E+03  0.59293615984E+03  0.12754862114E+04  0.10002170933E+04 0.  0.
   -9000010    2    1    2    0  502  0.20116953935E+03  0.48413672488E+03  0.61948434100E+03  0.12928684958E+04  0.10064246355E+04 0.  0.
        -13    1    3    3    0    0  0.27115474896E+03 -0.42771999071E+03  0.61818089147E+03  0.79913510377E+03  0.10566000000E+00 0.  1.
          4    1    3    3  501    0 -0.47232428831E+03 -0.56416734174E+02 -0.25244731621E+02  0.47635110759E+03  0.00000000000E+00 0.  1.
         13    1    4    4    0    0  0.15361757537E+03  0.32299704360E+03  0.89855725752E+03  0.96712491740E+03  0.10566000000E+00 0. -1.
         -4    1    4    4    0  502  0.47551963984E+02  0.16113968129E+03 -0.27907291652E+03  0.32574357845E+03  0.00000000000E+00 0. -1.
<mgrwt>
<rscale>  2 0.11334120E+04</rscale>
<asrwt>0</asrwt>
<pdfrwt beam="1">  1       21 0.29082886E+00 0.11347899E+04</pdfrwt>
<pdfrwt beam="2">  1       21 0.10430263E+00 0.11347899E+04</pdfrwt>
<totfact> 0.10727760E+01</totfact>
</mgrwt>
</event>
<event>
 8    1  0.1168507E-005  0.1005619E+04  0.7818608E-02  0.8774537E-01
         21   -1    0    0  501  502  0.00000000000E+00  0.00000000000E+00  0.36284295493E+03  0.36284295493E+03  0.00000000000E+00 0. -1.
         21   -1    0    0  502  503 -0.00000000000E+00 -0.00000000000E+00 -0.27347720284E+04  0.27347720284E+04  0.00000000000E+00 0. -1.
   -9000010    2    1    2    0  503 -0.15702837357E+03  0.11542974741E+03 -0.10864854204E+04  0.14655503079E+04  0.96405663709E+03 0.  0.
    9000010    2    1    2  501    0  0.15702837357E+03 -0.11542974741E+03 -0.12854436531E+04  0.16320646754E+04  0.98655348709E+03 0.  0.
        -13    1    4    4    0    0  0.32952567866E+03 -0.10906935601E+03 -0.12354700283E+02  0.34732685917E+03  0.10566000000E+00 0.  1.
          4    1    4    4  501    0 -0.17249730509E+03 -0.63603914027E+01 -0.12730889528E+04  0.12847378163E+04  0.00000000000E+00 0.  1.
         13    1    3    3    0    0 -0.15427249385E+03  0.50226902446E+03 -0.88538343917E+03  0.10295523400E+04  0.10566000000E+00 0. -1.
         -4    1    3    3    0  503 -0.27558797165E+01 -0.38683927705E+03 -0.20110198121E+03  0.43599796787E+03  0.00000000000E+00 0. -1.
<mgrwt>
<rscale>  2 0.10000579E+04</rscale>
<asrwt>0</asrwt>
<pdfrwt beam="1">  1       21 0.55821992E-01 0.10056191E+04</pdfrwt>
<pdfrwt beam="2">  1       21 0.42073417E+00 0.10056191E+04</pdfrwt>
<totfact> 0.62266733E+00</totfact>
</mgrwt>
</event>
<event>
 8    1  0.1168507E-005  0.1195533E+04  0.7818608E-02  0.8612469E-01
         21   -1    0    0  501  502  0.00000000000E+00  0.00000000000E+00  0.19696509990E+04  0.19696509990E+04  0.00000000000E+00 0. -1.
         21   -1    0    0  502  503 -0.00000000000E+00 -0.00000000000E+00 -0.75498207070E+03  0.75498207070E+03  0.00000000000E+00 0.  1.
   -9000010    2    1    2    0  503  0.53463045101E+03  0.36013186065E+03  0.30741637840E+03  0.12344244392E+04  0.10068635410E+04 0.  0.
    9000010    2    1    2  501    0 -0.53463045101E+03 -0.36013186065E+03  0.90725254988E+03  0.14902086305E+04  0.99100448883E+03 0.  0.
        -13    1    4    4    0    0 -0.11051453990E+03 -0.38939151925E+02 -0.21689708967E+03  0.24652399428E+03  0.10566000000E+00 0.  1.
          4    1    4    4  501    0 -0.42411591111E+03 -0.32119270873E+03  0.11241496396E+04  0.12436846362E+04  0.00000000000E+00 0.  1.
         13    1    3    3    0    0 -0.11697901449E+03  0.12839334112E+02 -0.27166076706E+03  0.29605493047E+03  0.10566000000E+00 0. -1.
         -4    1    3    3    0  503  0.65160946550E+03  0.34729252654E+03  0.57907714546E+03  0.93836950873E+03  0.00000000000E+00 0. -1.
<mgrwt>
<rscale>  2 0.11921875E+04</rscale>
<asrwt>0</asrwt>
<pdfrwt beam="1">  1       21 0.30302323E+00 0.11955329E+04</pdfrwt>
<pdfrwt beam="2">  1       21 0.11615109E+00 0.11955329E+04</pdfrwt>
<totfact> 0.64814205E+00</totfact>
</mgrwt>
</event>
<event>
 8    1  0.1168507E-005  0.1141886E+04  0.7818608E-02  0.8665881E-01
         21   -1    0    0  503  502  0.00000000000E+00  0.00000000000E+00  0.12036945731E+04  0.12036945731E+04  0.00000000000E+00 0. -1.
         21   -1    0    0  501  503 -0.00000000000E+00 -0.00000000000E+00 -0.11139806624E+04  0.11139806624E+04  0.00000000000E+00 0. -1.
    9000010    2    1    2  501    0 -0.36674370794E+03 -0.16681253531E+03  0.38450461579E+03  0.12048850097E+04  0.10684459359E+04 0.  0.
   -9000010    2    1    2    0  502  0.36674370794E+03  0.16681253531E+03 -0.29479070507E+03  0.11127902257E+04  0.99452157211E+03 0.  0.
        -13    1    3    3    0    0 -0.19486131110E+03  0.32331134517E+03  0.54347294127E+03  0.66171293288E+03  0.10566000000E+00 0.  1.
          4    1    3    3  501    0 -0.17188239684E+03 -0.49012388049E+03 -0.15896832548E+03  0.54317207685E+03  0.00000000000E+00 0.  1.
         13    1    4    4    0    0  0.31439353591E+03  0.73045602755E+02 -0.65861227084E+03  0.73345012781E+03  0.10566000000E+00 0. -1.
         -4    1    4    4    0  502  0.52350172028E+02  0.93766932559E+02  0.36382156578E+03  0.37934009791E+03  0.00000000000E+00 0. -1.
<mgrwt>
<rscale>  2 0.11242695E+04</rscale>
<asrwt>0</asrwt>
<pdfrwt beam="1">  1       21 0.18518378E+00 0.11418862E+04</pdfrwt>
<pdfrwt beam="2">  1       21 0.17138164E+00 0.11418862E+04</pdfrwt>
<totfact> 0.15157494E+01</totfact>
</mgrwt>
</event>
<event>
 8    1  0.1168507E-005  0.1255104E+04  0.7818608E-02  0.8567065E-01
         21   -1    0    0  501  502  0.00000000000E+00  0.00000000000E+00  0.23270703833E+04  0.23270703833E+04  0.00000000000E+00 0.  1.
         21   -1    0    0  502  503 -0.00000000000E+00 -0.00000000000E+00 -0.67454939481E+03  0.67454939481E+03  0.00000000000E+00 0. -1.
   -9000010    2    1    2    0  503  0.68521856945E+03 -0.33327614254E+03  0.85441299994E+03  0.15142522970E+04  0.99113115645E+03 0.  0.
    9000010    2    1    2  501    0 -0.68521856945E+03  0.33327614254E+03  0.79810798857E+03  0.14873674812E+04  0.99734055744E+03 0.  0.
        -13    1    4    4    0    0 -0.66431627161E+01  0.52742567819E+03  0.48004675504E+03  0.71320885848E+03  0.10566000000E+00 0.  1.
          4    1    4    4  501    0 -0.67857540673E+03 -0.19414953564E+03  0.31806123353E+03  0.77415862269E+03  0.00000000000E+00 0.  1.
         13    1    3    3    0    0  0.16989752731E+03 -0.16466368207E+03 -0.21214807857E+03  0.31778312791E+03  0.10566000000E+00 0. -1.
         -4    1    3    3    0  503  0.51532104214E+03 -0.16861246047E+03  0.10665610785E+04  0.11964691690E+04  0.00000000000E+00 0. -1.
<mgrwt>
<rscale>  2 0.12538699E+04</rscale>
<asrwt>0</asrwt>
<pdfrwt beam="1">  1       21 0.35801082E+00 0.12551038E+04</pdfrwt>
<pdfrwt beam="2">  1       21 0.10377683E+00 0.12551038E+04</pdfrwt>
<totfact> 0.35715127E+00</totfact>
</mgrwt>
</event>
<event>
 8    1  0.1168507E-005  0.1197932E+04  0.7818608E-02  0.8608827E-01
         21   -1    0    0  501  502  0.00000000000E+00  0.00000000000E+00  0.15792170547E+04  0.15792170547E+04  0.00000000000E+00 0.  1.
         21   -1    0    0  502  503 -0.00000000000E+00 -0.00000000000E+00 -0.99480213622E+03  0.99480213622E+03  0.00000000000E+00 0.  1.
   -9000010    2    1    2    0  503  0.44175496341E+03 -0.50031845331E+03 -0.93009906004E+02  0.11978121128E+04  0.99027118136E+03 0.  0.
    9000010    2    1    2  501    0 -0.44175496341E+03  0.50031845331E+03  0.67742482445E+03  0.13762070780E+04  0.99477410826E+03 0.  0.
        -13    1    4    4    0    0 -0.70188071389E+03  0.40256376587E+03  0.21583391148E+03  0.83742367451E+03  0.10566000000E+00 0.  1.
          4    1    4    4  501    0  0.26012575048E+03  0.97754687437E+02  0.46159091297E+03  0.53878340353E+03  0.00000000000E+00 0.  1.
         13    1    3    3    0    0  0.55362759875E+03  0.93226168861E+02 -0.17549126203E+03  0.58821070279E+03  0.10566000000E+00 0. -1.
         -4    1    3    3    0  503 -0.11187263534E+03 -0.59354462217E+03  0.82481356028E+02  0.60960141005E+03  0.00000000000E+00 0. -1.
<mgrwt>
<rscale>  2 0.11969969E+04</rscale>
<asrwt>0</asrwt>
<pdfrwt beam="1">  1       21 0.24295647E+00 0.11979322E+04</pdfrwt>
<pdfrwt beam="2">  1       21 0.15304648E+00 0.11979322E+04</pdfrwt>
<totfact> 0.77835002E+00</totfact>
</mgrwt>
</event>
<event>
 8    1  0.1168507E-005  0.1593906E+04  0.7818608E-02  0.8367506E-01
         21   -1    0    0  501  502  0.00000000000E+00  0.00000000000E+00  0.15600393913E+04  0.15600393913E+04  0.00000000000E+00 0.  1.
         21   -1    0    0  502  503 -0.00000000000E+00 -0.00000000000E+00 -0.15697181899E+04  0.15697181899E+04  0.00000000000E+00 0. -1.
   -9000010    2    1    2    0  503  0.98779726898E+03 -0.59722458786E+03  0.15109393684E+03  0.15277641987E+04  0.98934999671E+03 0.  0.
    9000010    2    1    2  501    0 -0.98779726898E+03  0.59722458786E+03 -0.16077273550E+03  0.16019933826E+04  0.10991425168E+04 0.  0.
        -13    1    4    4    0    0 -0.27004491277E+03 -0.31141462906E+03  0.78505402848E+02  0.41960271156E+03  0.10566000000E+00 0.  1.
          4    1    4    4  501    0 -0.71775235621E+03  0.90863921692E+03 -0.23927813834E+03  0.11823906710E+04  0.00000000000E+00 0.  1.
         13    1    3    3    0    0 -0.20269669729E+03 -0.11329278442E+03  0.57762025266E+02  0.23928574721E+03  0.10566000000E+00 0. -1.
         -4    1    3    3    0  503  0.11904939663E+04 -0.48393180344E+03  0.93331911574E+02  0.12884784514E+04  0.00000000000E+00 0. -1.
<mgrwt>
<rscale>  2 0.15751700E+04</rscale>
<asrwt>0</asrwt>
<pdfrwt beam="1">  1       21 0.24000606E+00 0.15939056E+04</pdfrwt>
<pdfrwt beam="2">  1       21 0.24149510E+00 0.15939056E+04</pdfrwt>
<totfact> 0.15024804E+00</totfact>
</mgrwt>
</event>
<event>
 8    1  0.1168507E-005  0.1336116E+04  0.7818608E-02  0.8514193E-01
         21   -1    0    0  501  502  0.00000000000E+00  0.00000000000E+00  0.25202132650E+04  0.25202132650E+04  0.00000000000E+00 0.  1.
         21   -1    0    0  502  503 -0.00000000000E+00 -0.00000000000E+00 -0.76113808830E+03  0.76113808830E+03  0.00000000000E+00 0.  1.
   -9000010    2    1    2    0  503 -0.81158167038E+03  0.33353934711E+03  0.39607755101E+03  0.13726948157E+04  0.97851945660E+03 0.  0.
    9000010    2    1    2  501    0  0.81158167038E+03 -0.33353934711E+03  0.13629976257E+04  0.19086565376E+04  0.10076179569E+04 0.  0.
        -13    1    4    4    0    0  0.17813924281E+03  0.22574989872E+01  0.11457531902E+04  0.11595210521E+04  0.10566000000E+00 0.  1.
          4    1    4    4  501    0  0.63344242757E+03 -0.33579684610E+03  0.21724443547E+03  0.74913548550E+03  0.00000000000E+00 0.  1.
         13    1    3    3    0    0 -0.77711427551E+03  0.83230837559E+02  0.64847643041E+03  0.10155568234E+04  0.10566000000E+00 0. -1.
         -4    1    3    3    0  503 -0.34467394869E+02  0.25030850955E+03 -0.25239887940E+03  0.35713799236E+03  0.00000000000E+00 0. -1.
<mgrwt>
<rscale>  2 0.13306314E+04</rscale>
<asrwt>0</asrwt>
<pdfrwt beam="1">  1       21 0.38772511E+00 0.13361165E+04</pdfrwt>
<pdfrwt beam="2">  1       21 0.11709817E+00 0.13361165E+04</pdfrwt>
<totfact> 0.15671868E+00</totfact>
</mgrwt>
</event>
<event>
 8    1  0.1168507E-005  0.1445488E+04  0.7818608E-02  0.8443227E-01
         21   -1    0    0  501  502  0.00000000000E+00  0.00000000000E+00  0.10654784712E+04  0.10654784712E+04  0.00000000000E+00 0.  1.
         21   -1    0    0  502  503 -0.00000000000E+00 -0.00000000000E+00 -0.19701031222E+04  0.19701031222E+04  0.00000000000E+00 0.  1.
   -9000010    2    1    2    0  503 -0.63170831681E+02  0.10312746562E+04 -0.61759649692E+03  0.15618719287E+04  0.99523892512E+03 0.  0.
    9000010    2    1    2  501    0  0.63170831681E+02 -0.10312746562E+04 -0.28702815409E+03  0.14737096647E+04  0.10108991265E+04 0.  0.
        -13    1    4    4    0    0  0.35652866722E+03 -0.95703804660E+03  0.47789963986E+02  0.10224081401E+04  0.10566000000E+00 0.  1.
          4    1    4    4  501    0 -0.29335783554E+03 -0.74236609618E+02 -0.33481811808E+03  0.45130152457E+03  0.00000000000E+00 0.  1.
         13    1    3    3    0    0 -0.62852670159E+02 -0.95676760182E+02  0.15706023816E+03  0.19435130604E+03  0.10566000000E+00 0. -1.
         -4    1    3    3    0  503 -0.31816152242E+00  0.11269514164E+04 -0.77465673508E+03  0.13675206226E+04  0.00000000000E+00 0. -1.
<mgrwt>
<rscale>  2 0.14427530E+04</rscale>
<asrwt>0</asrwt>
<pdfrwt beam="1">  1       21 0.16391977E+00 0.14454878E+04</pdfrwt>
<pdfrwt beam="2">  1       21 0.30309279E+00 0.14454878E+04</pdfrwt>
<totfact> 0.22065026E+00</totfact>
</mgrwt>
</event>
<event>
 8    1  0.1168507E-005  0.1166650E+04  0.7818608E-02  0.8634140E-01
         21   -1    0    0  503  502  0.00000000000E+00  0.00000000000E+00  0.81463451784E+03  0.81463451784E+03  0.00000000000E+00 0.  1.
         21   -1    0    0  501  503 -0.00000000000E+00 -0.00000000000E+00 -0.17052826469E+04  0.17052826469E+04  0.00000000000E+00 0.  1.
    9000010    2    1    2  501    0 -0.32528029133E+03  0.48586413263E+03 -0.65771557569E+03  0.13302408469E+04  0.99753682087E+03 0.  0.
   -9000010    2    1    2    0  502  0.32528029133E+03 -0.48586413263E+03 -0.23293255338E+03  0.11896763178E+04  0.10095548244E+04 0.  0.
        -13    1    3    3    0    0  0.13337224719E+03  0.45420648424E+03 -0.72473284545E+03  0.86563814327E+03  0.10566000000E+00 0.  1.
          4    1    3    3  501    0 -0.45865253852E+03  0.31657648391E+02  0.67017269760E+02  0.46460270365E+03  0.00000000000E+00 0.  1.
         13    1    4    4    0    0  0.40494232654E+03  0.20515691282E+03  0.65908570397E+01  0.45399460048E+03  0.10566000000E+00 0. -1.
         -4    1    4    4    0  502 -0.79662035211E+02 -0.69102104545E+03 -0.23952341042E+03  0.73568171736E+03  0.00000000000E+00 0. -1.
<mgrwt>
<rscale>  2 0.11640453E+04</rscale>
<asrwt>0</asrwt>
<pdfrwt beam="1">  1       21 0.12532839E+00 0.11666500E+04</pdfrwt>
<pdfrwt beam="2">  1       21 0.26235117E+00 0.11666500E+04</pdfrwt>
<totfact> 0.10267340E+01</totfact>
</mgrwt>
</event>
<event>
 8    1  0.1168507E-005  0.1049482E+04  0.7818608E-02  0.8729906E-01
         21   -1    0    0  501  502  0.00000000000E+00  0.00000000000E+00  0.15177260946E+04  0.15177260946E+04  0.00000000000E+00 0. -1.
         21   -1    0    0  502  503 -0.00000000000E+00 -0.00000000000E+00 -0.75835851712E+03  0.75835851712E+03  0.00000000000E+00 0. -1.
   -9000010    2    1    2    0  503 -0.20374832915E+03  0.31111355909E+03  0.13866790311E+03  0.10586036619E+04  0.98138060783E+03 0.  0.
    9000010    2    1    2  501    0  0.20374832915E+03 -0.31111355909E+03  0.62069967439E+03  0.12174809498E+04  0.97912550221E+03 0.  0.
        -13    1    4    4    0    0 -0.38675071393E+03 -0.19136765680E+03  0.35590303554E+03  0.55934307600E+03  0.10566000000E+00 0.  1.
          4    1    4    4  501    0  0.59049904308E+03 -0.11974590228E+03  0.26479663885E+03  0.65813787381E+03  0.00000000000E+00 0.  1.
         13    1    3    3    0    0 -0.16442164414E+03 -0.16762641972E+03  0.43491052395E+03  0.49424717365E+03  0.10566000000E+00 0. -1.
         -4    1    3    3    0  503 -0.39326685013E+02  0.47873997881E+03 -0.29624262085E+03  0.56435648829E+03  0.00000000000E+00 0. -1.
<mgrwt>
<rscale>  2 0.10489547E+04</rscale>
<asrwt>0</asrwt>
<pdfrwt beam="1">  1       21 0.23349632E+00 0.10494822E+04</pdfrwt>
<pdfrwt beam="2">  1       21 0.11667054E+00 0.10494822E+04</pdfrwt>
<totfact> 0.20909837E+01</totfact>
</mgrwt>
</event>
<event>
 8    1  0.1168507E-005  0.1189883E+04  0.7818608E-02  0.8617725E-01
         21   -1    0    0  503  502  0.00000000000E+00  0.00000000000E+00  0.62206991087E+03  0.62206991087E+03  0.00000000000E+00 0. -1.
         21   -1    0    0  501  503 -0.00000000000E+00 -0.00000000000E+00 -0.24747183749E+04  0.24747183749E+04  0.00000000000E+00 0. -1.
    9000010    2    1    2  501    0 -0.11044969394E+03 -0.61708584047E+03 -0.45714440825E+03  0.12746770583E+04  0.10113488635E+04 0.  0.
   -9000010    2    1    2    0  502  0.11044969394E+03  0.61708584047E+03 -0.13955040558E+04  0.18221112274E+04  0.98977961487E+03 0.  0.
        -13    1    3    3    0    0  0.43782399187E+03 -0.15153419598E+03 -0.11081210440E+03  0.47637358665E+03  0.10566000000E+00 0.  1.
          4    1    3    3  501    0 -0.54827368581E+03 -0.46555164448E+03 -0.34633230385E+03  0.79830347170E+03  0.00000000000E+00 0.  1.
         13    1    4    4    0    0  0.23178814984E+03  0.30203434760E+02 -0.11516026652E+04  0.11750858281E+04  0.10566000000E+00 0. -1.
         -4    1    4    4    0  502 -0.12133845590E+03  0.58688240571E+03 -0.24390139063E+03  0.64702539932E+03  0.00000000000E+00 0. -1.
<mgrwt>
<rscale>  2 0.11852866E+04</rscale>
<asrwt>0</asrwt>
<pdfrwt beam="1">  1       21 0.95703064E-01 0.11898826E+04</pdfrwt>
<pdfrwt beam="2">  1       21 0.38072590E+00 0.11898826E+04</pdfrwt>
<totfact> 0.30992595E+00</totfact>
</mgrwt>
</event>
<event>
 8    1  0.1168507E-005  0.1052961E+04  0.7818608E-02  0.8729447E-01
         21   -1    0    0  503  502  0.00000000000E+00  0.00000000000E+00  0.84129376187E+03  0.84129376187E+03  0.00000000000E+00 0.  1.
         21   -1    0    0  501  503 -0.00000000000E+00 -0.00000000000E+00 -0.13138263852E+04  0.13138263852E+04  0.00000000000E+00 0.  1.
    9000010    2    1    2  501    0  0.12887268897E+03  0.27615526804E+03 -0.34609808939E+03  0.11083822673E+04  0.10078975449E+04 0.  0.
   -9000010    2    1    2    0  502 -0.12887268897E+03 -0.27615526804E+03 -0.12643453392E+03  0.10467378797E+04  0.99338038810E+03 0.  0.
        -13    1    3    3    0    0 -0.27356400512E+03 -0.20485502217E+03 -0.33872251467E+03  0.48118166852E+03  0.10566000000E+00 0.  1.
          4    1    3    3  501    0  0.40243669409E+03  0.48101029021E+03 -0.73755747140E+01  0.62720059880E+03  0.00000000000E+00 0.  1.
         13    1    4    4    0    0 -0.49124828866E+03  0.78601399594E+02  0.71009377725E+02  0.50253895771E+03  0.10566000000E+00 0. -1.
         -4    1    4    4    0  502  0.36237559969E+03 -0.35475666763E+03 -0.19744391165E+03  0.54419892202E+03  0.00000000000E+00 0. -1.
<mgrwt>
<rscale>  2 0.10494721E+04</rscale>
<asrwt>0</asrwt>
<pdfrwt beam="1">  1       21 0.12942981E+00 0.10529612E+04</pdfrwt>
<pdfrwt beam="2">  1       21 0.20212714E+00 0.10529612E+04</pdfrwt>
<totfact> 0.26927081E+01</totfact>
</mgrwt>
</event>
<event>
 8    1  0.1168507E-005  0.1191542E+04  0.7818608E-02  0.8626195E-01
         21   -1    0    0  503  502  0.00000000000E+00  0.00000000000E+00  0.76613385861E+03  0.76613385861E+03  0.00000000000E+00 0. -1.
         21   -1    0    0  501  503 -0.00000000000E+00 -0.00000000000E+00 -0.17868790977E+04  0.17868790977E+04  0.00000000000E+00 0. -1.
    9000010    2    1    2  501    0  0.28390338426E+03  0.56943493269E+03 -0.31125494022E+03  0.11662366707E+04  0.92648316772E+03 0.  0.
   -9000010    2    1    2    0  502 -0.28390338426E+03 -0.56943493269E+03 -0.70949029882E+03  0.13867762856E+04  0.10074297534E+04 0.  0.
        -13    1    3    3    0    0  0.28299283193E+03  0.60706674820E+03 -0.58537833704E+03  0.88954077384E+03  0.10566000000E+00 0.  1.
          4    1    3    3  501    0  0.91055232610E+00 -0.37631815511E+02  0.27412339682E+03  0.27669589684E+03  0.00000000000E+00 0.  1.
         13    1    4    4    0    0  0.89804756216E+01 -0.79439350883E+03 -0.33928196440E+03  0.86385991825E+03  0.10566000000E+00 0. -1.
         -4    1    4    4    0  502 -0.29288385988E+03  0.22495857615E+03 -0.37020833442E+03  0.52291636734E+03  0.00000000000E+00 0. -1.
<mgrwt>
<rscale>  2 0.11742680E+04</rscale>
<asrwt>0</asrwt>
<pdfrwt beam="1">  1       21 0.11786675E+00 0.11915419E+04</pdfrwt>
<pdfrwt beam="2">  1       21 0.27490448E+00 0.11915419E+04</pdfrwt>
<totfact> 0.98681861E+00</totfact>
</mgrwt>
</event>
<event>
 8    1  0.1168507E-005  0.1060693E+04  0.7818608E-02  0.8723276E-01
         21   -1    0    0  503  502  0.00000000000E+00  0.00000000000E+00  0.11259124832E+04  0.11259124832E+04  0.00000000000E+00 0.  1.
         21   -1    0    0  501  503 -0.00000000000E+00 -0.00000000000E+00 -0.10126852853E+04  0.10126852853E+04  0.00000000000E+00 0.  1.
    9000010    2    1    2  501    0 -0.27391462326E+03 -0.54807582744E+02 -0.12457492423E+03  0.10679832320E+04  0.10232478586E+04 0.  0.
   -9000010    2    1    2    0  502  0.27391462326E+03  0.54807582744E+02  0.23780212209E+03  0.10706145365E+04  0.10057994555E+04 0.  0.
        -13    1    3    3    0    0 -0.98303719461E+02 -0.40172825978E+03 -0.41251741233E+03  0.58414025936E+03  0.10566000000E+00 0.  1.
          4    1    3    3  501    0 -0.17561090380E+03  0.34692067704E+03  0.28794248810E+03  0.48384297261E+03  0.00000000000E+00 0.  1.
         13    1    4    4    0    0  0.35314287411E+03  0.20044844590E+03 -0.30191486701E+03  0.50600599510E+03  0.10566000000E+00 0. -1.
         -4    1    4    4    0  502 -0.79228250846E+02 -0.14564086315E+03  0.53971698909E+03  0.56460854144E+03  0.00000000000E+00 0. -1.
<mgrwt>
<rscale>  2 0.10564620E+04</rscale>
<asrwt>0</asrwt>
<pdfrwt beam="1">  1       21 0.17321731E+00 0.10606928E+04</pdfrwt>
<pdfrwt beam="2">  1       21 0.15579773E+00 0.10606928E+04</pdfrwt>
<totfact> 0.26268498E+01</totfact>
</mgrwt>
</event>
<event>
 8    1  0.1168507E-005  0.1204475E+04  0.7818608E-02  0.8607952E-01
         21   -1    0    0  501  502  0.00000000000E+00  0.00000000000E+00  0.68440689027E+03  0.68440689027E+03  0.00000000000E+00 0. -1.
         21   -1    0    0  502  503 -0.00000000000E+00 -0.00000000000E+00 -0.20770834634E+04  0.20770834634E+04  0.00000000000E+00 0.  1.
   -9000010    2    1    2    0  503 -0.12661050733E+03 -0.64852738456E+03 -0.72293088709E+03  0.13833324103E+04  0.97691427509E+03 0.  0.
    9000010    2    1    2  501    0  0.12661050733E+03  0.64852738456E+03 -0.66974568604E+03  0.13781579434E+04  0.10070461974E+04 0.  0.
        -13    1    4    4    0    0 -0.31027738318E+03  0.18314269533E+03  0.10408459263E+03  0.37502921879E+03  0.10566000000E+00 0.  1.
          4    1    4    4  501    0  0.43688789050E+03  0.46538468924E+03 -0.77383027867E+03  0.10031287246E+04  0.00000000000E+00 0.  1.
         13    1    3    3    0    0 -0.28555726568E+03  0.14032306691E+03 -0.26783469520E+02  0.31929747962E+03  0.10566000000E+00 0. -1.
         -4    1    3    3    0  503  0.15894675836E+03 -0.78885045147E+03 -0.69614741757E+03  0.10640349307E+04  0.00000000000E+00 0. -1.
<mgrwt>
<rscale>  2 0.11981562E+04</rscale>
<asrwt>0</asrwt>
<pdfrwt beam="1">  1       21 0.10529337E+00 0.12044750E+04</pdfrwt>
<pdfrwt beam="2">  1       21 0.31955130E+00 0.12044750E+04</pdfrwt>
<totfact> 0.64632951E+00</totfact>
</mgrwt>
</event>
<event>
 8    1  0.1168507E-005  0.1061362E+04  0.7818608E-02  0.8726241E-01
         21   -1    0    0  501  502  0.00000000000E+00  0.00000000000E+00  0.14501082091E+04  0.14501082091E+04  0.00000000000E+00 0. -1.
         21   -1    0    0  502  503 -0.00000000000E+00 -0.00000000000E+00 -0.75446519779E+03  0.75446519779E+03  0.00000000000E+00 0. -1.
   -9000010    2    1    2    0  503 -0.25054621281E+03  0.22222076263E+03  0.38929963496E+03  0.10998854978E+04  0.97264506912E+03 0.  0.
    9000010    2    1    2  501    0  0.25054621281E+03 -0.22222076263E+03  0.30634337640E+03  0.11046879091E+04  0.10071413208E+04 0.  0.
        -13    1    4    4    0    0  0.34702632420E+02  0.15979624604E+03  0.56986285760E+03  0.59285984902E+03  0.10566000000E+00 0.  1.
          4    1    4    4  501    0  0.21584358039E+03 -0.38201700867E+03 -0.26351948121E+03  0.51182806007E+03  0.00000000000E+00 0.  1.
         13    1    3    3    0    0 -0.45253887168E+03  0.20544448059E+03  0.61881595329E+03  0.79368259411E+03  0.10566000000E+00 0. -1.
         -4    1    3    3    0  503  0.20199265887E+03  0.16776282039E+02 -0.22951631832E+03  0.30620290373E+03  0.00000000000E+00 0. -1.
<mgrwt>
<rscale>  2 0.10530968E+04</rscale>
<asrwt>0</asrwt>
<pdfrwt beam="1">  1       21 0.22309357E+00 0.10613619E+04</pdfrwt>
<pdfrwt beam="2">  1       21 0.11607157E+00 0.10613619E+04</pdfrwt>
<totfact> 0.25286752E+01</totfact>
</mgrwt>
</event>
<event>
 8    1  0.1168507E-005  0.1024669E+04  0.7818608E-02  0.8755455E-01
         21   -1    0    0  501  502  0.00000000000E+00  0.00000000000E+00  0.11961561809E+04  0.11961561809E+04  0.00000000000E+00 0. -1.
         21   -1    0    0  502  503 -0.00000000000E+00 -0.00000000000E+00 -0.86502211437E+03  0.86502211437E+03  0.00000000000E+00 0. -1.
   -9000010    2    1    2    0  503  0.33612452891E+02 -0.22085599080E+03  0.12934198484E+03  0.10168287130E+04  0.98351620064E+03 0.  0.
    9000010    2    1    2  501    0 -0.33612452891E+02  0.22085599080E+03  0.20179208166E+03  0.10443495822E+04  0.10000194198E+04 0.  0.
        -13    1    4    4    0    0  0.30238808984E+03 -0.25903696438E+03 -0.60043374909E+02  0.40267098707E+03  0.10566000000E+00 0.  1.
          4    1    4    4  501    0 -0.33600054273E+03  0.47989295518E+03  0.26183545657E+03  0.64167859514E+03  0.00000000000E+00 0.  1.
         13    1    3    3    0    0  0.25839732829E+03 -0.38177140501E+03  0.41430149189E+03  0.61980990819E+03  0.10566000000E+00 0. -1.
         -4    1    3    3    0  503 -0.22478487540E+03  0.16091541421E+03 -0.28495950704E+03  0.39701880483E+03  0.00000000000E+00 0. -1.
<mgrwt>
<rscale>  2 0.10206198E+04</rscale>
<asrwt>0</asrwt>
<pdfrwt beam="1">  1       21 0.18402403E+00 0.10246687E+04</pdfrwt>
<pdfrwt beam="2">  1       21 0.13308033E+00 0.10246687E+04</pdfrwt>
<totfact> 0.34780455E+01</totfact>
</mgrwt>
</event>
<event>
 8    1  0.1168507E-005  0.1106866E+04  0.7818608E-02  0.8681567E-01
         21   -1    0    0  503  502  0.00000000000E+00  0.00000000000E+00  0.74378772300E+03  0.74378772300E+03  0.00000000000E+00 0. -1.
         21   -1    0    0  501  503 -0.00000000000E+00 -0.00000000000E+00 -0.17975595639E+04  0.17975595639E+04  0.00000000000E+00 0. -1.
    9000010    2    1    2  501    0  0.38273658951E+03  0.25557982834E+03 -0.90755165678E+03  0.14313634665E+04  0.10066494017E+04 0.  0.
   -9000010    2    1    2    0  502 -0.38273658951E+03 -0.25557982834E+03 -0.14622018414E+03  0.11099838204E+04  0.99943753864E+03 0.  0.
        -13    1    3    3    0    0 -0.15673797477E+03  0.85345858644E+02  0.14926930245E+03  0.23266294105E+03  0.10566000000E+00 0.  1.
          4    1    3    3  501    0  0.53947456428E+03  0.17023396969E+03 -0.10568209592E+04  0.11987005255E+04  0.00000000000E+00 0.  1.
         13    1    4    4    0    0 -0.66144305983E+03  0.41387723453E+02 -0.21544199323E+03  0.69687526047E+03  0.10566000000E+00 0. -1.
         -4    1    4    4    0  502  0.27870647032E+03 -0.29696755179E+03  0.69221809091E+02  0.41310855990E+03  0.00000000000E+00 0. -1.
<mgrwt>
<rscale>  2 0.11052232E+04</rscale>
<asrwt>0</asrwt>
<pdfrwt beam="1">  1       21 0.11442888E+00 0.11068656E+04</pdfrwt>
<pdfrwt beam="2">  1       21 0.27654762E+00 0.11068656E+04</pdfrwt>
<totfact> 0.10611834E+01</totfact>
</mgrwt>
</event>
<event>
 8    1  0.1168507E-005  0.1112389E+04  0.7818608E-02  0.8675832E-01
         21   -1    0    0  501  502  0.00000000000E+00  0.00000000000E+00  0.10904011574E+04  0.10904011574E+04  0.00000000000E+00 0. -1.
         21   -1    0    0  502  503 -0.00000000000E+00 -0.00000000000E+00 -0.14663078972E+04  0.14663078972E+04  0.00000000000E+00 0. -1.
   -9000010    2    1    2    0  503 -0.19314682544E+03  0.44009796634E+03 -0.79663387858E+03  0.13674145368E+04  0.10021003257E+04 0.  0.
    9000010    2    1    2  501    0  0.19314682544E+03 -0.44009796634E+03  0.42072713880E+03  0.11892945178E+04  0.10032039716E+04 0.  0.
        -13    1    4    4    0    0  0.32879562727E+03 -0.46554022570E+03  0.68503231635E+03  0.89112488006E+03  0.10566000000E+00 0.  1.
          4    1    4    4  501    0 -0.13564880183E+03  0.25442259351E+02 -0.26430517755E+03  0.29816963776E+03  0.00000000000E+00 0.  1.
         13    1    3    3    0    0 -0.28118601566E+03  0.17360086874E+03 -0.97862375183E+03  0.10329120465E+04  0.10566000000E+00 0. -1.
         -4    1    3    3    0  503  0.88039190217E+02  0.26649709761E+03  0.18198987325E+03  0.33450249029E+03  0.00000000000E+00 0. -1.
<mgrwt>
<rscale>  2 0.11121405E+04</rscale>
<asrwt>0</asrwt>
<pdfrwt beam="1">  1       21 0.16775402E+00 0.11123894E+04</pdfrwt>
<pdfrwt beam="2">  1       21 0.22558583E+00 0.11123894E+04</pdfrwt>
<totfact> 0.79584466E+00</totfact>
</mgrwt>
</event>
<event>
 8    1  0.1168507E-005  0.1210632E+04  0.7818608E-02  0.8620962E-01
         21   -1    0    0  501  502  0.00000000000E+00  0.00000000000E+00  0.26662599036E+04  0.26662599036E+04  0.00000000000E+00 0. -1.
         21   -1    0    0  502  503 -0.00000000000E+00 -0.00000000000E+00 -0.53892374021E+03  0.53892374021E+03  0.00000000000E+00 0. -1.
   -9000010    2    1    2    0  503 -0.28693515356E+03  0.37223232159E+03  0.14499002896E+04  0.18179028179E+04  0.99079317823E+03 0.  0.
    9000010    2    1    2  501    0  0.28693515356E+03 -0.37223232159E+03  0.67743587382E+03  0.13872808259E+04  0.11156791847E+04 0.  0.
        -13    1    4    4    0    0 -0.25205923495E+03  0.72120397129E+02  0.63552658354E+03  0.68748037001E+03  0.10566000000E+00 0.  1.
          4    1    4    4  501    0  0.53899438850E+03 -0.44435271872E+03  0.41909290280E+02  0.69980045591E+03  0.00000000000E+00 0.  1.
         13    1    3    3    0    0 -0.19205487673E+03  0.66944681230E+03  0.62424686383E+03  0.93526908874E+03  0.10566000000E+00 0. -1.
         -4    1    3    3    0  503 -0.94880276827E+02 -0.29721449071E+03  0.82565342573E+03  0.88263372915E+03  0.00000000000E+00 0. -1.
<mgrwt>
<rscale>  2 0.11810610E+04</rscale>
<asrwt>0</asrwt>
<pdfrwt beam="1">  1       21 0.41019382E+00 0.12106315E+04</pdfrwt>
<pdfrwt beam="2">  1       21 0.82911346E-01 0.12106315E+04</pdfrwt>
<totfact> 0.27756508E+00</totfact>
</mgrwt>
</event>
<event>
 8    1  0.1168507E-005  0.1278288E+04  0.7818608E-02  0.8551412E-01
         21   -1    0    0  503  502  0.00000000000E+00  0.00000000000E+00  0.30657534450E+04  0.30657534450E+04  0.00000000000E+00 0.  1.
         21   -1    0    0  501  503 -0.00000000000E+00 -0.00000000000E+00 -0.56813801790E+03  0.56813801790E+03  0.00000000000E+00 0. -1.
    9000010    2    1    2  501    0 -0.24586668405E+03 -0.76211098687E+03  0.76921910602E+03  0.14841530673E+04  0.98475819944E+03 0.  0.
   -9000010    2    1    2    0  502  0.24586668405E+03  0.76211098687E+03  0.17283963211E+04  0.21497383956E+04  0.99637229204E+03 0.  0.
        -13    1    3    3    0    0  0.14680706056E+03 -0.52043151766E+03 -0.51078380190E+02  0.54314849690E+03  0.10566000000E+00 0.  1.
          4    1    3    3  501    0 -0.39267374462E+03 -0.24167946921E+03  0.82029748621E+03  0.94100457036E+03  0.00000000000E+00 0.  1.
         13    1    4    4    0    0  0.55163916466E+03  0.70218338128E+03  0.15549992878E+04  0.17931508763E+04  0.10566000000E+00 0. -1.
         -4    1    4    4    0  502 -0.30577248060E+03  0.59927605589E+02  0.17339703328E+03  0.35658751935E+03  0.00000000000E+00 0. -1.
<mgrwt>
<rscale>  2 0.12760245E+04</rscale>
<asrwt>0</asrwt>
<pdfrwt beam="1">  1       21 0.47165437E+00 0.12782884E+04</pdfrwt>
<pdfrwt beam="2">  1       21 0.87405851E-01 0.12782884E+04</pdfrwt>
<totfact> 0.89929947E-01</totfact>
</mgrwt>
</event>
<event>
 8    1  0.1168507E-005  0.1325656E+04  0.7818608E-02  0.8552637E-01
         21   -1    0    0  503  502  0.00000000000E+00  0.00000000000E+00  0.19387419041E+04  0.19387419041E+04  0.00000000000E+00 0. -1.
         21   -1    0    0  501  503 -0.00000000000E+00 -0.00000000000E+00 -0.79134145830E+03  0.79134145830E+03  0.00000000000E+00 0. -1.
    9000010    2    1    2  501    0 -0.48737332799E+03  0.22415140397E+03  0.35730837499E+03  0.11868370391E+04  0.99656222571E+03 0.  0.
   -9000010    2    1    2    0  502  0.48737332799E+03 -0.22415140397E+03  0.79009207082E+03  0.15432463233E+04  0.12122652851E+04 0.  0.
        -13    1    3    3    0    0  0.13133124585E+03  0.17328689144E+02 -0.25803665448E+03  0.29005362577E+03  0.10566000000E+00 0.  1.
          4    1    3    3  501    0 -0.61870457384E+03  0.20682271482E+03  0.61534502947E+03  0.89678341329E+03  0.00000000000E+00 0.  1.
         13    1    4    4    0    0  0.61130064666E+03 -0.44070731816E+03  0.42141216843E+02  0.75477633390E+03  0.10566000000E+00 0. -1.
         -4    1    4    4    0  502 -0.12392731868E+03  0.21655591419E+03  0.74795085398E+03  0.78846998945E+03  0.00000000000E+00 0. -1.
<mgrwt>
<rscale>  2 0.12742747E+04</rscale>
<asrwt>0</asrwt>
<pdfrwt beam="1">  1       21 0.29826798E+00 0.13256560E+04</pdfrwt>
<pdfrwt beam="2">  1       21 0.12174484E+00 0.13256560E+04</pdfrwt>
<totfact> 0.59888525E+00</totfact>
</mgrwt>
</event>
<event>
 8    1  0.1168507E-005  0.1086557E+04  0.7818608E-02  0.8728496E-01
         21   -1    0    0  501  502  0.00000000000E+00  0.00000000000E+00  0.13876543687E+04  0.13876543687E+04  0.00000000000E+00 0.  1.
         21   -1    0    0  502  503 -0.00000000000E+00 -0.00000000000E+00 -0.81013590212E+03  0.81013590212E+03  0.00000000000E+00 0.  1.
   -9000010    2    1    2    0  503 -0.32315087802E+03  0.27624206514E+03  0.22973390196E+00  0.10865574935E+04  0.99993548063E+03 0.  0.
    9000010    2    1    2  501    0  0.32315087802E+03 -0.27624206514E+03  0.57728873270E+03  0.11112327773E+04  0.84902287129E+03 0.  0.
        -13    1    4    4    0    0  0.47509766967E+03  0.14761942955E+03  0.33652436540E+03  0.60063129403E+03  0.10566000000E+00 0.  1.
          4    1    4    4  501    0 -0.15194679165E+03 -0.42386149469E+03  0.24076436730E+03  0.51060148328E+03  0.00000000000E+00 0.  1.
         13    1    3    3    0    0 -0.62748235342E+03  0.91268548297E+01 -0.16553162222E+03  0.64901319898E+03  0.10566000000E+00 0. -1.
         -4    1    3    3    0  503  0.30433147540E+03  0.26711521031E+03  0.16576135612E+03  0.43754429454E+03  0.00000000000E+00 0. -1.
<mgrwt>
<rscale>  2 0.10505454E+04</rscale>
<asrwt>0</asrwt>
<pdfrwt beam="1">  1       21 0.21348529E+00 0.10865575E+04</pdfrwt>
<pdfrwt beam="2">  1       21 0.12463629E+00 0.10865575E+04</pdfrwt>
<totfact> 0.24354047E+01</totfact>
</mgrwt>
</event>
<event>
 8    1  0.1168507E-005  0.1179693E+04  0.7818608E-02  0.8626249E-01
         21   -1    0    0  501  502  0.00000000000E+00  0.00000000000E+00  0.58185719176E+03  0.58185719176E+03  0.00000000000E+00 0. -1.
         21   -1    0    0  502  503 -0.00000000000E+00 -0.00000000000E+00 -0.23478233900E+04  0.23478233900E+04  0.00000000000E+00 0. -1.
   -9000010    2    1    2    0  503  0.60281557644E+03 -0.15474730820E+03 -0.88400108404E+03  0.14567450248E+04  0.97637841133E+03 0.  0.
    9000010    2    1    2  501    0 -0.60281557644E+03  0.15474730820E+03 -0.88196511416E+03  0.14729355569E+04  0.10021693188E+04 0.  0.
        -13    1    4    4    0    0 -0.42994433617E+02 -0.39361423563E+03 -0.30478885158E+03  0.49967683859E+03  0.10566000000E+00 0.  1.
          4    1    4    4  501    0 -0.55982114283E+03  0.54836154383E+03 -0.57717626258E+03  0.97325871832E+03  0.00000000000E+00 0.  1.
         13    1    3    3    0    0  0.71147754727E+03 -0.66155230033E+02 -0.10304825545E+04  0.12539821056E+04  0.10566000000E+00 0. -1.
         -4    1    3    3    0  503 -0.10866197083E+03 -0.88592078166E+02  0.14648147049E+03  0.20276291923E+03  0.00000000000E+00 0. -1.
<mgrwt>
<rscale>  2 0.11741977E+04</rscale>
<asrwt>0</asrwt>
<pdfrwt beam="1">  1       21 0.89516492E-01 0.11796935E+04</pdfrwt>
<pdfrwt beam="2">  1       21 0.36120359E+00 0.11796935E+04</pdfrwt>
<totfact> 0.50522032E+00</totfact>
</mgrwt>
</event>
<event>
 8    1  0.1168507E-005  0.1019589E+04  0.7818608E-02  0.8758218E-01
         21   -1    0    0  503  502  0.00000000000E+00  0.00000000000E+00  0.72842020619E+03  0.72842020619E+03  0.00000000000E+00 0. -1.
         21   -1    0    0  501  503 -0.00000000000E+00 -0.00000000000E+00 -0.14163411585E+04  0.14163411585E+04  0.00000000000E+00 0. -1.
    9000010    2    1    2  501    0 -0.94383084143E+02 -0.13820315769E+03 -0.35851869929E+03  0.10807856274E+04  0.10057602275E+04 0.  0.
   -9000010    2    1    2    0  502  0.94383084143E+02  0.13820315769E+03 -0.32940225303E+03  0.10639757373E+04  0.99776262001E+03 0.  0.
        -13    1    3    3    0    0  0.11203006146E+03  0.38525208075E+03 -0.32635881881E+03  0.51718467705E+03  0.10566000000E+00 0.  1.
          4    1    3    3  501    0 -0.20641314560E+03 -0.52345523844E+03 -0.32159880476E+02  0.56360095035E+03  0.00000000000E+00 0.  1.
         13    1    4    4    0    0  0.12779599774E+03  0.50040476297E+03 -0.44560102310E+03  0.68212684070E+03  0.10566000000E+00 0. -1.
         -4    1    4    4    0  502 -0.33412913596E+02 -0.36220160529E+03  0.11619877008E+03  0.38184889660E+03  0.00000000000E+00 0. -1.
<mgrwt>
<rscale>  2 0.10176113E+04</rscale>
<asrwt>0</asrwt>
<pdfrwt beam="1">  1       21 0.11206465E+00 0.10195891E+04</pdfrwt>
<pdfrwt beam="2">  1       21 0.21789864E+00 0.10195891E+04</pdfrwt>
<totfact> 0.30758064E+01</totfact>
</mgrwt>
</event>
<event>
 8    1  0.1168507E-005  0.1089932E+04  0.7818608E-02  0.8694742E-01
         21   -1    0    0  503  502  0.00000000000E+00  0.00000000000E+00  0.19516873478E+04  0.19516873478E+04  0.00000000000E+00 0. -1.
         21   -1    0    0  501  503 -0.00000000000E+00 -0.00000000000E+00 -0.64385283999E+03  0.64385283999E+03  0.00000000000E+00 0. -1.
    9000010    2    1    2  501    0 -0.13649989547E+03  0.38643201405E+03  0.96063881243E+03  0.14516445001E+04  0.10082077681E+04 0.  0.
   -9000010    2    1    2    0  502  0.13649989547E+03 -0.38643201405E+03  0.34719569537E+03  0.11438956877E+04  0.10099458255E+04 0.  0.
        -13    1    3    3    0    0 -0.29100971748E+03 -0.23128417349E+03  0.10725952625E+03  0.38688970225E+03  0.10566000000E+00 0.  1.
          4    1    3    3  501    0  0.15450982201E+03  0.61771618754E+03  0.85337928618E+03  0.10647547978E+04  0.00000000000E+00 0.  1.
         13    1    4    4    0    0  0.25561861149E+03  0.17666447312E+03  0.46222182439E+03  0.55695622512E+03  0.10566000000E+00 0. -1.
         -4    1    4    4    0  502 -0.11911871602E+03 -0.56309648717E+03 -0.11502612902E+03  0.58693946257E+03  0.00000000000E+00 0. -1.
<mgrwt>
<rscale>  2 0.10895295E+04</rscale>
<asrwt>0</asrwt>
<pdfrwt beam="1">  1       21 0.30025959E+00 0.10899323E+04</pdfrwt>
<pdfrwt beam="2">  1       21 0.99054284E-01 0.10899323E+04</pdfrwt>
<totfact> 0.10641774E+01</totfact>
</mgrwt>
</event>
<event>
 8    1  0.1168507E-005  0.1061949E+04  0.7818608E-02  0.8721290E-01
         21   -1    0    0  501  502  0.00000000000E+00  0.00000000000E+00  0.34970530516E+04  0.34970530516E+04  0.00000000000E+00 0. -1.
         21   -1    0    0  502  503 -0.00000000000E+00 -0.00000000000E+00 -0.35063566463E+03  0.35063566463E+03  0.00000000000E+00 0. -1.
   -9000010    2    1    2    0  503 -0.27157714398E+03  0.22837829964E+03  0.10003419175E+04  0.14589107452E+04  0.10009124925E+04 0.  0.
    9000010    2    1    2  501    0  0.27157714398E+03 -0.22837829964E+03  0.21460754695E+04  0.23887779711E+04  0.98727376208E+03 0.  0.
        -13    1    4    4    0    0 -0.16568730321E+03  0.30221903709E+03  0.92970162050E+03  0.99153100968E+03  0.10566000000E+00 0.  1.
          4    1    4    4  501    0  0.43726444720E+03 -0.53059733673E+03  0.12163738490E+04  0.13972469614E+04  0.00000000000E+00 0.  1.
         13    1    3    3    0    0 -0.34224627018E+03  0.40239722853E+02  0.11550037803E+04  0.12053155140E+04  0.10566000000E+00 0. -1.
         -4    1    3    3    0  503  0.70669126198E+02  0.18813857679E+03 -0.15466186278E+03  0.25359523117E+03  0.00000000000E+00 0. -1.
<mgrwt>
<rscale>  2 0.10587235E+04</rscale>
<asrwt>0</asrwt>
<pdfrwt beam="1">  1       21 0.53800814E+00 0.10619494E+04</pdfrwt>
<pdfrwt beam="2">  1       21 0.53943951E-01 0.10619494E+04</pdfrwt>
<totfact> 0.10090755E+00</totfact>
</mgrwt>
</event>
<event>
 8    1  0.1168507E-005  0.1203453E+04  0.7818608E-02  0.8614820E-01
         21   -1    0    0  501  502  0.00000000000E+00  0.00000000000E+00  0.10042002230E+04  0.10042002230E+04  0.00000000000E+00 0. -1.
         21   -1    0    0  502  503 -0.00000000000E+00 -0.00000000000E+00 -0.14534213485E+04  0.14534213485E+04  0.00000000000E+00 0. -1.
   -9000010    2    1    2    0  503 -0.51233976955E+03  0.24499863601E+03 -0.50408665319E+03  0.12529184694E+04  0.99658665746E+03 0.  0.
    9000010    2    1    2  501    0  0.51233976955E+03 -0.24499863601E+03  0.54865527631E+02  0.12047031021E+04  0.10610292018E+04 0.  0.
        -13    1    4    4    0    0  0.36552080629E+03 -0.50002255896E+03 -0.34441914216E+03  0.70869780298E+03  0.10566000000E+00 0.  1.
          4    1    4    4  501    0  0.14681896326E+03  0.25502392295E+03  0.39928466979E+03  0.49600529914E+03  0.00000000000E+00 0.  1.
         13    1    3    3    0    0 -0.47175394451E+03  0.59363742822E+03 -0.48766774193E+03  0.90154146773E+03  0.10566000000E+00 0. -1.
         -4    1    3    3    0  503 -0.40585825034E+02 -0.34863879221E+03 -0.16418911263E+02  0.35137700163E+03  0.00000000000E+00 0. -1.
<mgrwt>
<rscale>  2 0.11890950E+04</rscale>
<asrwt>0</asrwt>
<pdfrwt beam="1">  1       21 0.15449234E+00 0.12034531E+04</pdfrwt>
<pdfrwt beam="2">  1       21 0.22360328E+00 0.12034531E+04</pdfrwt>
<totfact> 0.10507975E+01</totfact>
</mgrwt>
</event>
<event>
 8    1  0.1168507E-005  0.1097979E+04  0.7818608E-02  0.8690474E-01
         21   -1    0    0  501  502  0.00000000000E+00  0.00000000000E+00  0.16880193629E+04  0.16880193629E+04  0.00000000000E+00 0. -1.
         21   -1    0    0  502  503 -0.00000000000E+00 -0.00000000000E+00 -0.71321211821E+03  0.71321211821E+03  0.00000000000E+00 0. -1.
   -9000010    2    1    2    0  503 -0.35630841699E+03  0.29426705897E+03  0.61589695065E+03  0.12589232715E+04  0.99599696766E+03 0.  0.
    9000010    2    1    2  501    0  0.35630841699E+03 -0.29426705897E+03  0.35891029408E+03  0.11423082097E+04  0.98107219752E+03 0.  0.
        -13    1    4    4    0    0 -0.22419682074E+03  0.20413286586E+03  0.19299478781E+03  0.35941819743E+03  0.10566000000E+00 0.  1.
          4    1    4    4  501    0  0.58050523773E+03 -0.49839992483E+03  0.16591550626E+03  0.78289001227E+03  0.00000000000E+00 0.  1.
         13    1    3    3    0    0 -0.69223874717E+03  0.20405952726E+03  0.54396353788E+03  0.90373177186E+03  0.10566000000E+00 0. -1.
         -4    1    3    3    0  503  0.33593033018E+03  0.90207531701E+02  0.71933412769E+02  0.35519149960E+03  0.00000000000E+00 0. -1.
<mgrwt>
<rscale>  2 0.10945836E+04</rscale>
<asrwt>0</asrwt>
<pdfrwt beam="1">  1       21 0.25969528E+00 0.10979794E+04</pdfrwt>
<pdfrwt beam="2">  1       21 0.10972494E+00 0.10979794E+04</pdfrwt>
<totfact> 0.15754825E+01</totfact>
</mgrwt>
</event>
<event>
 8    1  0.1168507E-005  0.1096710E+04  0.7818608E-02  0.8689952E-01
         21   -1    0    0  501  502  0.00000000000E+00  0.00000000000E+00  0.11667516412E+04  0.11667516412E+04  0.00000000000E+00 0.  1.
         21   -1    0    0  502  503 -0.00000000000E+00 -0.00000000000E+00 -0.13577073407E+04  0.13577073407E+04  0.00000000000E+00 0.  1.
   -9000010    2    1    2    0  503 -0.25713825255E+03  0.36847014506E+03 -0.72029668931E+03  0.13120975759E+04  0.10004411023E+04 0.  0.
    9000010    2    1    2  501    0  0.25713825255E+03 -0.36847014506E+03  0.52934098980E+03  0.12123614061E+04  0.99384504162E+03 0.  0.
        -13    1    4    4    0    0 -0.33798309371E+03 -0.31478023579E+03  0.37573485467E+03  0.59539554975E+03  0.10566000000E+00 0.  1.
          4    1    4    4  501    0  0.59512134626E+03 -0.53689909264E+02  0.15360613514E+03  0.61696585634E+03  0.00000000000E+00 0.  1.
         13    1    3    3    0    0  0.18509630332E+03  0.52085400191E+03 -0.14658800129E+03  0.57187200149E+03  0.10566000000E+00 0. -1.
         -4    1    3    3    0  503 -0.44223455587E+03 -0.15238385685E+03 -0.57370868802E+03  0.74022557436E+03  0.00000000000E+00 0. -1.
<mgrwt>
<rscale>  2 0.10952034E+04</rscale>
<asrwt>0</asrwt>
<pdfrwt beam="1">  1       21 0.17950025E+00 0.10967100E+04</pdfrwt>
<pdfrwt beam="2">  1       21 0.20887805E+00 0.10967100E+04</pdfrwt>
<totfact> 0.85388610E+00</totfact>
</mgrwt>
</event>
<event>
 8    1  0.1168507E-005  0.1065256E+04  0.7818608E-02  0.8720235E-01
         21   -1    0    0  501  502  0.00000000000E+00  0.00000000000E+00  0.70392455325E+03  0.70392455325E+03  0.00000000000E+00 0.  1.
         21   -1    0    0  502  503 -0.00000000000E+00 -0.00000000000E+00 -0.15895090521E+04  0.15895090521E+04  0.00000000000E+00 0.  1.
   -9000010    2    1    2    0  503 -0.12143797294E+03 -0.27785037532E+03 -0.53494362603E+03  0.11920301434E+04  0.10211871363E+04 0.  0.
    9000010    2    1    2  501    0  0.12143797294E+03  0.27785037532E+03 -0.35064087278E+03  0.11014034619E+04  0.99909586722E+03 0.  0.
        -13    1    4    4    0    0  0.23258304654E+03  0.52554890482E+03  0.92103481207E+02  0.58204775346E+03  0.10566000000E+00 0.  1.
          4    1    4    4  501    0 -0.11114507360E+03 -0.24769852950E+03 -0.44274435399E+03  0.51935570844E+03  0.00000000000E+00 0.  1.
         13    1    3    3    0    0  0.29543544304E+03 -0.15106527322E+01 -0.61804293044E+03  0.68502661124E+03  0.10566000000E+00 0. -1.
         -4    1    3    3    0  503 -0.41687341598E+03 -0.27633972259E+03  0.83099304415E+02  0.50700353216E+03  0.00000000000E+00 0. -1.
<mgrwt>
<rscale>  2 0.10599269E+04</rscale>
<asrwt>0</asrwt>
<pdfrwt beam="1">  1       21 0.10829609E+00 0.10652564E+04</pdfrwt>
<pdfrwt beam="2">  1       21 0.24453985E+00 0.10652564E+04</pdfrwt>
<totfact> 0.21183841E+01</totfact>
</mgrwt>
</event>
<event>
 8    1  0.1168507E-005  0.1248382E+04  0.7818608E-02  0.8574681E-01
         21   -1    0    0  501  502  0.00000000000E+00  0.00000000000E+00  0.19621295290E+04  0.19621295290E+04  0.00000000000E+00 0.  1.
         21   -1    0    0  502  503 -0.00000000000E+00 -0.00000000000E+00 -0.78647921783E+03  0.78647921783E+03  0.00000000000E+00 0.  1.
   -9000010    2    1    2    0  503  0.72515661335E+03 -0.13241955913E+03  0.48174793393E+03  0.13381104546E+04  0.10075075500E+04 0.  0.
    9000010    2    1    2  501    0 -0.72515661335E+03  0.13241955913E+03  0.69390237726E+03  0.14104982923E+04  0.98214961681E+03 0.  0.
        -13    1    4    4    0    0 -0.10227234528E+03  0.47431176267E+03  0.44279902975E+03  0.65688832592E+03  0.10566000000E+00 0.  1.
          4    1    4    4  501    0 -0.62288426807E+03 -0.34189220354E+03  0.25110334751E+03  0.75360996635E+03  0.00000000000E+00 0.  1.
         13    1    3    3    0    0  0.53432288409E+03  0.27628093443E+03  0.62245883623E+03  0.86561372053E+03  0.10566000000E+00 0. -1.
         -4    1    3    3    0  503  0.19083372926E+03 -0.40870049356E+03 -0.14071090230E+03  0.47249673405E+03  0.00000000000E+00 0. -1.
<mgrwt>
<rscale>  2 0.12432574E+04</rscale>
<asrwt>0</asrwt>
<pdfrwt beam="1">  1       21 0.30186608E+00 0.12483824E+04</pdfrwt>
<pdfrwt beam="2">  1       21 0.12099680E+00 0.12483824E+04</pdfrwt>
<totfact> 0.58310666E+00</totfact>
</mgrwt>
</event>
<event>
 8    1  0.1168507E-005  0.1077329E+04  0.7818608E-02  0.8711511E-01
         21   -1    0    0  501  502  0.00000000000E+00  0.00000000000E+00  0.92004984917E+03  0.92004984917E+03  0.00000000000E+00 0. -1.
         21   -1    0    0  502  503 -0.00000000000E+00 -0.00000000000E+00 -0.12328779280E+04  0.12328779280E+04  0.00000000000E+00 0. -1.
   -9000010    2    1    2    0  503 -0.53115280092E+02 -0.36582665117E+03 -0.87451429975E+02  0.10808727709E+04  0.10119228343E+04 0.  0.
    9000010    2    1    2  501    0  0.53115280092E+02  0.36582665117E+03 -0.22537664888E+03  0.10720550063E+04  0.98074305043E+03 0.  0.
        -13    1    4    4    0    0  0.50379140447E+03  0.77307741159E+02 -0.67538301822E+02  0.51414365642E+03  0.10566000000E+00 0.  1.
          4    1    4    4  501    0 -0.45067612438E+03  0.28851891002E+03 -0.15783834706E+03  0.55791134988E+03  0.00000000000E+00 0.  1.
         13    1    3    3    0    0  0.41670649006E+03 -0.36797860889E+03 -0.21174131760E+03  0.59488398214E+03  0.10566000000E+00 0. -1.
         -4    1    3    3    0  503 -0.46982177015E+03  0.21519577108E+01  0.12428988763E+03  0.48598878876E+03  0.00000000000E+00 0. -1.
<mgrwt>
<rscale>  2 0.10699456E+04</rscale>
<asrwt>0</asrwt>
<pdfrwt beam="1">  1       21 0.14154613E+00 0.10773292E+04</pdfrwt>
<pdfrwt beam="2">  1       21 0.18967353E+00 0.10773292E+04</pdfrwt>
<totfact> 0.25802792E+01</totfact>
</mgrwt>
</event>
<event>
 8    1  0.1168507E-005  0.1116509E+04  0.7818608E-02  0.8684545E-01
         21   -1    0    0  503  502  0.00000000000E+00  0.00000000000E+00  0.10872276576E+04  0.10872276576E+04  0.00000000000E+00 0.  1.
         21   -1    0    0  501  503 -0.00000000000E+00 -0.00000000000E+00 -0.10897004068E+04  0.10897004068E+04  0.00000000000E+00 0.  1.
    9000010    2    1    2  501    0  0.12647904241E+03 -0.34702867283E+03  0.47176877429E+02  0.11175055139E+04  0.10536446592E+04 0.  0.
   -9000010    2    1    2    0  502 -0.12647904241E+03  0.34702867283E+03 -0.49649626597E+02  0.10594225505E+04  0.99170822685E+03 0.  0.
        -13    1    3    3    0    0 -0.15685599721E+03  0.33893806431E+03  0.36460710467E+02  0.37524953014E+03  0.10566000000E+00 0.  1.
          4    1    3    3  501    0  0.28333503962E+03 -0.68596673714E+03  0.10716166962E+02  0.74225598372E+03  0.00000000000E+00 0.  1.
         13    1    4    4    0    0 -0.21703588560E+03 -0.39446972335E+02 -0.44656653498E+03  0.49807862893E+03  0.10566000000E+00 0. -1.
         -4    1    4    4    0  502  0.90556843192E+02  0.38647564517E+03  0.39691690838E+03  0.56134392160E+03  0.00000000000E+00 0. -1.
<mgrwt>
<rscale>  2 0.11016527E+04</rscale>
<asrwt>0</asrwt>
<pdfrwt beam="1">  1       21 0.16726579E+00 0.11165093E+04</pdfrwt>
<pdfrwt beam="2">  1       21 0.16764622E+00 0.11165093E+04</pdfrwt>
<totfact> 0.23030071E+01</totfact>
</mgrwt>
</event>
<event>
 8    1  0.1168507E-005  0.1210598E+04  0.7818608E-02  0.8614219E-01
         21   -1    0    0  503  502  0.00000000000E+00  0.00000000000E+00  0.76277718469E+03  0.76277718469E+03  0.00000000000E+00 0. -1.
         21   -1    0    0  501  503 -0.00000000000E+00 -0.00000000000E+00 -0.18551340642E+04  0.18551340642E+04  0.00000000000E+00 0. -1.
    9000010    2    1    2  501    0  0.39271779664E+03  0.34449748310E+03 -0.76288115022E+03  0.13632786525E+04  0.10018159767E+04 0.  0.
   -9000010    2    1    2    0  502 -0.39271779664E+03 -0.34449748310E+03 -0.32947572926E+03  0.12546325964E+04  0.10920819164E+04 0.  0.
        -13    1    3    3    0    0  0.71915702485E+03  0.30830909262E+03 -0.41832923715E+03  0.88726584787E+03  0.10566000000E+00 0.  1.
          4    1    3    3  501    0 -0.32643922822E+03  0.36188390481E+02 -0.34455191307E+03  0.47601280458E+03  0.00000000000E+00 0.  1.
         13    1    4    4    0    0  0.96901686129E+02  0.34554795806E+03 -0.43484545435E+02  0.36150275925E+03  0.10566000000E+00 0. -1.
         -4    1    4    4    0  502 -0.48961948277E+03 -0.69004544116E+03 -0.28599118383E+03  0.89312983714E+03  0.00000000000E+00 0. -1.
<mgrwt>
<rscale>  2 0.11898835E+04</rscale>
<asrwt>0</asrwt>
<pdfrwt beam="1">  1       21 0.11735034E+00 0.12105985E+04</pdfrwt>
<pdfrwt beam="2">  1       21 0.28540524E+00 0.12105985E+04</pdfrwt>
<totfact> 0.83743984E+00</totfact>
</mgrwt>
</event>
<event>
 8    1  0.1168507E-005  0.1476005E+04  0.7818608E-02  0.8435274E-01
         21   -1    0    0  501  502  0.00000000000E+00  0.00000000000E+00  0.23182794939E+04  0.23182794939E+04  0.00000000000E+00 0. -1.
         21   -1    0    0  502  503 -0.00000000000E+00 -0.00000000000E+00 -0.94974305549E+03  0.94974305549E+03  0.00000000000E+00 0.  1.
   -9000010    2    1    2    0  503  0.80388042895E+03  0.50351485021E+03  0.29385079673E+03  0.15049710038E+04  0.11308574106E+04 0.  0.
    9000010    2    1    2  501    0 -0.80388042895E+03 -0.50351485021E+03  0.10746856417E+04  0.17630515456E+04  0.10264748294E+04 0.  0.
        -13    1    4    4    0    0 -0.74548611285E+02 -0.52569782674E+03  0.91654465043E+02  0.53881003388E+03  0.10566000000E+00 0.  1.
          4    1    4    4  501    0 -0.72933181766E+03  0.22182976528E+02  0.98303117665E+03  0.12242415117E+04  0.00000000000E+00 0.  1.
         13    1    3    3    0    0  0.25104436686E+03  0.12748424203E+03  0.67781077686E+03  0.73396387275E+03  0.10566000000E+00 0. -1.
         -4    1    3    3    0  503  0.55283606209E+03  0.37603060818E+03 -0.38395998013E+03  0.77100713108E+03  0.00000000000E+00 0. -1.
<mgrwt>
<rscale>  2 0.14560112E+04</rscale>
<asrwt>0</asrwt>
<pdfrwt beam="1">  1       21 0.35665838E+00 0.14760045E+04</pdfrwt>
<pdfrwt beam="2">  1       21 0.14611432E+00 0.14760045E+04</pdfrwt>
<totfact> 0.13236273E+00</totfact>
</mgrwt>
</event>
<event>
 8    1  0.1168507E-005  0.1217613E+04  0.7818608E-02  0.8593904E-01
         21   -1    0    0  503  502  0.00000000000E+00  0.00000000000E+00  0.10752561871E+04  0.10752561871E+04  0.00000000000E+00 0.  1.
         21   -1    0    0  501  503 -0.00000000000E+00 -0.00000000000E+00 -0.14141824318E+04  0.14141824318E+04  0.00000000000E+00 0.  1.
    9000010    2    1    2  501    0  0.41138612680E+03 -0.55324840894E+03  0.35317690107E+02  0.12181247655E+04  0.10036225674E+04 0.  0.
   -9000010    2    1    2    0  502 -0.41138612680E+03  0.55324840894E+03 -0.37424393482E+03  0.12713138533E+04  0.10004289298E+04 0.  0.
        -13    1    3    3    0    0  0.36637206224E+03  0.23030251301E+03  0.87886793697E+01  0.43283367191E+03  0.10566000000E+00 0.  1.
          4    1    3    3  501    0  0.45014064552E+02 -0.78355092196E+03  0.26529010737E+02  0.78529109362E+03  0.00000000000E+00 0.  1.
         13    1    4    4    0    0  0.15876780206E+03  0.23305495486E+03  0.24288559782E+03  0.37217637182E+03  0.10566000000E+00 0. -1.
         -4    1    4    4    0  502 -0.57015392885E+03  0.32019345409E+03 -0.61712953264E+03  0.89913748153E+03  0.00000000000E+00 0. -1.
<mgrwt>
<rscale>  2 0.12169544E+04</rscale>
<asrwt>0</asrwt>
<pdfrwt beam="1">  1       21 0.16542403E+00 0.12176127E+04</pdfrwt>
<pdfrwt beam="2">  1       21 0.21756653E+00 0.12176127E+04</pdfrwt>
<totfact> 0.93586993E+00</totfact>
</mgrwt>
</event>
<event>
 8    1  0.1168507E-005  0.1206772E+04  0.7818608E-02  0.8603882E-01
         21   -1    0    0  501  502  0.00000000000E+00  0.00000000000E+00  0.19069348014E+04  0.19069348014E+04  0.00000000000E+00 0.  1.
         21   -1    0    0  502  503 -0.00000000000E+00 -0.00000000000E+00 -0.11115576177E+04  0.11115576177E+04  0.00000000000E+00 0.  1.
   -9000010    2    1    2    0  503 -0.16841248424E+03  0.65112421693E+03 -0.45490584524E+03  0.12896660705E+04  0.10019848974E+04 0.  0.
    9000010    2    1    2  501    0  0.16841248424E+03 -0.65112421693E+03  0.12502830288E+04  0.17288263486E+04  0.98656341951E+03 0.  0.
        -13    1    4    4    0    0 -0.38677991427E+03 -0.46687153240E+03  0.69496967220E+03  0.92225299473E+03  0.10566000000E+00 0.  1.
          4    1    4    4  501    0  0.55519239851E+03 -0.18425268453E+03  0.55531335665E+03  0.80657335388E+03  0.00000000000E+00 0.  1.
         13    1    3    3    0    0 -0.23781323355E+03  0.88966761088E+03 -0.48259650010E+03  0.10396936977E+04  0.10566000000E+00 0. -1.
         -4    1    3    3    0  503  0.69400749309E+02 -0.23854339395E+03  0.27690654868E+02  0.24997237281E+03  0.00000000000E+00 0. -1.
<mgrwt>
<rscale>  2 0.12035661E+04</rscale>
<asrwt>0</asrwt>
<pdfrwt beam="1">  1       21 0.29337459E+00 0.12067722E+04</pdfrwt>
<pdfrwt beam="2">  1       21 0.17100886E+00 0.12067722E+04</pdfrwt>
<totfact> 0.23612491E+00</totfact>
</mgrwt>
</event>
<event>
 8    1  0.1168507E-005  0.1108541E+04  0.7818608E-02  0.8682824E-01
         21   -1    0    0  503  502  0.00000000000E+00  0.00000000000E+00  0.17981621364E+04  0.17981621364E+04  0.00000000000E+00 0.  1.
         21   -1    0    0  501  503 -0.00000000000E+00 -0.00000000000E+00 -0.67229713802E+03  0.67229713802E+03  0.00000000000E+00 0.  1.
    9000010    2    1    2  501    0 -0.85515413974E+02  0.45640785322E+03  0.60684452900E+03  0.12637731212E+04  0.10065988302E+04 0.  0.
   -9000010    2    1    2    0  502  0.85515413974E+02 -0.45640785322E+03  0.51902046940E+03  0.12066861533E+04  0.98543808040E+03 0.  0.
        -13    1    3    3    0    0 -0.25819515928E+03  0.22824149889E+03  0.83143001220E+03  0.90001933226E+03  0.10566000000E+00 0.  1.
          4    1    3    3  501    0  0.17267974531E+03  0.22816635433E+03 -0.22458548320E+03  0.36375378892E+03  0.00000000000E+00 0.  1.
         13    1    4    4    0    0  0.31044341637E+03 -0.65676149894E+03  0.17077274092E+03  0.74623998919E+03  0.10566000000E+00 0. -1.
         -4    1    4    4    0  502 -0.22492800239E+03  0.20035364572E+03  0.34824772848E+03  0.46044616407E+03  0.00000000000E+00 0. -1.
<mgrwt>
<rscale>  2 0.11037145E+04</rscale>
<asrwt>0</asrwt>
<pdfrwt beam="1">  1       21 0.27664033E+00 0.11085406E+04</pdfrwt>
<pdfrwt beam="2">  1       21 0.10343033E+00 0.11085406E+04</pdfrwt>
<totfact> 0.13916532E+01</totfact>
</mgrwt>
</event>
<event>
 8    1  0.1168507E-005  0.1123698E+04  0.7818608E-02  0.8674269E-01
         21   -1    0    0  503  502  0.00000000000E+00  0.00000000000E+00  0.73328630478E+03  0.73328630478E+03  0.00000000000E+00 0. -1.
         21   -1    0    0  501  503 -0.00000000000E+00 -0.00000000000E+00 -0.17994071291E+04  0.17994071291E+04  0.00000000000E+00 0. -1.
    9000010    2    1    2  501    0 -0.48774117702E+03  0.14876042819E+03 -0.87188667342E+03  0.13923319246E+04  0.95832181248E+03 0.  0.
   -9000010    2    1    2    0  502  0.48774117702E+03 -0.14876042819E+03 -0.19423415089E+03  0.11403615093E+04  0.10013372787E+04 0.  0.
        -13    1    3    3    0    0 -0.67119896041E+03 -0.16844657866E+03 -0.41598670885E+03  0.80742011830E+03  0.10566000000E+00 0.  1.
          4    1    3    3  501    0  0.18345778339E+03  0.31720700686E+03 -0.45589996456E+03  0.58491180632E+03  0.00000000000E+00 0.  1.
         13    1    4    4    0    0  0.38959008242E+02  0.37416993892E+03 -0.24573087439E+03  0.44933798115E+03  0.10566000000E+00 0. -1.
         -4    1    4    4    0  502  0.44878216878E+03 -0.52293036711E+03  0.51496723492E+02  0.69102352810E+03  0.00000000000E+00 0. -1.
<mgrwt>
<rscale>  2 0.11140352E+04</rscale>
<asrwt>0</asrwt>
<pdfrwt beam="1">  1       21 0.11281328E+00 0.11236981E+04</pdfrwt>
<pdfrwt beam="2">  1       21 0.27683186E+00 0.11236981E+04</pdfrwt>
<totfact> 0.10943204E+01</totfact>
</mgrwt>
</event>
<event>
 8    1  0.1168507E-005  0.1184730E+04  0.7818608E-02  0.8621152E-01
         21   -1    0    0  503  502  0.00000000000E+00  0.00000000000E+00  0.18709021052E+04  0.18709021052E+04  0.00000000000E+00 0.  1.
         21   -1    0    0  501  503 -0.00000000000E+00 -0.00000000000E+00 -0.11855792463E+04  0.11855792463E+04  0.00000000000E+00 0.  1.
    9000010    2    1    2  501    0  0.61747316689E+03  0.14374833487E+03 -0.59240044524E+03  0.13245844855E+04  0.10008241985E+04 0.  0.
   -9000010    2    1    2    0  502 -0.61747316689E+03 -0.14374833487E+03  0.12777233041E+04  0.17318968659E+04  0.98232032277E+03 0.  0.
        -13    1    3    3    0    0 -0.46258855436E+02  0.27325286194E+03  0.15428034160E+03  0.31718991666E+03  0.10566000000E+00 0.  1.
          4    1    3    3  501    0  0.66373202232E+03 -0.12950452708E+03 -0.74668078684E+03  0.10073945689E+04  0.00000000000E+00 0.  1.
         13    1    4    4    0    0 -0.73225908878E+03 -0.26256270805E+03  0.13448063283E+04  0.15535915231E+04  0.10566000000E+00 0. -1.
         -4    1    4    4    0  502  0.11478592189E+03  0.11881437319E+03 -0.67083024177E+02  0.17830534280E+03  0.00000000000E+00 0. -1.
<mgrwt>
<rscale>  2 0.11808135E+04</rscale>
<asrwt>0</asrwt>
<pdfrwt beam="1">  1       21 0.28783109E+00 0.11847303E+04</pdfrwt>
<pdfrwt beam="2">  1       21 0.18239681E+00 0.11847303E+04</pdfrwt>
<totfact> 0.20921549E+00</totfact>
</mgrwt>
</event>
<event>
 8    1  0.1168507E-005  0.1352219E+04  0.7818608E-02  0.8502228E-01
         21   -1    0    0  503  502  0.00000000000E+00  0.00000000000E+00  0.11017798247E+04  0.11017798247E+04  0.00000000000E+00 0.  1.
         21   -1    0    0  501  503 -0.00000000000E+00 -0.00000000000E+00 -0.20233851712E+04  0.20233851712E+04  0.00000000000E+00 0. -1.
    9000010    2    1    2  501    0  0.78573469427E+03 -0.38352670257E+03 -0.11365639329E+04  0.17559673532E+04  0.10134949582E+04 0.  0.
   -9000010    2    1    2    0  502 -0.78573469427E+03  0.38352670257E+03  0.21495858644E+03  0.13691976428E+04  0.10315150264E+04 0.  0.
        -13    1    3    3    0    0 -0.22058014128E+03 -0.15685807826E+03 -0.42117070106E+03  0.50064441077E+03  0.10566000000E+00 0.  1.
          4    1    3    3  501    0  0.10063148356E+04 -0.22666862431E+03 -0.71539323188E+03  0.12553229424E+04  0.00000000000E+00 0.  1.
         13    1    4    4    0    0 -0.90188563808E+02 -0.23032826274E+03 -0.23228873651E+03  0.33932750247E+03  0.10566000000E+00 0. -1.
         -4    1    4    4    0  502 -0.69554613046E+03  0.61385496531E+03  0.44724732294E+03  0.10298701403E+04  0.00000000000E+00 0. -1.
<mgrwt>
<rscale>  2 0.13487816E+04</rscale>
<asrwt>0</asrwt>
<pdfrwt beam="1">  1       21 0.16950459E+00 0.13522185E+04</pdfrwt>
<pdfrwt beam="2">  1       21 0.31129003E+00 0.13522185E+04</pdfrwt>
<totfact> 0.17613375E+00</totfact>
</mgrwt>
</event>
<event>
 8    1  0.1168507E-005  0.1079981E+04  0.7818608E-02  0.8706596E-01
         21   -1    0    0  501  502  0.00000000000E+00  0.00000000000E+00  0.14045260119E+04  0.14045260119E+04  0.00000000000E+00 0.  1.
         21   -1    0    0  502  503 -0.00000000000E+00 -0.00000000000E+00 -0.13072314092E+04  0.13072314092E+04  0.00000000000E+00 0.  1.
   -9000010    2    1    2    0  503  0.37805499299E+03 -0.72639375305E+02 -0.78122941837E+03  0.13329209828E+04  0.10090376037E+04 0.  0.
    9000010    2    1    2  501    0 -0.37805499299E+03  0.72639375305E+02  0.87852402111E+03  0.13788364383E+04  0.99054702627E+03 0.  0.
        -13    1    4    4    0    0 -0.22391850318E+03 -0.17480564749E+03  0.10171186722E+04  0.10560430460E+04  0.10566000000E+00 0.  1.
          4    1    4    4  501    0 -0.15413648981E+03  0.24744502279E+03 -0.13859465108E+03  0.32279339229E+03  0.00000000000E+00 0.  1.
         13    1    3    3    0    0  0.49319305202E+03 -0.45747027462E+03 -0.55374032817E+03  0.87129030806E+03  0.10566000000E+00 0. -1.
         -4    1    3    3    0  503 -0.11513805903E+03  0.38483089931E+03 -0.22748909020E+03  0.46163067474E+03  0.00000000000E+00 0. -1.
<mgrwt>
<rscale>  2 0.10756410E+04</rscale>
<asrwt>0</asrwt>
<pdfrwt beam="1">  1       21 0.21608093E+00 0.10799810E+04</pdfrwt>
<pdfrwt beam="2">  1       21 0.20111252E+00 0.10799810E+04</pdfrwt>
<totfact> 0.50781938E+00</totfact>
</mgrwt>
</event>
<event>
 8    1  0.1168507E-005  0.1274518E+04  0.7818608E-02  0.8558207E-01
         21   -1    0    0  503  502  0.00000000000E+00  0.00000000000E+00  0.21778136496E+04  0.21778136496E+04  0.00000000000E+00 0.  1.
         21   -1    0    0  501  503 -0.00000000000E+00 -0.00000000000E+00 -0.75141914931E+03  0.75141914931E+03  0.00000000000E+00 0.  1.
    9000010    2    1    2  501    0  0.11110018727E+03 -0.73581201163E+03  0.44067232921E+03  0.13180086218E+04  0.99458134781E+03 0.  0.
   -9000010    2    1    2    0  502 -0.11110018727E+03  0.73581201163E+03  0.98572217105E+03  0.16112241771E+04  0.10347137682E+04 0.  0.
        -13    1    3    3    0    0  0.49591999096E+03 -0.15790922833E+03  0.53882214419E+02  0.52323538300E+03  0.10566000000E+00 0.  1.
          4    1    3    3  501    0 -0.38481980370E+03 -0.57790278330E+03  0.38679011479E+03  0.79477323883E+03  0.00000000000E+00 0.  1.
         13    1    4    4    0    0  0.76689126523E+02  0.57535427697E+03  0.11679781472E+04  0.13042571563E+04  0.10566000000E+00 0. -1.
         -4    1    4    4    0  502 -0.18778931379E+03  0.16045773466E+03 -0.18225597618E+03  0.30696702077E+03  0.00000000000E+00 0. -1.
<mgrwt>
<rscale>  2 0.12663493E+04</rscale>
<asrwt>0</asrwt>
<pdfrwt beam="1">  1       21 0.33504825E+00 0.12745176E+04</pdfrwt>
<pdfrwt beam="2">  1       21 0.11560295E+00 0.12745176E+04</pdfrwt>
<totfact> 0.38466703E+00</totfact>
</mgrwt>
</event>
<event>
 8    1  0.1168507E-005  0.1057521E+04  0.7818608E-02  0.8726691E-01
         21   -1    0    0  503  502  0.00000000000E+00  0.00000000000E+00  0.69240265790E+03  0.69240265790E+03  0.00000000000E+00 0. -1.
         21   -1    0    0  501  503 -0.00000000000E+00 -0.00000000000E+00 -0.16341271557E+04  0.16341271557E+04  0.00000000000E+00 0. -1.
    9000010    2    1    2  501    0  0.15899997511E+03  0.22244641875E+03 -0.27423020442E+03  0.10924986461E+04  0.10215613958E+04 0.  0.
   -9000010    2    1    2    0  502 -0.15899997511E+03 -0.22244641875E+03 -0.66749429336E+03  0.12340311675E+04  0.10012596513E+04 0.  0.
        -13    1    3    3    0    0  0.30862476087E+03 -0.89052948365E+02  0.28874797337E+03  0.43192021708E+03  0.10566000000E+00 0.  1.
          4    1    3    3  501    0 -0.14962478576E+03  0.31149936711E+03 -0.56297817779E+03  0.66057842903E+03  0.00000000000E+00 0.  1.
         13    1    4    4    0    0  0.29954562921E+03  0.17605790246E+02  0.92976464062E+02  0.31413720229E+03  0.10566000000E+00 0. -1.
         -4    1    4    4    0  502 -0.45854560432E+03 -0.24005220900E+03 -0.76047075742E+03  0.91989396518E+03  0.00000000000E+00 0. -1.
<mgrwt>
<rscale>  2 0.10525872E+04</rscale>
<asrwt>0</asrwt>
<pdfrwt beam="1">  1       21 0.10652349E+00 0.10575212E+04</pdfrwt>
<pdfrwt beam="2">  1       21 0.25140418E+00 0.10575212E+04</pdfrwt>
<totfact> 0.19766007E+01</totfact>
</mgrwt>
</event>
<event>
 8    1  0.1168507E-005  0.1137573E+04  0.7818608E-02  0.8671710E-01
         21   -1    0    0  503  502  0.00000000000E+00  0.00000000000E+00  0.23158973152E+04  0.23158973152E+04  0.00000000000E+00 0.  1.
         21   -1    0    0  501  503 -0.00000000000E+00 -0.00000000000E+00 -0.61528220390E+03  0.61528220390E+03  0.00000000000E+00 0.  1.
    9000010    2    1    2  501    0  0.25352621382E+03 -0.43035385147E+03  0.30112717244E+03  0.11767536286E+04  0.10220526161E+04 0.  0.
   -9000010    2    1    2    0  502 -0.25352621382E+03  0.43035385147E+03  0.13994879388E+04  0.17544258904E+04  0.93271846529E+03 0.  0.
        -13    1    3    3    0    0  0.90257470364E+02  0.33825017160E+03  0.62991485277E+02  0.35570708163E+03  0.10566000000E+00 0.  1.
          4    1    3    3  501    0  0.16326874346E+03 -0.76860402306E+03  0.23813568716E+03  0.82104654701E+03  0.00000000000E+00 0.  1.
         13    1    4    4    0    0 -0.31845001349E+03  0.14572087075E+03  0.14192451720E+04  0.14618145753E+04  0.10566000000E+00 0. -1.
         -4    1    4    4    0  502  0.64923799666E+02  0.28463298071E+03 -0.19757233139E+02  0.29261131512E+03  0.00000000000E+00 0. -1.
<mgrwt>
<rscale>  2 0.11171452E+04</rscale>
<asrwt>0</asrwt>
<pdfrwt beam="1">  1       21 0.35629189E+00 0.11375726E+04</pdfrwt>
<pdfrwt beam="2">  1       21 0.94658802E-01 0.11375726E+04</pdfrwt>
<totfact> 0.47814127E+00</totfact>
</mgrwt>
</event>
<event>
 8    1  0.1168507E-005  0.1178138E+04  0.7818608E-02  0.8625185E-01
         21   -1    0    0  501  502  0.00000000000E+00  0.00000000000E+00  0.80690191887E+03  0.80690191887E+03  0.00000000000E+00 0.  1.
         21   -1    0    0  502  503 -0.00000000000E+00 -0.00000000000E+00 -0.17089836737E+04  0.17089836737E+04  0.00000000000E+00 0. -1.
   -9000010    2    1    2    0  503  0.60915662710E+03 -0.61858425124E+02 -0.39054769904E+03  0.12314881813E+04  0.99455385695E+03 0.  0.
    9000010    2    1    2  501    0 -0.60915662710E+03  0.61858425124E+02 -0.51153405575E+03  0.12843974112E+04  0.10065343306E+04 0.  0.
        -13    1    4    4    0    0  0.25935723880E+03  0.14285504447E+03 -0.20366298247E+03  0.35937774367E+03  0.10566000000E+00 0.  1.
          4    1    4    4  501    0 -0.86851386590E+03 -0.80996619349E+02 -0.30787107328E+03  0.92501966755E+03  0.00000000000E+00 0.  1.
         13    1    3    3    0    0  0.46190209851E+03  0.30398297605E+03  0.14002118942E+03  0.57040787423E+03  0.10566000000E+00 0. -1.
         -4    1    3    3    0  503  0.14725452859E+03 -0.36584140117E+03 -0.53056888846E+03  0.66108030708E+03  0.00000000000E+00 0. -1.
<mgrwt>
<rscale>  2 0.11755751E+04</rscale>
<asrwt>0</asrwt>
<pdfrwt beam="1">  1       21 0.12413876E+00 0.11781382E+04</pdfrwt>
<pdfrwt beam="2">  1       21 0.26292057E+00 0.11781382E+04</pdfrwt>
<totfact> 0.10426616E+01</totfact>
</mgrwt>
</event>
<event>
 8    1  0.1168507E-005  0.1183839E+04  0.7818608E-02  0.8623931E-01
         21   -1    0    0  503  502  0.00000000000E+00  0.00000000000E+00  0.14579737880E+04  0.14579737880E+04  0.00000000000E+00 0. -1.
         21   -1    0    0  501  503 -0.00000000000E+00 -0.00000000000E+00 -0.94072963833E+03  0.94072963833E+03  0.00000000000E+00 0. -1.
    9000010    2    1    2  501    0  0.57635807038E+03 -0.17795823144E+03  0.28940541404E+03  0.11931391957E+04  0.98791087114E+03 0.  0.
   -9000010    2    1    2    0  502 -0.57635807038E+03  0.17795823144E+03  0.22783873566E+03  0.12055642306E+04  0.10186348056E+04 0.  0.
        -13    1    3    3    0    0  0.62724399654E+03 -0.25204475416E+03  0.57891290252E+03  0.89000098268E+03  0.10566000000E+00 0.  1.
          4    1    3    3  501    0 -0.50885926157E+02  0.74086522722E+02 -0.28950748849E+03  0.30313821306E+03  0.00000000000E+00 0.  1.
         13    1    4    4    0    0 -0.16235506634E+03  0.17919489273E+03  0.60124088538E+03  0.64804366409E+03  0.10566000000E+00 0. -1.
         -4    1    4    4    0  502 -0.41400300404E+03 -0.12366612900E+01 -0.37340214972E+03  0.55752056653E+03  0.00000000000E+00 0. -1.
<mgrwt>
<rscale>  2 0.11772007E+04</rscale>
<asrwt>0</asrwt>
<pdfrwt beam="1">  1       21 0.22430366E+00 0.11838389E+04</pdfrwt>
<pdfrwt beam="2">  1       21 0.14472764E+00 0.11838389E+04</pdfrwt>
<totfact> 0.12748361E+01</totfact>
</mgrwt>
</event>
<event>
 8    1  0.1168507E-005  0.1150141E+04  0.7818608E-02  0.8646318E-01
         21   -1    0    0  501  502  0.00000000000E+00  0.00000000000E+00  0.37519637515E+03  0.37519637515E+03  0.00000000000E+00 0.  1.
         21   -1    0    0  502  503 -0.00000000000E+00 -0.00000000000E+00 -0.35226120054E+04  0.35226120054E+04  0.00000000000E+00 0.  1.
   -9000010    2    1    2    0  503 -0.54575649159E+03  0.14007615364E+03 -0.17005822779E+04  0.20495249182E+04  0.99554047112E+03 0.  0.
    9000010    2    1    2  501    0  0.54575649159E+03 -0.14007615364E+03 -0.14468333524E+04  0.18482834623E+04  0.10026731924E+04 0.  0.
        -13    1    4    4    0    0 -0.41937246260E+02 -0.23271233676E+02 -0.11988450961E+04  0.11998040918E+04  0.10566000000E+00 0.  1.
          4    1    4    4  501    0  0.58769373785E+03 -0.11680491996E+03 -0.24798825625E+03  0.64847937059E+03  0.00000000000E+00 0.  1.
         13    1    3    3    0    0  0.30996689178E+02  0.40451937027E+03 -0.11134511688E+04  0.11850612778E+04  0.10566000000E+00 0. -1.
         -4    1    3    3    0  503 -0.57675318077E+03 -0.26444321663E+03 -0.58713110906E+03  0.86446364040E+03  0.00000000000E+00 0. -1.
<mgrwt>
<rscale>  2 0.11485849E+04</rscale>
<asrwt>0</asrwt>
<pdfrwt beam="1">  1       21 0.57722519E-01 0.11501413E+04</pdfrwt>
<pdfrwt beam="2">  1       21 0.54194031E+00 0.11501413E+04</pdfrwt>
<totfact> 0.79631912E-01</totfact>
</mgrwt>
</event>
<event>
 8    1  0.1168507E-005  0.1152008E+04  0.7818608E-02  0.8645854E-01
         21   -1    0    0  503  502  0.00000000000E+00  0.00000000000E+00  0.19052013561E+04  0.19052013561E+04  0.00000000000E+00 0.  1.
         21   -1    0    0  501  503 -0.00000000000E+00 -0.00000000000E+00 -0.78656823763E+03  0.78656823763E+03  0.00000000000E+00 0.  1.
    9000010    2    1    2  501    0 -0.31288288947E+03 -0.48075746838E+03  0.10290657266E+04  0.15362849521E+04  0.98598769689E+03 0.  0.
   -9000010    2    1    2    0  502  0.31288288947E+03  0.48075746838E+03  0.89567391850E+02  0.11554846416E+04  0.99904904455E+03 0.  0.
        -13    1    3    3    0    0  0.20525734101E+03  0.14565408759E+03  0.38123412767E+02  0.25455666370E+03  0.10566000000E+00 0.  1.
          4    1    3    3  501    0 -0.51814023048E+03 -0.62641155597E+03  0.99094231384E+03  0.12817282884E+04  0.00000000000E+00 0.  1.
         13    1    4    4    0    0  0.31323985981E+03 -0.22833650528E+03  0.20268948567E+03  0.43742405990E+03  0.10566000000E+00 0. -1.
         -4    1    4    4    0  502 -0.35697033680E+00  0.70909397366E+03 -0.11312209383E+03  0.71806058172E+03  0.00000000000E+00 0. -1.
<mgrwt>
<rscale>  2 0.11491704E+04</rscale>
<asrwt>0</asrwt>
<pdfrwt beam="1">  1       21 0.29310790E+00 0.11520080E+04</pdfrwt>
<pdfrwt beam="2">  1       21 0.12101050E+00 0.11520080E+04</pdfrwt>
<totfact> 0.68601445E+00</totfact>
</mgrwt>
</event>
<event>
 8    1  0.1168507E-005  0.1205165E+04  0.7818608E-02  0.8633123E-01
         21   -1    0    0  501  502  0.00000000000E+00  0.00000000000E+00  0.82567194954E+03  0.82567194954E+03  0.00000000000E+00 0. -1.
         21   -1    0    0  502  503 -0.00000000000E+00 -0.00000000000E+00 -0.15657285174E+04  0.15657285174E+04  0.00000000000E+00 0. -1.
   -9000010    2    1    2    0  503 -0.16934056403E+03  0.28223774174E+03 -0.20771752243E+03  0.10738999337E+04  0.10008896688E+04 0.  0.
    9000010    2    1    2  501    0  0.16934056403E+03 -0.28223774174E+03 -0.53233904542E+03  0.13175005332E+04  0.11593482765E+04 0.  0.
        -13    1    4    4    0    0  0.22821532473E+03 -0.59819750374E+03 -0.70526533852E+03  0.95253435466E+03  0.10566000000E+00 0.  1.
          4    1    4    4  501    0 -0.58874760702E+02  0.31595976200E+03  0.17292629309E+03  0.36496617856E+03  0.00000000000E+00 0.  1.
         13    1    3    3    0    0 -0.27813714814E+03  0.22553233602E+03  0.35126631993E+03  0.50161055257E+03  0.10566000000E+00 0. -1.
         -4    1    3    3    0  503  0.10879658411E+03  0.56705405723E+02 -0.55898384236E+03  0.57228938115E+03  0.00000000000E+00 0. -1.
<mgrwt>
<rscale>  2 0.11653486E+04</rscale>
<asrwt>0</asrwt>
<pdfrwt beam="1">  1       21 0.12702645E+00 0.12051650E+04</pdfrwt>
<pdfrwt beam="2">  1       21 0.24088131E+00 0.12051650E+04</pdfrwt>
<totfact> 0.14047970E+01</totfact>
</mgrwt>
</event>
<event>
 8    1  0.1168507E-005  0.1036611E+04  0.7818608E-02  0.8741198E-01
         21   -1    0    0  503  502  0.00000000000E+00  0.00000000000E+00  0.19532549535E+04  0.19532549535E+04  0.00000000000E+00 0.  1.
         21   -1    0    0  501  503 -0.00000000000E+00 -0.00000000000E+00 -0.56286279068E+03  0.56286279068E+03  0.00000000000E+00 0.  1.
    9000010    2    1    2  501    0  0.46512957244E+02  0.26542349871E+03  0.50106719082E+03  0.11502986837E+04  0.99975279105E+03 0.  0.
   -9000010    2    1    2    0  502 -0.46512957244E+02 -0.26542349871E+03  0.88932497195E+03  0.13658190604E+04  0.10009743809E+04 0.  0.
        -13    1    3    3    0    0  0.29438249565E+03  0.20265425482E+03  0.72635193734E+03  0.80951649074E+03  0.10566000000E+00 0.  1.
          4    1    3    3  501    0 -0.24786953841E+03  0.62769243885E+02 -0.22528474651E+03  0.34078219299E+03  0.00000000000E+00 0.  1.
         13    1    4    4    0    0 -0.44233001954E+03 -0.40154069644E+03  0.65341253523E+03  0.88534667190E+03  0.10566000000E+00 0. -1.
         -4    1    4    4    0  502  0.39581706229E+03  0.13611719773E+03  0.23591243672E+03  0.48047238851E+03  0.00000000000E+00 0. -1.
<mgrwt>
<rscale>  2 0.10363162E+04</rscale>
<asrwt>0</asrwt>
<pdfrwt beam="1">  1       21 0.30050076E+00 0.10366112E+04</pdfrwt>
<pdfrwt beam="2">  1       21 0.86594277E-01 0.10366112E+04</pdfrwt>
<totfact> 0.15146209E+01</totfact>
</mgrwt>
</event>
<event>
 8    1  0.1168507E-005  0.1032897E+04  0.7818608E-02  0.8744538E-01
         21   -1    0    0  503  502  0.00000000000E+00  0.00000000000E+00  0.40319243737E+03  0.40319243737E+03  0.00000000000E+00 0. -1.
         21   -1    0    0  501  503 -0.00000000000E+00 -0.00000000000E+00 -0.27500715890E+04  0.27500715890E+04  0.00000000000E+00 0. -1.
    9000010    2    1    2  501    0  0.28732320551E+03  0.65918264448E+02 -0.14836772385E+04  0.18071605968E+04  0.98875246266E+03 0.  0.
   -9000010    2    1    2    0  502 -0.28732320551E+03 -0.65918264448E+02 -0.86320191311E+03  0.13461034296E+04  0.98993790631E+03 0.  0.
        -13    1    3    3    0    0  0.52924122075E+03 -0.26100133762E+03 -0.63971109977E+03  0.87031504084E+03  0.10566000000E+00 0.  1.
          4    1    3    3  501    0 -0.24191801524E+03  0.32691960207E+03 -0.84396613874E+03  0.93684555592E+03  0.00000000000E+00 0.  1.
         13    1    4    4    0    0 -0.60428774980E+03  0.14332412484E+03 -0.36753521926E+03  0.72165617706E+03  0.10566000000E+00 0. -1.
         -4    1    4    4    0  502  0.31696454429E+03 -0.20924238929E+03 -0.49566669385E+03  0.62444725253E+03  0.00000000000E+00 0. -1.
<mgrwt>
<rscale>  2 0.10326132E+04</rscale>
<asrwt>0</asrwt>
<pdfrwt beam="1">  1       21 0.62029607E-01 0.10328973E+04</pdfrwt>
<pdfrwt beam="2">  1       21 0.42308793E+00 0.10328973E+04</pdfrwt>
<totfact> 0.46871701E+00</totfact>
</mgrwt>
</event>
<event>
 8    1  0.1168507E-005  0.1102606E+04  0.7818608E-02  0.8697581E-01
         21   -1    0    0  503  502  0.00000000000E+00  0.00000000000E+00  0.22469491817E+04  0.22469491817E+04  0.00000000000E+00 0.  1.
         21   -1    0    0  501  503 -0.00000000000E+00 -0.00000000000E+00 -0.52090078321E+03  0.52090078321E+03  0.00000000000E+00 0.  1.
    9000010    2    1    2  501    0 -0.20051837743E+03 -0.41813741467E+03  0.68826564709E+03  0.12997879963E+04  0.10003462986E+04 0.  0.
   -9000010    2    1    2    0  502  0.20051837743E+03  0.41813741467E+03  0.10377827514E+04  0.14680619686E+04  0.92906748268E+03 0.  0.
        -13    1    3    3    0    0 -0.20308811001E+03 -0.58306305410E+02  0.87096210146E+03  0.89622508279E+03  0.10566000000E+00 0.  1.
          4    1    3    3  501    0  0.25697325883E+01 -0.35983110926E+03 -0.18269645437E+03  0.40356291350E+03  0.00000000000E+00 0.  1.
         13    1    4    4    0    0  0.19925654243E+03 -0.18030026213E+02 -0.11830513743E+03  0.23243142698E+03  0.10566000000E+00 0. -1.
         -4    1    4    4    0  502  0.12618350004E+01  0.43616744088E+03  0.11560878889E+04  0.12356305417E+04  0.00000000000E+00 0. -1.
<mgrwt>
<rscale>  2 0.10861836E+04</rscale>
<asrwt>0</asrwt>
<pdfrwt beam="1">  1       21 0.34568448E+00 0.11026057E+04</pdfrwt>
<pdfrwt beam="2">  1       21 0.80138583E-01 0.11026057E+04</pdfrwt>
<totfact> 0.87119085E+00</totfact>
</mgrwt>
</event>
<event>
 8    1  0.1168507E-005  0.1062110E+04  0.7818608E-02  0.8739120E-01
         21   -1    0    0  503  502  0.00000000000E+00  0.00000000000E+00  0.68300117781E+03  0.68300117781E+03  0.00000000000E+00 0.  1.
         21   -1    0    0  501  503 -0.00000000000E+00 -0.00000000000E+00 -0.15294605992E+04  0.15294605992E+04  0.00000000000E+00 0.  1.
    9000010    2    1    2  501    0 -0.31821147282E+03  0.12218064162E+03 -0.32863383848E+03  0.11117903844E+04  0.10059279340E+04 0.  0.
   -9000010    2    1    2    0  502  0.31821147282E+03 -0.12218064162E+03 -0.51782558295E+03  0.11006713926E+04  0.90947651404E+03 0.  0.
        -13    1    3    3    0    0  0.30358416555E+03  0.23325807559E+03  0.32459259004E+02  0.38422166787E+03  0.10566000000E+00 0.  1.
          4    1    3    3  501    0 -0.62179563837E+03 -0.11107743397E+03 -0.36109309749E+03  0.72756871654E+03  0.00000000000E+00 0.  1.
         13    1    4    4    0    0  0.26805083195E+03  0.38084119424E+03 -0.25195534104E+03  0.52950237845E+03  0.10566000000E+00 0. -1.
         -4    1    4    4    0  502  0.50160640877E+02 -0.50302183586E+03 -0.26587024190E+03  0.57116901419E+03  0.00000000000E+00 0. -1.
<mgrwt>
<rscale>  2 0.10386287E+04</rscale>
<asrwt>0</asrwt>
<pdfrwt beam="1">  1       21 0.10507710E+00 0.10621100E+04</pdfrwt>
<pdfrwt beam="2">  1       21 0.23530163E+00 0.10621100E+04</pdfrwt>
<totfact> 0.26867919E+01</totfact>
</mgrwt>
</event>
<event>
 8    1  0.1168507E-005  0.1021380E+04  0.7818608E-02  0.8759924E-01
         21   -1    0    0  503  502  0.00000000000E+00  0.00000000000E+00  0.61933981814E+03  0.61933981814E+03  0.00000000000E+00 0. -1.
         21   -1    0    0  501  503 -0.00000000000E+00 -0.00000000000E+00 -0.17409464939E+04  0.17409464939E+04  0.00000000000E+00 0. -1.
    9000010    2    1    2  501    0  0.37801029119E+02 -0.28383524098E+03 -0.28202696138E+03  0.10381246880E+04  0.95716889788E+03 0.  0.
   -9000010    2    1    2    0  502 -0.37801029119E+02  0.28383524098E+03 -0.83957971439E+03  0.13221616240E+04  0.98042128774E+03 0.  0.
        -13    1    3    3    0    0 -0.19141734691E+03 -0.16406017569E+03 -0.58664801603E+03  0.63852349042E+03  0.10566000000E+00 0.  1.
          4    1    3    3  501    0  0.22921837602E+03 -0.11977506529E+03  0.30462105465E+03  0.39960119758E+03  0.00000000000E+00 0.  1.
         13    1    4    4    0    0  0.25075882915E+03 -0.17064212945E+03  0.24283406948E+02  0.30428345626E+03  0.10566000000E+00 0. -1.
         -4    1    4    4    0  502 -0.28855985827E+03  0.45447737043E+03 -0.86386312134E+03  0.10178781678E+04  0.00000000000E+00 0. -1.
<mgrwt>
<rscale>  2 0.10157592E+04</rscale>
<asrwt>0</asrwt>
<pdfrwt beam="1">  1       21 0.95283050E-01 0.10213801E+04</pdfrwt>
<pdfrwt beam="2">  1       21 0.26783792E+00 0.10213801E+04</pdfrwt>
<totfact> 0.20317447E+01</totfact>
</mgrwt>
</event>
<event>
 8    1  0.1168507E-005  0.1207001E+04  0.7818608E-02  0.8617760E-01
         21   -1    0    0  501  502  0.00000000000E+00  0.00000000000E+00  0.12534766829E+04  0.12534766829E+04  0.00000000000E+00 0.  1.
         21   -1    0    0  502  503 -0.00000000000E+00 -0.00000000000E+00 -0.11847225506E+04  0.11847225506E+04  0.00000000000E+00 0.  1.
   -9000010    2    1    2    0  503 -0.46712785290E+03  0.40022869758E+03 -0.32305670201E+03  0.12494868351E+04  0.10384894207E+04 0.  0.
    9000010    2    1    2  501    0  0.46712785290E+03 -0.40022869758E+03  0.39181083425E+03  0.11887123984E+04  0.93868524813E+03 0.  0.
        -13    1    4    4    0    0  0.65844920811E+03 -0.56661998263E+03  0.29885180065E+03  0.91865443683E+03  0.10566000000E+00 0.  1.
          4    1    4    4  501    0 -0.19132135522E+03  0.16639128505E+03  0.92959033594E+02  0.27005796161E+03  0.00000000000E+00 0.  1.
         13    1    3    3    0    0 -0.50399759923E+03  0.32209392626E+03  0.26565465679E+03  0.65446962130E+03  0.10566000000E+00 0. -1.
         -4    1    3    3    0  503  0.36869746338E+02  0.78134771327E+02 -0.58871135880E+03  0.59501721375E+03  0.00000000000E+00 0. -1.
<mgrwt>
<rscale>  2 0.11852404E+04</rscale>
<asrwt>0</asrwt>
<pdfrwt beam="1">  1       21 0.19284257E+00 0.12070011E+04</pdfrwt>
<pdfrwt beam="2">  1       21 0.18226501E+00 0.12070011E+04</pdfrwt>
<totfact> 0.10560713E+01</totfact>
</mgrwt>
</event>
<event>
 8    1  0.1168507E-005  0.1131152E+04  0.7818608E-02  0.8661317E-01
         21   -1    0    0  501  502  0.00000000000E+00  0.00000000000E+00  0.44231324718E+03  0.44231324718E+03  0.00000000000E+00 0. -1.
         21   -1    0    0  502  503 -0.00000000000E+00 -0.00000000000E+00 -0.35279647011E+04  0.35279647011E+04  0.00000000000E+00 0. -1.
   -9000010    2    1    2    0  503  0.51471107949E+03 -0.44753419089E+02 -0.23965091369E+04  0.26500494068E+04  0.10062680813E+04 0.  0.
    9000010    2    1    2  501    0 -0.51471107949E+03  0.44753419089E+02 -0.68914231705E+03  0.13202285415E+04  0.10005777854E+04 0.  0.
        -13    1    4    4    0    0 -0.51998123036E+03  0.35996521803E+01  0.10039937309E+03  0.52959747233E+03  0.10566000000E+00 0.  1.
          4    1    4    4  501    0  0.52701508676E+01  0.41153766909E+02 -0.78954169014E+03  0.79063106914E+03  0.00000000000E+00 0.  1.
         13    1    3    3    0    0  0.11558445495E+03  0.44028562255E+03 -0.64614986475E+03  0.79039284823E+03  0.10566000000E+00 0. -1.
         -4    1    3    3    0  503  0.39912662454E+03 -0.48503904164E+03 -0.17503592722E+04  0.18596565586E+04  0.00000000000E+00 0. -1.
<mgrwt>
<rscale>  2 0.11298855E+04</rscale>
<asrwt>0</asrwt>
<pdfrwt beam="1">  1       21 0.68048193E-01 0.11311524E+04</pdfrwt>
<pdfrwt beam="2">  1       21 0.54276379E+00 0.11311524E+04</pdfrwt>
<totfact> 0.53833956E-01</totfact>
</mgrwt>
</event>
<event>
 8    1  0.1168507E-005  0.1363439E+04  0.7818608E-02  0.8499896E-01
         21   -1    0    0  501  502  0.00000000000E+00  0.00000000000E+00  0.19064013907E+04  0.19064013907E+04  0.00000000000E+00 0.  1.
         21   -1    0    0  502  503 -0.00000000000E+00 -0.00000000000E+00 -0.11429460458E+04  0.11429460458E+04  0.00000000000E+00 0. -1.
   -9000010    2    1    2    0  503 -0.15293552537E+02  0.89428446886E+03 -0.24909979392E+03  0.13860075466E+04  0.10290712356E+04 0.  0.
    9000010    2    1    2  501    0  0.15293552537E+02 -0.89428446886E+03  0.10125551388E+04  0.16633398900E+04  0.97028504904E+03 0.  0.
        -13    1    4    4    0    0 -0.28713139544E+03  0.40652599236E+02  0.43726584938E+03  0.52468896145E+03  0.10566000000E+00 0.  1.
          4    1    4    4  501    0  0.30242494797E+03 -0.93493706810E+03  0.57528928943E+03  0.11386509285E+04  0.00000000000E+00 0.  1.
         13    1    3    3    0    0 -0.31517346971E+03  0.95581694450E+03 -0.25229728353E+02  0.10067556296E+04  0.10566000000E+00 0. -1.
         -4    1    3    3    0  503  0.29987991717E+03 -0.61532475645E+02 -0.22387006557E+03  0.37925191699E+03  0.00000000000E+00 0. -1.
<mgrwt>
<rscale>  2 0.13523531E+04</rscale>
<asrwt>0</asrwt>
<pdfrwt beam="1">  1       21 0.29329252E+00 0.13634391E+04</pdfrwt>
<pdfrwt beam="2">  1       21 0.17583785E+00 0.13634391E+04</pdfrwt>
<totfact> 0.20866617E+00</totfact>
</mgrwt>
</event>
<event>
 8    1  0.1168507E-005  0.1183218E+04  0.7818608E-02  0.8623086E-01
         21   -1    0    0  501  502  0.00000000000E+00  0.00000000000E+00  0.71491713397E+03  0.71491713397E+03  0.00000000000E+00 0. -1.
         21   -1    0    0  502  503 -0.00000000000E+00 -0.00000000000E+00 -0.19626456087E+04  0.19626456087E+04  0.00000000000E+00 0. -1.
   -9000010    2    1    2    0  503  0.22379911143E+03 -0.52949982876E+03 -0.44612904753E+03  0.12645301913E+04  0.10341901985E+04 0.  0.
    9000010    2    1    2  501    0 -0.22379911143E+03  0.52949982876E+03 -0.80159942719E+03  0.14130325513E+04  0.10117525580E+04 0.  0.
        -13    1    4    4    0    0 -0.20512476823E+02  0.76333559410E+03 -0.29382842599E+03  0.81819138715E+03  0.10566000000E+00 0.  1.
          4    1    4    4  501    0 -0.20328663461E+03 -0.23383576533E+03 -0.50777100120E+03  0.59484116419E+03  0.00000000000E+00 0.  1.
         13    1    3    3    0    0  0.33858915971E+03 -0.54834963895E+03  0.14624183836E+03  0.66084539195E+03  0.10566000000E+00 0. -1.
         -4    1    3    3    0  503 -0.11479004828E+03  0.18849810188E+02 -0.59237088590E+03  0.60368479937E+03  0.00000000000E+00 0. -1.
<mgrwt>
<rscale>  2 0.11782975E+04</rscale>
<asrwt>0</asrwt>
<pdfrwt beam="1">  1       21 0.10998726E+00 0.11832183E+04</pdfrwt>
<pdfrwt beam="2">  1       21 0.30194547E+00 0.11832183E+04</pdfrwt>
<totfact> 0.76808529E+00</totfact>
</mgrwt>
</event>
<event>
 8    1  0.1168507E-005  0.1159653E+04  0.7818608E-02  0.8644124E-01
         21   -1    0    0  503  502  0.00000000000E+00  0.00000000000E+00  0.51531640757E+03  0.51531640757E+03  0.00000000000E+00 0.  1.
         21   -1    0    0  501  503 -0.00000000000E+00 -0.00000000000E+00 -0.25883559935E+04  0.25883559935E+04  0.00000000000E+00 0.  1.
    9000010    2    1    2  501    0  0.40612659546E+03  0.35326015765E+03 -0.12420858521E+04  0.16770403055E+04  0.98992695284E+03 0.  0.
   -9000010    2    1    2    0  502 -0.40612659546E+03 -0.35326015765E+03 -0.83095373387E+03  0.14266320955E+04  0.10271628292E+04 0.  0.
        -13    1    3    3    0    0 -0.50379245811E+02  0.44112768617E+03 -0.11073176902E+04  0.11930147451E+04  0.10566000000E+00 0.  1.
          4    1    3    3  501    0  0.45650584127E+03 -0.87867528520E+02 -0.13476816189E+03  0.48402556042E+03  0.00000000000E+00 0.  1.
         13    1    4    4    0    0 -0.30254872937E+03 -0.66064954156E+03 -0.82883684932E+03  0.11022540925E+04  0.10566000000E+00 0. -1.
         -4    1    4    4    0  502 -0.10357786608E+03  0.30738938391E+03 -0.21168845550E+01  0.32437800308E+03  0.00000000000E+00 0. -1.
<mgrwt>
<rscale>  2 0.11513520E+04</rscale>
<asrwt>0</asrwt>
<pdfrwt beam="1">  1       21 0.79279447E-01 0.11596530E+04</pdfrwt>
<pdfrwt beam="2">  1       21 0.39820862E+00 0.11596530E+04</pdfrwt>
<totfact> 0.37890361E+00</totfact>
</mgrwt>
</event>
<event>
 8    1  0.1168507E-005  0.1101458E+04  0.7818608E-02  0.8687467E-01
         21   -1    0    0  503  502  0.00000000000E+00  0.00000000000E+00  0.87209831108E+03  0.87209831108E+03  0.00000000000E+00 0. -1.
         21   -1    0    0  501  503 -0.00000000000E+00 -0.00000000000E+00 -0.13945374275E+04  0.13945374275E+04  0.00000000000E+00 0. -1.
    9000010    2    1    2  501    0  0.30032060037E+03 -0.35759058561E+03 -0.12729655341E+03  0.11087890552E+04  0.99756968005E+03 0.  0.
   -9000010    2    1    2    0  502 -0.30032060037E+03  0.35759058561E+03 -0.39514256303E+03  0.11578466834E+04  0.98306042905E+03 0.  0.
        -13    1    3    3    0    0 -0.22442838989E+03 -0.25484392468E+03  0.27716899121E+03  0.43833342217E+03  0.10566000000E+00 0.  1.
          4    1    3    3  501    0  0.52474899027E+03 -0.10274666093E+03 -0.40446554462E+03  0.67045563306E+03  0.00000000000E+00 0.  1.
         13    1    4    4    0    0  0.40291194234E+02  0.63399841556E+03 -0.32511910808E+03  0.71363843568E+03  0.10566000000E+00 0. -1.
         -4    1    4    4    0  502 -0.34061179461E+03 -0.27640782995E+03 -0.70023454952E+02  0.44420824770E+03  0.00000000000E+00 0. -1.
<mgrwt>
<rscale>  2 0.10981620E+04</rscale>
<asrwt>0</asrwt>
<pdfrwt beam="1">  1       21 0.13416897E+00 0.11014576E+04</pdfrwt>
<pdfrwt beam="2">  1       21 0.21454422E+00 0.11014576E+04</pdfrwt>
<totfact> 0.19266449E+01</totfact>
</mgrwt>
</event>
<event>
 8    1  0.1168507E-005  0.1058486E+04  0.7818608E-02  0.8727939E-01
         21   -1    0    0  501  502  0.00000000000E+00  0.00000000000E+00  0.11831749582E+04  0.11831749582E+04  0.00000000000E+00 0. -1.
         21   -1    0    0  502  503 -0.00000000000E+00 -0.00000000000E+00 -0.13702862274E+04  0.13702862274E+04  0.00000000000E+00 0. -1.
   -9000010    2    1    2    0  503  0.49850911879E+02  0.30370316705E+03 -0.82351792567E+03  0.13183878687E+04  0.98246835642E+03 0.  0.
    9000010    2    1    2  501    0 -0.49850911879E+02 -0.30370316705E+03  0.63640665648E+03  0.12350733170E+04  0.10127546291E+04 0.  0.
        -13    1    4    4    0    0 -0.89451645825E+02  0.36286122167E+03  0.12527513819E+03  0.39416206634E+03  0.10566000000E+00 0.  1.
          4    1    4    4  501    0  0.39600733946E+02 -0.66656438872E+03  0.51113151829E+03  0.84091125062E+03  0.00000000000E+00 0.  1.
         13    1    3    3    0    0  0.33487312160E+03 -0.20606322727E+03 -0.13545050238E+03  0.41587126730E+03  0.10566000000E+00 0. -1.
         -4    1    3    3    0  503 -0.28502220973E+03  0.50976639433E+03 -0.68806742330E+03  0.90251660141E+03  0.00000000000E+00 0. -1.
<mgrwt>
<rscale>  2 0.10511756E+04</rscale>
<asrwt>0</asrwt>
<pdfrwt beam="1">  1       21 0.18202691E+00 0.10584860E+04</pdfrwt>
<pdfrwt beam="2">  1       21 0.21081327E+00 0.10584860E+04</pdfrwt>
<totfact> 0.79407672E+00</totfact>
</mgrwt>
</event>
<event>
 8    1  0.1168507E-005  0.1340502E+04  0.7818608E-02  0.8509770E-01
         21   -1    0    0  501  502  0.00000000000E+00  0.00000000000E+00  0.11824049905E+04  0.11824049905E+04  0.00000000000E+00 0. -1.
         21   -1    0    0  502  503 -0.00000000000E+00 -0.00000000000E+00 -0.15080917100E+04  0.15080917100E+04  0.00000000000E+00 0.  1.
   -9000010    2    1    2    0  503  0.68806768110E+03  0.53468742774E+03 -0.22116060589E+03  0.13586231831E+04  0.10186349498E+04 0.  0.
    9000010    2    1    2  501    0 -0.68806768110E+03 -0.53468742774E+03 -0.10452611365E+03  0.13318735174E+04  0.10018151420E+04 0.  0.
        -13    1    4    4    0    0 -0.42751829172E+03 -0.48729489154E+03  0.40024144067E+03  0.76185393815E+03  0.10566000000E+00 0.  1.
          4    1    4    4  501    0 -0.26054938938E+03 -0.47392536205E+02 -0.50476755432E+03  0.57001957922E+03  0.00000000000E+00 0.  1.
         13    1    3    3    0    0  0.63380477597E+03 -0.15046675713E+03 -0.72625519357E+02  0.65545649457E+03  0.10566000000E+00 0. -1.
         -4    1    3    3    0  503  0.54262905133E+02  0.68515418487E+03 -0.14853508654E+03  0.70316668853E+03  0.00000000000E+00 0. -1.
<mgrwt>
<rscale>  2 0.13373063E+04</rscale>
<asrwt>0</asrwt>
<pdfrwt beam="1">  1       21 0.18190846E+00 0.13405017E+04</pdfrwt>
<pdfrwt beam="2">  1       21 0.23201411E+00 0.13405017E+04</pdfrwt>
<totfact> 0.51877474E+00</totfact>
</mgrwt>
</event>
<event>
 8    1  0.1168507E-005  0.1159125E+04  0.7818608E-02  0.8656310E-01
         21   -1    0    0  501  502  0.00000000000E+00  0.00000000000E+00  0.49430873214E+03  0.49430873214E+03  0.00000000000E+00 0.  1.
         21   -1    0    0  502  503 -0.00000000000E+00 -0.00000000000E+00 -0.25851244218E+04  0.25851244218E+04  0.00000000000E+00 0.  1.
   -9000010    2    1    2    0  503 -0.56655887847E+02  0.30585750148E+03 -0.13442454366E+04  0.17749838032E+04  0.11166078125E+04 0.  0.
    9000010    2    1    2  501    0  0.56655887847E+02 -0.30585750148E+03 -0.74657025299E+03  0.13044493507E+04  0.10234560396E+04 0.  0.
        -13    1    4    4    0    0  0.41959961631E+03 -0.57342860805E+02 -0.75368551393E+03  0.86451946581E+03  0.10566000000E+00 0.  1.
          4    1    4    4  501    0 -0.36294372846E+03 -0.24851464067E+03  0.71152609394E+01  0.43992988486E+03  0.00000000000E+00 0.  1.
         13    1    3    3    0    0  0.73806169357E+02  0.46539674995E+03 -0.14630783432E+04  0.15370880700E+04  0.10566000000E+00 0. -1.
         -4    1    3    3    0  503 -0.13046205720E+03 -0.15953924848E+03  0.11883290660E+03  0.23789573318E+03  0.00000000000E+00 0. -1.
<mgrwt>
<rscale>  2 0.11360869E+04</rscale>
<asrwt>0</asrwt>
<pdfrwt beam="1">  1       21 0.76047496E-01 0.11591254E+04</pdfrwt>
<pdfrwt beam="2">  1       21 0.39771146E+00 0.11591254E+04</pdfrwt>
<totfact> 0.42252286E+00</totfact>
</mgrwt>
</event>
<event>
 8    1  0.1168507E-005  0.1117445E+04  0.7818608E-02  0.8685971E-01
         21   -1    0    0  503  502  0.00000000000E+00  0.00000000000E+00  0.18173985939E+04  0.18173985939E+04  0.00000000000E+00 0. -1.
         21   -1    0    0  501  503 -0.00000000000E+00 -0.00000000000E+00 -0.67442333795E+03  0.67442333795E+03  0.00000000000E+00 0. -1.
    9000010    2    1    2  501    0  0.11977733059E+03 -0.30530383644E+03  0.29712620929E+03  0.10903425821E+04  0.99649682423E+03 0.  0.
   -9000010    2    1    2    0  502 -0.11977733059E+03  0.30530383644E+03  0.84584904668E+03  0.14014793497E+04  0.10682353282E+04 0.  0.
        -13    1    3    3    0    0  0.26643047566E+03  0.25957568658E+03 -0.99090653334E+02  0.38494636531E+03  0.10566000000E+00 0.  1.
          4    1    3    3  501    0 -0.14665314507E+03 -0.56487952302E+03  0.39621686262E+03  0.70539621682E+03  0.00000000000E+00 0.  1.
         13    1    4    4    0    0 -0.17485204090E+03 -0.38021650354E+03  0.41818883890E+03  0.59162466304E+03  0.10566000000E+00 0. -1.
         -4    1    4    4    0  502  0.55074710310E+02  0.68552033998E+03  0.42766020778E+03  0.80985468670E+03  0.00000000000E+00 0. -1.
<mgrwt>
<rscale>  2 0.10999464E+04</rscale>
<asrwt>0</asrwt>
<pdfrwt beam="1">  1       21 0.27959978E+00 0.11174452E+04</pdfrwt>
<pdfrwt beam="2">  1       21 0.10375744E+00 0.11174452E+04</pdfrwt>
<totfact> 0.13120735E+01</totfact>
</mgrwt>
</event>
<event>
 8    1  0.1168507E-005  0.1189866E+04  0.7818608E-02  0.8617826E-01
         21   -1    0    0  501  502  0.00000000000E+00  0.00000000000E+00  0.85209312641E+03  0.85209312641E+03  0.00000000000E+00 0. -1.
         21   -1    0    0  502  503 -0.00000000000E+00 -0.00000000000E+00 -0.16383523602E+04  0.16383523602E+04  0.00000000000E+00 0. -1.
   -9000010    2    1    2    0  503  0.58240378351E+03 -0.21180718274E+03 -0.34409359832E+03  0.12386203898E+04  0.10157379662E+04 0.  0.
    9000010    2    1    2  501    0 -0.58240378351E+03  0.21180718274E+03 -0.44216563543E+03  0.12518250968E+04  0.99372993014E+03 0.  0.
        -13    1    4    4    0    0 -0.38798939936E+03  0.13679413468E+03  0.28167417697E+03  0.49858676520E+03  0.10566000000E+00 0.  1.
          4    1    4    4  501    0 -0.19441438415E+03  0.75013048061E+02 -0.72383981240E+03  0.75323833157E+03  0.00000000000E+00 0.  1.
         13    1    3    3    0    0 -0.17417130799E+03 -0.34440782004E+03 -0.26126554530E+03  0.46606017568E+03  0.10566000000E+00 0. -1.
         -4    1    3    3    0  503  0.75657509149E+03  0.13260063730E+03 -0.82828053028E+02  0.77256021413E+03  0.00000000000E+00 0. -1.
<mgrwt>
<rscale>  2 0.11851549E+04</rscale>
<asrwt>0</asrwt>
<pdfrwt beam="1">  1       21 0.13109125E+00 0.11898656E+04</pdfrwt>
<pdfrwt beam="2">  1       21 0.25205421E+00 0.11898656E+04</pdfrwt>
<totfact> 0.10660232E+01</totfact>
</mgrwt>
</event>
<event>
 8    1  0.1168507E-005  0.1037161E+04  0.7818608E-02  0.8741423E-01
         21   -1    0    0  503  502  0.00000000000E+00  0.00000000000E+00  0.76433402004E+03  0.76433402004E+03  0.00000000000E+00 0. -1.
         21   -1    0    0  501  503 -0.00000000000E+00 -0.00000000000E+00 -0.14194445458E+04  0.14194445458E+04  0.00000000000E+00 0. -1.
    9000010    2    1    2  501    0 -0.99852668399E+02  0.27332886819E+03 -0.44983065326E+03  0.11264975405E+04  0.99094392707E+03 0.  0.
   -9000010    2    1    2    0  502  0.99852668399E+02 -0.27332886819E+03 -0.20527987247E+03  0.10572810253E+04  0.99550194116E+03 0.  0.
        -13    1    3    3    0    0 -0.17322333713E+03  0.13091797412E+03  0.29406879830E+03  0.36554385479E+03  0.10566000000E+00 0.  1.
          4    1    3    3  501    0  0.73370668734E+02  0.14241089407E+03 -0.74389945156E+03  0.76095368572E+03  0.00000000000E+00 0.  1.
         13    1    4    4    0    0 -0.25556199377E+03  0.89633958338E+02 -0.42487655741E+03  0.50385144571E+03  0.10566000000E+00 0. -1.
         -4    1    4    4    0  502  0.35541466217E+03 -0.36296282653E+03  0.21959668494E+03  0.55342957959E+03  0.00000000000E+00 0. -1.
<mgrwt>
<rscale>  2 0.10360659E+04</rscale>
<asrwt>0</asrwt>
<pdfrwt beam="1">  1       21 0.11758985E+00 0.10371612E+04</pdfrwt>
<pdfrwt beam="2">  1       21 0.21837608E+00 0.10371612E+04</pdfrwt>
<totfact> 0.26616237E+01</totfact>
</mgrwt>
</event>
<event>
 8    1  0.1168507E-005  0.1011673E+04  0.7818608E-02  0.8770804E-01
         21   -1    0    0  501  502  0.00000000000E+00  0.00000000000E+00  0.59183300334E+03  0.59183300334E+03  0.00000000000E+00 0.  1.
         21   -1    0    0  502  503 -0.00000000000E+00 -0.00000000000E+00 -0.17013629941E+04  0.17013629941E+04  0.00000000000E+00 0.  1.
   -9000010    2    1    2    0  503 -0.43836323148E+02 -0.83543832192E+02 -0.68044927297E+03  0.11942911423E+04  0.97694366483E+03 0.  0.
    9000010    2    1    2  501    0  0.43836323148E+02  0.83543832192E+02 -0.42908071782E+03  0.10989048552E+04  0.10072638300E+04 0.  0.
        -13    1    4    4    0    0 -0.23973995548E+03 -0.15484144090E+03 -0.61971218494E+03  0.68227144261E+03  0.10566000000E+00 0.  1.
          4    1    4    4  501    0  0.28357627863E+03  0.23838527310E+03  0.19063146713E+03  0.41663341259E+03  0.00000000000E+00 0.  1.
         13    1    3    3    0    0  0.31569588450E+02  0.40371391040E+03 -0.55230682972E+03  0.68485356514E+03  0.10566000000E+00 0. -1.
         -4    1    3    3    0  503 -0.75405911597E+02 -0.48725774259E+03 -0.12814244325E+03  0.50943757712E+03  0.00000000000E+00 0. -1.
<mgrwt>
<rscale>  2 0.10040408E+04</rscale>
<asrwt>0</asrwt>
<pdfrwt beam="1">  1       21 0.91051231E-01 0.10116727E+04</pdfrwt>
<pdfrwt beam="2">  1       21 0.26174815E+00 0.10116727E+04</pdfrwt>
<totfact> 0.25288663E+01</totfact>
</mgrwt>
</event>
<event>
 8    1  0.1168507E-005  0.1123862E+04  0.7818608E-02  0.8666266E-01
         21   -1    0    0  503  502  0.00000000000E+00  0.00000000000E+00  0.13346836964E+04  0.13346836964E+04  0.00000000000E+00 0.  1.
         21   -1    0    0  501  503 -0.00000000000E+00 -0.00000000000E+00 -0.11487384930E+04  0.11487384930E+04  0.00000000000E+00 0.  1.
    9000010    2    1    2  501    0  0.88567221974E+02 -0.51624581041E+03  0.61446987981E+03  0.12808741525E+04  0.99433971652E+03 0.  0.
   -9000010    2    1    2    0  502 -0.88567221974E+02  0.51624581041E+03 -0.42852467650E+03  0.12025480369E+04  0.99404954257E+03 0.  0.
        -13    1    3    3    0    0  0.22570448264E+03  0.25177054893E+03  0.24553934604E+03  0.41787618311E+03  0.10566000000E+00 0.  1.
          4    1    3    3  501    0 -0.13713726067E+03 -0.76801635933E+03  0.36893053377E+03  0.86299796942E+03  0.00000000000E+00 0.  1.
         13    1    4    4    0    0 -0.32940488456E+03  0.70189016663E+03 -0.45214631892E+03  0.89754871114E+03  0.10566000000E+00 0. -1.
         -4    1    4    4    0  502  0.24083766259E+03 -0.18564435622E+03  0.23621642425E+02  0.30499932575E+03  0.00000000000E+00 0. -1.
<mgrwt>
<rscale>  2 0.11237976E+04</rscale>
<asrwt>0</asrwt>
<pdfrwt beam="1">  1       21 0.20533595E+00 0.11238618E+04</pdfrwt>
<pdfrwt beam="2">  1       21 0.17672900E+00 0.11238618E+04</pdfrwt>
<totfact> 0.95230957E+00</totfact>
</mgrwt>
</event>
<event>
 8    1  0.1168507E-005  0.1005268E+04  0.7818608E-02  0.8776947E-01
         21   -1    0    0  503  502  0.00000000000E+00  0.00000000000E+00  0.13669942563E+04  0.13669942563E+04  0.00000000000E+00 0.  1.
         21   -1    0    0  501  503 -0.00000000000E+00 -0.00000000000E+00 -0.71829493392E+03  0.71829493392E+03  0.00000000000E+00 0.  1.
    9000010    2    1    2  501    0 -0.97284826770E+02  0.95860498790E+02  0.27237199700E+03  0.10118900076E+04  0.96492554634E+03 0.  0.
   -9000010    2    1    2    0  502  0.97284826770E+02 -0.95860498790E+02  0.37632732534E+03  0.10733991826E+04  0.99594677400E+03 0.  0.
        -13    1    3    3    0    0  0.26551325908E+03  0.42433969728E+02 -0.25432444722E+03  0.37010656323E+03  0.10566000000E+00 0.  1.
          4    1    3    3  501    0 -0.36279808585E+03  0.53426529062E+02  0.52669644422E+03  0.64178344436E+03  0.00000000000E+00 0.  1.
         13    1    4    4    0    0  0.29856965387E+03 -0.34662845756E+03  0.54396259664E+03  0.71076750313E+03  0.10566000000E+00 0. -1.
         -4    1    4    4    0  502 -0.20128482710E+03  0.25076795877E+03 -0.16763527131E+03  0.36263167946E+03  0.00000000000E+00 0. -1.
<mgrwt>
<rscale>  2 0.99749714E+03</rscale>
<asrwt>0</asrwt>
<pdfrwt beam="1">  1       21 0.21030681E+00 0.10052679E+04</pdfrwt>
<pdfrwt beam="2">  1       21 0.11050691E+00 0.10052679E+04</pdfrwt>
<totfact> 0.36610444E+01</totfact>
</mgrwt>
</event>
<event>
 8    1  0.1168507E-005  0.1035922E+04  0.7818608E-02  0.8771349E-01
         21   -1    0    0  501  502  0.00000000000E+00  0.00000000000E+00  0.45468089103E+03  0.45468089103E+03  0.00000000000E+00 0.  1.
         21   -1    0    0  502  503 -0.00000000000E+00 -0.00000000000E+00 -0.20910938347E+04  0.20910938347E+04  0.00000000000E+00 0.  1.
   -9000010    2    1    2    0  503  0.16338859149E+03  0.21821634001E+03 -0.70605976533E+03  0.11534056154E+04  0.87035045726E+03 0.  0.
    9000010    2    1    2  501    0 -0.16338859149E+03 -0.21821634001E+03 -0.93035317835E+03  0.13923691104E+04  0.99941007608E+03 0.  0.
        -13    1    4    4    0    0 -0.25790730107E+03 -0.57269065501E+03 -0.76544418051E+03  0.99014926498E+03  0.10566000000E+00 0.  1.
          4    1    4    4  501    0  0.94518709579E+02  0.35447431501E+03 -0.16490899783E+03  0.40221984539E+03  0.00000000000E+00 0.  1.
         13    1    3    3    0    0  0.51524286400E+03  0.20263368325E+03 -0.49588946908E+03  0.74326441809E+03  0.10566000000E+00 0. -1.
         -4    1    3    3    0  503 -0.35185427251E+03  0.15582656757E+02 -0.21017029625E+03  0.41014119727E+03  0.00000000000E+00 0. -1.
<mgrwt>
<rscale>  2 0.10034582E+04</rscale>
<asrwt>0</asrwt>
<pdfrwt beam="1">  1       21 0.69950905E-01 0.10359222E+04</pdfrwt>
<pdfrwt beam="2">  1       21 0.32170675E+00 0.10359222E+04</pdfrwt>
<totfact> 0.18055858E+01</totfact>
</mgrwt>
</event>
<event>
 8    1  0.1168507E-005  0.1079247E+04  0.7818608E-02  0.8726430E-01
         21   -1    0    0  501  502  0.00000000000E+00  0.00000000000E+00  0.73135635129E+03  0.73135635129E+03  0.00000000000E+00 0.  1.
         21   -1    0    0  502  503 -0.00000000000E+00 -0.00000000000E+00 -0.16719957372E+04  0.16719957372E+04  0.00000000000E+00 0.  1.
   -9000010    2    1    2    0  503 -0.87466559058E+02  0.35069716193E+03 -0.93161214196E+03  0.14257189020E+04  0.10169239431E+04 0.  0.
    9000010    2    1    2  501    0  0.87466559058E+02 -0.35069716193E+03 -0.90272439992E+01  0.97763318657E+03  0.90832057007E+03 0.  0.
        -13    1    4    4    0    0 -0.14182646920E+03 -0.13308178192E+02 -0.39262915212E+03  0.41767154228E+03  0.10566000000E+00 0.  1.
          4    1    4    4  501    0  0.22929302826E+03 -0.33738898374E+03  0.38360190812E+03  0.55996164429E+03  0.00000000000E+00 0.  1.
         13    1    3    3    0    0 -0.41699466822E+03  0.52364449657E+03 -0.41007482906E+03  0.78501559775E+03  0.10566000000E+00 0. -1.
         -4    1    3    3    0  503  0.32952810917E+03 -0.17294733464E+03 -0.52153731290E+03  0.64070330421E+03  0.00000000000E+00 0. -1.
<mgrwt>
<rscale>  2 0.10528824E+04</rscale>
<asrwt>0</asrwt>
<pdfrwt beam="1">  1       21 0.11251636E+00 0.10792466E+04</pdfrwt>
<pdfrwt beam="2">  1       21 0.25723011E+00 0.10792466E+04</pdfrwt>
<totfact> 0.15391879E+01</totfact>
</mgrwt>
</event>
<event>
 8    1  0.1168507E-005  0.1359096E+04  0.7818608E-02  0.8545439E-01
         21   -1    0    0  503  502  0.00000000000E+00  0.00000000000E+00  0.10285105308E+04  0.10285105308E+04  0.00000000000E+00 0. -1.
         21   -1    0    0  501  503 -0.00000000000E+00 -0.00000000000E+00 -0.15370485370E+04  0.15370485370E+04  0.00000000000E+00 0. -1.
    9000010    2    1    2  501    0 -0.42007406643E+03  0.32963481383E+02 -0.58171335221E+03  0.14783546508E+04  0.12921274074E+04 0.  0.
   -9000010    2    1    2    0  502  0.42007406643E+03 -0.32963481383E+02  0.73175346004E+02  0.10872044170E+04  0.99955490127E+03 0.  0.
        -13    1    3    3    0    0 -0.59804854090E+02 -0.26803806445E+03  0.34413494992E+03  0.44028388511E+03  0.10566000000E+00 0.  1.
          4    1    3    3  501    0 -0.36026921234E+03  0.30100154584E+03 -0.92584830213E+03  0.10380707657E+04  0.00000000000E+00 0.  1.
         13    1    4    4    0    0  0.37938098001E+03  0.43314787532E+03  0.18749090805E+03  0.60555748006E+03  0.10566000000E+00 0. -1.
         -4    1    4    4    0  502  0.40693086415E+02 -0.46611135670E+03 -0.11431556205E+03  0.48164693693E+03  0.00000000000E+00 0. -1.
<mgrwt>
<rscale>  2 0.12846030E+04</rscale>
<asrwt>0</asrwt>
<pdfrwt beam="1">  1       21 0.15823239E+00 0.13590960E+04</pdfrwt>
<pdfrwt beam="2">  1       21 0.23646900E+00 0.13590960E+04</pdfrwt>
<totfact> 0.75837117E+00</totfact>
</mgrwt>
</event>
<event>
 8    1  0.1168507E-005  0.1169065E+04  0.7818608E-02  0.8634935E-01
         21   -1    0    0  503  502  0.00000000000E+00  0.00000000000E+00  0.12445870981E+04  0.12445870981E+04  0.00000000000E+00 0.  1.
         21   -1    0    0  501  503 -0.00000000000E+00 -0.00000000000E+00 -0.11196735049E+04  0.11196735049E+04  0.00000000000E+00 0.  1.
    9000010    2    1    2  501    0  0.53906609791E+03  0.24168048213E+03  0.29599057186E+03  0.11827449281E+04  0.98095536750E+03 0.  0.
   -9000010    2    1    2    0  502 -0.53906609791E+03 -0.24168048213E+03 -0.17107697875E+03  0.11815156749E+04  0.10088162588E+04 0.  0.
        -13    1    3    3    0    0  0.35161268950E+03  0.59749677310E+03  0.35058741869E+03  0.77688186141E+03  0.10566000000E+00 0.  1.
          4    1    3    3  501    0  0.18745340841E+03 -0.35581629097E+03 -0.54596846829E+02  0.40586306672E+03  0.00000000000E+00 0.  1.
         13    1    4    4    0    0 -0.97281023073E+02  0.32191430473E+03 -0.30381659070E+03  0.45320740173E+03  0.10566000000E+00 0. -1.
         -4    1    4    4    0  502 -0.44178507484E+03 -0.56359478686E+03  0.13273961194E+03  0.72830827313E+03  0.00000000000E+00 0. -1.
<mgrwt>
<rscale>  2 0.11630292E+04</rscale>
<asrwt>0</asrwt>
<pdfrwt beam="1">  1       21 0.19147494E+00 0.11690646E+04</pdfrwt>
<pdfrwt beam="2">  1       21 0.17225746E+00 0.11690646E+04</pdfrwt>
<totfact> 0.13194656E+01</totfact>
</mgrwt>
</event>
<event>
 8    1  0.1168507E-005  0.1069901E+04  0.7818608E-02  0.8717900E-01
         21   -1    0    0  501  502  0.00000000000E+00  0.00000000000E+00  0.12960481125E+04  0.12960481125E+04  0.00000000000E+00 0.  1.
         21   -1    0    0  502  503 -0.00000000000E+00 -0.00000000000E+00 -0.86235524506E+03  0.86235524506E+03  0.00000000000E+00 0.  1.
   -9000010    2    1    2    0  503  0.32845840380E+03  0.12886105195E+03  0.28184673631E+03  0.11064021718E+04  0.10100485579E+04 0.  0.
    9000010    2    1    2  501    0 -0.32845840380E+03 -0.12886105195E+03  0.15184613115E+03  0.10520011858E+04  0.97936671046E+03 0.  0.
        -13    1    4    4    0    0 -0.30697344188E+03  0.28926404006E+03  0.38646484744E+03  0.57206771309E+03  0.10566000000E+00 0.  1.
          4    1    4    4  501    0 -0.21484961926E+02 -0.41812509201E+03 -0.23461871629E+03  0.47993347267E+03  0.00000000000E+00 0.  1.
         13    1    3    3    0    0  0.39643112026E+03  0.36031834109E+03  0.53472727413E+03  0.75691492844E+03  0.10566000000E+00 0. -1.
         -4    1    3    3    0  503 -0.67972716457E+02 -0.23145728914E+03 -0.25288053782E+03  0.34948724338E+03  0.00000000000E+00 0. -1.
<mgrwt>
<rscale>  2 0.10625975E+04</rscale>
<asrwt>0</asrwt>
<pdfrwt beam="1">  1       21 0.19939202E+00 0.10699010E+04</pdfrwt>
<pdfrwt beam="2">  1       21 0.13267004E+00 0.10699010E+04</pdfrwt>
<totfact> 0.26229751E+01</totfact>
</mgrwt>
</event>
<event>
 8    1  0.1168507E-005  0.1150419E+04  0.7818608E-02  0.8665414E-01
         21   -1    0    0  503  502  0.00000000000E+00  0.00000000000E+00  0.69163452101E+03  0.69163452101E+03  0.00000000000E+00 0.  1.
         21   -1    0    0  501  503 -0.00000000000E+00 -0.00000000000E+00 -0.19246390005E+04  0.19246390005E+04  0.00000000000E+00 0.  1.
    9000010    2    1    2  501    0 -0.40922034908E+03 -0.39430294551E+03 -0.10325967956E+04  0.15458718264E+04  0.10002636924E+04 0.  0.
   -9000010    2    1    2    0  502  0.40922034908E+03  0.39430294551E+03 -0.20040768391E+03  0.10704016952E+04  0.88468098333E+03 0.  0.
        -13    1    3    3    0    0  0.11904459020E+03 -0.10762968665E+03  0.14976660614E+03  0.21951266793E+03  0.10566000000E+00 0.  1.
          4    1    3    3  501    0 -0.52826493929E+03 -0.28667325886E+03 -0.11823634017E+04  0.13263591584E+04  0.00000000000E+00 0.  1.
         13    1    4    4    0    0 -0.17720192824E+03  0.40780965744E+03 -0.19051399515E+03  0.48374046097E+03  0.10566000000E+00 0. -1.
         -4    1    4    4    0  502  0.58642227733E+03 -0.13506711923E+02 -0.98936887623E+01  0.58666123418E+03  0.00000000000E+00 0. -1.
<mgrwt>
<rscale>  2 0.11248421E+04</rscale>
<asrwt>0</asrwt>
<pdfrwt beam="1">  1       21 0.10640531E+00 0.11504189E+04</pdfrwt>
<pdfrwt beam="2">  1       21 0.29609831E+00 0.11504189E+04</pdfrwt>
<totfact> 0.93020153E+00</totfact>
</mgrwt>
</event>
<event>
 8    1  0.1168507E-005  0.1098963E+04  0.7818608E-02  0.8689395E-01
         21   -1    0    0  501  502  0.00000000000E+00  0.00000000000E+00  0.55083403666E+03  0.55083403666E+03  0.00000000000E+00 0. -1.
         21   -1    0    0  502  503 -0.00000000000E+00 -0.00000000000E+00 -0.26741032375E+04  0.26741032375E+04  0.00000000000E+00 0. -1.
   -9000010    2    1    2    0  503  0.35748559836E+03 -0.15612753082E+03 -0.17582693511E+04  0.20669456546E+04  0.10141900557E+04 0.  0.
    9000010    2    1    2  501    0 -0.35748559836E+03  0.15612753082E+03 -0.36499984973E+03  0.11579916195E+04  0.10273986284E+04 0.  0.
        -13    1    4    4    0    0  0.11521275937E+03 -0.19257157179E+03 -0.50633146319E+03  0.55383151947E+03  0.10566000000E+00 0.  1.
          4    1    4    4  501    0 -0.47269835772E+03  0.34869910261E+03  0.14133161346E+03  0.60416010007E+03  0.00000000000E+00 0.  1.
         13    1    3    3    0    0  0.62353479544E+03 -0.30244617387E+03 -0.78364656814E+03  0.10461220216E+04  0.10566000000E+00 0. -1.
         -4    1    3    3    0  503 -0.26604919708E+03  0.14631864305E+03 -0.97462278300E+03  0.10208236330E+04  0.00000000000E+00 0. -1.
<mgrwt>
<rscale>  2 0.10958654E+04</rscale>
<asrwt>0</asrwt>
<pdfrwt beam="1">  1       21 0.84743699E-01 0.10989630E+04</pdfrwt>
<pdfrwt beam="2">  1       21 0.41140049E+00 0.10989630E+04</pdfrwt>
<totfact> 0.26365872E+00</totfact>
</mgrwt>
</event>
<event>
 8    1  0.1168507E-005  0.1065384E+04  0.7818608E-02  0.8719844E-01
         21   -1    0    0  503  502  0.00000000000E+00  0.00000000000E+00  0.12869477436E+04  0.12869477436E+04  0.00000000000E+00 0. -1.
         21   -1    0    0  501  503 -0.00000000000E+00 -0.00000000000E+00 -0.87207377060E+03  0.87207377060E+03  0.00000000000E+00 0. -1.
    9000010    2    1    2  501    0 -0.32782698922E+03  0.16813073325E+03  0.30262618169E+03  0.11075316325E+04  0.99965255610E+03 0.  0.
   -9000010    2    1    2    0  502  0.32782698922E+03 -0.16813073325E+03  0.11224779129E+03  0.10514898816E+04  0.97841347404E+03 0.  0.
        -13    1    3    3    0    0  0.22378902155E+03  0.34312588925E+03  0.33314711701E+03  0.52801885835E+03  0.10566000000E+00 0.  1.
          4    1    3    3  501    0 -0.55161601078E+03 -0.17499515600E+03 -0.30520935319E+02  0.57951277420E+03  0.00000000000E+00 0.  1.
         13    1    4    4    0    0  0.43165021639E+03 -0.21286587097E+03  0.47217391163E+03  0.67422696648E+03  0.10566000000E+00 0. -1.
         -4    1    4    4    0  502 -0.10382322716E+03  0.44735137724E+02 -0.35992612034E+03  0.37726291515E+03  0.00000000000E+00 0. -1.
<mgrwt>
<rscale>  2 0.10603733E+04</rscale>
<asrwt>0</asrwt>
<pdfrwt beam="1">  1       21 0.19799196E+00 0.10653843E+04</pdfrwt>
<pdfrwt beam="2">  1       21 0.13416520E+00 0.10653843E+04</pdfrwt>
<totfact> 0.26059976E+01</totfact>
</mgrwt>
</event>
<event>
 8    1  0.1168507E-005  0.1067778E+04  0.7818608E-02  0.8719444E-01
         21   -1    0    0  503  502  0.00000000000E+00  0.00000000000E+00  0.68534448891E+03  0.68534448891E+03  0.00000000000E+00 0.  1.
         21   -1    0    0  501  503 -0.00000000000E+00 -0.00000000000E+00 -0.16375018657E+04  0.16375018657E+04  0.00000000000E+00 0.  1.
    9000010    2    1    2  501    0  0.19899811676E+03  0.31301165723E+03 -0.58644666788E+03  0.11941768128E+04  0.97188580499E+03 0.  0.
   -9000010    2    1    2    0  502 -0.19899811676E+03 -0.31301165723E+03 -0.36571070886E+03  0.11286695418E+04  0.10012862048E+04 0.  0.
        -13    1    3    3    0    0  0.12594795408E+03  0.62320250921E+03 -0.14911467878E+03  0.65305394357E+03  0.10566000000E+00 0.  1.
          4    1    3    3  501    0  0.73050162670E+02 -0.31019085198E+03 -0.43733198910E+03  0.54112286923E+03  0.00000000000E+00 0.  1.
         13    1    4    4    0    0 -0.18565810499E+02  0.27096837428E+03  0.16619349441E+03  0.31841613955E+03  0.10566000000E+00 0. -1.
         -4    1    4    4    0  502 -0.18043230626E+03 -0.58398003151E+03 -0.53190420327E+03  0.81025340221E+03  0.00000000000E+00 0. -1.
<mgrwt>
<rscale>  2 0.10608310E+04</rscale>
<asrwt>0</asrwt>
<pdfrwt beam="1">  1       21 0.10543761E+00 0.10677784E+04</pdfrwt>
<pdfrwt beam="2">  1       21 0.25192336E+00 0.10677784E+04</pdfrwt>
<totfact> 0.20093249E+01</totfact>
</mgrwt>
</event>
<event>
 8    1  0.1168507E-005  0.1187183E+04  0.7818608E-02  0.8618849E-01
         21   -1    0    0  501  502  0.00000000000E+00  0.00000000000E+00  0.12350422888E+04  0.12350422888E+04  0.00000000000E+00 0. -1.
         21   -1    0    0  502  503 -0.00000000000E+00 -0.00000000000E+00 -0.12894385508E+04  0.12894385508E+04  0.00000000000E+00 0. -1.
   -9000010    2    1    2    0  503 -0.60640711938E+03 -0.15101779039E+03 -0.47322929725E+03  0.12655831333E+04  0.99358881439E+03 0.  0.
    9000010    2    1    2  501    0  0.60640711938E+03  0.15101779039E+03  0.41883303523E+03  0.12588977062E+04  0.10093891003E+04 0.  0.
        -13    1    4    4    0    0  0.59473124305E+03  0.53104219901E+03  0.20735450352E+03  0.82383673739E+03  0.10566000000E+00 0.  1.
          4    1    4    4  501    0  0.11675876335E+02 -0.38002440861E+03  0.21147853171E+03  0.43506096884E+03  0.00000000000E+00 0.  1.
         13    1    3    3    0    0 -0.70228459095E+03 -0.29168722409E+03 -0.66425286342E+03  0.10097113256E+04  0.10566000000E+00 0. -1.
         -4    1    3    3    0  503  0.95877471562E+02  0.14066943370E+03  0.19102356617E+03  0.25587180768E+03  0.00000000000E+00 0. -1.
<mgrwt>
<rscale>  2 0.11838171E+04</rscale>
<asrwt>0</asrwt>
<pdfrwt beam="1">  1       21 0.19000651E+00 0.11871825E+04</pdfrwt>
<pdfrwt beam="2">  1       21 0.19837516E+00 0.11871825E+04</pdfrwt>
<totfact> 0.83047376E+00</totfact>
</mgrwt>
</event>
<event>
 8    1  0.1168507E-005  0.1265318E+04  0.7818608E-02  0.8563748E-01
         21   -1    0    0  503  502  0.00000000000E+00  0.00000000000E+00  0.10324241230E+04  0.10324241230E+04  0.00000000000E+00 0.  1.
         21   -1    0    0  501  503 -0.00000000000E+00 -0.00000000000E+00 -0.15276590870E+04  0.15276590870E+04  0.00000000000E+00 0.  1.
    9000010    2    1    2  501    0  0.46353505609E+02 -0.76952943881E+03 -0.35262938675E+03  0.13135359254E+04  0.10033468683E+04 0.  0.
   -9000010    2    1    2    0  502 -0.46353505609E+02  0.76952943881E+03 -0.14260557725E+03  0.12465472847E+04  0.96913341587E+03 0.  0.
        -13    1    3    3    0    0  0.12504067055E+03 -0.94074207116E+03 -0.50151830363E+03  0.10733831719E+04  0.10566000000E+00 0.  1.
          4    1    3    3  501    0 -0.78687164939E+02  0.17121263235E+03  0.14888891688E+03  0.24015275342E+03  0.00000000000E+00 0.  1.
         13    1    4    4    0    0  0.29613810461E+03 -0.90988279457E+02 -0.69466467187E+02  0.31749369321E+03  0.10566000000E+00 0. -1.
         -4    1    4    4    0  502 -0.34249161022E+03  0.86051771827E+03 -0.73139110065E+02  0.92905359153E+03  0.00000000000E+00 0. -1.
<mgrwt>
<rscale>  2 0.12585247E+04</rscale>
<asrwt>0</asrwt>
<pdfrwt beam="1">  1       21 0.15883448E+00 0.12653178E+04</pdfrwt>
<pdfrwt beam="2">  1       21 0.23502447E+00 0.12653178E+04</pdfrwt>
<totfact> 0.78162138E+00</totfact>
</mgrwt>
</event>
<event>
 8    1  0.1168507E-005  0.1063567E+04  0.7818608E-02  0.8720425E-01
         21   -1    0    0  501  502  0.00000000000E+00  0.00000000000E+00  0.47069121266E+03  0.47069121266E+03  0.00000000000E+00 0.  1.
         21   -1    0    0  502  503 -0.00000000000E+00 -0.00000000000E+00 -0.23986753872E+04  0.23986753872E+04  0.00000000000E+00 0.  1.
   -9000010    2    1    2    0  503 -0.27250942718E+03  0.18667634625E+03 -0.11313372795E+04  0.15527713096E+04  0.10109724297E+04 0.  0.
    9000010    2    1    2  501    0  0.27250942718E+03 -0.18667634625E+03 -0.79664689508E+03  0.13165952903E+04  0.99482030384E+03 0.  0.
        -13    1    4    4    0    0 -0.47114108894E+02  0.13597774600E+03 -0.84746528988E+03  0.85959706571E+03  0.10566000000E+00 0.  1.
          4    1    4    4  501    0  0.31962353607E+03 -0.32265409225E+03  0.50818394802E+02  0.45699822462E+03  0.00000000000E+00 0.  1.
         13    1    3    3    0    0 -0.46291822236E+03  0.41763876027E+03 -0.34760872518E+03  0.71382578523E+03  0.10566000000E+00 0. -1.
         -4    1    3    3    0  503  0.19040879518E+03 -0.23096241401E+03 -0.78372855432E+03  0.83894552435E+03  0.00000000000E+00 0. -1.
<mgrwt>
<rscale>  2 0.10597107E+04</rscale>
<asrwt>0</asrwt>
<pdfrwt beam="1">  1       21 0.72414033E-01 0.10635670E+04</pdfrwt>
<pdfrwt beam="2">  1       21 0.36902698E+00 0.10635670E+04</pdfrwt>
<totfact> 0.76934911E+00</totfact>
</mgrwt>
</event>
<event>
 8    1  0.1168507E-005  0.1051449E+04  0.7818608E-02  0.8758819E-01
         21   -1    0    0  501  502  0.00000000000E+00  0.00000000000E+00  0.91806044803E+03  0.91806044803E+03  0.00000000000E+00 0. -1.
         21   -1    0    0  502  503 -0.00000000000E+00 -0.00000000000E+00 -0.10590645115E+04  0.10590645115E+04  0.00000000000E+00 0. -1.
   -9000010    2    1    2    0  503 -0.46300405970E+02 -0.28754110325E+03 -0.97706601944E+02  0.10559792320E+04  0.10103078465E+04 0.  0.
    9000010    2    1    2  501    0  0.46300405970E+02  0.28754110325E+03 -0.43297461550E+02  0.92114572754E+03  0.87281794639E+03 0.  0.
        -13    1    4    4    0    0  0.14174370007E+03 -0.60424776785E+02 -0.39087332486E+03  0.42014806605E+03  0.10566000000E+00 0.  1.
          4    1    4    4  501    0 -0.95443294102E+02  0.34796588004E+03  0.34757586331E+03  0.50099766149E+03  0.00000000000E+00 0.  1.
         13    1    3    3    0    0 -0.21603212861E+03 -0.43336646508E+03  0.32118481060E+03  0.58106459828E+03  0.10566000000E+00 0. -1.
         -4    1    3    3    0  503  0.16973172264E+03  0.14582536183E+03 -0.41889141255E+03  0.47491463373E+03  0.00000000000E+00 0. -1.
<mgrwt>
<rscale>  2 0.10169586E+04</rscale>
<asrwt>0</asrwt>
<pdfrwt beam="1">  1       21 0.14124007E+00 0.10514493E+04</pdfrwt>
<pdfrwt beam="2">  1       21 0.16293300E+00 0.10514493E+04</pdfrwt>
<totfact> 0.43406609E+01</totfact>
</mgrwt>
</event>
<event>
 8    1  0.1168507E-005  0.1224839E+04  0.7818608E-02  0.8590141E-01
         21   -1    0    0  501  502  0.00000000000E+00  0.00000000000E+00  0.89801450702E+03  0.89801450702E+03  0.00000000000E+00 0.  1.
         21   -1    0    0  502  503 -0.00000000000E+00 -0.00000000000E+00 -0.16701329360E+04  0.16701329360E+04  0.00000000000E+00 0.  1.
   -9000010    2    1    2    0  503  0.67142817431E+03  0.16745779576E+03 -0.26750569916E+03  0.12537101610E+04  0.10106294880E+04 0.  0.
    9000010    2    1    2  501    0 -0.67142817431E+03 -0.16745779576E+03 -0.50461272987E+03  0.13144372821E+04  0.99712258765E+03 0.  0.
        -13    1    4    4    0    0 -0.66584968379E+03  0.17670918079E+03  0.17440810175E+02  0.68911982194E+03  0.10566000000E+00 0.  1.
          4    1    4    4  501    0 -0.55784905256E+01 -0.34416697655E+03 -0.52205354004E+03  0.62531746015E+03  0.00000000000E+00 0.  1.
         13    1    3    3    0    0  0.24717080479E+02  0.85912485114E+02  0.34673076176E+03  0.35806999522E+03  0.10566000000E+00 0. -1.
         -4    1    3    3    0  503  0.64671109383E+03  0.81545310644E+02 -0.61423646091E+03  0.89564016574E+03  0.00000000000E+00 0. -1.
<mgrwt>
<rscale>  2 0.12220490E+04</rscale>
<asrwt>0</asrwt>
<pdfrwt beam="1">  1       21 0.13815608E+00 0.12248387E+04</pdfrwt>
<pdfrwt beam="2">  1       21 0.25694353E+00 0.12248387E+04</pdfrwt>
<totfact> 0.83590419E+00</totfact>
</mgrwt>
</event>
<event>
 8    1  0.1168507E-005  0.1046550E+04  0.7818608E-02  0.8734565E-01
         21   -1    0    0  503  502  0.00000000000E+00  0.00000000000E+00  0.20225687402E+04  0.20225687402E+04  0.00000000000E+00 0.  1.
         21   -1    0    0  501  503 -0.00000000000E+00 -0.00000000000E+00 -0.53642264911E+03  0.53642264911E+03  0.00000000000E+00 0.  1.
    9000010    2    1    2  501    0 -0.27371299647E+03 -0.13033753770E+03  0.79406282740E+03  0.13136984283E+04  0.10016791444E+04 0.  0.
   -9000010    2    1    2    0  502  0.27371299647E+03  0.13033753770E+03  0.69208326372E+03  0.12452929611E+04  0.98988314300E+03 0.  0.
        -13    1    3    3    0    0  0.32520752992E+03  0.57096436231E+01  0.20411730058E+02  0.32589751063E+03  0.10566000000E+00 0.  1.
          4    1    3    3  501    0 -0.59892052638E+03 -0.13604718132E+03  0.77365109734E+03  0.98780091764E+03  0.00000000000E+00 0.  1.
         13    1    4    4    0    0  0.58882400827E+03 -0.64683750447E+02  0.19166919718E+03  0.62260323851E+03  0.10566000000E+00 0. -1.
         -4    1    4    4    0  502 -0.31511101181E+03  0.19502128815E+03  0.50041406655E+03  0.62268972256E+03  0.00000000000E+00 0. -1.
<mgrwt>
<rscale>  2 0.10437178E+04</rscale>
<asrwt>0</asrwt>
<pdfrwt beam="1">  1       21 0.31116442E+00 0.10465504E+04</pdfrwt>
<pdfrwt beam="2">  1       21 0.82526562E-01 0.10465504E+04</pdfrwt>
<totfact> 0.14336205E+01</totfact>
</mgrwt>
</event>
<event>
 8    1  0.1168507E-005  0.1180401E+04  0.7818608E-02  0.8625465E-01
         21   -1    0    0  503  502  0.00000000000E+00  0.00000000000E+00  0.20047700378E+04  0.20047700378E+04  0.00000000000E+00 0.  1.
         21   -1    0    0  501  503 -0.00000000000E+00 -0.00000000000E+00 -0.88901690597E+03  0.88901690597E+03  0.00000000000E+00 0.  1.
    9000010    2    1    2  501    0 -0.18490909600E+03 -0.55852188189E+03 -0.13496695866E+03  0.11880924681E+04  0.10233325787E+04 0.  0.
   -9000010    2    1    2    0  502  0.18490909600E+03  0.55852188189E+03  0.12507200905E+04  0.17056944757E+04  0.99947727995E+03 0.  0.
        -13    1    3    3    0    0  0.28643902590E+02 -0.55274667154E+03 -0.51248893337E+03  0.75431709118E+03  0.10566000000E+00 0.  1.
          4    1    3    3  501    0 -0.21355299859E+03 -0.57752103519E+01  0.37752197471E+03  0.43377537695E+03  0.00000000000E+00 0.  1.
         13    1    4    4    0    0  0.31331549971E+03  0.79219919114E+03  0.73512121636E+03  0.11252330313E+04  0.10566000000E+00 0. -1.
         -4    1    4    4    0  502 -0.12840640371E+03 -0.23367730925E+03  0.51559887415E+03  0.58046144436E+03  0.00000000000E+00 0. -1.
<mgrwt>
<rscale>  2 0.11752123E+04</rscale>
<asrwt>0</asrwt>
<pdfrwt beam="1">  1       21 0.30842616E+00 0.11804015E+04</pdfrwt>
<pdfrwt beam="2">  1       21 0.13677183E+00 0.11804015E+04</pdfrwt>
<totfact> 0.37306604E+00</totfact>
</mgrwt>
</event>
<event>
 8    1  0.1168507E-005  0.1177834E+04  0.7818608E-02  0.8623654E-01
         21   -1    0    0  501  502  0.00000000000E+00  0.00000000000E+00  0.14041417666E+04  0.14041417666E+04  0.00000000000E+00 0.  1.
         21   -1    0    0  502  503 -0.00000000000E+00 -0.00000000000E+00 -0.98874619825E+03  0.98874619825E+03  0.00000000000E+00 0.  1.
   -9000010    2    1    2    0  503  0.57405221117E+03 -0.19820723544E+03  0.15854331843E+03  0.11873732325E+04  0.10079172387E+04 0.  0.
    9000010    2    1    2  501    0 -0.57405221117E+03  0.19820723544E+03  0.25685224993E+03  0.12055147324E+04  0.10091930649E+04 0.  0.
        -13    1    4    4    0    0  0.21538365127E+03 -0.49309209405E+02 -0.16602146828E+03  0.27637773872E+03  0.10566000000E+00 0.  1.
          4    1    4    4  501    0 -0.78943586244E+03  0.24751644485E+03  0.42287371821E+03  0.92913699363E+03  0.00000000000E+00 0.  1.
         13    1    3    3    0    0 -0.16468108925E+03 -0.59196866192E+01 -0.26674998007E+03  0.31354499977E+03  0.10566000000E+00 0. -1.
         -4    1    3    3    0  503  0.73873330042E+03 -0.19228754882E+03  0.42529329850E+03  0.87382823274E+03  0.00000000000E+00 0. -1.
<mgrwt>
<rscale>  2 0.11775606E+04</rscale>
<asrwt>0</asrwt>
<pdfrwt beam="1">  1       21 0.21602181E+00 0.11778339E+04</pdfrwt>
<pdfrwt beam="2">  1       21 0.15211480E+00 0.11778339E+04</pdfrwt>
<totfact> 0.12649875E+01</totfact>
</mgrwt>
</event>
<event>
 8    1  0.1168507E-005  0.1055980E+04  0.7818608E-02  0.8724583E-01
         21   -1    0    0  503  502  0.00000000000E+00  0.00000000000E+00  0.19952589070E+04  0.19952589070E+04  0.00000000000E+00 0.  1.
         21   -1    0    0  501  503 -0.00000000000E+00 -0.00000000000E+00 -0.61643415329E+03  0.61643415329E+03  0.00000000000E+00 0.  1.
    9000010    2    1    2  501    0 -0.16329839282E+03  0.29759590337E+03  0.28428129193E+03  0.10935761799E+04  0.99993165840E+03 0.  0.
   -9000010    2    1    2    0  502  0.16329839282E+03 -0.29759590337E+03  0.10945434618E+04  0.15181168804E+04  0.99570265944E+03 0.  0.
        -13    1    3    3    0    0 -0.55592873905E+03  0.26166502302E+03  0.12226110941E+02  0.61455254952E+03  0.10566000000E+00 0.  1.
          4    1    3    3  501    0  0.39263034623E+03  0.35930880348E+02  0.27205518098E+03  0.47902363036E+03  0.00000000000E+00 0.  1.
         13    1    4    4    0    0  0.85693217525E+02 -0.12001336838E+03 -0.17785807118E+03  0.23104121011E+03  0.10566000000E+00 0. -1.
         -4    1    4    4    0  502  0.77605175296E+02 -0.17758253499E+03  0.12724015329E+04  0.12870756703E+04  0.00000000000E+00 0. -1.
<mgrwt>
<rscale>  2 0.10549773E+04</rscale>
<asrwt>0</asrwt>
<pdfrwt beam="1">  1       21 0.30696290E+00 0.10559796E+04</pdfrwt>
<pdfrwt beam="2">  1       21 0.94836025E-01 0.10559796E+04</pdfrwt>
<totfact> 0.10755322E+01</totfact>
</mgrwt>
</event>
<event>
 8    1  0.1168507E-005  0.1202886E+04  0.7818608E-02  0.8631047E-01
         21   -1    0    0  501  502  0.00000000000E+00  0.00000000000E+00  0.13291168825E+04  0.13291168825E+04  0.00000000000E+00 0. -1.
         21   -1    0    0  502  503 -0.00000000000E+00 -0.00000000000E+00 -0.10050742081E+04  0.10050742081E+04  0.00000000000E+00 0. -1.
   -9000010    2    1    2    0  503  0.57561181909E+02 -0.41503990432E+03 -0.61275549309E+02  0.10710980338E+04  0.98383174026E+03 0.  0.
    9000010    2    1    2  501    0 -0.57561181909E+02  0.41503990432E+03  0.38531822364E+03  0.12630930568E+04  0.11275471276E+04 0.  0.
        -13    1    4    4    0    0 -0.45836098548E+03  0.17047792690E+03 -0.18633818272E+03  0.52333492724E+03  0.10566000000E+00 0.  1.
          4    1    4    4  501    0  0.40079980357E+03  0.24456197741E+03  0.57165640636E+03  0.73975812957E+03  0.00000000000E+00 0.  1.
         13    1    3    3    0    0  0.38572157658E+03  0.15111077151E+03 -0.49273705347E+01  0.41429444849E+03  0.10566000000E+00 0. -1.
         -4    1    3    3    0  503 -0.32816039467E+03 -0.56615067583E+03 -0.56348178774E+02  0.65680358527E+03  0.00000000000E+00 0. -1.
<mgrwt>
<rscale>  2 0.11680128E+04</rscale>
<asrwt>0</asrwt>
<pdfrwt beam="1">  1       21 0.20447952E+00 0.12028857E+04</pdfrwt>
<pdfrwt beam="2">  1       21 0.15462680E+00 0.12028857E+04</pdfrwt>
<totfact> 0.14664809E+01</totfact>
</mgrwt>
</event>
<event>
 8    1  0.1168507E-005  0.1114575E+04  0.7818608E-02  0.8679330E-01
         21   -1    0    0  503  502  0.00000000000E+00  0.00000000000E+00  0.10906224628E+04  0.10906224628E+04  0.00000000000E+00 0.  1.
         21   -1    0    0  501  503 -0.00000000000E+00 -0.00000000000E+00 -0.11349608502E+04  0.11349608502E+04  0.00000000000E+00 0.  1.
    9000010    2    1    2  501    0 -0.40381338473E+03 -0.23557037378E+03 -0.17937156993E+03  0.11028578516E+04  0.98263046459E+03 0.  0.
   -9000010    2    1    2    0  502  0.40381338473E+03  0.23557037378E+03  0.13503318261E+03  0.11227254615E+04  0.10117904184E+04 0.  0.
        -13    1    3    3    0    0  0.61353059928E+01  0.20355908764E+03 -0.41125347852E+03  0.45891543763E+03  0.10566000000E+00 0.  1.
          4    1    3    3  501    0 -0.40994869072E+03 -0.43912946142E+03  0.23188190859E+03  0.64394241392E+03  0.00000000000E+00 0.  1.
         13    1    4    4    0    0  0.53214906534E+03  0.54741605071E+03  0.11319825766E+02  0.76352806755E+03  0.10566000000E+00 0. -1.
         -4    1    4    4    0  502 -0.12833568061E+03 -0.31184567693E+03  0.12371335684E+03  0.35919739392E+03  0.00000000000E+00 0. -1.
<mgrwt>
<rscale>  2 0.11079155E+04</rscale>
<asrwt>0</asrwt>
<pdfrwt beam="1">  1       21 0.16778807E+00 0.11145755E+04</pdfrwt>
<pdfrwt beam="2">  1       21 0.17460936E+00 0.11145755E+04</pdfrwt>
<totfact> 0.19942837E+01</totfact>
</mgrwt>
</event>
<event>
 8    1  0.1168507E-005  0.1031748E+04  0.7818608E-02  0.8746213E-01
         21   -1    0    0  501  502  0.00000000000E+00  0.00000000000E+00  0.51927104413E+03  0.51927104413E+03  0.00000000000E+00 0.  1.
         21   -1    0    0  502  503 -0.00000000000E+00 -0.00000000000E+00 -0.21165668017E+04  0.21165668017E+04  0.00000000000E+00 0.  1.
   -9000010    2    1    2    0  503  0.13968739972E+02 -0.20158621508E+03 -0.10471800893E+04  0.14700643644E+04  0.10117662616E+04 0.  0.
    9000010    2    1    2  501    0 -0.13968739972E+02  0.20158621508E+03 -0.55011566830E+03  0.11657734815E+04  0.10077541535E+04 0.  0.
        -13    1    4    4    0    0 -0.44795649136E+03  0.40757995792E+02 -0.38802774615E+01  0.44982363221E+03  0.10566000000E+00 0.  1.
          4    1    4    4  501    0  0.43398775139E+03  0.16082821929E+03 -0.54623539084E+03  0.71594984928E+03  0.00000000000E+00 0.  1.
         13    1    3    3    0    0  0.47901368496E+03 -0.23686313550E+03 -0.37865173934E+03  0.65493160422E+03  0.10566000000E+00 0. -1.
         -4    1    3    3    0  503 -0.46504494499E+03  0.35276920421E+02 -0.66852834996E+03  0.81513276015E+03  0.00000000000E+00 0. -1.
<mgrwt>
<rscale>  2 0.10307627E+04</rscale>
<asrwt>0</asrwt>
<pdfrwt beam="1">  1       21 0.79887854E-01 0.10317476E+04</pdfrwt>
<pdfrwt beam="2">  1       21 0.32562566E+00 0.10317476E+04</pdfrwt>
<totfact> 0.12330094E+01</totfact>
</mgrwt>
</event>
<event>
 8    1  0.1168507E-005  0.1065860E+04  0.7818608E-02  0.8715891E-01
         21   -1    0    0  501  502  0.00000000000E+00  0.00000000000E+00  0.92708309847E+03  0.92708309847E+03  0.00000000000E+00 0. -1.
         21   -1    0    0  502  503 -0.00000000000E+00 -0.00000000000E+00 -0.12283884515E+04  0.12283884515E+04  0.00000000000E+00 0. -1.
   -9000010    2    1    2    0  503  0.29452235954E+03  0.17101586014E+03 -0.66876238215E+02  0.10641355969E+04  0.10059434839E+04 0.  0.
    9000010    2    1    2  501    0 -0.29452235954E+03 -0.17101586014E+03 -0.23442911486E+03  0.10913359531E+04  0.10099838156E+04 0.  0.
        -13    1    4    4    0    0 -0.56758708412E+02 -0.19061470777E+03 -0.61266987756E+03  0.64414276976E+03  0.10566000000E+00 0.  1.
          4    1    4    4  501    0 -0.23776365113E+03  0.19598847637E+02  0.37824076270E+03  0.44719318330E+03  0.00000000000E+00 0.  1.
         13    1    3    3    0    0  0.66980989954E+03  0.92092276983E+02 -0.80907838568E+01  0.67615956767E+03  0.10566000000E+00 0. -1.
         -4    1    3    3    0  503 -0.37528753999E+03  0.78923583152E+02 -0.58785454359E+02  0.38797602928E+03  0.00000000000E+00 0. -1.
<mgrwt>
<rscale>  2 0.10649016E+04</rscale>
<asrwt>0</asrwt>
<pdfrwt beam="1">  1       21 0.14262817E+00 0.10658598E+04</pdfrwt>
<pdfrwt beam="2">  1       21 0.18898284E+00 0.10658598E+04</pdfrwt>
<totfact> 0.25605733E+01</totfact>
</mgrwt>
</event>
<event>
 8    1  0.1168507E-005  0.1157890E+04  0.7818608E-02  0.8647233E-01
         21   -1    0    0  501  502  0.00000000000E+00  0.00000000000E+00  0.14775301273E+04  0.14775301273E+04  0.00000000000E+00 0. -1.
         21   -1    0    0  502  503 -0.00000000000E+00 -0.00000000000E+00 -0.88670720336E+03  0.88670720336E+03  0.00000000000E+00 0. -1.
   -9000010    2    1    2    0  503  0.11713671651E+03 -0.46428101819E+03  0.15637029168E+03  0.11275249943E+04  0.10087532258E+04 0.  0.
    9000010    2    1    2  501    0 -0.11713671651E+03  0.46428101819E+03  0.43445263231E+03  0.12367123364E+04  0.10542440130E+04 0.  0.
        -13    1    4    4    0    0  0.60453817388E+02  0.76088772370E+03  0.12642587564E+03  0.77368488760E+03  0.10566000000E+00 0.  1.
          4    1    4    4  501    0 -0.17759053390E+03 -0.29660670551E+03  0.30802675668E+03  0.46302744876E+03  0.00000000000E+00 0.  1.
         13    1    3    3    0    0  0.33514479786E+02 -0.72147774829E+03 -0.12974685991E+03  0.73381715738E+03  0.10566000000E+00 0. -1.
         -4    1    3    3    0  503  0.83622236724E+02  0.25719673010E+03  0.28611715159E+03  0.39370783696E+03  0.00000000000E+00 0. -1.
<mgrwt>
<rscale>  2 0.11474337E+04</rscale>
<asrwt>0</asrwt>
<pdfrwt beam="1">  1       21 0.22731233E+00 0.11578896E+04</pdfrwt>
<pdfrwt beam="2">  1       21 0.13641649E+00 0.11578896E+04</pdfrwt>
<totfact> 0.14526351E+01</totfact>
</mgrwt>
</event>
<event>
 8    1  0.1269188E-005  0.1028021E+04  0.7818608E-02  0.8785721E-01
         21   -1    0    0  503  502  0.00000000000E+00  0.00000000000E+00  0.19823172636E+04  0.19823172636E+04  0.00000000000E+00 0.  1.
         21   -1    0    0  501  503 -0.00000000000E+00 -0.00000000000E+00 -0.45814070615E+03  0.45814070615E+03  0.00000000000E+00 0.  1.
    9000010    2    1    2  501    0 -0.19914397555E+03  0.20513060298E+03  0.83141361906E+03  0.13221480133E+04  0.98746639223E+03 0.  0.
   -9000010    2    1    2    0  502  0.19914397555E+03 -0.20513060298E+03  0.69276293839E+03  0.11183099565E+04  0.83003601287E+03 0.  0.
        -13    1    3    3    0    0 -0.39521047779E+03 -0.23614790401E+03  0.67015213031E+03  0.81305660519E+03  0.10566000000E+00 0.  1.
          4    1    3    3  501    0  0.19606650225E+03  0.44127850699E+03  0.16126148875E+03  0.50909140809E+03  0.00000000000E+00 0.  1.
         13    1    4    4    0    0  0.15200035312E+03  0.25963563288E+03  0.23014228319E+02  0.30173570402E+03  0.10566000000E+00 0. -1.
         -4    1    4    4    0  502  0.47143622422E+02 -0.46476623586E+03  0.66974871007E+03  0.81657425246E+03  0.00000000000E+00 0. -1.
<mgrwt>
<rscale>  2 0.98823871E+03</rscale>
<asrwt>0</asrwt>
<pdfrwt beam="1">  1       21 0.30497188E+00 0.10280208E+04</pdfrwt>
<pdfrwt beam="2">  1       21 0.70483187E-01 0.10280208E+04</pdfrwt>
<totfact> 0.23293734E+01</totfact>
</mgrwt>
</event>
<event>
 8    1  0.1168507E-005  0.1026038E+04  0.7818608E-02  0.8750561E-01
         21   -1    0    0  503  502  0.00000000000E+00  0.00000000000E+00  0.43677837920E+03  0.43677837920E+03  0.00000000000E+00 0.  1.
         21   -1    0    0  501  503 -0.00000000000E+00 -0.00000000000E+00 -0.25514729046E+04  0.25514729046E+04  0.00000000000E+00 0.  1.
    9000010    2    1    2  501    0  0.19339961778E+03 -0.86313651819E+02 -0.70500495167E+03  0.12446981166E+04  0.10036871828E+04 0.  0.
   -9000010    2    1    2    0  502 -0.19339961778E+03  0.86313651819E+02 -0.14096895737E+04  0.17435531672E+04  0.10039419774E+04 0.  0.
        -13    1    3    3    0    0  0.59026417609E+03  0.59718694065E+02 -0.32660735318E+03  0.67723739879E+03  0.10566000000E+00 0.  1.
          4    1    3    3  501    0 -0.39686455831E+03 -0.14603234588E+03 -0.37839759849E+03  0.56746071779E+03  0.00000000000E+00 0.  1.
         13    1    4    4    0    0  0.40984162600E+03  0.28786502286E+02 -0.68640982763E+03  0.79997330190E+03  0.10566000000E+00 0. -1.
         -4    1    4    4    0  502 -0.60324124378E+03  0.57527149534E+02 -0.72327974605E+03  0.94357986529E+03  0.00000000000E+00 0. -1.
<mgrwt>
<rscale>  2 0.10259752E+04</rscale>
<asrwt>0</asrwt>
<pdfrwt beam="1">  1       21 0.67196674E-01 0.10260375E+04</pdfrwt>
<pdfrwt beam="2">  1       21 0.39253429E+00 0.10260375E+04</pdfrwt>
<totfact> 0.63390937E+00</totfact>
</mgrwt>
</event>
<event>
 8    1  0.1168507E-005  0.1170153E+04  0.7818608E-02  0.8639877E-01
         21   -1    0    0  501  502  0.00000000000E+00  0.00000000000E+00  0.12699801929E+04  0.12699801929E+04  0.00000000000E+00 0. -1.
         21   -1    0    0  502  503 -0.00000000000E+00 -0.00000000000E+00 -0.10811219673E+04  0.10811219673E+04  0.00000000000E+00 0. -1.
   -9000010    2    1    2    0  503 -0.48033437750E+03 -0.41569020903E+03  0.34767452239E+03  0.11702210224E+04  0.91924980485E+03 0.  0.
    9000010    2    1    2  501    0  0.48033437750E+03  0.41569020903E+03 -0.15881629681E+03  0.11808811378E+04  0.98271978782E+03 0.  0.
        -13    1    4    4    0    0  0.70164838452E+03  0.56426221842E+03 -0.85599423387E+02  0.90444987649E+03  0.10566000000E+00 0.  1.
          4    1    4    4  501    0 -0.22131400701E+03 -0.14857200938E+03 -0.73216873419E+02  0.27643126131E+03  0.00000000000E+00 0.  1.
         13    1    3    3    0    0  0.16925879734E+03 -0.42148967876E+03  0.23327156632E+03  0.51060525320E+03  0.10566000000E+00 0. -1.
         -4    1    3    3    0  503 -0.64959317484E+03  0.57994697271E+01  0.11440295607E+03  0.65961576923E+03  0.00000000000E+00 0. -1.
<mgrwt>
<rscale>  2 0.11567306E+04</rscale>
<asrwt>0</asrwt>
<pdfrwt beam="1">  1       21 0.19538157E+00 0.11701528E+04</pdfrwt>
<pdfrwt beam="2">  1       21 0.16632646E+00 0.11701528E+04</pdfrwt>
<totfact> 0.13779786E+01</totfact>
</mgrwt>
</event>
<event>
 8    1  0.1168507E-005  0.1203036E+04  0.7818608E-02  0.8606111E-01
         21   -1    0    0  503  502  0.00000000000E+00  0.00000000000E+00  0.16519540984E+04  0.16519540984E+04  0.00000000000E+00 0. -1.
         21   -1    0    0  501  503 -0.00000000000E+00 -0.00000000000E+00 -0.96244295039E+03  0.96244295039E+03  0.00000000000E+00 0. -1.
    9000010    2    1    2  501    0  0.20372982196E+03 -0.62930515001E+03 -0.61183305953E+02  0.12045903610E+04  0.10048700059E+04 0.  0.
   -9000010    2    1    2    0  502 -0.20372982196E+03  0.62930515001E+03  0.75069445395E+03  0.14098066877E+04  0.99321796267E+03 0.  0.
        -13    1    3    3    0    0 -0.30654326488E+03 -0.49046561911E+03  0.20361302752E+03  0.61317499371E+03  0.10566000000E+00 0.  1.
          4    1    3    3  501    0  0.51027308685E+03 -0.13883953090E+03 -0.26479633347E+03  0.59141536734E+03  0.00000000000E+00 0.  1.
         13    1    4    4    0    0 -0.30744465137E+03  0.68539359045E+03  0.11101252175E+03  0.75934865420E+03  0.10566000000E+00 0. -1.
         -4    1    4    4    0  502  0.10371482941E+03 -0.56088440440E+02  0.63968193220E+03  0.65045803352E+03  0.00000000000E+00 0. -1.
<mgrwt>
<rscale>  2 0.12005993E+04</rscale>
<asrwt>0</asrwt>
<pdfrwt beam="1">  1       21 0.25414678E+00 0.12030356E+04</pdfrwt>
<pdfrwt beam="2">  1       21 0.14806815E+00 0.12030356E+04</pdfrwt>
<totfact> 0.71366774E+00</totfact>
</mgrwt>
</event>
<event>
 8    1  0.1168507E-005  0.1230230E+04  0.7818608E-02  0.8607570E-01
         21   -1    0    0  501  502  0.00000000000E+00  0.00000000000E+00  0.10526491542E+04  0.10526491542E+04  0.00000000000E+00 0. -1.
         21   -1    0    0  502  503 -0.00000000000E+00 -0.00000000000E+00 -0.16154920493E+04  0.16154920493E+04  0.00000000000E+00 0. -1.
   -9000010    2    1    2    0  503 -0.54945383536E+02  0.47766884693E+03 -0.88275278224E+03  0.15141726949E+04  0.11323780080E+04 0.  0.
    9000010    2    1    2  501    0  0.54945383536E+02 -0.47766884693E+03  0.31990988714E+03  0.11539685086E+04  0.99905678541E+03 0.  0.
        -13    1    4    4    0    0  0.28621480942E+03 -0.17824553974E+03 -0.28432661319E+03  0.44105784620E+03  0.10566000000E+00 0.  1.
          4    1    4    4  501    0 -0.23126942588E+03 -0.29942330719E+03  0.60423650033E+03  0.71291066240E+03  0.00000000000E+00 0.  1.
         13    1    3    3    0    0 -0.19112472361E+03 -0.31205919474E+03 -0.51666858518E+03  0.63313192865E+03  0.10566000000E+00 0. -1.
         -4    1    3    3    0  503  0.13617934008E+03  0.78972804167E+03 -0.36608419707E+03  0.88104076626E+03  0.00000000000E+00 0. -1.
<mgrwt>
<rscale>  2 0.11986629E+04</rscale>
<asrwt>0</asrwt>
<pdfrwt beam="1">  1       21 0.16194602E+00 0.12302303E+04</pdfrwt>
<pdfrwt beam="2">  1       21 0.24853724E+00 0.12302303E+04</pdfrwt>
<totfact> 0.58852620E+00</totfact>
</mgrwt>
</event>
<event>
 8    1  0.1168507E-005  0.1136790E+04  0.7818608E-02  0.8659844E-01
         21   -1    0    0  503  502  0.00000000000E+00  0.00000000000E+00  0.78082093689E+03  0.78082093689E+03  0.00000000000E+00 0. -1.
         21   -1    0    0  501  503 -0.00000000000E+00 -0.00000000000E+00 -0.16264514624E+04  0.16264514624E+04  0.00000000000E+00 0. -1.
    9000010    2    1    2  501    0 -0.21346321649E+03 -0.45117517566E+03 -0.45143913915E+03  0.12231472924E+04  0.10213551872E+04 0.  0.
   -9000010    2    1    2    0  502  0.21346321649E+03  0.45117517566E+03 -0.39419138641E+03  0.11841251070E+04  0.99881922085E+03 0.  0.
        -13    1    3    3    0    0 -0.20807452800E+03 -0.29685775118E+03  0.29097185830E+03  0.46484854213E+03  0.10566000000E+00 0.  1.
          4    1    3    3  501    0 -0.53886884914E+01 -0.15431742448E+03 -0.74241099744E+03  0.75829875022E+03  0.00000000000E+00 0.  1.
         13    1    4    4    0    0  0.28146866766E+03  0.12434326174E+03  0.29000304943E+03  0.42283287178E+03  0.10566000000E+00 0. -1.
         -4    1    4    4    0  502 -0.68005451176E+02  0.32683191392E+03 -0.68419443584E+03  0.76129223520E+03  0.00000000000E+00 0. -1.
<mgrwt>
<rscale>  2 0.11317053E+04</rscale>
<asrwt>0</asrwt>
<pdfrwt beam="1">  1       21 0.12012630E+00 0.11367902E+04</pdfrwt>
<pdfrwt beam="2">  1       21 0.25022330E+00 0.11367902E+04</pdfrwt>
<totfact> 0.14260216E+01</totfact>
</mgrwt>
</event>
<event>
 8    1  0.1168507E-005  0.1063389E+04  0.7818608E-02  0.8718303E-01
         21   -1    0    0  503  502  0.00000000000E+00  0.00000000000E+00  0.13502041492E+04  0.13502041492E+04  0.00000000000E+00 0.  1.
         21   -1    0    0  501  503 -0.00000000000E+00 -0.00000000000E+00 -0.94528633921E+03  0.94528633921E+03  0.00000000000E+00 0.  1.
    9000010    2    1    2  501    0 -0.31768991252E+03  0.59648978488E+02 -0.19169552952E+03  0.10805292432E+04  0.10130702780E+04 0.  0.
   -9000010    2    1    2    0  502  0.31768991252E+03 -0.59648978488E+02  0.59661333953E+03  0.12149612452E+04  0.10078186689E+04 0.  0.
        -13    1    3    3    0    0 -0.25432197925E+03  0.46262413388E+03  0.14954475919E+03  0.54869336112E+03  0.10566000000E+00 0.  1.
          4    1    3    3  501    0 -0.63367933273E+02 -0.40297515539E+03 -0.34124028871E+03  0.53183588208E+03  0.00000000000E+00 0.  1.
         13    1    4    4    0    0  0.26352552712E+03 -0.43427751139E+03  0.65823520878E+03  0.83145430517E+03  0.10566000000E+00 0. -1.
         -4    1    4    4    0  502  0.54164385405E+02  0.37462853290E+03 -0.61621869241E+02  0.38350694007E+03  0.00000000000E+00 0. -1.
<mgrwt>
<rscale>  2 0.10621364E+04</rscale>
<asrwt>0</asrwt>
<pdfrwt beam="1">  1       21 0.20772371E+00 0.10633890E+04</pdfrwt>
<pdfrwt beam="2">  1       21 0.14542867E+00 0.10633890E+04</pdfrwt>
<totfact> 0.17228232E+01</totfact>
</mgrwt>
</event>
<event>
 8    1  0.1168507E-005  0.1174251E+04  0.7818608E-02  0.8627203E-01
         21   -1    0    0  503  502  0.00000000000E+00  0.00000000000E+00  0.12423643055E+04  0.12423643055E+04  0.00000000000E+00 0. -1.
         21   -1    0    0  501  503 -0.00000000000E+00 -0.00000000000E+00 -0.11329324507E+04  0.11329324507E+04  0.00000000000E+00 0.  1.
    9000010    2    1    2  501    0  0.57656826359E+03 -0.21108317458E+03 -0.13157761356E+03  0.11816000414E+04  0.10009390193E+04 0.  0.
   -9000010    2    1    2    0  502 -0.57656826359E+03  0.21108317458E+03  0.24100946842E+03  0.11936967148E+04  0.99490663571E+03 0.  0.
        -13    1    3    3    0    0  0.86441097595E+03 -0.12459728502E+03 -0.11049303996E+03  0.88030650448E+03  0.10566000000E+00 0.  1.
          4    1    3    3  501    0 -0.28784271237E+03 -0.86485889560E+02 -0.21084573600E+02  0.30129353694E+03  0.00000000000E+00 0.  1.
         13    1    4    4    0    0 -0.62198143940E+03  0.24979002174E+03  0.55738578651E+03  0.87174244595E+03  0.10566000000E+00 0. -1.
         -4    1    4    4    0  502  0.45413175809E+02 -0.38706847164E+02 -0.31637631808E+03  0.32195426880E+03  0.00000000000E+00 0. -1.
<mgrwt>
<rscale>  2 0.11729647E+04</rscale>
<asrwt>0</asrwt>
<pdfrwt beam="1">  1       21 0.19113297E+00 0.11742512E+04</pdfrwt>
<pdfrwt beam="2">  1       21 0.17429730E+00 0.11742512E+04</pdfrwt>
<totfact> 0.12754056E+01</totfact>
</mgrwt>
</event>
<event>
 8    1  0.1168507E-005  0.1213161E+04  0.7818608E-02  0.8611421E-01
         21   -1    0    0  503  502  0.00000000000E+00  0.00000000000E+00  0.19455325576E+04  0.19455325576E+04  0.00000000000E+00 0. -1.
         21   -1    0    0  501  503 -0.00000000000E+00 -0.00000000000E+00 -0.74465572723E+03  0.74465572723E+03  0.00000000000E+00 0.  1.
    9000010    2    1    2  501    0  0.68124372156E+03  0.11496920169E+03  0.32710431552E+03  0.12564857097E+04  0.99722022642E+03 0.  0.
   -9000010    2    1    2    0  502 -0.68124372156E+03 -0.11496920169E+03  0.87377251482E+03  0.14337025751E+04  0.90261494593E+03 0.  0.
        -13    1    3    3    0    0 -0.14783625956E+03  0.12005978734E+02 -0.21453867571E+03  0.26081901331E+03  0.10566000000E+00 0.  1.
          4    1    3    3  501    0  0.82907998112E+03  0.10296322296E+03  0.54164299123E+03  0.99566669640E+03  0.00000000000E+00 0.  1.
         13    1    4    4    0    0 -0.87133892735E+02 -0.31237699986E+03 -0.39239533932E+02  0.32666719684E+03  0.10566000000E+00 0. -1.
         -4    1    4    4    0  502 -0.59410982883E+03  0.19740779817E+03  0.91301204876E+03  0.11070353782E+04  0.00000000000E+00 0. -1.
<mgrwt>
<rscale>  2 0.11935693E+04</rscale>
<asrwt>0</asrwt>
<pdfrwt beam="1">  1       21 0.29931270E+00 0.12131608E+04</pdfrwt>
<pdfrwt beam="2">  1       21 0.11456242E+00 0.12131608E+04</pdfrwt>
<totfact> 0.71275168E+00</totfact>
</mgrwt>
</event>
<event>
 8    1  0.1168507E-005  0.1028672E+04  0.7818608E-02  0.8751937E-01
         21   -1    0    0  503  502  0.00000000000E+00  0.00000000000E+00  0.58142372877E+03  0.58142372877E+03  0.00000000000E+00 0.  1.
         21   -1    0    0  501  503 -0.00000000000E+00 -0.00000000000E+00 -0.17906007940E+04  0.17906007940E+04  0.00000000000E+00 0.  1.
    9000010    2    1    2  501    0  0.22343573240E+03 -0.91860644098E+02 -0.61875663762E+03  0.12004276645E+04  0.99990244361E+03 0.  0.
   -9000010    2    1    2    0  502 -0.22343573240E+03  0.91860644098E+02 -0.59042042765E+03  0.11715968583E+04  0.98269070031E+03 0.  0.
        -13    1    3    3    0    0 -0.26449505177E+03  0.29638927693E+03 -0.31415562196E+03  0.50645631782E+03  0.10566000000E+00 0.  1.
          4    1    3    3  501    0  0.48793078417E+03 -0.38824992103E+03 -0.30460101566E+03  0.69397134671E+03  0.00000000000E+00 0.  1.
         13    1    4    4    0    0 -0.16068367236E+03 -0.83731129655E+02  0.25110985208E+03  0.30965515273E+03  0.10566000000E+00 0. -1.
         -4    1    4    4    0  502 -0.62752060039E+02  0.17559177375E+03 -0.84153027973E+03  0.86194170554E+03  0.00000000000E+00 0. -1.
<mgrwt>
<rscale>  2 0.10244660E+04</rscale>
<asrwt>0</asrwt>
<pdfrwt beam="1">  1       21 0.89449804E-01 0.10286723E+04</pdfrwt>
<pdfrwt beam="2">  1       21 0.27547705E+00 0.10286723E+04</pdfrwt>
<totfact> 0.21018059E+01</totfact>
</mgrwt>
</event>
<event>
 8    1  0.1168507E-005  0.1320654E+04  0.7818608E-02  0.8520936E-01
         21   -1    0    0  501  502  0.00000000000E+00  0.00000000000E+00  0.10373285051E+04  0.10373285051E+04  0.00000000000E+00 0. -1.
         21   -1    0    0  502  503 -0.00000000000E+00 -0.00000000000E+00 -0.16818304476E+04  0.16818304476E+04  0.00000000000E+00 0.  1.
   -9000010    2    1    2    0  503  0.70035594360E+03 -0.48779404991E+03 -0.35676955800E+03  0.13675239454E+04  0.10071721505E+04 0.  0.
    9000010    2    1    2  501    0 -0.70035594360E+03  0.48779404991E+03 -0.28773238446E+03  0.13516350074E+04  0.10078123760E+04 0.  0.
        -13    1    4    4    0    0 -0.78449899021E+03  0.72394488942E+03 -0.20020994666E+03  0.10861026206E+04  0.10566000000E+00 0.  1.
          4    1    4    4  501    0  0.84143046618E+02 -0.23615083951E+03 -0.87522437796E+02  0.26553238675E+03  0.00000000000E+00 0.  1.
         13    1    3    3    0    0  0.32577487502E+03 -0.68722882216E+03 -0.51071195560E+03  0.91610012333E+03  0.10566000000E+00 0. -1.
         -4    1    3    3    0  503  0.37458106857E+03  0.19943477225E+03  0.15394239761E+03  0.45142382203E+03  0.00000000000E+00 0. -1.
<mgrwt>
<rscale>  2 0.13205320E+04</rscale>
<asrwt>0</asrwt>
<pdfrwt beam="1">  1       21 0.15958900E+00 0.13206541E+04</pdfrwt>
<pdfrwt beam="2">  1       21 0.25874314E+00 0.13206541E+04</pdfrwt>
<totfact> 0.51072827E+00</totfact>
</mgrwt>
</event>
<event>
 8    1  0.1168507E-005  0.1337411E+04  0.7818608E-02  0.8510138E-01
         21   -1    0    0  501  502  0.00000000000E+00  0.00000000000E+00  0.59852348570E+03  0.59852348570E+03  0.00000000000E+00 0.  1.
         21   -1    0    0  502  503 -0.00000000000E+00 -0.00000000000E+00 -0.30055339516E+04  0.30055339516E+04  0.00000000000E+00 0. -1.
   -9000010    2    1    2    0  503  0.61194655057E+03 -0.63803993162E+03 -0.10447793058E+04  0.16950416345E+04  0.10000144048E+04 0.  0.
    9000010    2    1    2  501    0 -0.61194655057E+03  0.63803993162E+03 -0.13622311601E+04  0.19090158028E+04  0.10035407648E+04 0.  0.
        -13    1    4    4    0    0 -0.53607258910E+02  0.65634431576E+03 -0.11218597086E+04  0.13008577232E+04  0.10566000000E+00 0.  1.
          4    1    4    4  501    0 -0.55833929166E+03 -0.18304384147E+02 -0.24037145149E+03  0.60815807960E+03  0.00000000000E+00 0.  1.
         13    1    3    3    0    0 -0.34022000153E+02  0.14100120324E+03 -0.54951402822E+03  0.56833486096E+03  0.10566000000E+00 0. -1.
         -4    1    3    3    0  503  0.64596855072E+03 -0.77904113486E+03 -0.49526527756E+03  0.11267067735E+04  0.00000000000E+00 0. -1.
<mgrwt>
<rscale>  2 0.13367493E+04</rscale>
<asrwt>0</asrwt>
<pdfrwt beam="1">  1       21 0.92080538E-01 0.13374108E+04</pdfrwt>
<pdfrwt beam="2">  1       21 0.46238983E+00 0.13374108E+04</pdfrwt>
<totfact> 0.90283894E-01</totfact>
</mgrwt>
</event>
<event>
 8    1  0.1168507E-005  0.1043281E+04  0.7818608E-02  0.8734977E-01
         21   -1    0    0  503  502  0.00000000000E+00  0.00000000000E+00  0.47590464566E+03  0.47590464566E+03  0.00000000000E+00 0.  1.
         21   -1    0    0  501  503 -0.00000000000E+00 -0.00000000000E+00 -0.25927721526E+04  0.25927721526E+04  0.00000000000E+00 0.  1.
    9000010    2    1    2  501    0  0.94914308200E+02 -0.18667263542E+03 -0.53145275541E+03  0.11708444805E+04  0.10220466563E+04 0.  0.
   -9000010    2    1    2    0  502 -0.94914308200E+02  0.18667263542E+03 -0.15854147515E+04  0.18978323177E+04  0.10219452887E+04 0.  0.
        -13    1    3    3    0    0 -0.40184179271E+03 -0.29220872710E+03 -0.10530036553E+03  0.50788871291E+03  0.10566000000E+00 0.  1.
          4    1    3    3  501    0  0.49675610091E+03  0.10553609168E+03 -0.42615238988E+03  0.66295576763E+03  0.00000000000E+00 0.  1.
         13    1    4    4    0    0  0.25388438882E+03 -0.32110353955E+03 -0.46723478814E+03  0.62118686754E+03  0.10566000000E+00 0. -1.
         -4    1    4    4    0  502 -0.34879869702E+03  0.50777617497E+03 -0.11181799633E+04  0.12766454501E+04  0.00000000000E+00 0. -1.
<mgrwt>
<rscale>  2 0.10432559E+04</rscale>
<asrwt>0</asrwt>
<pdfrwt beam="1">  1       21 0.73216100E-01 0.10432808E+04</pdfrwt>
<pdfrwt beam="2">  1       21 0.39888802E+00 0.10432808E+04</pdfrwt>
<totfact> 0.46517546E+00</totfact>
</mgrwt>
</event>
<event>
 8    1  0.1168507E-005  0.9986570E+03  0.7818608E-02  0.8776786E-01
         21   -1    0    0  503  502  0.00000000000E+00  0.00000000000E+00  0.58552941079E+03  0.58552941079E+03  0.00000000000E+00 0. -1.
         21   -1    0    0  501  503 -0.00000000000E+00 -0.00000000000E+00 -0.16974661876E+04  0.16974661876E+04  0.00000000000E+00 0. -1.
    9000010    2    1    2  501    0 -0.10427206324E+03  0.29895278651E+01 -0.52821649244E+03  0.11262565308E+04  0.98922166866E+03 0.  0.
   -9000010    2    1    2    0  502  0.10427206324E+03 -0.29895278651E+01 -0.58372028434E+03  0.11567390676E+04  0.99319398897E+03 0.  0.
        -13    1    3    3    0    0 -0.28606982783E+03 -0.19485020491E+03  0.16452273292E+03  0.38323659736E+03  0.10566000000E+00 0.  1.
          4    1    3    3  501    0  0.18179776459E+03  0.19783973278E+03 -0.69273922536E+03  0.74301993340E+03  0.00000000000E+00 0.  1.
         13    1    4    4    0    0  0.54729008695E+02 -0.43404840515E+03 -0.57531757813E+03  0.72276110111E+03  0.10566000000E+00 0. -1.
         -4    1    4    4    0  502  0.49543054547E+02  0.43105887728E+03 -0.84027062145E+01  0.43397796650E+03  0.00000000000E+00 0. -1.
<mgrwt>
<rscale>  2 0.99766795E+03</rscale>
<asrwt>0</asrwt>
<pdfrwt beam="1">  1       21 0.90081448E-01 0.99865705E+03</pdfrwt>
<pdfrwt beam="2">  1       21 0.26114864E+00 0.99865705E+03</pdfrwt>
<totfact> 0.26328575E+01</totfact>
</mgrwt>
</event>
<event>
 8    1  0.1168507E-005  0.1336444E+04  0.7818608E-02  0.8513698E-01
         21   -1    0    0  503  502  0.00000000000E+00  0.00000000000E+00  0.14686017944E+04  0.14686017944E+04  0.00000000000E+00 0.  1.
         21   -1    0    0  501  503 -0.00000000000E+00 -0.00000000000E+00 -0.12486600024E+04  0.12486600024E+04  0.00000000000E+00 0.  1.
    9000010    2    1    2  501    0 -0.84840209448E+03  0.15615880467E+03 -0.16313646740E+03  0.13463640139E+04  0.10207403513E+04 0.  0.
   -9000010    2    1    2    0  502  0.84840209448E+03 -0.15615880467E+03  0.38307825945E+03  0.13708977829E+04  0.99420324484E+03 0.  0.
        -13    1    3    3    0    0  0.71547127674E+02 -0.15812971071E+03  0.23811540450E+03  0.29465735001E+03  0.10566000000E+00 0.  1.
          4    1    3    3  501    0 -0.91994922216E+03  0.31428851538E+03 -0.40125187190E+03  0.10517066639E+04  0.00000000000E+00 0.  1.
         13    1    4    4    0    0  0.77201265399E+03 -0.10386370195E+03 -0.18063174027E+03  0.79963681960E+03  0.10566000000E+00 0. -1.
         -4    1    4    4    0  502  0.76389440489E+02 -0.52295102714E+02  0.56370999972E+03  0.57126096328E+03  0.00000000000E+00 0. -1.
<mgrwt>
<rscale>  2 0.13313760E+04</rscale>
<asrwt>0</asrwt>
<pdfrwt beam="1">  1       21 0.22593874E+00 0.13364440E+04</pdfrwt>
<pdfrwt beam="2">  1       21 0.19210154E+00 0.13364440E+04</pdfrwt>
<totfact> 0.47697204E+00</totfact>
</mgrwt>
</event>
<event>
 8    1  0.1168507E-005  0.1255195E+04  0.7818608E-02  0.8566989E-01
         21   -1    0    0  503  502  0.00000000000E+00  0.00000000000E+00  0.82275089139E+03  0.82275089139E+03  0.00000000000E+00 0.  1.
         21   -1    0    0  501  503 -0.00000000000E+00 -0.00000000000E+00 -0.19415778307E+04  0.19415778307E+04  0.00000000000E+00 0.  1.
    9000010    2    1    2  501    0  0.25842046958E+03  0.71612976533E+03 -0.37739580196E+03  0.13107032038E+04  0.99794404514E+03 0.  0.
   -9000010    2    1    2    0  502 -0.25842046958E+03 -0.71612976533E+03 -0.74143113733E+03  0.14536255183E+04  0.99180846744E+03 0.  0.
        -13    1    3    3    0    0 -0.22080217944E+03 -0.38811315501E+02 -0.35054371246E+03  0.41610194203E+03  0.10566000000E+00 0.  1.
          4    1    3    3  501    0  0.47922264901E+03  0.75494108083E+03 -0.26852089502E+02  0.89460126177E+03  0.00000000000E+00 0.  1.
         13    1    4    4    0    0  0.26961029400E+03 -0.65414764027E+03 -0.32656911432E+03  0.77926006153E+03  0.10566000000E+00 0. -1.
         -4    1    4    4    0  502 -0.52803076358E+03 -0.61982125053E+02 -0.41486202301E+03  0.67436545674E+03  0.00000000000E+00 0. -1.
<mgrwt>
<rscale>  2 0.12539754E+04</rscale>
<asrwt>0</asrwt>
<pdfrwt beam="1">  1       21 0.12657706E+00 0.12551953E+04</pdfrwt>
<pdfrwt beam="2">  1       21 0.29870428E+00 0.12551953E+04</pdfrwt>
<totfact> 0.53936569E+00</totfact>
</mgrwt>
</event>
<event>
 8    1  0.1168507E-005  0.1126101E+04  0.7818608E-02  0.8665582E-01
         21   -1    0    0  501  502  0.00000000000E+00  0.00000000000E+00  0.20338645056E+04  0.20338645056E+04  0.00000000000E+00 0. -1.
         21   -1    0    0  502  503 -0.00000000000E+00 -0.00000000000E+00 -0.62209374402E+03  0.62209374402E+03  0.00000000000E+00 0. -1.
   -9000010    2    1    2    0  503 -0.22056716529E+03 -0.47092950429E+03  0.77978832769E+03  0.13697350576E+04  0.99883923611E+03 0.  0.
    9000010    2    1    2  501    0  0.22056716529E+03  0.47092950429E+03  0.63198243393E+03  0.12862231921E+04  0.99224182063E+03 0.  0.
        -13    1    4    4    0    0  0.43953830768E+03  0.38025378274E+03 -0.31132209680E+02  0.58202756708E+03  0.10566000000E+00 0.  1.
          4    1    4    4  501    0 -0.21897114239E+03  0.90675721553E+02  0.66311464361E+03  0.70419562499E+03  0.00000000000E+00 0.  1.
         13    1    3    3    0    0  0.13159187013E+03 -0.12159757979E+03  0.85007063103E+03  0.86874765071E+03  0.10566000000E+00 0. -1.
         -4    1    3    3    0  503 -0.35215903542E+03 -0.34933192450E+03 -0.70282303345E+02  0.50098740689E+03  0.00000000000E+00 0. -1.
<mgrwt>
<rscale>  2 0.11246366E+04</rscale>
<asrwt>0</asrwt>
<pdfrwt beam="1">  1       21 0.31290223E+00 0.11261014E+04</pdfrwt>
<pdfrwt beam="2">  1       21 0.95706730E-01 0.11261014E+04</pdfrwt>
<totfact> 0.93974069E+00</totfact>
</mgrwt>
</event>
<event>
 8    1  0.1168507E-005  0.1132599E+04  0.7818608E-02  0.8659498E-01
         21   -1    0    0  501  502  0.00000000000E+00  0.00000000000E+00  0.25152187239E+04  0.25152187239E+04  0.00000000000E+00 0. -1.
         21   -1    0    0  502  503 -0.00000000000E+00 -0.00000000000E+00 -0.79285755475E+03  0.79285755475E+03  0.00000000000E+00 0. -1.
   -9000010    2    1    2    0  503 -0.52113411495E+03 -0.10805239237E+03 -0.12775654524E+03  0.11397812269E+04  0.99976168414E+03 0.  0.
    9000010    2    1    2  501    0  0.52113411495E+03  0.10805239237E+03  0.18501177143E+04  0.21682950517E+04  0.99765314066E+03 0.  0.
        -13    1    4    4    0    0  0.67860660438E+03  0.15433042242E+03  0.63486187431E+03  0.94200552727E+03  0.10566000000E+00 0.  1.
          4    1    4    4  501    0 -0.15747248943E+03 -0.46278030057E+02  0.12152558400E+04  0.12262895244E+04  0.00000000000E+00 0.  1.
         13    1    3    3    0    0 -0.61926172757E+02 -0.21254612289E+03  0.38466171538E+03  0.44381905285E+03  0.10566000000E+00 0. -1.
         -4    1    3    3    0  503 -0.45920794220E+03  0.10449373052E+03 -0.51241826062E+03  0.69596217405E+03  0.00000000000E+00 0. -1.
<mgrwt>
<rscale>  2 0.11321331E+04</rscale>
<asrwt>0</asrwt>
<pdfrwt beam="1">  1       21 0.38695672E+00 0.11325986E+04</pdfrwt>
<pdfrwt beam="2">  1       21 0.12197809E+00 0.11325986E+04</pdfrwt>
<totfact> 0.14746958E+00</totfact>
</mgrwt>
</event>
<event>
 8    1  0.1168507E-005  0.1138283E+04  0.7818608E-02  0.8656705E-01
         21   -1    0    0  503  502  0.00000000000E+00  0.00000000000E+00  0.58694294521E+03  0.58694294521E+03  0.00000000000E+00 0.  1.
         21   -1    0    0  501  503 -0.00000000000E+00 -0.00000000000E+00 -0.21893881558E+04  0.21893881558E+04  0.00000000000E+00 0.  1.
    9000010    2    1    2  501    0  0.54097300213E+03 -0.11484905614E+03 -0.84516481996E+03  0.14091584610E+04  0.98264027015E+03 0.  0.
   -9000010    2    1    2    0  502 -0.54097300213E+03  0.11484905614E+03 -0.75728039065E+03  0.13671726400E+04  0.99490971596E+03 0.  0.
        -13    1    3    3    0    0  0.39234283791E+03 -0.47037983934E+03 -0.81928045847E+03  0.10229421179E+04  0.10566000000E+00 0.  1.
          4    1    3    3  501    0  0.14863016422E+03  0.35553078320E+03 -0.25884361493E+02  0.38621634312E+03  0.00000000000E+00 0.  1.
         13    1    4    4    0    0 -0.66621357459E+03  0.34340374106E+03 -0.80752448414E+03  0.11017542648E+04  0.10566000000E+00 0. -1.
         -4    1    4    4    0  502  0.12524057247E+03 -0.22855468492E+03  0.50244093491E+02  0.26541837525E+03  0.00000000000E+00 0. -1.
<mgrwt>
<rscale>  2 0.11355961E+04</rscale>
<asrwt>0</asrwt>
<pdfrwt beam="1">  1       21 0.90298914E-01 0.11382827E+04</pdfrwt>
<pdfrwt beam="2">  1       21 0.33682895E+00 0.11382827E+04</pdfrwt>
<totfact> 0.73860274E+00</totfact>
</mgrwt>
</event>
<event>
 8    1  0.1168507E-005  0.1075527E+04  0.7818608E-02  0.8765209E-01
         21   -1    0    0  503  502  0.00000000000E+00  0.00000000000E+00  0.59480903650E+03  0.59480903650E+03  0.00000000000E+00 0. -1.
         21   -1    0    0  501  503 -0.00000000000E+00 -0.00000000000E+00 -0.16562717580E+04  0.16562717580E+04  0.00000000000E+00 0. -1.
    9000010    2    1    2  501    0  0.42379040373E+00  0.38800317171E+03 -0.89252246930E+03  0.13976247671E+04  0.10031011867E+04 0.  0.
   -9000010    2    1    2    0  502 -0.42379040373E+00 -0.38800317171E+03 -0.16894025218E+03  0.85345602733E+03  0.74114758377E+03 0.  0.
        -13    1    3    3    0    0 -0.13027839971E+03 -0.31372264384E+03 -0.16227629733E+03  0.37646774965E+03  0.10566000000E+00 0.  1.
          4    1    3    3  501    0  0.13070219011E+03  0.70172581555E+03 -0.73024617197E+03  0.10211570175E+04  0.00000000000E+00 0.  1.
         13    1    4    4    0    0  0.26990463800E+03 -0.25801446599E+03 -0.34268992253E+03  0.50680999639E+03  0.10566000000E+00 0. -1.
         -4    1    4    4    0  502 -0.27032842840E+03 -0.12998870573E+03  0.17374967035E+03  0.34664603094E+03  0.00000000000E+00 0. -1.
<mgrwt>
<rscale>  2 0.10100465E+04</rscale>
<asrwt>0</asrwt>
<pdfrwt beam="1">  1       21 0.91509082E-01 0.10755271E+04</pdfrwt>
<pdfrwt beam="2">  1       21 0.25481104E+00 0.10755271E+04</pdfrwt>
<totfact> 0.27632660E+01</totfact>
</mgrwt>
</event>
<event>
 8    1  0.1168507E-005  0.1210439E+04  0.7818608E-02  0.8608153E-01
         21   -1    0    0  501  502  0.00000000000E+00  0.00000000000E+00  0.16716976210E+04  0.16716976210E+04  0.00000000000E+00 0. -1.
         21   -1    0    0  502  503 -0.00000000000E+00 -0.00000000000E+00 -0.84366697018E+03  0.84366697018E+03  0.00000000000E+00 0. -1.
   -9000010    2    1    2    0  503 -0.47690012352E+03 -0.31736702083E+03  0.47566681784E+03  0.12546807111E+04  0.10098560350E+04 0.  0.
    9000010    2    1    2  501    0  0.47690012352E+03  0.31736702083E+03  0.35236383301E+03  0.12606838801E+04  0.10663057822E+04 0.  0.
        -13    1    4    4    0    0 -0.28898794889E+03  0.29673192291E+02 -0.12187144555E+03  0.31503522557E+03  0.10566000000E+00 0.  1.
          4    1    4    4  501    0  0.76588807241E+03  0.28769382854E+03  0.47423527856E+03  0.94564865456E+03  0.00000000000E+00 0.  1.
         13    1    3    3    0    0 -0.58477081854E+03 -0.10789657474E+03 -0.12659791379E+03  0.60796843997E+03  0.10566000000E+00 0. -1.
         -4    1    3    3    0  503  0.10787069502E+03 -0.20947044608E+03  0.60226473163E+03  0.64671227110E+03  0.00000000000E+00 0. -1.
<mgrwt>
<rscale>  2 0.11978905E+04</rscale>
<asrwt>0</asrwt>
<pdfrwt beam="1">  1       21 0.25718425E+00 0.12104394E+04</pdfrwt>
<pdfrwt beam="2">  1       21 0.12979492E+00 0.12104394E+04</pdfrwt>
<totfact> 0.10028500E+01</totfact>
</mgrwt>
</event>
<event>
 8    1  0.1168507E-005  0.1164774E+04  0.7818608E-02  0.8634079E-01
         21   -1    0    0  501  502  0.00000000000E+00  0.00000000000E+00  0.21661905918E+04  0.21661905918E+04  0.00000000000E+00 0.  1.
         21   -1    0    0  502  503 -0.00000000000E+00 -0.00000000000E+00 -0.63815792442E+03  0.63815792442E+03  0.00000000000E+00 0.  1.
   -9000010    2    1    2    0  503  0.58767692283E+03  0.10197309793E+03  0.56282047397E+03  0.12936248005E+04  0.10004676708E+04 0.  0.
    9000010    2    1    2  501    0 -0.58767692283E+03 -0.10197309793E+03  0.96521219338E+03  0.15107237156E+04  0.99744117041E+03 0.  0.
        -13    1    4    4    0    0  0.69944894812E+02  0.12921893677E+03 -0.14071055389E+03  0.20344358695E+03  0.10566000000E+00 0.  1.
          4    1    4    4  501    0 -0.65762181764E+03 -0.23119203470E+03  0.11059227473E+04  0.13072801287E+04  0.00000000000E+00 0.  1.
         13    1    3    3    0    0  0.72680114957E+03 -0.26397709527E+03  0.37054731505E+03  0.85745503771E+03  0.10566000000E+00 0. -1.
         -4    1    3    3    0  503 -0.13912422673E+03  0.36595019320E+03  0.19227315891E+03  0.43616976283E+03  0.00000000000E+00 0. -1.
<mgrwt>
<rscale>  2 0.11641237E+04</rscale>
<asrwt>0</asrwt>
<pdfrwt beam="1">  1       21 0.33326009E+00 0.11647739E+04</pdfrwt>
<pdfrwt beam="2">  1       21 0.98178143E-01 0.11647739E+04</pdfrwt>
<totfact> 0.62778181E+00</totfact>
</mgrwt>
</event>
<event>
 8    1  0.1168507E-005  0.1045273E+04  0.7818608E-02  0.8742636E-01
         21   -1    0    0  503  502  0.00000000000E+00  0.00000000000E+00  0.64151935813E+03  0.64151935813E+03  0.00000000000E+00 0. -1.
         21   -1    0    0  501  503 -0.00000000000E+00 -0.00000000000E+00 -0.21006195054E+04  0.21006195054E+04  0.00000000000E+00 0. -1.
    9000010    2    1    2  501    0  0.14844359584E+03  0.27760118318E+03 -0.13626829078E+04  0.16924287414E+04  0.95305425839E+03 0.  0.
   -9000010    2    1    2    0  502 -0.14844359584E+03 -0.27760118318E+03 -0.96417239492E+02  0.10497101221E+04  0.99674326605E+03 0.  0.
        -13    1    3    3    0    0 -0.38021198928E+03 -0.42739919699E+02 -0.58498083450E+03  0.69899245019E+03  0.10566000000E+00 0.  1.
          4    1    3    3  501    0  0.52865558512E+03  0.32034110287E+03 -0.77770207327E+03  0.99343629118E+03  0.00000000000E+00 0.  1.
         13    1    4    4    0    0  0.28286658050E+03  0.23589059040E+03  0.20973741726E+02  0.36891432882E+03  0.10566000000E+00 0. -1.
         -4    1    4    4    0  502 -0.43131017633E+03 -0.51349177358E+03 -0.11739098122E+03  0.68079579333E+03  0.00000000000E+00 0. -1.
<mgrwt>
<rscale>  2 0.10347204E+04</rscale>
<asrwt>0</asrwt>
<pdfrwt beam="1">  1       21 0.98695285E-01 0.10452727E+04</pdfrwt>
<pdfrwt beam="2">  1       21 0.32317224E+00 0.10452727E+04</pdfrwt>
<totfact> 0.74837944E+00</totfact>
</mgrwt>
</event>
<event>
 8    1  0.1168507E-005  0.1330329E+04  0.7818608E-02  0.8522909E-01
         21   -1    0    0  501  502  0.00000000000E+00  0.00000000000E+00  0.26778025863E+04  0.26778025863E+04  0.00000000000E+00 0.  1.
         21   -1    0    0  502  503 -0.00000000000E+00 -0.00000000000E+00 -0.70908809726E+03  0.70908809726E+03  0.00000000000E+00 0.  1.
   -9000010    2    1    2    0  503  0.68328673273E+03 -0.53253446170E+03  0.45848343996E+03  0.14071180119E+04  0.10096040425E+04 0.  0.
    9000010    2    1    2  501    0 -0.68328673273E+03  0.53253446170E+03  0.15102310490E+04  0.19797726716E+04  0.94245864515E+03 0.  0.
        -13    1    4    4    0    0 -0.59218988115E+03  0.40537495308E+03  0.16311640365E+04  0.17820532632E+04  0.10566000000E+00 0.  1.
          4    1    4    4  501    0 -0.91096851581E+02  0.12715950862E+03 -0.12093298745E+03  0.19771940839E+03  0.00000000000E+00 0.  1.
         13    1    3    3    0    0  0.54196892430E+03 -0.79989629042E+03  0.52186081155E+03  0.10981361974E+04  0.10566000000E+00 0. -1.
         -4    1    3    3    0  503  0.14131780843E+03  0.26736182872E+03 -0.63377371586E+02  0.30898181446E+03  0.00000000000E+00 0. -1.
<mgrwt>
<rscale>  2 0.13175942E+04</rscale>
<asrwt>0</asrwt>
<pdfrwt beam="1">  1       21 0.41196962E+00 0.13303285E+04</pdfrwt>
<pdfrwt beam="2">  1       21 0.10909048E+00 0.13303285E+04</pdfrwt>
<totfact> 0.12938088E+00</totfact>
</mgrwt>
</event>
<event>
 8    1  0.1168507E-005  0.1057918E+04  0.7818608E-02  0.8732156E-01
         21   -1    0    0  503  502  0.00000000000E+00  0.00000000000E+00  0.26093705636E+04  0.26093705636E+04  0.00000000000E+00 0.  1.
         21   -1    0    0  501  503 -0.00000000000E+00 -0.00000000000E+00 -0.41287142579E+03  0.41287142579E+03  0.00000000000E+00 0.  1.
    9000010    2    1    2  501    0  0.22057987342E+03  0.22329248715E+03  0.10142241221E+04  0.14655515345E+04  0.10102849673E+04 0.  0.
   -9000010    2    1    2    0  502 -0.22057987342E+03 -0.22329248715E+03  0.11822750157E+04  0.15566904548E+04  0.96280628584E+03 0.  0.
        -13    1    3    3    0    0 -0.13654894264E+03 -0.21700478408E+03  0.83115584427E+03  0.86980270100E+03  0.10566000000E+00 0.  1.
          4    1    3    3  501    0  0.35712881606E+03  0.44029727123E+03  0.18306827783E+03  0.59574883354E+03  0.00000000000E+00 0.  1.
         13    1    4    4    0    0  0.16525780118E+03 -0.14151539571E+03  0.11393674250E+04  0.11599546924E+04  0.10566000000E+00 0. -1.
         -4    1    4    4    0  502 -0.38583767460E+03 -0.81777091446E+02  0.42907590631E+02  0.39673576239E+03  0.00000000000E+00 0. -1.
<mgrwt>
<rscale>  2 0.10464213E+04</rscale>
<asrwt>0</asrwt>
<pdfrwt beam="1">  1       21 0.40144162E+00 0.10579181E+04</pdfrwt>
<pdfrwt beam="2">  1       21 0.63518682E-01 0.10579181E+04</pdfrwt>
<totfact> 0.62263714E+00</totfact>
</mgrwt>
</event>
<event>
 8    1  0.1168507E-005  0.1108105E+04  0.7818608E-02  0.8682718E-01
         21   -1    0    0  501  502  0.00000000000E+00  0.00000000000E+00  0.48966325611E+03  0.48966325611E+03  0.00000000000E+00 0. -1.
         21   -1    0    0  502  503 -0.00000000000E+00 -0.00000000000E+00 -0.24779451296E+04  0.24779451296E+04  0.00000000000E+00 0. -1.
   -9000010    2    1    2    0  503  0.49418763390E+03 -0.83278470868E+02 -0.91471176513E+03  0.14368697690E+04  0.98830177513E+03 0.  0.
    9000010    2    1    2  501    0 -0.49418763390E+03  0.83278470868E+02 -0.10735701083E+04  0.15307386167E+04  0.96925291528E+03 0.  0.
        -13    1    4    4    0    0  0.73461789189E+02  0.18504262828E+02 -0.94123612304E+03  0.94427988049E+03  0.10566000000E+00 0.  1.
          4    1    4    4  501    0 -0.56764942309E+03  0.64774208040E+02 -0.13233398530E+03  0.58645873617E+03  0.00000000000E+00 0.  1.
         13    1    3    3    0    0  0.65747386331E+03  0.24322610385E+03 -0.40400601504E+03  0.80910548748E+03  0.10566000000E+00 0. -1.
         -4    1    3    3    0  503 -0.16328622941E+03 -0.32650457472E+03 -0.51070575009E+03  0.62776428156E+03  0.00000000000E+00 0. -1.
<mgrwt>
<rscale>  2 0.11038418E+04</rscale>
<asrwt>0</asrwt>
<pdfrwt beam="1">  1       21 0.75332810E-01 0.11081052E+04</pdfrwt>
<pdfrwt beam="2">  1       21 0.38122232E+00 0.11081052E+04</pdfrwt>
<totfact> 0.56942367E+00</totfact>
</mgrwt>
</event>
<event>
 8    1  0.1168507E-005  0.1314654E+04  0.7818608E-02  0.8525709E-01
         21   -1    0    0  501  502  0.00000000000E+00  0.00000000000E+00  0.51040869328E+03  0.51040869328E+03  0.00000000000E+00 0. -1.
         21   -1    0    0  502  503 -0.00000000000E+00 -0.00000000000E+00 -0.34436504796E+04  0.34436504796E+04  0.00000000000E+00 0. -1.
   -9000010    2    1    2    0  503  0.83262962521E+03 -0.80058871882E+02 -0.11821119664E+04  0.17643625493E+04  0.10079211221E+04 0.  0.
    9000010    2    1    2  501    0 -0.83262962521E+03  0.80058871882E+02 -0.17511298199E+04  0.21896966236E+04  0.10142160231E+04 0.  0.
        -13    1    4    4    0    0 -0.36387723769E+03 -0.45146873487E+03 -0.10075089974E+04  0.11624564739E+04  0.10566000000E+00 0.  1.
          4    1    4    4  501    0 -0.46875238751E+03  0.53152760675E+03 -0.74362082252E+03  0.10272401497E+04  0.00000000000E+00 0.  1.
         13    1    3    3    0    0  0.90867571322E+03  0.17648477534E+03 -0.11761499120E+04  0.14967187626E+04  0.10566000000E+00 0. -1.
         -4    1    3    3    0  503 -0.76046088019E+02 -0.25654364722E+03 -0.59620544004E+01  0.26764378664E+03  0.00000000000E+00 0. -1.
<mgrwt>
<rscale>  2 0.13134400E+04</rscale>
<asrwt>0</asrwt>
<pdfrwt beam="1">  1       21 0.78524414E-01 0.13146542E+04</pdfrwt>
<pdfrwt beam="2">  1       21 0.52979238E+00 0.13146542E+04</pdfrwt>
<totfact> 0.45678957E-01</totfact>
</mgrwt>
</event>
<event>
 8    1  0.1168507E-005  0.1130357E+04  0.7818608E-02  0.8661552E-01
         21   -1    0    0  503  502  0.00000000000E+00  0.00000000000E+00  0.92873910730E+03  0.92873910730E+03  0.00000000000E+00 0.  1.
         21   -1    0    0  501  503 -0.00000000000E+00 -0.00000000000E+00 -0.14983000764E+04  0.14983000764E+04  0.00000000000E+00 0.  1.
    9000010    2    1    2  501    0 -0.48573165017E+03 -0.21086649337E+03 -0.63670115524E+03  0.12946894987E+04  0.99520481452E+03 0.  0.
   -9000010    2    1    2    0  502  0.48573165017E+03  0.21086649337E+03  0.67140186145E+02  0.11323496850E+04  0.99865313830E+03 0.  0.
        -13    1    3    3    0    0 -0.38842459648E+03 -0.42584676855E+03 -0.81549732881E+03  0.99862657781E+03  0.10566000000E+00 0.  1.
          4    1    3    3  501    0 -0.97307053684E+02  0.21498027518E+03  0.17879617357E+03  0.29606292084E+03  0.00000000000E+00 0.  1.
         13    1    4    4    0    0 -0.20247556750E+03 -0.21335371556E+03 -0.92399224003E+02  0.30830794854E+03  0.10566000000E+00 0. -1.
         -4    1    4    4    0  502  0.68820721766E+03  0.42422020893E+03  0.15953941015E+03  0.82404173650E+03  0.00000000000E+00 0. -1.
<mgrwt>
<rscale>  2 0.11295954E+04</rscale>
<asrwt>0</asrwt>
<pdfrwt beam="1">  1       21 0.14288294E+00 0.11303575E+04</pdfrwt>
<pdfrwt beam="2">  1       21 0.23050770E+00 0.11303575E+04</pdfrwt>
<totfact> 0.12045793E+01</totfact>
</mgrwt>
</event>
<event>
 8    1  0.1168507E-005  0.1040877E+04  0.7818608E-02  0.8765934E-01
         21   -1    0    0  503  502  0.00000000000E+00  0.00000000000E+00  0.10739897156E+04  0.10739897156E+04  0.00000000000E+00 0. -1.
         21   -1    0    0  501  503 -0.00000000000E+00 -0.00000000000E+00 -0.89551392420E+03  0.89551392420E+03  0.00000000000E+00 0. -1.
    9000010    2    1    2  501    0 -0.64684338611E+02  0.26390869782E+03  0.11565510582E+03  0.10472827212E+04  0.10047851164E+04 0.  0.
   -9000010    2    1    2    0  502  0.64684338611E+02 -0.26390869782E+03  0.62820685547E+02  0.92222091857E+03  0.87904102275E+03 0.  0.
        -13    1    3    3    0    0 -0.38701211876E+03  0.45492120261E+03  0.25243102999E+03  0.64842356274E+03  0.10566000000E+00 0.  1.
          4    1    3    3  501    0  0.32232778015E+03 -0.19101250479E+03 -0.13677592417E+03  0.39885915845E+03  0.00000000000E+00 0.  1.
         13    1    4    4    0    0 -0.13759136325E+03  0.29458743661E+03  0.42226924778E+02  0.32786623094E+03  0.10566000000E+00 0. -1.
         -4    1    4    4    0  502  0.20227570186E+03 -0.55849613443E+03  0.20593760769E+02  0.59435468764E+03  0.00000000000E+00 0. -1.
<mgrwt>
<rscale>  2 0.10092664E+04</rscale>
<asrwt>0</asrwt>
<pdfrwt beam="1">  1       21 0.16522919E+00 0.10408770E+04</pdfrwt>
<pdfrwt beam="2">  1       21 0.13777137E+00 0.10408770E+04</pdfrwt>
<totfact> 0.44784525E+01</totfact>
</mgrwt>
</event>
<event>
 8    1  0.1168507E-005  0.1097294E+04  0.7818608E-02  0.8688585E-01
         21   -1    0    0  501  502  0.00000000000E+00  0.00000000000E+00  0.90618709859E+03  0.90618709859E+03  0.00000000000E+00 0.  1.
         21   -1    0    0  502  503 -0.00000000000E+00 -0.00000000000E+00 -0.13272016894E+04  0.13272016894E+04  0.00000000000E+00 0.  1.
   -9000010    2    1    2    0  503  0.26858766308E+03 -0.36633741886E+03 -0.18420946064E+03  0.11126483642E+04  0.99885475409E+03 0.  0.
    9000010    2    1    2  501    0 -0.26858766308E+03  0.36633741886E+03 -0.23680513019E+03  0.11207404238E+04  0.99681492296E+03 0.  0.
        -13    1    4    4    0    0 -0.31273461774E+03  0.29979452250E+03 -0.60492850198E+03  0.74405524023E+03  0.10566000000E+00 0.  1.
          4    1    4    4  501    0  0.44146954658E+02  0.66542896358E+02  0.36812337179E+03  0.37668518356E+03  0.00000000000E+00 0.  1.
         13    1    3    3    0    0  0.33437342322E+03 -0.66853430421E+03 -0.26486397792E+03  0.79303003728E+03  0.10566000000E+00 0. -1.
         -4    1    3    3    0  503 -0.65785760140E+02  0.30219688535E+03  0.80654517283E+02  0.31961832693E+03  0.00000000000E+00 0. -1.
<mgrwt>
<rscale>  2 0.10968292E+04</rscale>
<asrwt>0</asrwt>
<pdfrwt beam="1">  1       21 0.13941340E+00 0.10972936E+04</pdfrwt>
<pdfrwt beam="2">  1       21 0.20418487E+00 0.10972936E+04</pdfrwt>
<totfact> 0.20674856E+01</totfact>
</mgrwt>
</event>
<event>
 8    1  0.1168507E-005  0.1019730E+04  0.7818608E-02  0.8796133E-01
         21   -1    0    0  501  502  0.00000000000E+00  0.00000000000E+00  0.84736506178E+03  0.84736506178E+03  0.00000000000E+00 0. -1.
         21   -1    0    0  502  503 -0.00000000000E+00 -0.00000000000E+00 -0.11533840217E+04  0.11533840217E+04  0.00000000000E+00 0. -1.
   -9000010    2    1    2    0  503  0.24800056603E+03 -0.18781695856E+02 -0.44956819840E+03  0.97096477152E+03  0.82389561819E+03 0.  0.
    9000010    2    1    2  501    0 -0.24800056603E+03  0.18781695856E+02  0.14354923851E+03  0.10297843119E+04  0.98893493840E+03 0.  0.
        -13    1    4    4    0    0  0.36207003595E+03  0.10435228801E+03  0.16954293721E+03  0.41319357408E+03  0.10566000000E+00 0.  1.
          4    1    4    4  501    0 -0.61007060198E+03 -0.85570592150E+02 -0.25993698700E+02  0.61659073786E+03  0.00000000000E+00 0.  1.
         13    1    3    3    0    0  0.48809755643E+03  0.13651484719E+03 -0.46053334553E+03  0.68481128904E+03  0.10566000000E+00 0. -1.
         -4    1    3    3    0  503 -0.24009699040E+03 -0.15529654305E+03  0.10965147128E+02  0.28615348248E+03  0.00000000000E+00 0. -1.
<mgrwt>
<rscale>  2 0.97738652E+03</rscale>
<asrwt>0</asrwt>
<pdfrwt beam="1">  1       21 0.13036386E+00 0.10197300E+04</pdfrwt>
<pdfrwt beam="2">  1       21 0.17744370E+00 0.10197300E+04</pdfrwt>
<totfact> 0.41818429E+01</totfact>
</mgrwt>
</event>
<event>
 8    1  0.1168507E-005  0.1052834E+04  0.7818608E-02  0.8731626E-01
         21   -1    0    0  501  502  0.00000000000E+00  0.00000000000E+00  0.20405236917E+04  0.20405236917E+04  0.00000000000E+00 0. -1.
         21   -1    0    0  502  503 -0.00000000000E+00 -0.00000000000E+00 -0.53174448512E+03  0.53174448512E+03  0.00000000000E+00 0. -1.
   -9000010    2    1    2    0  503 -0.74549383569E+02  0.32060470593E+03  0.77949324678E+03  0.12915197234E+04  0.97573996851E+03 0.  0.
    9000010    2    1    2  501    0  0.74549383569E+02 -0.32060470593E+03  0.72928595979E+03  0.12807484534E+04  0.10000567992E+04 0.  0.
        -13    1    4    4    0    0  0.30166778228E+02 -0.53797413820E+03  0.21763616015E+02  0.53925863371E+03  0.10566000000E+00 0.  1.
          4    1    4    4  501    0  0.44382605341E+02  0.21736943228E+03  0.70752234377E+03  0.74148981968E+03  0.00000000000E+00 0.  1.
         13    1    3    3    0    0 -0.13266006359E+03  0.55001658558E+03  0.10334230796E+03  0.57514918122E+03  0.10566000000E+00 0. -1.
         -4    1    3    3    0  503  0.58110680017E+02 -0.22941187965E+03  0.67615093883E+03  0.71637054220E+03  0.00000000000E+00 0. -1.
<mgrwt>
<rscale>  2 0.10470181E+04</rscale>
<asrwt>0</asrwt>
<pdfrwt beam="1">  1       21 0.31392672E+00 0.10528336E+04</pdfrwt>
<pdfrwt beam="2">  1       21 0.81806845E-01 0.10528336E+04</pdfrwt>
<totfact> 0.13990775E+01</totfact>
</mgrwt>
</event>
<event>
 8    1  0.1168507E-005  0.1380523E+04  0.7818608E-02  0.8481790E-01
         21   -1    0    0  503  502  0.00000000000E+00  0.00000000000E+00  0.12842278117E+04  0.12842278117E+04  0.00000000000E+00 0. -1.
         21   -1    0    0  501  503 -0.00000000000E+00 -0.00000000000E+00 -0.14848853599E+04  0.14848853599E+04  0.00000000000E+00 0.  1.
    9000010    2    1    2  501    0  0.87993101228E+03  0.35653457533E+03 -0.13709899297E+03  0.13871275916E+04  0.10019637378E+04 0.  0.
   -9000010    2    1    2    0  502 -0.87993101228E+03 -0.35653457533E+03 -0.63558555299E+02  0.13819855800E+04  0.10022220131E+04 0.  0.
        -13    1    3    3    0    0  0.82661336234E+03 -0.17599431578E+03 -0.85396497151E+02  0.84944465557E+03  0.10566000000E+00 0.  1.
          4    1    3    3  501    0  0.53317649943E+02  0.53252889112E+03 -0.51702495819E+02  0.53768293607E+03  0.00000000000E+00 0.  1.
         13    1    4    4    0    0 -0.52044283035E+03  0.99815364855E+02  0.37914404775E+03  0.65159348281E+03  0.10566000000E+00 0. -1.
         -4    1    4    4    0  502 -0.35948818193E+03 -0.45634994019E+03 -0.44270260305E+03  0.73039209717E+03  0.00000000000E+00 0. -1.
<mgrwt>
<rscale>  2 0.13804764E+04</rscale>
<asrwt>0</asrwt>
<pdfrwt beam="1">  1       21 0.19757351E+00 0.13805233E+04</pdfrwt>
<pdfrwt beam="2">  1       21 0.22844390E+00 0.13805233E+04</pdfrwt>
<totfact> 0.40999396E+00</totfact>
</mgrwt>
</event>
<event>
 8    1  0.1168507E-005  0.1458345E+04  0.7818608E-02  0.8436943E-01
         21   -1    0    0  503  502  0.00000000000E+00  0.00000000000E+00  0.22205120160E+04  0.22205120160E+04  0.00000000000E+00 0.  1.
         21   -1    0    0  501  503 -0.00000000000E+00 -0.00000000000E+00 -0.14930552172E+04  0.14930552172E+04  0.00000000000E+00 0. -1.
    9000010    2    1    2  501    0  0.10277548651E+04 -0.18351500540E+03 -0.76017287425E+03  0.16445764445E+04  0.10182391974E+04 0.  0.
   -9000010    2    1    2    0  502 -0.10277548651E+04  0.18351500540E+03  0.14876296731E+04  0.20689907887E+04  0.98879877602E+03 0.  0.
        -13    1    3    3    0    0  0.44465804382E+03  0.29675401506E+03  0.49923973822E+02  0.53691352722E+03  0.10566000000E+00 0.  1.
          4    1    3    3  501    0  0.58309682127E+03 -0.48026902046E+03 -0.81009684807E+03  0.11076629172E+04  0.00000000000E+00 0.  1.
         13    1    4    4    0    0 -0.48182055944E+03 -0.36472477588E+03  0.36631512584E+03  0.70665550038E+03  0.10566000000E+00 0. -1.
         -4    1    4    4    0  502 -0.54593430565E+03  0.54823978127E+03  0.11213145473E+04  0.13623352883E+04  0.00000000000E+00 0. -1.
<mgrwt>
<rscale>  2 0.14532173E+04</rscale>
<asrwt>0</asrwt>
<pdfrwt beam="1">  1       21 0.34161723E+00 0.14583446E+04</pdfrwt>
<pdfrwt beam="2">  1       21 0.22970080E+00 0.14583446E+04</pdfrwt>
<totfact> 0.35404860E-01</totfact>
</mgrwt>
</event>
<event>
 8    1  0.1168507E-005  0.1143499E+04  0.7818608E-02  0.8651023E-01
         21   -1    0    0  501  502  0.00000000000E+00  0.00000000000E+00  0.88932861679E+03  0.88932861679E+03  0.00000000000E+00 0.  1.
         21   -1    0    0  502  503 -0.00000000000E+00 -0.00000000000E+00 -0.14777080687E+04  0.14777080687E+04  0.00000000000E+00 0.  1.
   -9000010    2    1    2    0  503  0.51369049251E+03  0.15796067866E+03 -0.39948964581E+03  0.12112724527E+04  0.10093361578E+04 0.  0.
    9000010    2    1    2  501    0 -0.51369049251E+03 -0.15796067866E+03 -0.18888980608E+03  0.11557642328E+04  0.10056252308E+04 0.  0.
        -13    1    4    4    0    0 -0.64351080902E+03 -0.29473162894E+03 -0.44623937897E+03  0.83672127314E+03  0.10566000000E+00 0.  1.
          4    1    4    4  501    0  0.12982031651E+03  0.13677095028E+03  0.25734957289E+03  0.31904295963E+03  0.00000000000E+00 0.  1.
         13    1    3    3    0    0 -0.27990345638E+03  0.10963475323E+03  0.39293192493E+02  0.30316610983E+03  0.10566000000E+00 0. -1.
         -4    1    3    3    0  503  0.79359394888E+03  0.48325925428E+02 -0.43878283831E+03  0.90810634287E+03  0.00000000000E+00 0. -1.
<mgrwt>
<rscale>  2 0.11426791E+04</rscale>
<asrwt>0</asrwt>
<pdfrwt beam="1">  1       21 0.13681979E+00 0.11434986E+04</pdfrwt>
<pdfrwt beam="2">  1       21 0.22733970E+00 0.11434986E+04</pdfrwt>
<totfact> 0.14436250E+01</totfact>
</mgrwt>
</event>
<event>
 8    1  0.1168507E-005  0.1167097E+04  0.7818608E-02  0.8632062E-01
         21   -1    0    0  501  502  0.00000000000E+00  0.00000000000E+00  0.53417353992E+03  0.53417353992E+03  0.00000000000E+00 0. -1.
         21   -1    0    0  502  503 -0.00000000000E+00 -0.00000000000E+00 -0.26135896463E+04  0.26135896463E+04  0.00000000000E+00 0. -1.
   -9000010    2    1    2    0  503 -0.11255792100E+02 -0.65857287147E+03 -0.12924340817E+04  0.17414075459E+04  0.96346741805E+03 0.  0.
    9000010    2    1    2  501    0  0.11255792100E+02  0.65857287147E+03 -0.78698202476E+03  0.14063556403E+04  0.96158752068E+03 0.  0.
        -13    1    4    4    0    0 -0.71754473427E+01  0.74790007678E+03 -0.14993818286E+03  0.76281549652E+03  0.10566000000E+00 0.  1.
          4    1    4    4  501    0  0.18431239442E+02 -0.89327205314E+02 -0.63704384190E+03  0.64354014381E+03  0.00000000000E+00 0.  1.
         13    1    3    3    0    0 -0.75429898778E+02 -0.73667952261E+03 -0.14061670606E+04  0.15892426505E+04  0.10566000000E+00 0. -1.
         -4    1    3    3    0  503  0.64174106679E+02  0.78106651142E+02  0.11373297890E+03  0.15216489546E+03  0.00000000000E+00 0. -1.
<mgrwt>
<rscale>  2 0.11667085E+04</rscale>
<asrwt>0</asrwt>
<pdfrwt beam="1">  1       21 0.82180544E-01 0.11670966E+04</pdfrwt>
<pdfrwt beam="2">  1       21 0.40209072E+00 0.11670966E+04</pdfrwt>
<totfact> 0.32554427E+00</totfact>
</mgrwt>
</event>
<event>
 8    1  0.1168507E-005  0.1086119E+04  0.7818608E-02  0.8700213E-01
         21   -1    0    0  501  502  0.00000000000E+00  0.00000000000E+00  0.12688658839E+04  0.12688658839E+04  0.00000000000E+00 0.  1.
         21   -1    0    0  502  503 -0.00000000000E+00 -0.00000000000E+00 -0.15618300598E+04  0.15618300598E+04  0.00000000000E+00 0.  1.
   -9000010    2    1    2    0  503  0.15845618717E+03  0.35604267244E+03 -0.10537263301E+04  0.15046444780E+04  0.10008701607E+04 0.  0.
    9000010    2    1    2  501    0 -0.15845618717E+03 -0.35604267244E+03  0.76076215423E+03  0.13260514658E+04  0.10137942034E+04 0.  0.
        -13    1    4    4    0    0 -0.50087309810E+03  0.10505559798E+03  0.36149209519E+03  0.62656770194E+03  0.10566000000E+00 0.  1.
          4    1    4    4  501    0  0.34241691093E+03 -0.46109827041E+03  0.39927005903E+03  0.69948376386E+03  0.00000000000E+00 0.  1.
         13    1    3    3    0    0  0.38568465139E+03 -0.17827709863E+03 -0.19369329127E+03  0.46696089393E+03  0.10566000000E+00 0. -1.
         -4    1    3    3    0  503 -0.22722846422E+03  0.53431977106E+03 -0.86003303881E+03  0.10376835840E+04  0.00000000000E+00 0. -1.
<mgrwt>
<rscale>  2 0.10830925E+04</rscale>
<asrwt>0</asrwt>
<pdfrwt beam="1">  1       21 0.19521014E+00 0.10861185E+04</pdfrwt>
<pdfrwt beam="2">  1       21 0.24028155E+00 0.10861185E+04</pdfrwt>
<totfact> 0.37226215E+00</totfact>
</mgrwt>
</event>
<event>
 8    1  0.1168507E-005  0.1025833E+04  0.7818608E-02  0.8753469E-01
         21   -1    0    0  503  502  0.00000000000E+00  0.00000000000E+00  0.25393562498E+04  0.25393562498E+04  0.00000000000E+00 0.  1.
         21   -1    0    0  501  503 -0.00000000000E+00 -0.00000000000E+00 -0.40985267557E+03  0.40985267557E+03  0.00000000000E+00 0.  1.
    9000010    2    1    2  501    0 -0.57282761449E+02  0.18139747550E+03  0.11125255114E+04  0.15132895820E+04  0.10080406672E+04 0.  0.
   -9000010    2    1    2    0  502  0.57282761449E+02 -0.18139747550E+03  0.10169780629E+04  0.14359193434E+04  0.99570759840E+03 0.  0.
        -13    1    3    3    0    0  0.44370859960E+03  0.12424322865E+03  0.79051231090E+03  0.91499913993E+03  0.10566000000E+00 0.  1.
          4    1    3    3  501    0 -0.50099136105E+03  0.57154246850E+02  0.32201320045E+03  0.59829044204E+03  0.00000000000E+00 0.  1.
         13    1    4    4    0    0 -0.12174060499E+03 -0.57140963846E+03  0.60474976405E+03  0.84086386419E+03  0.10566000000E+00 0. -1.
         -4    1    4    4    0  502  0.17902336644E+03  0.39001216296E+03  0.41222829886E+03  0.59505547923E+03  0.00000000000E+00 0. -1.
<mgrwt>
<rscale>  2 0.10227899E+04</rscale>
<asrwt>0</asrwt>
<pdfrwt beam="1">  1       21 0.39067018E+00 0.10258325E+04</pdfrwt>
<pdfrwt beam="2">  1       21 0.63054259E-01 0.10258325E+04</pdfrwt>
<totfact> 0.75786458E+00</totfact>
</mgrwt>
</event>
<event>
 8    1  0.1168507E-005  0.1238465E+04  0.7818608E-02  0.8578544E-01
         21   -1    0    0  501  502  0.00000000000E+00  0.00000000000E+00  0.13005853516E+04  0.13005853516E+04  0.00000000000E+00 0. -1.
         21   -1    0    0  502  503 -0.00000000000E+00 -0.00000000000E+00 -0.11915321296E+04  0.11915321296E+04  0.00000000000E+00 0. -1.
   -9000010    2    1    2    0  503  0.62069928215E+03 -0.34428326525E+03 -0.82053356988E+02  0.12389949605E+04  0.10122140056E+04 0.  0.
    9000010    2    1    2  501    0 -0.62069928215E+03  0.34428326525E+03  0.19110657895E+03  0.12531225206E+04  0.10148870684E+04 0.  0.
        -13    1    4    4    0    0 -0.35912731222E+03  0.28688119518E+03  0.60521258383E+03  0.75997074241E+03  0.10566000000E+00 0.  1.
          4    1    4    4  501    0 -0.26157196993E+03  0.57402070066E+02 -0.41410600488E+03  0.49315177823E+03  0.00000000000E+00 0.  1.
         13    1    3    3    0    0  0.58101859728E+03 -0.47989722980E+03 -0.42705739620E+03  0.86617665194E+03  0.10566000000E+00 0. -1.
         -4    1    3    3    0  503  0.39680684868E+02  0.13561396456E+03  0.34500403921E+03  0.37281830857E+03  0.00000000000E+00 0. -1.
<mgrwt>
<rscale>  2 0.12379168E+04</rscale>
<asrwt>0</asrwt>
<pdfrwt beam="1">  1       21 0.20009005E+00 0.12384645E+04</pdfrwt>
<pdfrwt beam="2">  1       21 0.18331264E+00 0.12384645E+04</pdfrwt>
<totfact> 0.90212788E+00</totfact>
</mgrwt>
</event>
<event>
 8    1  0.1168507E-005  0.1174258E+04  0.7818608E-02  0.8662273E-01
         21   -1    0    0  503  502  0.00000000000E+00  0.00000000000E+00  0.10397480240E+04  0.10397480240E+04  0.00000000000E+00 0.  1.
         21   -1    0    0  501  503 -0.00000000000E+00 -0.00000000000E+00 -0.11406431251E+04  0.11406431251E+04  0.00000000000E+00 0.  1.
    9000010    2    1    2  501    0  0.35085324845E+03  0.59776811957E+03 -0.85609710125E+02  0.10060338938E+04  0.72412046399E+03 0.  0.
   -9000010    2    1    2    0  502 -0.35085324845E+03 -0.59776811957E+03 -0.15285390943E+02  0.11743572553E+04  0.94786950222E+03 0.  0.
        -13    1    3    3    0    0  0.48568691426E+03  0.39394746285E+03  0.17437162231E+03  0.64922404146E+03  0.10566000000E+00 0.  1.
          4    1    3    3  501    0 -0.13483366581E+03  0.20382065671E+03 -0.25998133244E+03  0.35680985238E+03  0.00000000000E+00 0.  1.
         13    1    4    4    0    0 -0.48793625873E+03  0.56348343831E+02  0.85216208660E+02  0.49851654116E+03  0.10566000000E+00 0. -1.
         -4    1    4    4    0  502  0.13708301028E+03 -0.65411646340E+03 -0.10050159960E+03  0.67584071416E+03  0.00000000000E+00 0. -1.
<mgrwt>
<rscale>  2 0.11287069E+04</rscale>
<asrwt>0</asrwt>
<pdfrwt beam="1">  1       21 0.15996123E+00 0.11742578E+04</pdfrwt>
<pdfrwt beam="2">  1       21 0.17548356E+00 0.11742578E+04</pdfrwt>
<totfact> 0.22600609E+01</totfact>
</mgrwt>
</event>
<event>
 8    1  0.1168507E-005  0.1086273E+04  0.7818608E-02  0.8737363E-01
         21   -1    0    0  503  502  0.00000000000E+00  0.00000000000E+00  0.75700228917E+03  0.75700228917E+03  0.00000000000E+00 0. -1.
         21   -1    0    0  501  503 -0.00000000000E+00 -0.00000000000E+00 -0.15711654993E+04  0.15711654993E+04  0.00000000000E+00 0. -1.
    9000010    2    1    2  501    0  0.11545598086E+03  0.40496128690E+03 -0.83953391526E+03  0.12415988517E+04  0.81205097520E+03 0.  0.
   -9000010    2    1    2    0  502 -0.11545598086E+03 -0.40496128690E+03  0.25370705145E+02  0.10865689367E+04  0.10013314407E+04 0.  0.
        -13    1    3    3    0    0  0.77584637727E+01  0.62822077344E+03 -0.42469760981E+03  0.75834662582E+03  0.10566000000E+00 0.  1.
          4    1    3    3  501    0  0.10769751708E+03 -0.22325948655E+03 -0.41483630545E+03  0.48325222590E+03  0.00000000000E+00 0.  1.
         13    1    4    4    0    0  0.34888569846E+03 -0.31390733077E+03  0.28275383226E+03  0.54791311695E+03  0.10566000000E+00 0. -1.
         -4    1    4    4    0  502 -0.46434167932E+03 -0.91053956126E+02 -0.25738312711E+03  0.53865581980E+03  0.00000000000E+00 0. -1.
<mgrwt>
<rscale>  2 0.10405876E+04</rscale>
<asrwt>0</asrwt>
<pdfrwt beam="1">  1       21 0.11646189E+00 0.10862727E+04</pdfrwt>
<pdfrwt beam="2">  1       21 0.24171777E+00 0.10862727E+04</pdfrwt>
<totfact> 0.18130590E+01</totfact>
</mgrwt>
</event>
<event>
 8    1  0.1168507E-005  0.1302032E+04  0.7818608E-02  0.8535807E-01
         21   -1    0    0  501  502  0.00000000000E+00  0.00000000000E+00  0.14035974111E+04  0.14035974111E+04  0.00000000000E+00 0.  1.
         21   -1    0    0  502  503 -0.00000000000E+00 -0.00000000000E+00 -0.14540603732E+04  0.14540603732E+04  0.00000000000E+00 0.  1.
   -9000010    2    1    2    0  503 -0.19011636412E+03  0.76942346832E+03 -0.62809140636E+03  0.14332484420E+04  0.10156503219E+04 0.  0.
    9000010    2    1    2  501    0  0.19011636412E+03 -0.76942346832E+03  0.57762844434E+03  0.14244093423E+04  0.10330201591E+04 0.  0.
        -13    1    4    4    0    0  0.46034757649E+03 -0.65551641855E+03  0.28073669543E+02  0.80150471505E+03  0.10566000000E+00 0.  1.
          4    1    4    4  501    0 -0.27023121237E+03 -0.11390704977E+03  0.54955477480E+03  0.62290462723E+03  0.00000000000E+00 0.  1.
         13    1    3    3    0    0 -0.56391811851E+03  0.18598012931E+03 -0.25450781782E+03  0.64603908038E+03  0.10566000000E+00 0. -1.
         -4    1    3    3    0  503  0.37380175439E+03  0.58344333901E+03 -0.37358358854E+03  0.78720936163E+03  0.00000000000E+00 0. -1.
<mgrwt>
<rscale>  2 0.12985839E+04</rscale>
<asrwt>0</asrwt>
<pdfrwt beam="1">  1       21 0.21593806E+00 0.13020320E+04</pdfrwt>
<pdfrwt beam="2">  1       21 0.22370160E+00 0.13020320E+04</pdfrwt>
<totfact> 0.32568986E+00</totfact>
</mgrwt>
</event>
<event>
 8    1  0.1168507E-005  0.1315882E+04  0.7818608E-02  0.8524893E-01
         21   -1    0    0  503  502  0.00000000000E+00  0.00000000000E+00  0.10502420966E+04  0.10502420966E+04  0.00000000000E+00 0.  1.
         21   -1    0    0  501  503 -0.00000000000E+00 -0.00000000000E+00 -0.17440675050E+04  0.17440675050E+04  0.00000000000E+00 0.  1.
    9000010    2    1    2  501    0 -0.84667819486E+03 -0.43732358223E+02 -0.68338524468E+03  0.14783857837E+04  0.99991632056E+03 0.  0.
   -9000010    2    1    2    0  502  0.84667819486E+03  0.43732358223E+02 -0.10440163643E+02  0.13159238179E+04  0.10063647513E+04 0.  0.
        -13    1    3    3    0    0  0.22698055904E+03  0.52370956162E+02 -0.11595823957E+03  0.26020994546E+03  0.10566000000E+00 0.  1.
          4    1    3    3  501    0 -0.10736587539E+04 -0.96103314385E+02 -0.56742700511E+03  0.12181758383E+04  0.00000000000E+00 0.  1.
         13    1    4    4    0    0  0.41745830570E+03 -0.27076270228E+02 -0.50598411455E+03  0.65652455914E+03  0.10566000000E+00 0. -1.
         -4    1    4    4    0  502  0.42921988916E+03  0.70808628451E+02  0.49554395091E+03  0.65939925871E+03  0.00000000000E+00 0. -1.
<mgrwt>
<rscale>  2 0.13146494E+04</rscale>
<asrwt>0</asrwt>
<pdfrwt beam="1">  1       21 0.16157571E+00 0.13158824E+04</pdfrwt>
<pdfrwt beam="2">  1       21 0.26831808E+00 0.13158824E+04</pdfrwt>
<totfact> 0.41909874E+00</totfact>
</mgrwt>
</event>
<event>
 8    1  0.1168507E-005  0.1056163E+04  0.7818608E-02  0.8736215E-01
         21   -1    0    0  503  502  0.00000000000E+00  0.00000000000E+00  0.53113144186E+03  0.53113144186E+03  0.00000000000E+00 0.  1.
         21   -1    0    0  501  503 -0.00000000000E+00 -0.00000000000E+00 -0.19903795559E+04  0.19903795559E+04  0.00000000000E+00 0.  1.
    9000010    2    1    2  501    0  0.22394001865E+03 -0.24033697175E+03 -0.70084905992E+03  0.12212608477E+04  0.94465743075E+03 0.  0.
   -9000010    2    1    2    0  502 -0.22394001865E+03  0.24033697175E+03 -0.75839905408E+03  0.13002501500E+04  0.10037780309E+04 0.  0.
        -13    1    3    3    0    0 -0.17558139372E+03  0.14754220614E+03 -0.61687441657E+03  0.65812733220E+03  0.10566000000E+00 0.  1.
          4    1    3    3  501    0  0.39952141238E+03 -0.38787917789E+03 -0.83974643354E+02  0.56313351553E+03  0.00000000000E+00 0.  1.
         13    1    4    4    0    0 -0.57300803720E+03 -0.75231113297E+02 -0.33964878484E+03  0.67034262830E+03  0.10566000000E+00 0. -1.
         -4    1    4    4    0  502  0.34906801855E+03  0.31556808505E+03 -0.41875026925E+03  0.62990752168E+03  0.00000000000E+00 0. -1.
<mgrwt>
<rscale>  2 0.10418712E+04</rscale>
<asrwt>0</asrwt>
<pdfrwt beam="1">  1       21 0.81712530E-01 0.10561635E+04</pdfrwt>
<pdfrwt beam="2">  1       21 0.30621224E+00 0.10561635E+04</pdfrwt>
<totfact> 0.15886901E+01</totfact>
</mgrwt>
</event>
<event>
 8    1  0.1168507E-005  0.1185669E+04  0.7818608E-02  0.8639756E-01
         21   -1    0    0  501  502  0.00000000000E+00  0.00000000000E+00  0.24084378569E+04  0.24084378569E+04  0.00000000000E+00 0. -1.
         21   -1    0    0  502  503 -0.00000000000E+00 -0.00000000000E+00 -0.54536690837E+03  0.54536690837E+03  0.00000000000E+00 0. -1.
   -9000010    2    1    2    0  503 -0.36315567745E+03  0.17240692443E+03  0.11319951812E+04  0.15608646412E+04  0.99663390670E+03 0.  0.
    9000010    2    1    2  501    0  0.36315567745E+03 -0.17240692443E+03  0.73107576729E+03  0.13929401241E+04  0.11154390249E+04 0.  0.
        -13    1    4    4    0    0  0.72966967696E+03 -0.31161343631E+03  0.47766849055E+03  0.92611444713E+03  0.10566000000E+00 0.  1.
          4    1    4    4  501    0 -0.36651399950E+03  0.13920651188E+03  0.25340727674E+03  0.46682567698E+03  0.00000000000E+00 0.  1.
         13    1    3    3    0    0 -0.53785524250E+03  0.42004594682E+03  0.10404285414E+04  0.12442742544E+04  0.10566000000E+00 0. -1.
         -4    1    3    3    0  503  0.17469956505E+03 -0.24763902239E+03  0.91566639858E+02  0.31659038673E+03  0.00000000000E+00 0. -1.
<mgrwt>
<rscale>  2 0.11568842E+04</rscale>
<asrwt>0</asrwt>
<pdfrwt beam="1">  1       21 0.37052890E+00 0.11856688E+04</pdfrwt>
<pdfrwt beam="2">  1       21 0.83902602E-01 0.11856688E+04</pdfrwt>
<totfact> 0.51193284E+00</totfact>
</mgrwt>
</event>
<event>
 8    1  0.1168507E-005  0.1067347E+04  0.7818608E-02  0.8716296E-01
         21   -1    0    0  503  502  0.00000000000E+00  0.00000000000E+00  0.70481097363E+03  0.70481097363E+03  0.00000000000E+00 0. -1.
         21   -1    0    0  501  503 -0.00000000000E+00 -0.00000000000E+00 -0.16111392863E+04  0.16111392863E+04  0.00000000000E+00 0. -1.
    9000010    2    1    2  501    0 -0.77706545423E+02  0.33867201794E+03 -0.55676965527E+03  0.12038367658E+04  0.10092043731E+04 0.  0.
   -9000010    2    1    2    0  502  0.77706545423E+02 -0.33867201794E+03 -0.34955865740E+03  0.11121134941E+04  0.99692934849E+03 0.  0.
        -13    1    3    3    0    0  0.18344015759E+03  0.57919629130E+03 -0.85104508151E+02  0.61348302646E+03  0.10566000000E+00 0.  1.
          4    1    3    3  501    0 -0.26114670301E+03 -0.24052427336E+03 -0.47166514711E+03  0.59035373936E+03  0.00000000000E+00 0.  1.
         13    1    4    4    0    0  0.11173520003E+03 -0.57632286400E+03  0.10658319369E+03  0.59665131093E+03  0.10566000000E+00 0. -1.
         -4    1    4    4    0  502 -0.34028654610E+02  0.23765084606E+03 -0.45614185109E+03  0.51546218318E+03  0.00000000000E+00 0. -1.
<mgrwt>
<rscale>  2 0.10644358E+04</rscale>
<asrwt>0</asrwt>
<pdfrwt beam="1">  1       21 0.10843246E+00 0.10673474E+04</pdfrwt>
<pdfrwt beam="2">  1       21 0.24786758E+00 0.10673474E+04</pdfrwt>
<totfact> 0.19953101E+01</totfact>
</mgrwt>
</event>
<event>
 8    1  0.1168507E-005  0.1335705E+04  0.7818608E-02  0.8511942E-01
         21   -1    0    0  503  502  0.00000000000E+00  0.00000000000E+00  0.10930035758E+04  0.10930035758E+04  0.00000000000E+00 0.  1.
         21   -1    0    0  501  503 -0.00000000000E+00 -0.00000000000E+00 -0.16296172190E+04  0.16296172190E+04  0.00000000000E+00 0.  1.
    9000010    2    1    2  501    0 -0.70224803206E+03  0.52689895588E+03 -0.34682644277E+03  0.13734998119E+04  0.99771656476E+03 0.  0.
   -9000010    2    1    2    0  502  0.70224803206E+03 -0.52689895588E+03 -0.18978720042E+03  0.13491209828E+04  0.10066446427E+04 0.  0.
        -13    1    3    3    0    0 -0.34955996570E+03  0.76682882005E+03 -0.41853596623E+03  0.94095216407E+03  0.10566000000E+00 0.  1.
          4    1    3    3  501    0 -0.35268806636E+03 -0.23992986417E+03  0.71709523463E+02  0.43254764781E+03  0.00000000000E+00 0.  1.
         13    1    4    4    0    0  0.86830499150E+02 -0.68167173896E+03 -0.19573280349E+03  0.71451188710E+03  0.10566000000E+00 0. -1.
         -4    1    4    4    0  502  0.61541753290E+03  0.15477278308E+03  0.59456030695E+01  0.63460909573E+03  0.00000000000E+00 0. -1.
<mgrwt>
<rscale>  2 0.13340231E+04</rscale>
<asrwt>0</asrwt>
<pdfrwt beam="1">  1       21 0.16815440E+00 0.13357051E+04</pdfrwt>
<pdfrwt beam="2">  1       21 0.25071034E+00 0.13357051E+04</pdfrwt>
<totfact> 0.49195578E+00</totfact>
</mgrwt>
</event>
<event>
 8    1  0.1168507E-005  0.1205932E+04  0.7818608E-02  0.8602384E-01
         21   -1    0    0  503  502  0.00000000000E+00  0.00000000000E+00  0.33666472791E+04  0.33666472791E+04  0.00000000000E+00 0. -1.
         21   -1    0    0  501  503 -0.00000000000E+00 -0.00000000000E+00 -0.73538207034E+03  0.73538207034E+03  0.00000000000E+00 0. -1.
    9000010    2    1    2  501    0 -0.40201880983E+03  0.54001333308E+03 -0.24854498959E+01  0.12059348911E+04  0.10005194954E+04 0.  0.
   -9000010    2    1    2    0  502  0.40201880983E+03 -0.54001333308E+03  0.26337506587E+04  0.28960944584E+04  0.99874273792E+03 0.  0.
        -13    1    3    3    0    0 -0.62785716523E+03  0.69107196403E+03  0.13108278293E+02  0.93378633398E+03  0.10566000000E+00 0.  1.
          4    1    3    3  501    0  0.22583835540E+03 -0.15105863095E+03 -0.15593728189E+02  0.27214855707E+03  0.00000000000E+00 0.  1.
         13    1    4    4    0    0  0.59263414316E+03 -0.22556212948E+03  0.23430828173E+04  0.24273711298E+04  0.10566000000E+00 0. -1.
         -4    1    4    4    0  502 -0.19061533333E+03 -0.31445120360E+03  0.29066784132E+03  0.46872332855E+03  0.00000000000E+00 0. -1.
<mgrwt>
<rscale>  2 0.12055637E+04</rscale>
<asrwt>0</asrwt>
<pdfrwt beam="1">  1       21 0.51794573E+00 0.12059323E+04</pdfrwt>
<pdfrwt beam="2">  1       21 0.11313570E+00 0.12059323E+04</pdfrwt>
<totfact> 0.21983634E-01</totfact>
</mgrwt>
</event>
<event>
 8    1  0.1168507E-005  0.1116171E+04  0.7818608E-02  0.8673450E-01
         21   -1    0    0  501  502  0.00000000000E+00  0.00000000000E+00  0.13553531361E+04  0.13553531361E+04  0.00000000000E+00 0.  1.
         21   -1    0    0  502  503 -0.00000000000E+00 -0.00000000000E+00 -0.94523961856E+03  0.94523961856E+03  0.00000000000E+00 0. -1.
   -9000010    2    1    2    0  503  0.17462635007E+03  0.52029539132E+03  0.12547905581E+01  0.11161713716E+04  0.97192350513E+03 0.  0.
    9000010    2    1    2  501    0 -0.17462635007E+03 -0.52029539132E+03  0.40885872700E+03  0.11844213831E+04  0.96668862504E+03 0.  0.
        -13    1    4    4    0    0  0.57406717755E+02 -0.42687061343E+03  0.68668298520E+03  0.81058471807E+03  0.10566000000E+00 0.  1.
          4    1    4    4  501    0 -0.23203306783E+03 -0.93424777894E+02 -0.27782425820E+03  0.37383666505E+03  0.00000000000E+00 0.  1.
         13    1    3    3    0    0  0.55135062260E+02 -0.25682595489E+03  0.16883393180E+03  0.31225687164E+03  0.10566000000E+00 0. -1.
         -4    1    3    3    0  503  0.11949128781E+03  0.77712134621E+03 -0.16757914124E+03  0.80391449992E+03  0.00000000000E+00 0. -1.
<mgrwt>
<rscale>  2 0.11150301E+04</rscale>
<asrwt>0</asrwt>
<pdfrwt beam="1">  1       21 0.20851587E+00 0.11161707E+04</pdfrwt>
<pdfrwt beam="2">  1       21 0.14542148E+00 0.11161707E+04</pdfrwt>
<totfact> 0.16794701E+01</totfact>
</mgrwt>
</event>
<event>
 8    1  0.1168507E-005  0.1146407E+04  0.7818608E-02  0.8648516E-01
         21   -1    0    0  501  502  0.00000000000E+00  0.00000000000E+00  0.17439316180E+04  0.17439316180E+04  0.00000000000E+00 0.  1.
         21   -1    0    0  502  503 -0.00000000000E+00 -0.00000000000E+00 -0.85528014883E+03  0.85528014883E+03  0.00000000000E+00 0.  1.
   -9000010    2    1    2    0  503  0.32442697852E+03 -0.54702077157E+03 -0.75171649932E+01  0.11440941341E+04  0.95100488483E+03 0.  0.
    9000010    2    1    2  501    0 -0.32442697852E+03  0.54702077157E+03  0.89616863416E+03  0.14551176327E+04  0.95381576592E+03 0.  0.
        -13    1    4    4    0    0  0.18099188258E+03  0.15339501640E+03 -0.11063971389E+03  0.26178091998E+03  0.10566000000E+00 0.  1.
          4    1    4    4  501    0 -0.50541886110E+03  0.39362575517E+03  0.10068083480E+04  0.11933367127E+04  0.00000000000E+00 0.  1.
         13    1    3    3    0    0 -0.35837026299E+02  0.17544806060E+03 -0.24418470158E+03  0.30280768496E+03  0.10566000000E+00 0. -1.
         -4    1    3    3    0  503  0.36026400482E+03 -0.72246883217E+03  0.23666753658E+03  0.84128644913E+03  0.00000000000E+00 0. -1.
<mgrwt>
<rscale>  2 0.11458222E+04</rscale>
<asrwt>0</asrwt>
<pdfrwt beam="1">  1       21 0.26829717E+00 0.11464070E+04</pdfrwt>
<pdfrwt beam="2">  1       21 0.13158156E+00 0.11464070E+04</pdfrwt>
<totfact> 0.81226807E+00</totfact>
</mgrwt>
</event>
<event>
 8    1  0.1168507E-005  0.1128585E+04  0.7818608E-02  0.8662789E-01
         21   -1    0    0  501  502  0.00000000000E+00  0.00000000000E+00  0.88324646898E+03  0.88324646898E+03  0.00000000000E+00 0.  1.
         21   -1    0    0  502  503 -0.00000000000E+00 -0.00000000000E+00 -0.14499175178E+04  0.14499175178E+04  0.00000000000E+00 0.  1.
   -9000010    2    1    2    0  503 -0.39521208251E+03 -0.33548235218E+03 -0.38221144046E+03  0.11896043187E+04  0.10001659117E+04 0.  0.
    9000010    2    1    2  501    0  0.39521208251E+03  0.33548235218E+03 -0.18445960840E+03  0.11435596681E+04  0.10024781138E+04 0.  0.
        -13    1    4    4    0    0  0.32415627245E+03  0.37553242207E+03  0.34730473953E+03  0.60557615727E+03  0.10566000000E+00 0.  1.
          4    1    4    4  501    0  0.71055810063E+02 -0.40050069891E+02 -0.53176434792E+03  0.53798351087E+03  0.00000000000E+00 0.  1.
         13    1    3    3    0    0  0.94364254418E+02  0.30536125612E+03 -0.12403751593E+03  0.34283439993E+03  0.10566000000E+00 0. -1.
         -4    1    3    3    0  503 -0.48957633693E+03 -0.64084360831E+03 -0.25817392453E+03  0.84676991875E+03  0.00000000000E+00 0. -1.
<mgrwt>
<rscale>  2 0.11280710E+04</rscale>
<asrwt>0</asrwt>
<pdfrwt beam="1">  1       21 0.13588407E+00 0.11285847E+04</pdfrwt>
<pdfrwt beam="2">  1       21 0.22306423E+00 0.11285847E+04</pdfrwt>
<totfact> 0.15909662E+01</totfact>
</mgrwt>
</event>
<event>
 8    1  0.1168507E-005  0.1284852E+04  0.7818608E-02  0.8545995E-01
         21   -1    0    0  503  502  0.00000000000E+00  0.00000000000E+00  0.19141059612E+04  0.19141059612E+04  0.00000000000E+00 0.  1.
         21   -1    0    0  501  503 -0.00000000000E+00 -0.00000000000E+00 -0.88862466011E+03  0.88862466011E+03  0.00000000000E+00 0.  1.
    9000010    2    1    2  501    0 -0.80664081833E+03  0.10531713878E+03  0.76497435358E+03  0.14917351310E+04  0.98910405415E+03 0.  0.
   -9000010    2    1    2    0  502  0.80664081833E+03 -0.10531713878E+03  0.26050694747E+03  0.13109954903E+04  0.99452712196E+03 0.  0.
        -13    1    3    3    0    0 -0.83468501063E+03  0.27147293042E+03  0.19736074556E+03  0.89963764593E+03  0.10566000000E+00 0.  1.
          4    1    3    3  501    0  0.28044192307E+02 -0.16615579164E+03  0.56761360802E+03  0.59209748507E+03  0.00000000000E+00 0.  1.
         13    1    4    4    0    0 -0.47852447404E+02 -0.15260758989E+02  0.43192652723E+03  0.43483707705E+03  0.10566000000E+00 0. -1.
         -4    1    4    4    0  502  0.85449326573E+03 -0.90056379788E+02 -0.17141957977E+03  0.87615841321E+03  0.00000000000E+00 0. -1.
<mgrwt>
<rscale>  2 0.12838027E+04</rscale>
<asrwt>0</asrwt>
<pdfrwt beam="1">  1       21 0.29447784E+00 0.12848523E+04</pdfrwt>
<pdfrwt beam="2">  1       21 0.13671149E+00 0.12848523E+04</pdfrwt>
<totfact> 0.45909283E+00</totfact>
</mgrwt>
</event>
<event>
 8    1  0.1168507E-005  0.1083124E+04  0.7818608E-02  0.8705374E-01
         21   -1    0    0  501  502  0.00000000000E+00  0.00000000000E+00  0.13428953468E+04  0.13428953468E+04  0.00000000000E+00 0.  1.
         21   -1    0    0  502  503 -0.00000000000E+00 -0.00000000000E+00 -0.91847897528E+03  0.91847897528E+03  0.00000000000E+00 0.  1.
   -9000010    2    1    2    0  503 -0.31544342558E+03  0.11816806044E+03 -0.84396849227E+02  0.10864069378E+04  0.10294119492E+04 0.  0.
    9000010    2    1    2  501    0  0.31544342558E+03 -0.11816806044E+03  0.50881322072E+03  0.11749673842E+04  0.10040862588E+04 0.  0.
        -13    1    4    4    0    0  0.66538418483E+01 -0.23991392855E+03 -0.25010699343E+03  0.34663595608E+03  0.10566000000E+00 0.  1.
          4    1    4    4  501    0  0.30878958373E+03  0.12174586810E+03  0.75892021415E+03  0.82833142815E+03  0.00000000000E+00 0.  1.
         13    1    3    3    0    0 -0.31158052920E+03 -0.15509516461E+03 -0.48774504684E+03  0.59919293900E+03  0.10566000000E+00 0. -1.
         -4    1    3    3    0  503 -0.38628963764E+01  0.27326322506E+03  0.40334819761E+03  0.48721399883E+03  0.00000000000E+00 0. -1.
<mgrwt>
<rscale>  2 0.10770630E+04</rscale>
<asrwt>0</asrwt>
<pdfrwt beam="1">  1       21 0.20659928E+00 0.10831238E+04</pdfrwt>
<pdfrwt beam="2">  1       21 0.14130446E+00 0.10831238E+04</pdfrwt>
<totfact> 0.19083155E+01</totfact>
</mgrwt>
</event>
<event>
 8    1  0.1168507E-005  0.1272900E+04  0.7818608E-02  0.8556551E-01
         21   -1    0    0  503  502  0.00000000000E+00  0.00000000000E+00  0.15054003864E+04  0.15054003864E+04  0.00000000000E+00 0. -1.
         21   -1    0    0  501  503 -0.00000000000E+00 -0.00000000000E+00 -0.14881249183E+04  0.14881249183E+04  0.00000000000E+00 0.  1.
    9000010    2    1    2  501    0 -0.74635704502E+03 -0.17502837093E+03 -0.79212960021E+03  0.14850783719E+04  0.99514054178E+03 0.  0.
   -9000010    2    1    2    0  502  0.74635704502E+03  0.17502837093E+03  0.80940506826E+03  0.15084469328E+04  0.10161652500E+04 0.  0.
        -13    1    3    3    0    0 -0.71660133799E+03 -0.27938048151E+03 -0.99344223432E+03  0.12563830686E+04  0.10566000000E+00 0.  1.
          4    1    3    3  501    0 -0.29755707031E+02  0.10435211058E+03  0.20131263411E+03  0.22869530327E+03  0.00000000000E+00 0.  1.
         13    1    4    4    0    0  0.96438270330E+03  0.17359635649E+03  0.83697512834E+03  0.12886803599E+04  0.10566000000E+00 0. -1.
         -4    1    4    4    0  502 -0.21802565829E+03  0.14320144418E+01 -0.27570060079E+02  0.21976657287E+03  0.00000000000E+00 0. -1.
<mgrwt>
<rscale>  2 0.12686996E+04</rscale>
<asrwt>0</asrwt>
<pdfrwt beam="1">  1       21 0.23160006E+00 0.12729005E+04</pdfrwt>
<pdfrwt beam="2">  1       21 0.22894230E+00 0.12729005E+04</pdfrwt>
<totfact> 0.22821733E+00</totfact>
</mgrwt>
</event>
<event>
 8    1  0.1168507E-005  0.1266073E+04  0.7818608E-02  0.8561904E-01
         21   -1    0    0  503  502  0.00000000000E+00  0.00000000000E+00  0.87153633625E+03  0.87153633625E+03  0.00000000000E+00 0. -1.
         21   -1    0    0  501  503 -0.00000000000E+00 -0.00000000000E+00 -0.19243276522E+04  0.19243276522E+04  0.00000000000E+00 0. -1.
    9000010    2    1    2  501    0  0.44854833463E+03  0.60076661316E+03 -0.86216246037E+03  0.15155204723E+04  0.99567166374E+03 0.  0.
   -9000010    2    1    2    0  502 -0.44854833463E+03 -0.60076661316E+03 -0.19062885560E+03  0.12803435162E+04  0.10202078351E+04 0.  0.
        -13    1    3    3    0    0 -0.16840176467E+03  0.56208148606E+03 -0.61433518089E+03  0.84953073927E+03  0.10566000000E+00 0.  1.
          4    1    3    3  501    0  0.61695009929E+03  0.38685127093E+02 -0.24782727947E+03  0.66598973305E+03  0.00000000000E+00 0.  1.
         13    1    4    4    0    0  0.20697279616E+03  0.15888892992E+03 -0.66815159658E+02  0.26934681569E+03  0.10566000000E+00 0. -1.
         -4    1    4    4    0  502 -0.65552113079E+03 -0.75965554308E+03 -0.12381369595E+03  0.10109967005E+04  0.00000000000E+00 0. -1.
<mgrwt>
<rscale>  2 0.12611221E+04</rscale>
<asrwt>0</asrwt>
<pdfrwt beam="1">  1       21 0.13408251E+00 0.12660727E+04</pdfrwt>
<pdfrwt beam="2">  1       21 0.29605041E+00 0.12660727E+04</pdfrwt>
<totfact> 0.47559829E+00</totfact>
</mgrwt>
</event>
<event>
 8    1  0.1168507E-005  0.1065043E+04  0.7818608E-02  0.8715929E-01
         21   -1    0    0  501  502  0.00000000000E+00  0.00000000000E+00  0.75756766166E+03  0.75756766166E+03  0.00000000000E+00 0.  1.
         21   -1    0    0  502  503 -0.00000000000E+00 -0.00000000000E+00 -0.15861163435E+04  0.15861163435E+04  0.00000000000E+00 0.  1.
   -9000010    2    1    2    0  503  0.30003720598E+03 -0.19899012270E+03 -0.69330963227E+03  0.12708241875E+04  0.10023454871E+04 0.  0.
    9000010    2    1    2  501    0 -0.30003720598E+03  0.19899012270E+03 -0.13523904958E+03  0.10728598177E+04  0.10015583827E+04 0.  0.
        -13    1    4    4    0    0 -0.41265182642E+03 -0.25981579268E+03 -0.30000356222E+03  0.57252766264E+03  0.10566000000E+00 0.  1.
          4    1    4    4  501    0  0.11261462044E+03  0.45880591539E+03  0.16476451264E+03  0.50033215503E+03  0.00000000000E+00 0.  1.
         13    1    3    3    0    0  0.52098794894E+03 -0.37615406270E+03 -0.15263560983E+03  0.66046798740E+03  0.10566000000E+00 0. -1.
         -4    1    3    3    0  503 -0.22095074296E+03  0.17716394000E+03 -0.54067402245E+03  0.61035620010E+03  0.00000000000E+00 0. -1.
<mgrwt>
<rscale>  2 0.10648574E+04</rscale>
<asrwt>0</asrwt>
<pdfrwt beam="1">  1       21 0.11654887E+00 0.10650427E+04</pdfrwt>
<pdfrwt beam="2">  1       21 0.24401790E+00 0.10650427E+04</pdfrwt>
<totfact> 0.17486308E+01</totfact>
</mgrwt>
</event>
<event>
 8    1  0.1168507E-005  0.1243611E+04  0.7818608E-02  0.8585178E-01
         21   -1    0    0  501  502  0.00000000000E+00  0.00000000000E+00  0.88377976765E+03  0.88377976765E+03  0.00000000000E+00 0.  1.
         21   -1    0    0  502  503 -0.00000000000E+00 -0.00000000000E+00 -0.16991550300E+04  0.16991550300E+04  0.00000000000E+00 0.  1.
   -9000010    2    1    2    0  503 -0.61259464195E+03 -0.48376866958E+03 -0.58906569708E+03  0.13760692304E+04  0.96812386110E+03 0.  0.
    9000010    2    1    2  501    0  0.61259464195E+03  0.48376866958E+03 -0.22630956530E+03  0.12068655673E+04  0.89219065062E+03 0.  0.
        -13    1    4    4    0    0  0.71624343667E+03  0.54615795040E+02 -0.26038566071E+03  0.76406037007E+03  0.10566000000E+00 0.  1.
          4    1    4    4  501    0 -0.10364879472E+03  0.42915287454E+03  0.34076095405E+02  0.44280519719E+03  0.00000000000E+00 0.  1.
         13    1    3    3    0    0 -0.39042889076E+03 -0.76989577532E+03 -0.30433372293E+03  0.91531046627E+03  0.10566000000E+00 0. -1.
         -4    1    3    3    0  503 -0.22216575119E+03  0.28612710573E+03 -0.28473197415E+03  0.46075876415E+03  0.00000000000E+00 0. -1.
<mgrwt>
<rscale>  2 0.12288103E+04</rscale>
<asrwt>0</asrwt>
<pdfrwt beam="1">  1       21 0.13596612E+00 0.12436109E+04</pdfrwt>
<pdfrwt beam="2">  1       21 0.26140846E+00 0.12436109E+04</pdfrwt>
<totfact> 0.81063556E+00</totfact>
</mgrwt>
</event>
<event>
 8    1  0.1168507E-005  0.1175620E+04  0.7818608E-02  0.8644425E-01
         21   -1    0    0  503  502  0.00000000000E+00  0.00000000000E+00  0.12385061956E+04  0.12385061956E+04  0.00000000000E+00 0. -1.
         21   -1    0    0  501  503 -0.00000000000E+00 -0.00000000000E+00 -0.10272073749E+04  0.10272073749E+04  0.00000000000E+00 0. -1.
    9000010    2    1    2  501    0  0.44100912686E+03  0.43273984942E+03  0.97807571822E+02  0.11796813300E+04  0.10001644325E+04 0.  0.
   -9000010    2    1    2    0  502 -0.44100912686E+03 -0.43273984942E+03  0.11349124889E+03  0.10860322404E+04  0.88590797283E+03 0.  0.
        -13    1    3    3    0    0  0.23648378029E+03  0.68904984253E+03  0.30719318108E+03  0.79062122758E+03  0.10566000000E+00 0.  1.
          4    1    3    3  501    0  0.20452534657E+03 -0.25630999311E+03 -0.20938560926E+03  0.38906010246E+03  0.00000000000E+00 0.  1.
         13    1    4    4    0    0 -0.13282686348E+03 -0.12653974357E+03 -0.38398890500E+03  0.42556171432E+03  0.10566000000E+00 0. -1.
         -4    1    4    4    0  502 -0.30818226338E+03 -0.30620010585E+03  0.49748015389E+03  0.66047052607E+03  0.00000000000E+00 0. -1.
<mgrwt>
<rscale>  2 0.11509719E+04</rscale>
<asrwt>0</asrwt>
<pdfrwt beam="1">  1       21 0.19053941E+00 0.11756197E+04</pdfrwt>
<pdfrwt beam="2">  1       21 0.15803190E+00 0.11756197E+04</pdfrwt>
<totfact> 0.17720207E+01</totfact>
</mgrwt>
</event>
<event>
 8    1  0.1168507E-005  0.1167559E+04  0.7818608E-02  0.8632415E-01
         21   -1    0    0  503  502  0.00000000000E+00  0.00000000000E+00  0.13434069888E+04  0.13434069888E+04  0.00000000000E+00 0.  1.
         21   -1    0    0  501  503 -0.00000000000E+00 -0.00000000000E+00 -0.10694827201E+04  0.10694827201E+04  0.00000000000E+00 0.  1.
    9000010    2    1    2  501    0 -0.15300548605E+03 -0.46118925121E+03 -0.14676680940E+03  0.11767476747E+04  0.10616441915E+04 0.  0.
   -9000010    2    1    2    0  502  0.15300548605E+03  0.46118925121E+03  0.42069107809E+03  0.12361420342E+04  0.10559166356E+04 0.  0.
        -13    1    3    3    0    0 -0.44024158996E+03  0.15814237797E+03  0.38478557626E+02  0.46936369672E+03  0.10566000000E+00 0.  1.
          4    1    3    3  501    0  0.28723610391E+03 -0.61933162918E+03 -0.18524536702E+03  0.70738397797E+03  0.00000000000E+00 0.  1.
         13    1    4    4    0    0  0.49402060254E+03  0.42465498466E+03 -0.50437054474E+02  0.65340042804E+03  0.10566000000E+00 0. -1.
         -4    1    4    4    0  502 -0.34101511648E+03  0.36534266548E+02  0.47112813257E+03  0.58274160620E+03  0.00000000000E+00 0. -1.
<mgrwt>
<rscale>  2 0.11662557E+04</rscale>
<asrwt>0</asrwt>
<pdfrwt beam="1">  1       21 0.20667800E+00 0.11675592E+04</pdfrwt>
<pdfrwt beam="2">  1       21 0.16453580E+00 0.11675592E+04</pdfrwt>
<totfact> 0.11655790E+01</totfact>
</mgrwt>
</event>
<event>
 8    1  0.1168507E-005  0.1105211E+04  0.7818608E-02  0.8683924E-01
         21   -1    0    0  503  502  0.00000000000E+00  0.00000000000E+00  0.96381203325E+03  0.96381203325E+03  0.00000000000E+00 0. -1.
         21   -1    0    0  501  503 -0.00000000000E+00 -0.00000000000E+00 -0.12548832387E+04  0.12548832387E+04  0.00000000000E+00 0. -1.
    9000010    2    1    2  501    0  0.30608055763E+03 -0.31778816211E+03 -0.16361158290E+03  0.11061588298E+04  0.10010714175E+04 0.  0.
   -9000010    2    1    2    0  502 -0.30608055763E+03  0.31778816211E+03 -0.12745962255E+03  0.11125364422E+04  0.10133196712E+04 0.  0.
        -13    1    3    3    0    0  0.19070772907E+03  0.25558233542E+03 -0.36769211775E+03  0.48671272094E+03  0.10566000000E+00 0.  1.
          4    1    3    3  501    0  0.11537282856E+03 -0.57337049754E+03  0.20408053485E+03  0.61944610881E+03  0.00000000000E+00 0.  1.
         13    1    4    4    0    0 -0.41548875090E+03  0.38019623606E+03 -0.47885783021E+03  0.73924617873E+03  0.10566000000E+00 0. -1.
         -4    1    4    4    0  502  0.10940819327E+03 -0.62408073950E+02  0.35139820766E+03  0.37329026346E+03  0.00000000000E+00 0. -1.
<mgrwt>
<rscale>  2 0.11023955E+04</rscale>
<asrwt>0</asrwt>
<pdfrwt beam="1">  1       21 0.14827878E+00 0.11052110E+04</pdfrwt>
<pdfrwt beam="2">  1       21 0.19305896E+00 0.11052110E+04</pdfrwt>
<totfact> 0.20940238E+01</totfact>
</mgrwt>
</event>
<event>
 8    1  0.1168507E-005  0.1507196E+04  0.7818608E-02  0.8418822E-01
         21   -1    0    0  503  502  0.00000000000E+00  0.00000000000E+00  0.29073492704E+04  0.29073492704E+04  0.00000000000E+00 0.  1.
         21   -1    0    0  501  503 -0.00000000000E+00 -0.00000000000E+00 -0.80049171339E+03  0.80049171339E+03  0.00000000000E+00 0. -1.
    9000010    2    1    2  501    0 -0.11437085670E+04 -0.77748473556E+02  0.55295940099E+03  0.16054295456E+04  0.97853248055E+03 0.  0.
   -9000010    2    1    2    0  502  0.11437085670E+04  0.77748473556E+02  0.15538981561E+04  0.21024114382E+04  0.83151684566E+03 0.  0.
        -13    1    3    3    0    0 -0.50628924405E+03  0.30924377600E+03 -0.11500731541E+03  0.60430721110E+03  0.10566000000E+00 0.  1.
          4    1    3    3  501    0 -0.63741932296E+03 -0.38699224955E+03  0.66796671640E+03  0.10011223345E+04  0.00000000000E+00 0.  1.
         13    1    4    4    0    0  0.10838965451E+04 -0.13090908510E+03  0.90475392335E+03  0.14179381446E+04  0.10566000000E+00 0. -1.
         -4    1    4    4    0  502  0.59812021945E+02  0.20865755866E+03  0.64914423272E+03  0.68447329358E+03  0.00000000000E+00 0. -1.
<mgrwt>
<rscale>  2 0.14839049E+04</rscale>
<asrwt>0</asrwt>
<pdfrwt beam="1">  1       21 0.44728450E+00 0.15071960E+04</pdfrwt>
<pdfrwt beam="2">  1       21 0.12315257E+00 0.15071960E+04</pdfrwt>
<totfact> 0.51068517E-01</totfact>
</mgrwt>
</event>
<event>
 8    1  0.1168507E-005  0.1069786E+04  0.7818608E-02  0.8738895E-01
         21   -1    0    0  501  502  0.00000000000E+00  0.00000000000E+00  0.87935138593E+03  0.87935138593E+03  0.00000000000E+00 0. -1.
         21   -1    0    0  502  503 -0.00000000000E+00 -0.00000000000E+00 -0.13784373485E+04  0.13784373485E+04  0.00000000000E+00 0. -1.
   -9000010    2    1    2    0  503  0.35389537112E+03 -0.58193734865E+02 -0.70911682105E+03  0.12834678555E+04  0.10078762948E+04 0.  0.
    9000010    2    1    2  501    0 -0.35389537112E+03  0.58193734865E+02  0.21003085845E+03  0.97432087899E+03  0.88122628721E+03 0.  0.
        -13    1    4    4    0    0 -0.28050980587E+03  0.26669236732E+03  0.48564828020E+03  0.62101918908E+03  0.10566000000E+00 0.  1.
          4    1    4    4  501    0 -0.73385565247E+02 -0.20849863246E+03 -0.27561742175E+03  0.35330168991E+03  0.00000000000E+00 0.  1.
         13    1    3    3    0    0  0.41840766875E+03  0.86907840253E+02  0.11632719140E+03  0.44288822133E+03  0.10566000000E+00 0. -1.
         -4    1    3    3    0  503 -0.64512297634E+02 -0.14510157512E+03 -0.82544401245E+03  0.84057963415E+03  0.00000000000E+00 0. -1.
<mgrwt>
<rscale>  2 0.10388795E+04</rscale>
<asrwt>0</asrwt>
<pdfrwt beam="1">  1       21 0.13528483E+00 0.10697865E+04</pdfrwt>
<pdfrwt beam="2">  1       21 0.21206729E+00 0.10697865E+04</pdfrwt>
<totfact> 0.19774393E+01</totfact>
</mgrwt>
</event>
<event>
 8    1  0.1168507E-005  0.1095260E+04  0.7818608E-02  0.8695665E-01
         21   -1    0    0  501  502  0.00000000000E+00  0.00000000000E+00  0.95836045110E+03  0.95836045110E+03  0.00000000000E+00 0. -1.
         21   -1    0    0  502  503 -0.00000000000E+00 -0.00000000000E+00 -0.13225666484E+04  0.13225666484E+04  0.00000000000E+00 0. -1.
   -9000010    2    1    2    0  503  0.10218011905E+03  0.29366704545E+03  0.13178825264E+03  0.11031605042E+04  0.10501970502E+04 0.  0.
    9000010    2    1    2  501    0 -0.10218011905E+03 -0.29366704545E+03 -0.49599444993E+03  0.11777665953E+04  0.10219797201E+04 0.  0.
        -13    1    4    4    0    0  0.12950728451E+03 -0.31675531384E+03  0.23200511318E+03  0.41343977711E+03  0.10566000000E+00 0.  1.
          4    1    4    4  501    0 -0.23168740356E+03  0.23088268396E+02 -0.72799956310E+03  0.76432681818E+03  0.00000000000E+00 0.  1.
         13    1    3    3    0    0  0.15401602126E+03  0.45180211492E+03 -0.35100247133E+03  0.59249373996E+03  0.10566000000E+00 0. -1.
         -4    1    3    3    0  503 -0.51835902211E+02 -0.15813506947E+03  0.48279072396E+03  0.51066676424E+03  0.00000000000E+00 0. -1.
<mgrwt>
<rscale>  2 0.10884402E+04</rscale>
<asrwt>0</asrwt>
<pdfrwt beam="1">  1       21 0.14744007E+00 0.10952602E+04</pdfrwt>
<pdfrwt beam="2">  1       21 0.20347179E+00 0.10952602E+04</pdfrwt>
<totfact> 0.17693685E+01</totfact>
</mgrwt>
</event>
<event>
 8    1  0.1168507E-005  0.1256580E+04  0.7818608E-02  0.8569501E-01
         21   -1    0    0  501  502  0.00000000000E+00  0.00000000000E+00  0.15925517076E+04  0.15925517076E+04  0.00000000000E+00 0.  1.
         21   -1    0    0  502  503 -0.00000000000E+00 -0.00000000000E+00 -0.98032923158E+03  0.98032923158E+03  0.00000000000E+00 0. -1.
   -9000010    2    1    2    0  503 -0.59262654353E+03 -0.39738317257E+03  0.42464862943E+03  0.13263937653E+04  0.10343473093E+04 0.  0.
    9000010    2    1    2  501    0  0.59262654353E+03  0.39738317257E+03  0.18757384654E+03  0.12464871738E+04  0.10047023045E+04 0.  0.
        -13    1    4    4    0    0  0.20120504979E+02 -0.29265903323E+03  0.19066072579E+03  0.34986521401E+03  0.10566000000E+00 0.  1.
          4    1    4    4  501    0  0.57250603855E+03  0.69004220580E+03 -0.30868792530E+01  0.89662195979E+03  0.00000000000E+00 0.  1.
         13    1    3    3    0    0 -0.71679446442E+03 -0.28640732414E+03 -0.97779979411E+02  0.77806451858E+03  0.10566000000E+00 0. -1.
         -4    1    3    3    0  503  0.12416792089E+03 -0.11097584843E+03  0.52242860884E+03  0.54832924676E+03  0.00000000000E+00 0. -1.
<mgrwt>
<rscale>  2 0.12504640E+04</rscale>
<asrwt>0</asrwt>
<pdfrwt beam="1">  1       21 0.24500795E+00 0.12565803E+04</pdfrwt>
<pdfrwt beam="2">  1       21 0.15081988E+00 0.12565803E+04</pdfrwt>
<totfact> 0.77761080E+00</totfact>
</mgrwt>
</event>
<event>
 8    1  0.1168507E-005  0.1440862E+04  0.7818608E-02  0.8446044E-01
         21   -1    0    0  501  502  0.00000000000E+00  0.00000000000E+00  0.21264001794E+04  0.21264001794E+04  0.00000000000E+00 0. -1.
         21   -1    0    0  502  503 -0.00000000000E+00 -0.00000000000E+00 -0.98996022145E+03  0.98996022145E+03  0.00000000000E+00 0.  1.
   -9000010    2    1    2    0  503 -0.73141250158E+02  0.10238912675E+04  0.79784493862E+03  0.16470095872E+04  0.10111286091E+04 0.  0.
    9000010    2    1    2  501    0  0.73141250158E+02 -0.10238912675E+04  0.33859501928E+03  0.14693508136E+04  0.99531013067E+03 0.  0.
        -13    1    4    4    0    0 -0.41164558667E+02 -0.80873057252E+03  0.67484331077E+03  0.10541125011E+04  0.10566000000E+00 0.  1.
          4    1    4    4  501    0  0.11430580883E+03 -0.21516069496E+03 -0.33624829149E+03  0.41523831244E+03  0.00000000000E+00 0.  1.
         13    1    3    3    0    0 -0.53877284099E+03  0.64532108064E+03  0.45635723300E+03  0.95654451364E+03  0.10566000000E+00 0. -1.
         -4    1    3    3    0  503  0.46563159083E+03  0.37857018684E+03  0.34148770562E+03  0.69046507358E+03  0.00000000000E+00 0. -1.
<mgrwt>
<rscale>  2 0.14380902E+04</rscale>
<asrwt>0</asrwt>
<pdfrwt beam="1">  1       21 0.32713849E+00 0.14408623E+04</pdfrwt>
<pdfrwt beam="2">  1       21 0.15230157E+00 0.14408623E+04</pdfrwt>
<totfact> 0.18881707E+00</totfact>
</mgrwt>
</event>
<event>
 8    1  0.1168507E-005  0.1227656E+04  0.7818608E-02  0.8609762E-01
         21   -1    0    0  501  502  0.00000000000E+00  0.00000000000E+00  0.78370140421E+03  0.78370140421E+03  0.00000000000E+00 0.  1.
         21   -1    0    0  502  503 -0.00000000000E+00 -0.00000000000E+00 -0.21921149289E+04  0.21921149289E+04  0.00000000000E+00 0.  1.
   -9000010    2    1    2    0  503 -0.39022179049E+03 -0.28801246558E+03 -0.14117202931E+04  0.18708535065E+04  0.11277918383E+04 0.  0.
    9000010    2    1    2  501    0  0.39022179049E+03  0.28801246558E+03  0.33067684273E+01  0.11049628266E+04  0.99282812583E+03 0.  0.
        -13    1    4    4    0    0  0.73789467830E+02 -0.89799200509E+02  0.43472094809E+03  0.44999010639E+03  0.10566000000E+00 0.  1.
          4    1    4    4  501    0  0.31643232266E+03  0.37781166609E+03 -0.43141417966E+03  0.65497272025E+03  0.00000000000E+00 0.  1.
         13    1    3    3    0    0 -0.24778349982E+03  0.49508999426E+02  0.13142656100E+03  0.28481705691E+03  0.10566000000E+00 0. -1.
         -4    1    3    3    0  503 -0.14243829067E+03 -0.33752146501E+03 -0.15431468541E+04  0.15860364496E+04  0.00000000000E+00 0. -1.
<mgrwt>
<rscale>  2 0.11957596E+04</rscale>
<asrwt>0</asrwt>
<pdfrwt beam="1">  1       21 0.12056945E+00 0.12276558E+04</pdfrwt>
<pdfrwt beam="2">  1       21 0.33724845E+00 0.12276558E+04</pdfrwt>
<totfact> 0.33324755E+00</totfact>
</mgrwt>
</event>
<event>
 8    1  0.1168507E-005  0.1050958E+04  0.7818608E-02  0.8734598E-01
         21   -1    0    0  501  502  0.00000000000E+00  0.00000000000E+00  0.14754329839E+04  0.14754329839E+04  0.00000000000E+00 0. -1.
         21   -1    0    0  502  503 -0.00000000000E+00 -0.00000000000E+00 -0.76958011155E+03  0.76958011155E+03  0.00000000000E+00 0. -1.
   -9000010    2    1    2    0  503  0.11714810303E+03 -0.31190796087E+03  0.97370889463E+02  0.10554591757E+04  0.99674606966E+03 0.  0.
    9000010    2    1    2  501    0 -0.11714810303E+03  0.31190796087E+03  0.60848198289E+03  0.11895539197E+04  0.96632186686E+03 0.  0.
        -13    1    4    4    0    0 -0.52414999106E+02  0.54121782539E+02  0.83618004646E+03  0.83956749624E+03  0.10566000000E+00 0.  1.
          4    1    4    4  501    0 -0.64733103920E+02  0.25778617833E+03 -0.22769806357E+03  0.34998642350E+03  0.00000000000E+00 0.  1.
         13    1    3    3    0    0 -0.70899377032E+02 -0.42173571032E+03  0.46275370390E+03  0.63010216050E+03  0.10566000000E+00 0. -1.
         -4    1    3    3    0  503  0.18804748006E+03  0.10982774945E+03 -0.36538281444E+03  0.42535701522E+03  0.00000000000E+00 0. -1.
<mgrwt>
<rscale>  2 0.10436806E+04</rscale>
<asrwt>0</asrwt>
<pdfrwt beam="1">  1       21 0.22698969E+00 0.10509581E+04</pdfrwt>
<pdfrwt beam="2">  1       21 0.11839694E+00 0.10509581E+04</pdfrwt>
<totfact> 0.22432408E+01</totfact>
</mgrwt>
</event>
<event>
 8    1  0.1168507E-005  0.1203846E+04  0.7818608E-02  0.8605381E-01
         21   -1    0    0  503  502  0.00000000000E+00  0.00000000000E+00  0.20918381437E+04  0.20918381437E+04  0.00000000000E+00 0. -1.
         21   -1    0    0  501  503 -0.00000000000E+00 -0.00000000000E+00 -0.70272016849E+03  0.70272016849E+03  0.00000000000E+00 0. -1.
    9000010    2    1    2  501    0 -0.13805709560E+03  0.66238861477E+03  0.90212124938E+03  0.15043494756E+04  0.99570385029E+03 0.  0.
   -9000010    2    1    2    0  502  0.13805709560E+03 -0.66238861477E+03  0.48699672580E+03  0.12902088366E+04  0.98471041041E+03 0.  0.
        -13    1    3    3    0    0  0.12130318182E+03  0.16642507134E+03  0.92159583283E+03  0.94432550349E+03  0.10566000000E+00 0.  1.
          4    1    3    3  501    0 -0.25936027742E+03  0.49596354343E+03 -0.19474583453E+02  0.56002397209E+03  0.00000000000E+00 0.  1.
         13    1    4    4    0    0  0.43569392110E+03 -0.42059940409E+03  0.63656134958E+03  0.87860310411E+03  0.10566000000E+00 0. -1.
         -4    1    4    4    0  502 -0.29763682550E+03 -0.24178921069E+03 -0.14956462379E+03  0.41160573245E+03  0.00000000000E+00 0. -1.
<mgrwt>
<rscale>  2 0.12015701E+04</rscale>
<asrwt>0</asrwt>
<pdfrwt beam="1">  1       21 0.32182125E+00 0.12038458E+04</pdfrwt>
<pdfrwt beam="2">  1       21 0.10811080E+00 0.12038458E+04</pdfrwt>
<totfact> 0.58044342E+00</totfact>
</mgrwt>
</event>
<event>
 8    1  0.1168507E-005  0.1105013E+04  0.7818608E-02  0.8689829E-01
         21   -1    0    0  501  502  0.00000000000E+00  0.00000000000E+00  0.31567974440E+04  0.31567974440E+04  0.00000000000E+00 0. -1.
         21   -1    0    0  502  503 -0.00000000000E+00 -0.00000000000E+00 -0.37692021983E+03  0.37692021983E+03  0.00000000000E+00 0. -1.
   -9000010    2    1    2    0  503 -0.33660688276E+03  0.16579419465E+03  0.11990023160E+04  0.16049305135E+04  0.99870090163E+03 0.  0.
    9000010    2    1    2  501    0  0.33660688276E+03 -0.16579419465E+03  0.15808749081E+04  0.19287871503E+04  0.10393567662E+04 0.  0.
        -13    1    4    4    0    0 -0.32164346957E+03  0.16895683519E+03  0.45371739057E+03  0.58125761530E+03  0.10566000000E+00 0.  1.
          4    1    4    4  501    0  0.65825035233E+03 -0.33475102984E+03  0.11271575175E+04  0.13475295350E+04  0.00000000000E+00 0.  1.
         13    1    3    3    0    0 -0.43408992049E+03  0.28435377946E+03  0.13142488829E+04  0.14129901869E+04  0.10566000000E+00 0. -1.
         -4    1    3    3    0  503  0.97483037727E+02 -0.11855958481E+03 -0.11524656688E+03  0.19194032659E+03  0.00000000000E+00 0. -1.
<mgrwt>
<rscale>  2 0.10953495E+04</rscale>
<asrwt>0</asrwt>
<pdfrwt beam="1">  1       21 0.48566113E+00 0.11050133E+04</pdfrwt>
<pdfrwt beam="2">  1       21 0.57987728E-01 0.11050133E+04</pdfrwt>
<totfact> 0.19817635E+00</totfact>
</mgrwt>
</event>
<event>
 8    1  0.1168507E-005  0.1133646E+04  0.7818608E-02  0.8661027E-01
         21   -1    0    0  503  502  0.00000000000E+00  0.00000000000E+00  0.11276753948E+04  0.11276753948E+04  0.00000000000E+00 0. -1.
         21   -1    0    0  501  503 -0.00000000000E+00 -0.00000000000E+00 -0.11388999726E+04  0.11388999726E+04  0.00000000000E+00 0. -1.
    9000010    2    1    2  501    0  0.27802433066E+03  0.48669203741E+03  0.11464074840E+03  0.11394273579E+04  0.98538598276E+03 0.  0.
   -9000010    2    1    2    0  502 -0.27802433066E+03 -0.48669203741E+03 -0.12586532617E+03  0.11271480095E+04  0.96977001770E+03 0.  0.
        -13    1    3    3    0    0  0.40651114690E+03  0.49845294821E+03 -0.29669390685E+03  0.70833180054E+03  0.10566000000E+00 0.  1.
          4    1    3    3  501    0 -0.12848681624E+03 -0.11760910798E+02  0.41133465525E+03  0.43109555736E+03  0.00000000000E+00 0.  1.
         13    1    4    4    0    0  0.91168411489E+02 -0.68155273100E+03 -0.16715822700E+03  0.70764941066E+03  0.10566000000E+00 0. -1.
         -4    1    4    4    0  502 -0.36919274215E+03  0.19486069359E+03  0.41292900826E+02  0.41949859883E+03  0.00000000000E+00 0. -1.
<mgrwt>
<rscale>  2 0.11302435E+04</rscale>
<asrwt>0</asrwt>
<pdfrwt beam="1">  1       21 0.17348852E+00 0.11336455E+04</pdfrwt>
<pdfrwt beam="2">  1       21 0.17521538E+00 0.11336455E+04</pdfrwt>
<totfact> 0.17589037E+01</totfact>
</mgrwt>
</event>
<event>
 8    1  0.1168507E-005  0.1112320E+04  0.7818608E-02  0.8685605E-01
         21   -1    0    0  503  502  0.00000000000E+00  0.00000000000E+00  0.61716738381E+03  0.61716738381E+03  0.00000000000E+00 0.  1.
         21   -1    0    0  501  503 -0.00000000000E+00 -0.00000000000E+00 -0.19486272951E+04  0.19486272951E+04  0.00000000000E+00 0.  1.
    9000010    2    1    2  501    0  0.26383777700E+03 -0.23989471326E+03 -0.83272724045E+03  0.13894932437E+04  0.10536113948E+04 0.  0.
   -9000010    2    1    2    0  502 -0.26383777700E+03  0.23989471326E+03 -0.49873267081E+03  0.11763014352E+04  0.10038879138E+04 0.  0.
        -13    1    3    3    0    0  0.44930491285E+03  0.37829566798E+02 -0.93682487877E+03  0.10396859360E+04  0.10566000000E+00 0.  1.
          4    1    3    3  501    0 -0.18546713585E+03 -0.27772428006E+03  0.10409763832E+03  0.34980730770E+03  0.00000000000E+00 0.  1.
         13    1    4    4    0    0 -0.12676049899E+03 -0.31968901756E+03 -0.49182152060E+03  0.60013141172E+03  0.10566000000E+00 0. -1.
         -4    1    4    4    0  502 -0.13707727801E+03  0.55958373082E+03 -0.69111502175E+01  0.57617002347E+03  0.00000000000E+00 0. -1.
<mgrwt>
<rscale>  2 0.11003848E+04</rscale>
<asrwt>0</asrwt>
<pdfrwt beam="1">  1       21 0.94948829E-01 0.11123205E+04</pdfrwt>
<pdfrwt beam="2">  1       21 0.29978881E+00 0.11123205E+04</pdfrwt>
<totfact> 0.11904413E+01</totfact>
</mgrwt>
</event>
<event>
 8    1  0.1168507E-005  0.1043745E+04  0.7818608E-02  0.8738758E-01
         21   -1    0    0  503  502  0.00000000000E+00  0.00000000000E+00  0.13816586620E+04  0.13816586620E+04  0.00000000000E+00 0. -1.
         21   -1    0    0  501  503 -0.00000000000E+00 -0.00000000000E+00 -0.87214114442E+03  0.87214114442E+03  0.00000000000E+00 0. -1.
    9000010    2    1    2  501    0  0.29554202544E+03 -0.89218079322E+02 -0.12044822052E+03  0.10506718345E+04  0.99704492148E+03 0.  0.
   -9000010    2    1    2    0  502 -0.29554202544E+03  0.89218079322E+02  0.62996573810E+03  0.12031279719E+04  0.97742269833E+03 0.  0.
        -13    1    3    3    0    0  0.58994978463E+03 -0.29648058680E+03 -0.18318658371E+03  0.68519984117E+03  0.10566000000E+00 0.  1.
          4    1    3    3  501    0 -0.29440775919E+03  0.20726250748E+03  0.62738363186E+02  0.36547199330E+03  0.00000000000E+00 0.  1.
         13    1    4    4    0    0 -0.52709880412E+02  0.10812600421E+02 -0.26607477257E+03  0.27146093564E+03  0.10566000000E+00 0. -1.
         -4    1    4    4    0  502 -0.24283214503E+03  0.78405478900E+02  0.89604051066E+03  0.93166703630E+03  0.00000000000E+00 0. -1.
<mgrwt>
<rscale>  2 0.10390312E+04</rscale>
<asrwt>0</asrwt>
<pdfrwt beam="1">  1       21 0.21256287E+00 0.10437450E+04</pdfrwt>
<pdfrwt beam="2">  1       21 0.13417556E+00 0.10437450E+04</pdfrwt>
<totfact> 0.20200193E+01</totfact>
</mgrwt>
</event>
<event>
 8    1  0.1168507E-005  0.1245382E+04  0.7818608E-02  0.8579462E-01
         21   -1    0    0  503  502  0.00000000000E+00  0.00000000000E+00  0.18718727537E+04  0.18718727537E+04  0.00000000000E+00 0. -1.
         21   -1    0    0  501  503 -0.00000000000E+00 -0.00000000000E+00 -0.14269543635E+04  0.14269543635E+04  0.00000000000E+00 0. -1.
    9000010    2    1    2  501    0  0.68505867035E+03  0.24610873881E+03 -0.86753819475E+03  0.14895400822E+04  0.96759094864E+03 0.  0.
   -9000010    2    1    2    0  502 -0.68505867035E+03 -0.24610873881E+03  0.13124565850E+04  0.18092870351E+04  0.10104961131E+04 0.  0.
        -13    1    3    3    0    0 -0.93704037417E+02 -0.12285457070E+03  0.10753118650E+03  0.18824627329E+03  0.10566000000E+00 0.  1.
          4    1    3    3  501    0  0.77876270776E+03  0.36896330952E+03 -0.97506938125E+03  0.13012938089E+04  0.00000000000E+00 0.  1.
         13    1    4    4    0    0 -0.37019405854E+01  0.17592538007E+03 -0.87212469244E+02  0.19639111404E+03  0.10566000000E+00 0. -1.
         -4    1    4    4    0  502 -0.68135672976E+03 -0.42203411888E+03  0.13996690542E+04  0.16128959210E+04  0.00000000000E+00 0. -1.
<mgrwt>
<rscale>  2 0.12366527E+04</rscale>
<asrwt>0</asrwt>
<pdfrwt beam="1">  1       21 0.28798043E+00 0.12453824E+04</pdfrwt>
<pdfrwt beam="2">  1       21 0.21953144E+00 0.12453824E+04</pdfrwt>
<totfact> 0.10547094E+00</totfact>
</mgrwt>
</event>
<event>
 8    1  0.1168507E-005  0.1095705E+04  0.7818608E-02  0.8691844E-01
         21   -1    0    0  501  502  0.00000000000E+00  0.00000000000E+00  0.14784394437E+04  0.14784394437E+04  0.00000000000E+00 0. -1.
         21   -1    0    0  502  503 -0.00000000000E+00 -0.00000000000E+00 -0.83069589127E+03  0.83069589127E+03  0.00000000000E+00 0. -1.
   -9000010    2    1    2    0  503  0.50566630932E+02  0.44353366552E+03  0.53256700087E+03  0.12182760045E+04  0.10006446502E+04 0.  0.
    9000010    2    1    2  501    0 -0.50566630932E+02 -0.44353366552E+03  0.11517655154E+03  0.10908593305E+04  0.98865026388E+03 0.  0.
        -13    1    4    4    0    0  0.14761380349E+03  0.12260368248E+03 -0.30370895925E+03  0.35925010930E+03  0.10566000000E+00 0.  1.
          4    1    4    4  501    0 -0.19818043443E+03 -0.56613734800E+03  0.41888551079E+03  0.73160922119E+03  0.00000000000E+00 0.  1.
         13    1    3    3    0    0 -0.11832729030E+03 -0.30563043848E+03  0.16033296966E+03  0.36485337449E+03  0.10566000000E+00 0. -1.
         -4    1    3    3    0  503  0.16889392124E+03  0.74916410400E+03  0.37223403121E+03  0.85342262996E+03  0.00000000000E+00 0. -1.
<mgrwt>
<rscale>  2 0.10929587E+04</rscale>
<asrwt>0</asrwt>
<pdfrwt beam="1">  1       21 0.22745222E+00 0.10957047E+04</pdfrwt>
<pdfrwt beam="2">  1       21 0.12779937E+00 0.10957047E+04</pdfrwt>
<totfact> 0.17755283E+01</totfact>
</mgrwt>
</event>
<event>
 8    1  0.1168507E-005  0.1024116E+04  0.7818608E-02  0.8763080E-01
         21   -1    0    0  503  502  0.00000000000E+00  0.00000000000E+00  0.10262261817E+04  0.10262261817E+04  0.00000000000E+00 0. -1.
         21   -1    0    0  501  503 -0.00000000000E+00 -0.00000000000E+00 -0.97643906778E+03  0.97643906778E+03  0.00000000000E+00 0. -1.
    9000010    2    1    2  501    0 -0.36100349860E+02 -0.50028046790E+02  0.34303026435E+02  0.97843238763E+03  0.97588277924E+03 0.  0.
   -9000010    2    1    2    0  502  0.36100349860E+02  0.50028046790E+02  0.15484087464E+02  0.10242328618E+04  0.10222559159E+04 0.  0.
        -13    1    3    3    0    0 -0.15853836723E+03 -0.12011483176E+03  0.47539546515E+03  0.51532790157E+03  0.10566000000E+00 0.  1.
          4    1    3    3  501    0  0.12243801737E+03  0.70086784968E+02 -0.44109243871E+03  0.46310448606E+03  0.00000000000E+00 0.  1.
         13    1    4    4    0    0 -0.28057313084E+03  0.42786306524E+03 -0.91490504396E+02  0.51976784039E+03  0.10566000000E+00 0. -1.
         -4    1    4    4    0  502  0.31667348070E+03 -0.37783501845E+03  0.10697459186E+03  0.50446502143E+03  0.00000000000E+00 0. -1.
<mgrwt>
<rscale>  2 0.10123431E+04</rscale>
<asrwt>0</asrwt>
<pdfrwt beam="1">  1       21 0.15788095E+00 0.10241158E+04</pdfrwt>
<pdfrwt beam="2">  1       21 0.15022139E+00 0.10241158E+04</pdfrwt>
<totfact> 0.40030081E+01</totfact>
</mgrwt>
</event>
<event>
 8    1  0.1168507E-005  0.1141462E+04  0.7818608E-02  0.8655627E-01
         21   -1    0    0  501  502  0.00000000000E+00  0.00000000000E+00  0.13956708774E+04  0.13956708774E+04  0.00000000000E+00 0. -1.
         21   -1    0    0  502  503 -0.00000000000E+00 -0.00000000000E+00 -0.10417180890E+04  0.10417180890E+04  0.00000000000E+00 0. -1.
   -9000010    2    1    2    0  503 -0.41579522379E+03  0.21018117958E+03 -0.24271604781E+03  0.11493873589E+04  0.10223103367E+04 0.  0.
    9000010    2    1    2  501    0  0.41579522379E+03 -0.21018117958E+03  0.59666883619E+03  0.12880016075E+04  0.10420521313E+04 0.  0.
        -13    1    4    4    0    0  0.60557730215E+02 -0.18963495353E+02  0.82298323556E+03  0.82542611422E+03  0.10566000000E+00 0.  1.
          4    1    4    4  501    0  0.35523749357E+03 -0.19121768423E+03 -0.22631439938E+03  0.46257549326E+03  0.00000000000E+00 0.  1.
         13    1    3    3    0    0 -0.33606920878E+03 -0.30884068372E+03 -0.39395651616E+03  0.60293186083E+03  0.10566000000E+00 0. -1.
         -4    1    3    3    0  503 -0.79726015005E+02  0.51902186330E+03  0.15124046835E+03  0.54645549802E+03  0.00000000000E+00 0. -1.
<mgrwt>
<rscale>  2 0.11369363E+04</rscale>
<asrwt>0</asrwt>
<pdfrwt beam="1">  1       21 0.21471860E+00 0.11414615E+04</pdfrwt>
<pdfrwt beam="2">  1       21 0.16026432E+00 0.11414615E+04</pdfrwt>
<totfact> 0.11066300E+01</totfact>
</mgrwt>
</event>
<event>
 8    1  0.1168507E-005  0.1053723E+04  0.7818608E-02  0.8738863E-01
         21   -1    0    0  501  502  0.00000000000E+00  0.00000000000E+00  0.41588259073E+03  0.41588259073E+03  0.00000000000E+00 0. -1.
         21   -1    0    0  502  503 -0.00000000000E+00 -0.00000000000E+00 -0.26175439058E+04  0.26175439058E+04  0.00000000000E+00 0. -1.
   -9000010    2    1    2    0  503  0.31207102351E+03 -0.15550299051E+03 -0.13560187803E+04  0.16823371027E+04  0.93268520456E+03 0.  0.
    9000010    2    1    2  501    0 -0.31207102351E+03  0.15550299051E+03 -0.84564253471E+03  0.13510893938E+04  0.99436499822E+03 0.  0.
        -13    1    4    4    0    0 -0.13990063753E+03 -0.35021941807E+03 -0.70360734087E+03  0.79830390859E+03  0.10566000000E+00 0.  1.
          4    1    4    4  501    0 -0.17217038599E+03  0.50572240857E+03 -0.14203519383E+03  0.55278548519E+03  0.00000000000E+00 0.  1.
         13    1    3    3    0    0  0.33304321078E+03 -0.26756985899E+02 -0.14436362043E+02  0.33442807337E+03  0.10566000000E+00 0. -1.
         -4    1    3    3    0  503 -0.20972187269E+02 -0.12874600461E+03 -0.13415824183E+04  0.13479090294E+04  0.00000000000E+00 0. -1.
<mgrwt>
<rscale>  2 0.10389143E+04</rscale>
<asrwt>0</asrwt>
<pdfrwt beam="1">  1       21 0.63981938E-01 0.10537226E+04</pdfrwt>
<pdfrwt beam="2">  1       21 0.40269906E+00 0.10537226E+04</pdfrwt>
<totfact> 0.60056626E+00</totfact>
</mgrwt>
</event>
<event>
 8    1  0.1168507E-005  0.1325688E+04  0.7818608E-02  0.8518648E-01
         21   -1    0    0  501  502  0.00000000000E+00  0.00000000000E+00  0.96650737799E+03  0.96650737799E+03  0.00000000000E+00 0. -1.
         21   -1    0    0  502  503 -0.00000000000E+00 -0.00000000000E+00 -0.25048322471E+04  0.25048322471E+04  0.00000000000E+00 0.  1.
   -9000010    2    1    2    0  503  0.53590449812E+03  0.67867300538E+03 -0.16855327804E+04  0.21444040476E+04  0.10048170411E+04 0.  0.
    9000010    2    1    2  501    0 -0.53590449812E+03 -0.67867300538E+03  0.14720791137E+03  0.13269355775E+04  0.99563908031E+03 0.  0.
        -13    1    4    4    0    0  0.17991840587E+03  0.14218457001E+03  0.15011632331E+02  0.22980958419E+03  0.10566000000E+00 0.  1.
          4    1    4    4  501    0 -0.71582290398E+03 -0.82085757538E+03  0.13219627904E+03  0.10971259933E+04  0.00000000000E+00 0.  1.
         13    1    3    3    0    0  0.20785576857E+03  0.59705623182E+03 -0.16920434841E+04  0.18062921490E+04  0.10566000000E+00 0. -1.
         -4    1    3    3    0  503  0.32804872955E+03  0.81616773552E+02  0.65107036373E+01  0.33811189855E+03  0.00000000000E+00 0. -1.
<mgrwt>
<rscale>  2 0.13239486E+04</rscale>
<asrwt>0</asrwt>
<pdfrwt beam="1">  1       21 0.14869344E+00 0.13256877E+04</pdfrwt>
<pdfrwt beam="2">  1       21 0.38535880E+00 0.13256877E+04</pdfrwt>
<totfact> 0.81119800E-01</totfact>
</mgrwt>
</event>
<event>
 8    1  0.1168507E-005  0.1105010E+04  0.7818608E-02  0.8690571E-01
         21   -1    0    0  503  502  0.00000000000E+00  0.00000000000E+00  0.12662073494E+04  0.12662073494E+04  0.00000000000E+00 0. -1.
         21   -1    0    0  501  503 -0.00000000000E+00 -0.00000000000E+00 -0.92840294670E+03  0.92840294670E+03  0.00000000000E+00 0. -1.
    9000010    2    1    2  501    0  0.34194831953E+03 -0.23622014979E+03  0.17043952929E+03  0.11180770470E+04  0.10238740340E+04 0.  0.
   -9000010    2    1    2    0  502 -0.34194831953E+03  0.23622014979E+03  0.16736487342E+03  0.10765332491E+04  0.97886884885E+03 0.  0.
        -13    1    3    3    0    0  0.33028604754E+03 -0.30338952853E+03  0.56291343125E+03  0.71972607391E+03  0.10566000000E+00 0.  1.
          4    1    3    3  501    0  0.11662271990E+02  0.67169378734E+02 -0.39247390196E+03  0.39835097307E+03  0.00000000000E+00 0.  1.
         13    1    4    4    0    0 -0.50612714973E+03 -0.22860920754E+03 -0.17377315087E+01  0.55536464809E+03  0.10566000000E+00 0. -1.
         -4    1    4    4    0  502  0.16417883020E+03  0.46482935733E+03  0.16910260492E+03  0.52116860105E+03  0.00000000000E+00 0. -1.
<mgrwt>
<rscale>  2 0.10944684E+04</rscale>
<asrwt>0</asrwt>
<pdfrwt beam="1">  1       21 0.19480113E+00 0.11050098E+04</pdfrwt>
<pdfrwt beam="2">  1       21 0.14283122E+00 0.11050098E+04</pdfrwt>
<totfact> 0.22731417E+01</totfact>
</mgrwt>
</event>
<event>
 8    1  0.1168507E-005  0.1178257E+04  0.7818608E-02  0.8625586E-01
         21   -1    0    0  503  502  0.00000000000E+00  0.00000000000E+00  0.20619624819E+04  0.20619624819E+04  0.00000000000E+00 0. -1.
         21   -1    0    0  501  503 -0.00000000000E+00 -0.00000000000E+00 -0.85652512058E+03  0.85652512058E+03  0.00000000000E+00 0. -1.
    9000010    2    1    2  501    0 -0.18177731883E+03  0.57373261867E+03 -0.88019792814E+02  0.11688245682E+04  0.99809382122E+03 0.  0.
   -9000010    2    1    2    0  502  0.18177731883E+03 -0.57373261867E+03  0.12934571541E+04  0.17496630342E+04  0.10129546942E+04 0.  0.
        -13    1    3    3    0    0 -0.13213327646E+03  0.80831954420E+03  0.14806697101E+03  0.83232417204E+03  0.10566000000E+00 0.  1.
          4    1    3    3  501    0 -0.49644042370E+02 -0.23458692553E+03 -0.23608676382E+03  0.33650039617E+03  0.00000000000E+00 0.  1.
         13    1    4    4    0    0  0.29996201986E+03 -0.70647255871E+03  0.45429879500E+03  0.89189018151E+03  0.10566000000E+00 0. -1.
         -4    1    4    4    0  502 -0.11818470103E+03  0.13273994005E+03  0.83915835908E+03  0.85777285271E+03  0.00000000000E+00 0. -1.
<mgrwt>
<rscale>  2 0.11750561E+04</rscale>
<asrwt>0</asrwt>
<pdfrwt beam="1">  1       21 0.31722500E+00 0.11782569E+04</pdfrwt>
<pdfrwt beam="2">  1       21 0.13177310E+00 0.11782569E+04</pdfrwt>
<totfact> 0.36109943E+00</totfact>
</mgrwt>
</event>
<event>
 8    1  0.1168507E-005  0.1155688E+04  0.7818608E-02  0.8666826E-01
         21   -1    0    0  501  502  0.00000000000E+00  0.00000000000E+00  0.13076249199E+04  0.13076249199E+04  0.00000000000E+00 0. -1.
         21   -1    0    0  502  503 -0.00000000000E+00 -0.00000000000E+00 -0.10014238065E+04  0.10014238065E+04  0.00000000000E+00 0. -1.
   -9000010    2    1    2    0  503 -0.13521999362E+03  0.57004575288E+03 -0.19549445970E+03  0.10491629405E+04  0.84810859267E+03 0.  0.
    9000010    2    1    2  501    0  0.13521999362E+03 -0.57004575288E+03  0.50169557313E+03  0.12598857859E+04  0.99618127786E+03 0.  0.
        -13    1    4    4    0    0  0.47915596798E+03 -0.10754683579E+03 -0.70207938175E+01  0.49112734220E+03  0.10566000000E+00 0.  1.
          4    1    4    4  501    0 -0.34393597436E+03 -0.46249891709E+03  0.50871636695E+03  0.76875844371E+03  0.00000000000E+00 0.  1.
         13    1    3    3    0    0 -0.21979186876E+03 -0.15135157342E+03  0.69887184207E+02  0.27586227366E+03  0.10566000000E+00 0. -1.
         -4    1    3    3    0  503  0.84571875135E+02  0.72139732630E+03 -0.26538164391E+03  0.77330066687E+03  0.00000000000E+00 0. -1.
<mgrwt>
<rscale>  2 0.11231111E+04</rscale>
<asrwt>0</asrwt>
<pdfrwt beam="1">  1       21 0.20117306E+00 0.11556876E+04</pdfrwt>
<pdfrwt beam="2">  1       21 0.15406520E+00 0.11556876E+04</pdfrwt>
<totfact> 0.15887851E+01</totfact>
</mgrwt>
</event>
<event>
 8    1  0.1168507E-005  0.1158059E+04  0.7818608E-02  0.8651739E-01
         21   -1    0    0  501  502  0.00000000000E+00  0.00000000000E+00  0.24348697569E+04  0.24348697569E+04  0.00000000000E+00 0.  1.
         21   -1    0    0  502  503 -0.00000000000E+00 -0.00000000000E+00 -0.52617172600E+03  0.52617172600E+03  0.00000000000E+00 0.  1.
   -9000010    2    1    2    0  503 -0.19534019149E+03 -0.40994340929E+03  0.10758753638E+04  0.15346147164E+04  0.99565211791E+03 0.  0.
    9000010    2    1    2  501    0  0.19534019149E+03  0.40994340929E+03  0.83282266703E+03  0.14264267665E+04  0.10653113800E+04 0.  0.
        -13    1    4    4    0    0  0.18760956089E+03  0.36362042901E+03 -0.15496104411E+03  0.43752725639E+03  0.10566000000E+00 0.  1.
          4    1    4    4  501    0  0.77306306019E+01  0.46322980280E+02  0.98778371114E+03  0.98889951014E+03  0.00000000000E+00 0.  1.
         13    1    3    3    0    0  0.32697110426E+03 -0.49117944968E+02  0.75300899013E+03  0.82240210719E+03  0.10566000000E+00 0. -1.
         -4    1    3    3    0  503 -0.52231129575E+03 -0.36082546432E+03  0.32286637371E+03  0.71221260916E+03  0.00000000000E+00 0. -1.
<mgrwt>
<rscale>  2 0.11417839E+04</rscale>
<asrwt>0</asrwt>
<pdfrwt beam="1">  1       21 0.37459534E+00 0.11580586E+04</pdfrwt>
<pdfrwt beam="2">  1       21 0.80949497E-01 0.11580586E+04</pdfrwt>
<totfact> 0.52683193E+00</totfact>
</mgrwt>
</event>
<event>
 8    1  0.1168507E-005  0.1095171E+04  0.7818608E-02  0.8695211E-01
         21   -1    0    0  503  502  0.00000000000E+00  0.00000000000E+00  0.24222041852E+04  0.24222041852E+04  0.00000000000E+00 0.  1.
         21   -1    0    0  501  503 -0.00000000000E+00 -0.00000000000E+00 -0.53995465266E+03  0.53995465266E+03  0.00000000000E+00 0.  1.
    9000010    2    1    2  501    0 -0.23428297786E+03  0.30333287702E+03  0.47446587096E+03  0.11935314785E+04  0.10259143139E+04 0.  0.
   -9000010    2    1    2    0  502  0.23428297786E+03 -0.30333287702E+03  0.14077836616E+04  0.17686273594E+04  0.99964421198E+03 0.  0.
        -13    1    3    3    0    0  0.28530329640E+03  0.15501937512E+03 -0.15848268613E+03  0.36131115478E+03  0.10566000000E+00 0.  1.
          4    1    3    3  501    0 -0.51958627427E+03  0.14831350189E+03  0.63294855709E+03  0.83222032370E+03  0.00000000000E+00 0.  1.
         13    1    4    4    0    0  0.41851915853E+03 -0.52609768358E+03  0.56670415749E+03  0.87925574891E+03  0.10566000000E+00 0. -1.
         -4    1    4    4    0  502 -0.18423618066E+03  0.22276480656E+03  0.84107950408E+03  0.88937161046E+03  0.00000000000E+00 0. -1.
<mgrwt>
<rscale>  2 0.10889763E+04</rscale>
<asrwt>0</asrwt>
<pdfrwt beam="1">  1       21 0.37264679E+00 0.10951710E+04</pdfrwt>
<pdfrwt beam="2">  1       21 0.83069947E-01 0.10951710E+04</pdfrwt>
<totfact> 0.51665493E+00</totfact>
</mgrwt>
</event>
<event>
 8    1  0.1168507E-005  0.1130781E+04  0.7818608E-02  0.8662855E-01
         21   -1    0    0  503  502  0.00000000000E+00  0.00000000000E+00  0.48267954544E+03  0.48267954544E+03  0.00000000000E+00 0.  1.
         21   -1    0    0  501  503 -0.00000000000E+00 -0.00000000000E+00 -0.26231563825E+04  0.26231563825E+04  0.00000000000E+00 0.  1.
    9000010    2    1    2  501    0  0.34897123183E+03  0.39571394635E+03 -0.10828693952E+04  0.15656535059E+04  0.10001471519E+04 0.  0.
   -9000010    2    1    2    0  502 -0.34897123183E+03 -0.39571394635E+03 -0.10576074419E+04  0.15401824221E+04  0.98755148937E+03 0.  0.
        -13    1    3    3    0    0 -0.24299351895E+03  0.22416187990E+03 -0.84086807095E+03  0.90352284008E+03  0.10566000000E+00 0.  1.
          4    1    3    3  501    0  0.59196475078E+03  0.17155206645E+03 -0.24200132428E+03  0.66213066583E+03  0.00000000000E+00 0.  1.
         13    1    4    4    0    0  0.65761251418E+02 -0.35054876995E+03  0.46692797022E+02  0.35970711803E+03  0.10566000000E+00 0. -1.
         -4    1    4    4    0  502 -0.41473248325E+03 -0.45165176395E+02 -0.11043002389E+04  0.11804753040E+04  0.00000000000E+00 0. -1.
<mgrwt>
<rscale>  2 0.11279890E+04</rscale>
<asrwt>0</asrwt>
<pdfrwt beam="1">  1       21 0.74258392E-01 0.11307806E+04</pdfrwt>
<pdfrwt beam="2">  1       21 0.40356252E+00 0.11307806E+04</pdfrwt>
<totfact> 0.40977128E+00</totfact>
</mgrwt>
</event>
<event>
 8    1  0.1168507E-005  0.1128074E+04  0.7818608E-02  0.8665112E-01
         21   -1    0    0  503  502  0.00000000000E+00  0.00000000000E+00  0.12307610445E+04  0.12307610445E+04  0.00000000000E+00 0. -1.
         21   -1    0    0  501  503 -0.00000000000E+00 -0.00000000000E+00 -0.11060121455E+04  0.11060121455E+04  0.00000000000E+00 0. -1.
    9000010    2    1    2  501    0 -0.52821758502E+02 -0.53077442866E+03  0.38172724456E+03  0.11909096413E+04  0.99400123348E+03 0.  0.
   -9000010    2    1    2    0  502  0.52821758502E+02  0.53077442866E+03 -0.25697834560E+03  0.11458635488E+04  0.98104728224E+03 0.  0.
        -13    1    3    3    0    0 -0.34898611316E+03  0.15296129183E+03  0.16219076177E+03  0.41411872493E+03  0.10566000000E+00 0.  1.
          4    1    3    3  501    0  0.29616435466E+03 -0.68373572049E+03  0.21953648279E+03  0.77679091635E+03  0.00000000000E+00 0.  1.
         13    1    4    4    0    0  0.45263837644E+02  0.66975838691E+03  0.17358065188E+03  0.69336524697E+03  0.10566000000E+00 0. -1.
         -4    1    4    4    0  502  0.75579208576E+01 -0.13898395825E+03 -0.43055899748E+03  0.45249830180E+03  0.00000000000E+00 0. -1.
<mgrwt>
<rscale>  2 0.11252134E+04</rscale>
<asrwt>0</asrwt>
<pdfrwt beam="1">  1       21 0.18934785E+00 0.11280736E+04</pdfrwt>
<pdfrwt beam="2">  1       21 0.17015571E+00 0.11280736E+04</pdfrwt>
<totfact> 0.14411340E+01</totfact>
</mgrwt>
</event>
<event>
 8    1  0.1168507E-005  0.1196572E+04  0.7818608E-02  0.8609428E-01
         21   -1    0    0  503  502  0.00000000000E+00  0.00000000000E+00  0.14560054503E+04  0.14560054503E+04  0.00000000000E+00 0. -1.
         21   -1    0    0  501  503 -0.00000000000E+00 -0.00000000000E+00 -0.13000441985E+04  0.13000441985E+04  0.00000000000E+00 0. -1.
    9000010    2    1    2  501    0  0.65458383799E+03 -0.41825651232E+02 -0.60341181620E+03  0.13401084741E+04  0.10007774559E+04 0.  0.
   -9000010    2    1    2    0  502 -0.65458383799E+03  0.41825651232E+02  0.75937306803E+03  0.14159411747E+04  0.99900578966E+03 0.  0.
        -13    1    3    3    0    0  0.28529568069E+03 -0.30544161244E+03  0.16368861302E+03  0.44886766115E+03  0.10566000000E+00 0.  1.
          4    1    3    3  501    0  0.36928815730E+03  0.26361596121E+03 -0.76710042921E+03  0.89124081293E+03  0.00000000000E+00 0.  1.
         13    1    4    4    0    0 -0.10904042624E+03  0.43601890743E+03  0.55164357329E+03  0.71155670561E+03  0.10566000000E+00 0. -1.
         -4    1    4    4    0  502 -0.54554341175E+03 -0.39419325620E+03  0.20772949475E+03  0.70438446911E+03  0.00000000000E+00 0. -1.
<mgrwt>
<rscale>  2 0.11962016E+04</rscale>
<asrwt>0</asrwt>
<pdfrwt beam="1">  1       21 0.22400084E+00 0.11965721E+04</pdfrwt>
<pdfrwt beam="2">  1       21 0.20000680E+00 0.11965721E+04</pdfrwt>
<totfact> 0.43949201E+00</totfact>
</mgrwt>
</event>
<event>
 8    1  0.1168507E-005  0.1119528E+04  0.7818608E-02  0.8701512E-01
         21   -1    0    0  503  502  0.00000000000E+00  0.00000000000E+00  0.86954427017E+03  0.86954427017E+03  0.00000000000E+00 0. -1.
         21   -1    0    0  501  503 -0.00000000000E+00 -0.00000000000E+00 -0.12660647998E+04  0.12660647998E+04  0.00000000000E+00 0. -1.
    9000010    2    1    2  501    0  0.74518920890E+02  0.25192068652E+03 -0.12144321617E+03  0.98278173125E+03  0.93919879400E+03 0.  0.
   -9000010    2    1    2    0  502 -0.74518920890E+02 -0.25192068652E+03 -0.27507731342E+03  0.11528273387E+04  0.10882675418E+04 0.  0.
        -13    1    3    3    0    0 -0.25059989633E+03 -0.21716861311E+03 -0.22766862160E+03  0.40223814710E+03  0.10566000000E+00 0.  1.
          4    1    3    3  501    0  0.32511881722E+03  0.46908929963E+03  0.10622540543E+03  0.58054358415E+03  0.00000000000E+00 0.  1.
         13    1    4    4    0    0  0.16714467378E+03 -0.26342230798E+03  0.35813909494E+03  0.47496555328E+03  0.10566000000E+00 0. -1.
         -4    1    4    4    0  502 -0.24166359467E+03  0.11501621459E+02 -0.63321640835E+03  0.67786178539E+03  0.00000000000E+00 0. -1.
<mgrwt>
<rscale>  2 0.10815714E+04</rscale>
<asrwt>0</asrwt>
<pdfrwt beam="1">  1       21 0.13377604E+00 0.11195282E+04</pdfrwt>
<pdfrwt beam="2">  1       21 0.19477920E+00 0.11195282E+04</pdfrwt>
<totfact> 0.27542292E+01</totfact>
</mgrwt>
</event>
<event>
 8    1  0.1168507E-005  0.1073951E+04  0.7818608E-02  0.8709627E-01
         21   -1    0    0  501  502  0.00000000000E+00  0.00000000000E+00  0.45267476583E+03  0.45267476583E+03  0.00000000000E+00 0. -1.
         21   -1    0    0  502  503 -0.00000000000E+00 -0.00000000000E+00 -0.27513596669E+04  0.27513596669E+04  0.00000000000E+00 0. -1.
   -9000010    2    1    2    0  503  0.14626716158E+03 -0.40767848111E+03 -0.69919953255E+03  0.12815030778E+04  0.98273817754E+03 0.  0.
    9000010    2    1    2  501    0 -0.14626716158E+03  0.40767848111E+03 -0.15994853685E+04  0.19225313549E+04  0.97477050634E+03 0.  0.
        -13    1    4    4    0    0  0.15596481778E+03  0.41367494813E+03 -0.15554394040E+04  0.16170478464E+04  0.10566000000E+00 0.  1.
          4    1    4    4  501    0 -0.30223197937E+03 -0.59964670204E+01 -0.44045964572E+02  0.30548350850E+03  0.00000000000E+00 0.  1.
         13    1    3    3    0    0  0.79700762951E+02  0.30724372268E+03 -0.66069732349E+02  0.32421618936E+03  0.10566000000E+00 0. -1.
         -4    1    3    3    0  503  0.66566398632E+02 -0.71492220379E+03 -0.63312980020E+03  0.95728688845E+03  0.00000000000E+00 0. -1.
<mgrwt>
<rscale>  2 0.10721245E+04</rscale>
<asrwt>0</asrwt>
<pdfrwt beam="1">  1       21 0.69642271E-01 0.10739507E+04</pdfrwt>
<pdfrwt beam="2">  1       21 0.42328610E+00 0.10739507E+04</pdfrwt>
<totfact> 0.35319541E+00</totfact>
</mgrwt>
</event>
<event>
 8    1  0.1168507E-005  0.1099866E+04  0.7818608E-02  0.8687879E-01
         21   -1    0    0  503  502  0.00000000000E+00  0.00000000000E+00  0.64977848862E+03  0.64977848862E+03  0.00000000000E+00 0. -1.
         21   -1    0    0  501  503 -0.00000000000E+00 -0.00000000000E+00 -0.19694124148E+04  0.19694124148E+04  0.00000000000E+00 0. -1.
    9000010    2    1    2  501    0  0.20933551155E+03  0.39284190602E+03 -0.33570015095E+03  0.11499560535E+04  0.10057625038E+04 0.  0.
   -9000010    2    1    2    0  502 -0.20933551155E+03 -0.39284190602E+03 -0.98393377522E+03  0.14692348499E+04  0.99618233806E+03 0.  0.
        -13    1    3    3    0    0 -0.47386151671E+02  0.35678082747E+03  0.29672528648E+03  0.46645890818E+03  0.10566000000E+00 0.  1.
          4    1    3    3  501    0  0.25672166322E+03  0.36061078553E+02 -0.63242543743E+03  0.68349714532E+03  0.00000000000E+00 0.  1.
         13    1    4    4    0    0 -0.51490617581E+03 -0.47781040328E+03 -0.89900832370E+03  0.11408975101E+04  0.10566000000E+00 0. -1.
         -4    1    4    4    0  502  0.30557066426E+03  0.84968497258E+02 -0.84925451522E+02  0.32833733979E+03  0.00000000000E+00 0. -1.
<mgrwt>
<rscale>  2 0.10976706E+04</rscale>
<asrwt>0</asrwt>
<pdfrwt beam="1">  1       21 0.99965923E-01 0.10998656E+04</pdfrwt>
<pdfrwt beam="2">  1       21 0.30298652E+00 0.10998656E+04</pdfrwt>
<totfact> 0.99161216E+00</totfact>
</mgrwt>
</event>
<event>
 8    1  0.1168507E-005  0.1047201E+04  0.7818608E-02  0.8734373E-01
         21   -1    0    0  503  502  0.00000000000E+00  0.00000000000E+00  0.78603198880E+03  0.78603198880E+03  0.00000000000E+00 0. -1.
         21   -1    0    0  501  503 -0.00000000000E+00 -0.00000000000E+00 -0.14068387321E+04  0.14068387321E+04  0.00000000000E+00 0. -1.
    9000010    2    1    2  501    0 -0.26775557344E+03  0.16133445572E+03 -0.15495541179E+03  0.10586038409E+04  0.99945438046E+03 0.  0.
   -9000010    2    1    2    0  502  0.26775557344E+03 -0.16133445572E+03 -0.46585133153E+03  0.11342668800E+04  0.98581034600E+03 0.  0.
        -13    1    3    3    0    0  0.11481073693E+03 -0.12987409523E+03  0.33184995268E+03  0.37439709959E+03  0.10566000000E+00 0.  1.
          4    1    3    3  501    0 -0.38256631038E+03  0.29120855095E+03 -0.48680536447E+03  0.68420674131E+03  0.00000000000E+00 0.  1.
         13    1    4    4    0    0  0.56346412864E+03 -0.34408312349E+03 -0.18027979115E+03  0.68438719625E+03  0.10566000000E+00 0. -1.
         -4    1    4    4    0  502 -0.29570855519E+03  0.18274866777E+03 -0.28557154038E+03  0.44987968376E+03  0.00000000000E+00 0. -1.
<mgrwt>
<rscale>  2 0.10439327E+04</rscale>
<asrwt>0</asrwt>
<pdfrwt beam="1">  1       21 0.12092800E+00 0.10472015E+04</pdfrwt>
<pdfrwt beam="2">  1       21 0.21643673E+00 0.10472015E+04</pdfrwt>
<totfact> 0.25407313E+01</totfact>
</mgrwt>
</event>
<event>
 8    1  0.1168507E-005  0.1112978E+04  0.7818608E-02  0.8688622E-01
         21   -1    0    0  503  502  0.00000000000E+00  0.00000000000E+00  0.61303538457E+03  0.61303538457E+03  0.00000000000E+00 0.  1.
         21   -1    0    0  501  503 -0.00000000000E+00 -0.00000000000E+00 -0.19824748352E+04  0.19824748352E+04  0.00000000000E+00 0. -1.
    9000010    2    1    2  501    0  0.38543753844E+03 -0.32538093317E+03 -0.91815659679E+03  0.13945205688E+04  0.92045707826E+03 0.  0.
   -9000010    2    1    2    0  502 -0.38543753844E+03  0.32538093317E+03 -0.45128285380E+03  0.12009896509E+04  0.99211142508E+03 0.  0.
        -13    1    3    3    0    0  0.33252866587E+03 -0.42126960322E+03 -0.10759897141E+04  0.12024131021E+04  0.10566000000E+00 0.  1.
          4    1    3    3  501    0  0.52908872566E+02  0.95888670049E+02  0.15783311729E+03  0.19210746668E+03  0.00000000000E+00 0.  1.
         13    1    4    4    0    0 -0.21487543410E+03 -0.25099481158E+03  0.13906995507E+03  0.35848334855E+03  0.10566000000E+00 0. -1.
         -4    1    4    4    0  502 -0.17056210434E+03  0.57637574476E+03 -0.59035280887E+03  0.84250630236E+03  0.00000000000E+00 0. -1.
<mgrwt>
<rscale>  2 0.10967854E+04</rscale>
<asrwt>0</asrwt>
<pdfrwt beam="1">  1       21 0.94313137E-01 0.11129780E+04</pdfrwt>
<pdfrwt beam="2">  1       21 0.30499613E+00 0.11129780E+04</pdfrwt>
<totfact> 0.11123765E+01</totfact>
</mgrwt>
</event>
<event>
 8    1  0.1168507E-005  0.1202316E+04  0.7818608E-02  0.8614157E-01
         21   -1    0    0  503  502  0.00000000000E+00  0.00000000000E+00  0.97760557049E+03  0.97760557049E+03  0.00000000000E+00 0.  1.
         21   -1    0    0  501  503 -0.00000000000E+00 -0.00000000000E+00 -0.15335697489E+04  0.15335697489E+04  0.00000000000E+00 0.  1.
    9000010    2    1    2  501    0  0.43801584282E+02 -0.57829456172E+03  0.69762157803E+02  0.11557801426E+04  0.99730526950E+03 0.  0.
   -9000010    2    1    2    0  502 -0.43801584282E+02  0.57829456172E+03 -0.62572633618E+03  0.13553951767E+04  0.10531948815E+04 0.  0.
        -13    1    3    3    0    0  0.26990515639E+03 -0.27756734251E+03  0.46835585666E+03  0.60765915011E+03  0.10566000000E+00 0.  1.
          4    1    3    3  501    0 -0.22610357211E+03 -0.30072721921E+03 -0.39859369886E+03  0.54812099254E+03  0.00000000000E+00 0.  1.
         13    1    4    4    0    0  0.39083858784E+02  0.81819732459E+03 -0.71403350009E+03  0.10866546187E+04  0.10566000000E+00 0. -1.
         -4    1    4    4    0  502 -0.82885443066E+02 -0.23990276287E+03  0.88307163916E+02  0.26874055798E+03  0.00000000000E+00 0. -1.
<mgrwt>
<rscale>  2 0.11899659E+04</rscale>
<asrwt>0</asrwt>
<pdfrwt beam="1">  1       21 0.15040086E+00 0.12023155E+04</pdfrwt>
<pdfrwt beam="2">  1       21 0.23593381E+00 0.12023155E+04</pdfrwt>
<totfact> 0.92466770E+00</totfact>
</mgrwt>
</event>
<event>
 8    1  0.1168507E-005  0.1140895E+04  0.7818608E-02  0.8659179E-01
         21   -1    0    0  503  502  0.00000000000E+00  0.00000000000E+00  0.13689749355E+04  0.13689749355E+04  0.00000000000E+00 0. -1.
         21   -1    0    0  501  503 -0.00000000000E+00 -0.00000000000E+00 -0.94005793832E+03  0.94005793832E+03  0.00000000000E+00 0. -1.
    9000010    2    1    2  501    0  0.45121149976E+03 -0.17771306713E+03  0.64019046036E+02  0.11426896643E+04  0.10326991231E+04 0.  0.
   -9000010    2    1    2    0  502 -0.45121149976E+03  0.17771306713E+03  0.36489795119E+03  0.11663432096E+04  0.99600814051E+03 0.  0.
        -13    1    3    3    0    0 -0.83751233710E+02 -0.45906815980E+03 -0.16697051449E+03  0.49561780473E+03  0.10566000000E+00 0.  1.
          4    1    3    3  501    0  0.53496273347E+03  0.28135509267E+03  0.23098956053E+03  0.64707185957E+03  0.00000000000E+00 0.  1.
         13    1    4    4    0    0 -0.44564065793E+03 -0.85747441795E+02  0.64053529519E+03  0.78500553840E+03  0.10566000000E+00 0. -1.
         -4    1    4    4    0  502 -0.55708418335E+01  0.26346050892E+03 -0.27563734400E+03  0.38133767116E+03  0.00000000000E+00 0. -1.
<mgrwt>
<rscale>  2 0.11325279E+04</rscale>
<asrwt>0</asrwt>
<pdfrwt beam="1">  1       21 0.21061153E+00 0.11408949E+04</pdfrwt>
<pdfrwt beam="2">  1       21 0.14462430E+00 0.11408949E+04</pdfrwt>
<totfact> 0.16369565E+01</totfact>
</mgrwt>
</event>
<event>
 8    1  0.1168507E-005  0.1239992E+04  0.7818608E-02  0.8577734E-01
         21   -1    0    0  501  502  0.00000000000E+00  0.00000000000E+00  0.33161766213E+04  0.33161766213E+04  0.00000000000E+00 0.  1.
         21   -1    0    0  502  503 -0.00000000000E+00 -0.00000000000E+00 -0.48871839605E+03  0.48871839605E+03  0.00000000000E+00 0.  1.
   -9000010    2    1    2    0  503 -0.69832355837E+03 -0.19472378871E+03  0.97290239912E+03  0.15761091245E+04  0.10059859581E+04 0.  0.
    9000010    2    1    2  501    0  0.69832355837E+03  0.19472378871E+03  0.18545558261E+04  0.22287858928E+04  0.10012672460E+04 0.  0.
        -13    1    4    4    0    0  0.35631043268E+03  0.15526023254E+03  0.18438165691E+04  0.18843360677E+04  0.10566000000E+00 0.  1.
          4    1    4    4  501    0  0.34201312570E+03  0.39463556169E+02  0.10739256985E+02  0.34444982516E+03  0.00000000000E+00 0.  1.
         13    1    3    3    0    0  0.23139294050E+03 -0.17870984943E+03  0.12593012190E+03  0.31833678701E+03  0.10566000000E+00 0. -1.
         -4    1    3    3    0  503 -0.92971649887E+03 -0.16013939279E+02  0.84697227722E+03  0.12577723375E+04  0.00000000000E+00 0. -1.
<mgrwt>
<rscale>  2 0.12390349E+04</rscale>
<asrwt>0</asrwt>
<pdfrwt beam="1">  1       21 0.51018101E+00 0.12399923E+04</pdfrwt>
<pdfrwt beam="2">  1       21 0.75187447E-01 0.12399923E+04</pdfrwt>
<totfact> 0.70827415E-01</totfact>
</mgrwt>
</event>
<event>
 8    1  0.1168507E-005  0.1182131E+04  0.7818608E-02  0.8625617E-01
         21   -1    0    0  501  502  0.00000000000E+00  0.00000000000E+00  0.96294947863E+03  0.96294947863E+03  0.00000000000E+00 0. -1.
         21   -1    0    0  502  503 -0.00000000000E+00 -0.00000000000E+00 -0.14259167978E+04  0.14259167978E+04  0.00000000000E+00 0. -1.
   -9000010    2    1    2    0  503 -0.49778611423E+03  0.31856854566E+03 -0.13312432692E+03  0.11615809524E+04  0.99109600377E+03 0.  0.
    9000010    2    1    2  501    0  0.49778611423E+03 -0.31856854566E+03 -0.32984299230E+03  0.12272853241E+04  0.10237948688E+04 0.  0.
        -13    1    4    4    0    0 -0.15509760856E+02  0.23433996100E+03 -0.40597713740E+03  0.46901302461E+03  0.10566000000E+00 0.  1.
          4    1    4    4  501    0  0.51329587509E+03 -0.55290850667E+03  0.76134145095E+02  0.75827229949E+03  0.00000000000E+00 0.  1.
         13    1    3    3    0    0  0.25388683613E+02 -0.26796800686E+03  0.17093065666E+03  0.31885535671E+03  0.10566000000E+00 0. -1.
         -4    1    3    3    0  503 -0.52317479784E+03  0.58653655252E+03 -0.30405498358E+03  0.84272559566E+03  0.00000000000E+00 0. -1.
<mgrwt>
<rscale>  2 0.11750158E+04</rscale>
<asrwt>0</asrwt>
<pdfrwt beam="1">  1       21 0.14814607E+00 0.11821306E+04</pdfrwt>
<pdfrwt beam="2">  1       21 0.21937181E+00 0.11821306E+04</pdfrwt>
<totfact> 0.12936825E+01</totfact>
</mgrwt>
</event>
<event>
 8    1  0.1168507E-005  0.1093544E+04  0.7818608E-02  0.8693205E-01
         21   -1    0    0  501  502  0.00000000000E+00  0.00000000000E+00  0.26162702525E+04  0.26162702525E+04  0.00000000000E+00 0. -1.
         21   -1    0    0  502  503 -0.00000000000E+00 -0.00000000000E+00 -0.45344479852E+03  0.45344479852E+03  0.00000000000E+00 0. -1.
   -9000010    2    1    2    0  503 -0.78399105659E+01 -0.41778727450E+03  0.10878712034E+04  0.15362990133E+04  0.10010710425E+04 0.  0.
    9000010    2    1    2  501    0  0.78399105659E+01  0.41778727450E+03  0.10749542506E+04  0.15334160377E+04  0.10105594653E+04 0.  0.
        -13    1    4    4    0    0  0.30599777772E+03  0.64808989541E+03  0.69466325026E+03  0.99810430063E+03  0.10566000000E+00 0.  1.
          4    1    4    4  501    0 -0.29815786716E+03 -0.23030262091E+03  0.38029100034E+03  0.53531173711E+03  0.00000000000E+00 0.  1.
         13    1    3    3    0    0  0.37036114031E+03 -0.14639225539E+03  0.98090602481E+03  0.10586664760E+04  0.10566000000E+00 0. -1.
         -4    1    3    3    0  503 -0.37820105088E+03 -0.27139501911E+03  0.10696517857E+03  0.47763253732E+03  0.00000000000E+00 0. -1.
<mgrwt>
<rscale>  2 0.10913466E+04</rscale>
<asrwt>0</asrwt>
<pdfrwt beam="1">  1       21 0.40250311E+00 0.10935438E+04</pdfrwt>
<pdfrwt beam="2">  1       21 0.69760740E-01 0.10935438E+04</pdfrwt>
<totfact> 0.48747727E+00</totfact>
</mgrwt>
</event>
<event>
 8    1  0.1168507E-005  0.1057862E+04  0.7818608E-02  0.8734286E-01
         21   -1    0    0  501  502  0.00000000000E+00  0.00000000000E+00  0.20422843221E+04  0.20422843221E+04  0.00000000000E+00 0. -1.
         21   -1    0    0  502  503 -0.00000000000E+00 -0.00000000000E+00 -0.87453561989E+03  0.87453561989E+03  0.00000000000E+00 0. -1.
   -9000010    2    1    2    0  503 -0.95784273061E+02 -0.30584709146E+03 -0.35337979663E+03  0.10640101727E+04  0.95106429684E+03 0.  0.
    9000010    2    1    2  501    0  0.95784273061E+02  0.30584709146E+03  0.15211284989E+04  0.18528097693E+04  0.10081443650E+04 0.  0.
        -13    1    4    4    0    0  0.13565755976E+03  0.37850044080E+03  0.80819898252E+02  0.41011879294E+03  0.10566000000E+00 0.  1.
          4    1    4    4  501    0 -0.39873286699E+02 -0.72653349343E+02  0.14403086006E+04  0.14426909763E+04  0.00000000000E+00 0.  1.
         13    1    3    3    0    0 -0.44885938611E+03 -0.42535778414E+03 -0.30046644940E+03  0.68752024800E+03  0.10566000000E+00 0. -1.
         -4    1    3    3    0  503  0.35307511305E+03  0.11951069268E+03 -0.52913347230E+02  0.37648992475E+03  0.00000000000E+00 0. -1.
<mgrwt>
<rscale>  2 0.10440311E+04</rscale>
<asrwt>0</asrwt>
<pdfrwt beam="1">  1       21 0.31419759E+00 0.10578621E+04</pdfrwt>
<pdfrwt beam="2">  1       21 0.13454394E+00 0.10578621E+04</pdfrwt>
<totfact> 0.36684267E+00</totfact>
</mgrwt>
</event>
<event>
 8    1  0.1168507E-005  0.1309162E+04  0.7818608E-02  0.8531827E-01
         21   -1    0    0  501  502  0.00000000000E+00  0.00000000000E+00  0.13785865352E+04  0.13785865352E+04  0.00000000000E+00 0.  1.
         21   -1    0    0  502  503 -0.00000000000E+00 -0.00000000000E+00 -0.13515528354E+04  0.13515528354E+04  0.00000000000E+00 0.  1.
   -9000010    2    1    2    0  503 -0.70164773707E+03 -0.39264383747E+03 -0.40348706916E+03  0.13699296984E+04  0.10331635077E+04 0.  0.
    9000010    2    1    2  501    0  0.70164773707E+03  0.39264383747E+03  0.43052076893E+03  0.13602096721E+04  0.10091300658E+04 0.  0.
        -13    1    4    4    0    0  0.19880334836E+02  0.57404963481E+03  0.10784739302E+03  0.58443073352E+03  0.10566000000E+00 0.  1.
          4    1    4    4  501    0  0.68176740223E+03 -0.18140579734E+03  0.32267337591E+03  0.77577893860E+03  0.00000000000E+00 0.  1.
         13    1    3    3    0    0 -0.81179410009E+03  0.87069736712E+02 -0.27031480121E+03  0.86003540794E+03  0.10566000000E+00 0. -1.
         -4    1    3    3    0  503  0.11014636302E+03 -0.47971357418E+03 -0.13317226795E+03  0.50989429050E+03  0.00000000000E+00 0. -1.
<mgrwt>
<rscale>  2 0.13044158E+04</rscale>
<asrwt>0</asrwt>
<pdfrwt beam="1">  1       21 0.21209024E+00 0.13091622E+04</pdfrwt>
<pdfrwt beam="2">  1       21 0.20793120E+00 0.13091622E+04</pdfrwt>
<totfact> 0.45884007E+00</totfact>
</mgrwt>
</event>
<event>
 8    1  0.1168507E-005  0.1044376E+04  0.7818608E-02  0.8741182E-01
         21   -1    0    0  501  502  0.00000000000E+00  0.00000000000E+00  0.13492716920E+04  0.13492716920E+04  0.00000000000E+00 0. -1.
         21   -1    0    0  502  503 -0.00000000000E+00 -0.00000000000E+00 -0.78459355020E+03  0.78459355020E+03  0.00000000000E+00 0. -1.
   -9000010    2    1    2    0  503  0.32733754188E+02  0.32209113163E+03  0.31722467013E+03  0.10914912566E+04  0.99292873667E+03 0.  0.
    9000010    2    1    2  501    0 -0.32733754188E+02 -0.32209113163E+03  0.24745347172E+03  0.10423739857E+04  0.95942488481E+03 0.  0.
        -13    1    4    4    0    0 -0.13958522091E+03  0.29149437010E+02  0.54903743293E+03  0.56725288673E+03  0.10566000000E+00 0.  1.
          4    1    4    4  501    0  0.10685146672E+03 -0.35124056864E+03 -0.30158396122E+03  0.47512109894E+03  0.00000000000E+00 0.  1.
         13    1    3    3    0    0  0.32271578002E+03  0.40736285260E+03 -0.14469346879E+03  0.53946842302E+03  0.10566000000E+00 0. -1.
         -4    1    3    3    0  503 -0.28998202583E+03 -0.85271720979E+02  0.46191813892E+03  0.55202283356E+03  0.00000000000E+00 0. -1.
<mgrwt>
<rscale>  2 0.10363338E+04</rscale>
<asrwt>0</asrwt>
<pdfrwt beam="1">  1       21 0.20758026E+00 0.10443762E+04</pdfrwt>
<pdfrwt beam="2">  1       21 0.12070670E+00 0.10443762E+04</pdfrwt>
<totfact> 0.29859006E+01</totfact>
</mgrwt>
</event>
<event>
 8    1  0.1168507E-005  0.1094163E+04  0.7818608E-02  0.8693671E-01
         21   -1    0    0  503  502  0.00000000000E+00  0.00000000000E+00  0.56528738627E+03  0.56528738627E+03  0.00000000000E+00 0. -1.
         21   -1    0    0  501  503 -0.00000000000E+00 -0.00000000000E+00 -0.20919728316E+04  0.20919728316E+04  0.00000000000E+00 0. -1.
    9000010    2    1    2  501    0 -0.21806751014E+03 -0.38677336770E+03 -0.76008017797E+03  0.13212673590E+04  0.98533165995E+03 0.  0.
   -9000010    2    1    2    0  502  0.21806751014E+03  0.38677336770E+03 -0.76660526733E+03  0.13359928588E+04  0.10000231027E+04 0.  0.
        -13    1    3    3    0    0 -0.53227766222E+03  0.55380655691E+02 -0.42807571275E+03  0.68529946281E+03  0.10566000000E+00 0.  1.
          4    1    3    3  501    0  0.31421015207E+03 -0.44215402339E+03 -0.33200446521E+03  0.63596789619E+03  0.00000000000E+00 0.  1.
         13    1    4    4    0    0 -0.38555287910E+03  0.22987975084E+03 -0.45366737357E+03  0.63820828844E+03  0.10566000000E+00 0. -1.
         -4    1    4    4    0  502  0.60362038925E+03  0.15689361686E+03 -0.31293789377E+03  0.69778457039E+03  0.00000000000E+00 0. -1.
<mgrwt>
<rscale>  2 0.10907950E+04</rscale>
<asrwt>0</asrwt>
<pdfrwt beam="1">  1       21 0.86967290E-01 0.10941633E+04</pdfrwt>
<pdfrwt beam="2">  1       21 0.32184198E+00 0.10941633E+04</pdfrwt>
<totfact> 0.10465093E+01</totfact>
</mgrwt>
</event>
<event>
 8    1  0.1168507E-005  0.1282920E+04  0.7818608E-02  0.8553508E-01
         21   -1    0    0  503  502  0.00000000000E+00  0.00000000000E+00  0.13207156062E+04  0.13207156062E+04  0.00000000000E+00 0.  1.
         21   -1    0    0  501  503 -0.00000000000E+00 -0.00000000000E+00 -0.12264466547E+04  0.12264466547E+04  0.00000000000E+00 0.  1.
    9000010    2    1    2  501    0  0.26990381105E+03 -0.69314676677E+03 -0.10613079130E+03  0.12873024308E+04  0.10452670932E+04 0.  0.
   -9000010    2    1    2    0  502 -0.26990381105E+03  0.69314676677E+03  0.20039974280E+03  0.12598598301E+04  0.99688827211E+03 0.  0.
        -13    1    3    3    0    0 -0.16956965873E+03  0.19510358165E+01 -0.38357493330E+03  0.41938933740E+03  0.10566000000E+00 0.  1.
          4    1    3    3  501    0  0.43947346979E+03 -0.69509780259E+03  0.27744414200E+03  0.86791309342E+03  0.00000000000E+00 0.  1.
         13    1    4    4    0    0  0.36547421727E+02  0.88256669671E+03  0.15330402720E+03  0.89652764826E+03  0.10566000000E+00 0. -1.
         -4    1    4    4    0  502 -0.30645123278E+03 -0.18941992994E+03  0.47095715601E+02  0.36333218184E+03  0.00000000000E+00 0. -1.
<mgrwt>
<rscale>  2 0.12730311E+04</rscale>
<asrwt>0</asrwt>
<pdfrwt beam="1">  1       21 0.20318702E+00 0.12829200E+04</pdfrwt>
<pdfrwt beam="2">  1       21 0.18868410E+00 0.12829200E+04</pdfrwt>
<totfact> 0.76547257E+00</totfact>
</mgrwt>
</event>
<event>
 8    1  0.1168507E-005  0.1053529E+04  0.7818608E-02  0.8726075E-01
         21   -1    0    0  503  502  0.00000000000E+00  0.00000000000E+00  0.11201740150E+04  0.11201740150E+04  0.00000000000E+00 0. -1.
         21   -1    0    0  501  503 -0.00000000000E+00 -0.00000000000E+00 -0.99294863338E+03  0.99294863338E+03  0.00000000000E+00 0. -1.
    9000010    2    1    2  501    0 -0.32337281222E+03  0.12081168604E+03  0.12191946744E+03  0.10605604185E+04  0.99536857779E+03 0.  0.
   -9000010    2    1    2    0  502  0.32337281222E+03 -0.12081168604E+03  0.53059142017E+01  0.10525622299E+04  0.99433075777E+03 0.  0.
        -13    1    3    3    0    0  0.85899526252E+02  0.24158638120E+03  0.45295500377E+03  0.52049107081E+03  0.10566000000E+00 0.  1.
          4    1    3    3  501    0 -0.40927233847E+03 -0.12077469516E+03 -0.33103553633E+03  0.54006934772E+03  0.00000000000E+00 0.  1.
         13    1    4    4    0    0  0.46779908244E+02 -0.47471362434E+03 -0.24722659637E+03  0.53727310194E+03  0.10566000000E+00 0. -1.
         -4    1    4    4    0  502  0.27659290398E+03  0.35390193830E+03  0.25253251057E+03  0.51528912793E+03  0.00000000000E+00 0. -1.
<mgrwt>
<rscale>  2 0.10532841E+04</rscale>
<asrwt>0</asrwt>
<pdfrwt beam="1">  1       21 0.17233446E+00 0.10535293E+04</pdfrwt>
<pdfrwt beam="2">  1       21 0.15276133E+00 0.10535293E+04</pdfrwt>
<totfact> 0.28454309E+01</totfact>
</mgrwt>
</event>
<event>
 8    1  0.1168507E-005  0.1175414E+04  0.7818608E-02  0.8629737E-01
         21   -1    0    0  503  502  0.00000000000E+00  0.00000000000E+00  0.12464580102E+04  0.12464580102E+04  0.00000000000E+00 0. -1.
         21   -1    0    0  501  503 -0.00000000000E+00 -0.00000000000E+00 -0.14468717962E+04  0.14468717962E+04  0.00000000000E+00 0. -1.
    9000010    2    1    2  501    0  0.28398191125E+03  0.53870528962E+03 -0.77242022866E+03  0.14064957466E+04  0.10053597170E+04 0.  0.
   -9000010    2    1    2    0  502 -0.28398191125E+03 -0.53870528962E+03  0.57200644266E+03  0.12868340598E+04  0.97872438005E+03 0.  0.
        -13    1    3    3    0    0  0.47971439854E+03  0.48329560080E+03 -0.92754768108E+03  0.11506716533E+04  0.10566000000E+00 0.  1.
          4    1    3    3  501    0 -0.19573248728E+03  0.55409688826E+02  0.15512745242E+03  0.25582409325E+03  0.00000000000E+00 0.  1.
         13    1    4    4    0    0 -0.54541817426E+03 -0.28258170486E+03  0.78068791989E+01  0.61432431440E+03  0.10566000000E+00 0. -1.
         -4    1    4    4    0  502  0.26143626300E+03 -0.25612358476E+03  0.56419956346E+03  0.67250974543E+03  0.00000000000E+00 0. -1.
<mgrwt>
<rscale>  2 0.11696973E+04</rscale>
<asrwt>0</asrwt>
<pdfrwt beam="1">  1       21 0.19176277E+00 0.11754137E+04</pdfrwt>
<pdfrwt beam="2">  1       21 0.22259566E+00 0.11754137E+04</pdfrwt>
<totfact> 0.52550616E+00</totfact>
</mgrwt>
</event>
<event>
 8    1  0.1168507E-005  0.1037531E+04  0.7818608E-02  0.8760822E-01
         21   -1    0    0  501  502  0.00000000000E+00  0.00000000000E+00  0.28254054591E+04  0.28254054591E+04  0.00000000000E+00 0. -1.
         21   -1    0    0  502  503 -0.00000000000E+00 -0.00000000000E+00 -0.36832571067E+03  0.36832571067E+03  0.00000000000E+00 0. -1.
   -9000010    2    1    2    0  503  0.87946912556E+02  0.26865431297E+03  0.81485698681E+03  0.12512159919E+04  0.90644346219E+03 0.  0.
    9000010    2    1    2  501    0 -0.87946912556E+02 -0.26865431297E+03  0.16422227616E+04  0.19425151779E+04  0.99827842717E+03 0.  0.
        -13    1    4    4    0    0 -0.53619300503E+03 -0.62808753008E+02  0.94730601421E+03  0.10903378255E+04  0.10566000000E+00 0.  1.
          4    1    4    4  501    0  0.44824609247E+03 -0.20584555996E+03  0.69491674743E+03  0.85217735234E+03  0.00000000000E+00 0.  1.
         13    1    3    3    0    0 -0.18516226774E+03 -0.14394178914E+03  0.70688464638E+03  0.74477528054E+03  0.10566000000E+00 0. -1.
         -4    1    3    3    0  503  0.27310918029E+03  0.41259610211E+03  0.10797234043E+03  0.50644071137E+03  0.00000000000E+00 0. -1.
<mgrwt>
<rscale>  2 0.10147858E+04</rscale>
<asrwt>0</asrwt>
<pdfrwt beam="1">  1       21 0.43467775E+00 0.10375305E+04</pdfrwt>
<pdfrwt beam="2">  1       21 0.56665496E-01 0.10375305E+04</pdfrwt>
<totfact> 0.47892315E+00</totfact>
</mgrwt>
</event>
<event>
 8    1  0.1168507E-005  0.1221345E+04  0.7818608E-02  0.8609796E-01
         21   -1    0    0  503  502  0.00000000000E+00  0.00000000000E+00  0.12496270780E+04  0.12496270780E+04  0.00000000000E+00 0.  1.
         21   -1    0    0  501  503 -0.00000000000E+00 -0.00000000000E+00 -0.11086312804E+04  0.11086312804E+04  0.00000000000E+00 0.  1.
    9000010    2    1    2  501    0  0.37863591412E+03  0.33915005641E+03  0.18557693030E+03  0.12353628381E+04  0.11105379905E+04 0.  0.
   -9000010    2    1    2    0  502 -0.37863591412E+03 -0.33915005641E+03 -0.44581132653E+02  0.11228955204E+04  0.10002594444E+04 0.  0.
        -13    1    3    3    0    0  0.12168567081E+03  0.22083591780E+03 -0.46332036153E+03  0.52748618336E+03  0.10566000000E+00 0.  1.
          4    1    3    3  501    0  0.25695024331E+03  0.11831413862E+03  0.64889729183E+03  0.70787665471E+03  0.00000000000E+00 0.  1.
         13    1    4    4    0    0 -0.70341323275E+03 -0.14441811215E+03 -0.14175471182E+03  0.73194342446E+03  0.10566000000E+00 0. -1.
         -4    1    4    4    0  502  0.32477731863E+03 -0.19473194426E+03  0.97173579166E+02  0.39095209592E+03  0.00000000000E+00 0. -1.
<mgrwt>
<rscale>  2 0.11957155E+04</rscale>
<asrwt>0</asrwt>
<pdfrwt beam="1">  1       21 0.19225032E+00 0.12213446E+04</pdfrwt>
<pdfrwt beam="2">  1       21 0.17055866E+00 0.12213446E+04</pdfrwt>
<totfact> 0.13300608E+01</totfact>
</mgrwt>
</event>
<event>
 8    1  0.1168507E-005  0.1138562E+04  0.7818608E-02  0.8662320E-01
         21   -1    0    0  501  502  0.00000000000E+00  0.00000000000E+00  0.14345264215E+04  0.14345264215E+04  0.00000000000E+00 0. -1.
         21   -1    0    0  502  503 -0.00000000000E+00 -0.00000000000E+00 -0.87462938517E+03  0.87462938517E+03  0.00000000000E+00 0. -1.
   -9000010    2    1    2    0  503 -0.36384649288E+01  0.36436576729E+03  0.32696898656E+03  0.11470120585E+04  0.10372812027E+04 0.  0.
    9000010    2    1    2  501    0  0.36384649288E+01 -0.36436576729E+03  0.23292804974E+03  0.11621437481E+04  0.10786783413E+04 0.  0.
        -13    1    4    4    0    0  0.39519518770E+03  0.20291436579E+03  0.38255148488E+02  0.44588893659E+03  0.10566000000E+00 0.  1.
          4    1    4    4  501    0 -0.39155672277E+03 -0.56728013308E+03  0.19467290126E+03  0.71625481151E+03  0.00000000000E+00 0.  1.
         13    1    3    3    0    0  0.26693651168E+03  0.29803326229E+03 -0.27378514047E+03  0.48480639538E+03  0.10566000000E+00 0. -1.
         -4    1    3    3    0  503 -0.27057497660E+03  0.66332505002E+02  0.60075412703E+03  0.66220566317E+03  0.00000000000E+00 0. -1.
<mgrwt>
<rscale>  2 0.11286479E+04</rscale>
<asrwt>0</asrwt>
<pdfrwt beam="1">  1       21 0.22069637E+00 0.11385616E+04</pdfrwt>
<pdfrwt beam="2">  1       21 0.13455837E+00 0.11385616E+04</pdfrwt>
<totfact> 0.17026909E+01</totfact>
</mgrwt>
</event>
<event>
 8    1  0.1168507E-005  0.1151440E+04  0.7818608E-02  0.8665825E-01
         21   -1    0    0  501  502  0.00000000000E+00  0.00000000000E+00  0.15983172167E+04  0.15983172167E+04  0.00000000000E+00 0. -1.
         21   -1    0    0  502  503 -0.00000000000E+00 -0.00000000000E+00 -0.87766309477E+03  0.87766309477E+03  0.00000000000E+00 0. -1.
   -9000010    2    1    2    0  503  0.91589132990E+02  0.31027817781E+03 -0.85693119967E+02  0.11546240200E+04  0.11050575550E+04 0.  0.
    9000010    2    1    2  501    0 -0.91589132990E+02 -0.31027817781E+03  0.80634724185E+03  0.13213562914E+04  0.99555284016E+03 0.  0.
        -13    1    4    4    0    0  0.23547652241E+03 -0.45558273701E+03  0.90131411633E+02  0.52070001479E+03  0.10566000000E+00 0.  1.
          4    1    4    4  501    0 -0.32706565540E+03  0.14530455921E+03  0.71621583022E+03  0.80065627664E+03  0.00000000000E+00 0.  1.
         13    1    3    3    0    0  0.45827347521E+03  0.50127129280E+03 -0.22946250642E+03  0.71689646399E+03  0.10566000000E+00 0. -1.
         -4    1    3    3    0  503 -0.36668434222E+03 -0.19099311499E+03  0.14376938646E+03  0.43772755600E+03  0.00000000000E+00 0. -1.
<mgrwt>
<rscale>  2 0.11243374E+04</rscale>
<asrwt>0</asrwt>
<pdfrwt beam="1">  1       21 0.24589496E+00 0.11514397E+04</pdfrwt>
<pdfrwt beam="2">  1       21 0.13502509E+00 0.11514397E+04</pdfrwt>
<totfact> 0.10930246E+01</totfact>
</mgrwt>
</event>
<event>
 8    1  0.1168507E-005  0.1069526E+04  0.7818608E-02  0.8712482E-01
         21   -1    0    0  503  502  0.00000000000E+00  0.00000000000E+00  0.43945870858E+03  0.43945870858E+03  0.00000000000E+00 0.  1.
         21   -1    0    0  501  503 -0.00000000000E+00 -0.00000000000E+00 -0.26348191177E+04  0.26348191177E+04  0.00000000000E+00 0.  1.
    9000010    2    1    2  501    0  0.31066360545E+03  0.17873780835E+03 -0.12825228698E+04  0.16681630465E+04  0.10047108829E+04 0.  0.
   -9000010    2    1    2    0  502 -0.31066360545E+03 -0.17873780835E+03 -0.91283753929E+03  0.14061147798E+04  0.10076841375E+04 0.  0.
        -13    1    3    3    0    0 -0.22311338668E+03 -0.24425151322E+03 -0.69092929926E+03  0.76604287920E+03  0.10566000000E+00 0.  1.
          4    1    3    3  501    0  0.53377699213E+03  0.42298932157E+03 -0.59159357054E+03  0.90212016727E+03  0.00000000000E+00 0.  1.
         13    1    4    4    0    0 -0.65601466992E+03 -0.10478383655E+03 -0.78996128304E+03  0.10321694335E+04  0.10566000000E+00 0. -1.
         -4    1    4    4    0  502  0.34535106447E+03 -0.73953971806E+02 -0.12287625626E+03  0.37394534631E+03  0.00000000000E+00 0. -1.
<mgrwt>
<rscale>  2 0.10688253E+04</rscale>
<asrwt>0</asrwt>
<pdfrwt beam="1">  1       21 0.67609032E-01 0.10695263E+04</pdfrwt>
<pdfrwt beam="2">  1       21 0.40535679E+00 0.10695263E+04</pdfrwt>
<totfact> 0.50418461E+00</totfact>
</mgrwt>
</event>
<event>
 8    1  0.1168507E-005  0.1196528E+04  0.7818608E-02  0.8612453E-01
         21   -1    0    0  503  502  0.00000000000E+00  0.00000000000E+00  0.12910448110E+04  0.12910448110E+04  0.00000000000E+00 0.  1.
         21   -1    0    0  501  503 -0.00000000000E+00 -0.00000000000E+00 -0.10939076262E+04  0.10939076262E+04  0.00000000000E+00 0.  1.
    9000010    2    1    2  501    0  0.16556283367E+02 -0.63307849301E+03  0.13102224582E+03  0.11865988619E+04  0.99488066683E+03 0.  0.
   -9000010    2    1    2    0  502 -0.16556283367E+02  0.63307849301E+03  0.66114938905E+02  0.11983535754E+04  0.10151933893E+04 0.  0.
        -13    1    3    3    0    0 -0.42526230484E+03 -0.18095347679E+03 -0.16213600109E+03  0.48977574736E+03  0.10566000000E+00 0.  1.
          4    1    3    3  501    0  0.44181858821E+03 -0.45212501622E+03  0.29315824690E+03  0.69682311451E+03  0.00000000000E+00 0.  1.
         13    1    4    4    0    0  0.52310184158E+02  0.32939948264E+03 -0.47122037204E+03  0.57731189553E+03  0.10566000000E+00 0. -1.
         -4    1    4    4    0  502 -0.68866467525E+02  0.30367901037E+03  0.53733531095E+03  0.62104167982E+03  0.00000000000E+00 0. -1.
<mgrwt>
<rscale>  2 0.11922087E+04</rscale>
<asrwt>0</asrwt>
<pdfrwt beam="1">  1       21 0.19862228E+00 0.11965284E+04</pdfrwt>
<pdfrwt beam="2">  1       21 0.16829348E+00 0.11965284E+04</pdfrwt>
<totfact> 0.12437519E+01</totfact>
</mgrwt>
</event>
<event>
 8    1  0.1168507E-005  0.1047993E+04  0.7818608E-02  0.8730841E-01
         21   -1    0    0  501  502  0.00000000000E+00  0.00000000000E+00  0.12200779465E+04  0.12200779465E+04  0.00000000000E+00 0.  1.
         21   -1    0    0  502  503 -0.00000000000E+00 -0.00000000000E+00 -0.90014696275E+03  0.90014696275E+03  0.00000000000E+00 0.  1.
   -9000010    2    1    2    0  503 -0.12509883840E+03 -0.21176155829E+03  0.17866490422E+03  0.10627537587E+04  0.10183475471E+04 0.  0.
    9000010    2    1    2  501    0  0.12509883840E+03  0.21176155829E+03  0.14126607950E+03  0.10574711505E+04  0.10187229516E+04 0.  0.
        -13    1    4    4    0    0 -0.27307709498E+03 -0.14499361085E+03 -0.24782967947E+03  0.39624967909E+03  0.10566000000E+00 0.  1.
          4    1    4    4  501    0  0.39817593338E+03  0.35675516914E+03  0.38909575897E+03  0.66122147143E+03  0.00000000000E+00 0.  1.
         13    1    3    3    0    0  0.30994804335E+03  0.21207189896E+03 -0.10850320924E+03  0.39091589567E+03  0.10566000000E+00 0. -1.
         -4    1    3    3    0  503 -0.43504688175E+03 -0.42383345725E+03  0.28716811345E+03  0.67183786302E+03  0.00000000000E+00 0. -1.
<mgrwt>
<rscale>  2 0.10479017E+04</rscale>
<asrwt>0</asrwt>
<pdfrwt beam="1">  1       21 0.18770430E+00 0.10479929E+04</pdfrwt>
<pdfrwt beam="2">  1       21 0.13848415E+00 0.10479929E+04</pdfrwt>
<totfact> 0.28742688E+01</totfact>
</mgrwt>
</event>
<event>
 8    1  0.1168507E-005  0.1419429E+04  0.7818608E-02  0.8459242E-01
         21   -1    0    0  503  502  0.00000000000E+00  0.00000000000E+00  0.21454033539E+04  0.21454033539E+04  0.00000000000E+00 0. -1.
         21   -1    0    0  501  503 -0.00000000000E+00 -0.00000000000E+00 -0.11836583058E+04  0.11836583058E+04  0.00000000000E+00 0. -1.
    9000010    2    1    2  501    0 -0.29089644146E+03  0.94362170639E+03 -0.28915617258E+03  0.14370963353E+04  0.10032905464E+04 0.  0.
   -9000010    2    1    2    0  502  0.29089644146E+03 -0.94362170639E+03  0.12509012207E+04  0.18919653244E+04  0.10196745855E+04 0.  0.
        -13    1    3    3    0    0 -0.62480607706E+03  0.40239924144E+03 -0.11698330800E+02  0.74326620100E+03  0.10566000000E+00 0.  1.
          4    1    3    3  501    0  0.33390963560E+03  0.54122246495E+03 -0.27745784178E+03  0.69383013431E+03  0.00000000000E+00 0.  1.
         13    1    4    4    0    0  0.30651659851E+03  0.67088942120E+02  0.42679281448E+02  0.31666209679E+03  0.10566000000E+00 0. -1.
         -4    1    4    4    0  502 -0.15620157047E+02 -0.10107106485E+04  0.12082219393E+04  0.15753032276E+04  0.00000000000E+00 0. -1.
<mgrwt>
<rscale>  2 0.14164890E+04</rscale>
<asrwt>0</asrwt>
<pdfrwt beam="1">  1       21 0.33006205E+00 0.14194291E+04</pdfrwt>
<pdfrwt beam="2">  1       21 0.18210128E+00 0.14194291E+04</pdfrwt>
<totfact> 0.10085153E+00</totfact>
</mgrwt>
</event>
<event>
 8    1  0.1168507E-005  0.1042561E+04  0.7818608E-02  0.8748879E-01
         21   -1    0    0  501  502  0.00000000000E+00  0.00000000000E+00  0.15055045840E+04  0.15055045840E+04  0.00000000000E+00 0. -1.
         21   -1    0    0  502  503 -0.00000000000E+00 -0.00000000000E+00 -0.68341173700E+03  0.68341173700E+03  0.00000000000E+00 0. -1.
   -9000010    2    1    2    0  503  0.12699927190E+03 -0.28460906256E+03  0.43796175303E+03  0.10778401676E+04  0.93423647772E+03 0.  0.
    9000010    2    1    2  501    0 -0.12699927190E+03  0.28460906256E+03  0.38413109397E+03  0.11110761534E+04  0.99488812821E+03 0.  0.
        -13    1    4    4    0    0 -0.56466768104E+03  0.14230046892E+03  0.21152468364E+03  0.61954960772E+03  0.10566000000E+00 0.  1.
          4    1    4    4  501    0  0.43766840914E+03  0.14230859364E+03  0.17260641032E+03  0.49152654564E+03  0.00000000000E+00 0.  1.
         13    1    3    3    0    0 -0.32268389148E+03  0.63955313968E+02 -0.44380047396E+02  0.33194092212E+03  0.10566000000E+00 0. -1.
         -4    1    3    3    0  503  0.44968316339E+03 -0.34856437653E+03  0.48234180043E+03  0.74589924552E+03  0.00000000000E+00 0. -1.
<mgrwt>
<rscale>  2 0.10278237E+04</rscale>
<asrwt>0</asrwt>
<pdfrwt beam="1">  1       21 0.23161609E+00 0.10425610E+04</pdfrwt>
<pdfrwt beam="2">  1       21 0.10514027E+00 0.10425610E+04</pdfrwt>
<totfact> 0.28687737E+01</totfact>
</mgrwt>
</event>
<event>
 8    1  0.1168507E-005  0.1091678E+04  0.7818608E-02  0.8711663E-01
         21   -1    0    0  501  502  0.00000000000E+00  0.00000000000E+00  0.35630413950E+04  0.35630413950E+04  0.00000000000E+00 0.  1.
         21   -1    0    0  502  503 -0.00000000000E+00 -0.00000000000E+00 -0.35262235065E+03  0.35262235065E+03  0.00000000000E+00 0.  1.
   -9000010    2    1    2    0  503 -0.39938160236E+03 -0.21418882163E+03  0.97355840627E+03  0.14627291110E+04  0.99316562873E+03 0.  0.
    9000010    2    1    2  501    0  0.39938160236E+03  0.21418882163E+03  0.22368606381E+04  0.24529346347E+04  0.89886611469E+03 0.  0.
        -13    1    4    4    0    0  0.88849423035E+02  0.53392859680E+03  0.98239257468E+03  0.11216368166E+04  0.10566000000E+00 0.  1.
          4    1    4    4  501    0  0.31053217933E+03 -0.31973977518E+03  0.12544680634E+04  0.13312978180E+04  0.00000000000E+00 0.  1.
         13    1    3    3    0    0 -0.96342632003E+02 -0.59437655463E+03  0.48131480333E+03  0.77086272611E+03  0.10566000000E+00 0. -1.
         -4    1    3    3    0  503 -0.30303897036E+03  0.38018773301E+03  0.49224360294E+03  0.69186638487E+03  0.00000000000E+00 0. -1.
<mgrwt>
<rscale>  2 0.10697700E+04</rscale>
<asrwt>0</asrwt>
<pdfrwt beam="1">  1       21 0.54816019E+00 0.10916778E+04</pdfrwt>
<pdfrwt beam="2">  1       21 0.54249595E-01 0.10916778E+04</pdfrwt>
<totfact> 0.83641916E-01</totfact>
</mgrwt>
</event>
<event>
 8    1  0.1168507E-005  0.1136978E+04  0.7818608E-02  0.8656848E-01
         21   -1    0    0  503  502  0.00000000000E+00  0.00000000000E+00  0.15469644979E+04  0.15469644979E+04  0.00000000000E+00 0.  1.
         21   -1    0    0  501  503 -0.00000000000E+00 -0.00000000000E+00 -0.90332731685E+03  0.90332731685E+03  0.00000000000E+00 0.  1.
    9000010    2    1    2  501    0  0.45401578785E+03 -0.31196014429E+03 -0.25470545187E+02  0.11310404587E+04  0.98749901438E+03 0.  0.
   -9000010    2    1    2    0  502 -0.45401578785E+03  0.31196014429E+03  0.66910772620E+03  0.13192513560E+04  0.99462029122E+03 0.  0.
        -13    1    3    3    0    0  0.34541022302E+03 -0.34911575400E+03  0.43525619527E+03  0.65623014144E+03  0.10566000000E+00 0.  1.
          4    1    3    3  501    0  0.10860556483E+03  0.37155609710E+02 -0.46072674045E+03  0.47481031730E+03  0.00000000000E+00 0.  1.
         13    1    4    4    0    0 -0.91728193590E+01  0.52425969547E+03  0.63735954626E+03  0.82532391901E+03  0.10566000000E+00 0. -1.
         -4    1    4    4    0  502 -0.44484296849E+03 -0.21229955119E+03  0.31748179942E+02  0.49392743696E+03  0.00000000000E+00 0. -1.
<mgrwt>
<rscale>  2 0.11354187E+04</rscale>
<asrwt>0</asrwt>
<pdfrwt beam="1">  1       21 0.23799454E+00 0.11369780E+04</pdfrwt>
<pdfrwt beam="2">  1       21 0.13897343E+00 0.11369780E+04</pdfrwt>
<totfact> 0.11503832E+01</totfact>
</mgrwt>
</event>
<event>
 8    1  0.1168507E-005  0.1080733E+04  0.7818608E-02  0.8705172E-01
         21   -1    0    0  503  502  0.00000000000E+00  0.00000000000E+00  0.14022454749E+04  0.14022454749E+04  0.00000000000E+00 0.  1.
         21   -1    0    0  501  503 -0.00000000000E+00 -0.00000000000E+00 -0.82254751907E+03  0.82254751907E+03  0.00000000000E+00 0.  1.
    9000010    2    1    2  501    0 -0.25510251090E+03 -0.29002577842E+03  0.30119458481E+03  0.11087520353E+04  0.99469626251E+03 0.  0.
   -9000010    2    1    2    0  502  0.25510251090E+03  0.29002577842E+03  0.27850337106E+03  0.11160409587E+04  0.10093517973E+04 0.  0.
        -13    1    3    3    0    0  0.26718051043E+03 -0.44744434319E+03  0.13156713706E+03  0.53749584940E+03  0.10566000000E+00 0.  1.
          4    1    3    3  501    0 -0.52228302132E+03  0.15741856477E+03  0.16962744776E+03  0.57125618590E+03  0.00000000000E+00 0.  1.
         13    1    4    4    0    0  0.23591785791E+03 -0.35544855416E+03  0.43408248753E+02  0.42881837363E+03  0.10566000000E+00 0. -1.
         -4    1    4    4    0  502  0.19184652983E+02  0.64547433257E+03  0.23509512230E+03  0.68722258508E+03  0.00000000000E+00 0. -1.
<mgrwt>
<rscale>  2 0.10772977E+04</rscale>
<asrwt>0</asrwt>
<pdfrwt beam="1">  1       21 0.21573007E+00 0.10807328E+04</pdfrwt>
<pdfrwt beam="2">  1       21 0.12654577E+00 0.10807328E+04</pdfrwt>
<totfact> 0.22449830E+01</totfact>
</mgrwt>
</event>
<event>
 8    1  0.1168507E-005  0.1055104E+04  0.7818608E-02  0.8732097E-01
         21   -1    0    0  501  502  0.00000000000E+00  0.00000000000E+00  0.91036151337E+03  0.91036151337E+03  0.00000000000E+00 0.  1.
         21   -1    0    0  502  503 -0.00000000000E+00 -0.00000000000E+00 -0.14770584863E+04  0.14770584863E+04  0.00000000000E+00 0.  1.
   -9000010    2    1    2    0  503 -0.14259445560E+03  0.17055407416E+03 -0.81153226543E+03  0.13042818643E+04  0.99656645169E+03 0.  0.
    9000010    2    1    2  501    0  0.14259445560E+03 -0.17055407416E+03  0.24483529255E+03  0.10831381354E+04  0.10314174852E+04 0.  0.
        -13    1    4    4    0    0  0.11084949552E+03 -0.47895829605E+03  0.48528543021E+03  0.69078985224E+03  0.10566000000E+00 0.  1.
          4    1    4    4  501    0  0.31744960083E+02  0.30840422189E+03 -0.24045013766E+03  0.39234828313E+03  0.00000000000E+00 0.  1.
         13    1    3    3    0    0  0.37376480749E+03  0.10119851075E+03 -0.65391670545E+03  0.75996601156E+03  0.10566000000E+00 0. -1.
         -4    1    3    3    0  503 -0.51635926309E+03  0.69355563416E+02 -0.15761555998E+03  0.54431585271E+03  0.00000000000E+00 0. -1.
<mgrwt>
<rscale>  2 0.10464882E+04</rscale>
<asrwt>0</asrwt>
<pdfrwt beam="1">  1       21 0.14005562E+00 0.10551037E+04</pdfrwt>
<pdfrwt beam="2">  1       21 0.22723977E+00 0.10551037E+04</pdfrwt>
<totfact> 0.13755161E+01</totfact>
</mgrwt>
</event>
<event>
 8    1  0.1168507E-005  0.1116277E+04  0.7818608E-02  0.8674193E-01
         21   -1    0    0  503  502  0.00000000000E+00  0.00000000000E+00  0.15917545102E+04  0.15917545102E+04  0.00000000000E+00 0. -1.
         21   -1    0    0  501  503 -0.00000000000E+00 -0.00000000000E+00 -0.18665972886E+04  0.18665972886E+04  0.00000000000E+00 0.  1.
    9000010    2    1    2  501    0 -0.42184805076E+03 -0.26002363704E+03 -0.14588740703E+04  0.18369505499E+04  0.10002528181E+04 0.  0.
   -9000010    2    1    2    0  502  0.42184805076E+03  0.26002363704E+03  0.11840312919E+04  0.16214012490E+04  0.99067847472E+03 0.  0.
        -13    1    3    3    0    0  0.28701121718E+03  0.18769713832E+02 -0.15460043748E+03  0.32654103475E+03  0.10566000000E+00 0.  1.
          4    1    3    3  501    0 -0.70885926794E+03 -0.27879335087E+03 -0.13042736328E+04  0.15104095152E+04  0.00000000000E+00 0.  1.
         13    1    4    4    0    0  0.43649127094E+02  0.58147808982E+03  0.45587885530E+03  0.74016724942E+03  0.10566000000E+00 0. -1.
         -4    1    4    4    0  502  0.37819892366E+03 -0.32145445278E+03  0.72815243657E+03  0.88123399955E+03  0.00000000000E+00 0. -1.
<mgrwt>
<rscale>  2 0.11141278E+04</rscale>
<asrwt>0</asrwt>
<pdfrwt beam="1">  1       21 0.24488531E+00 0.11162767E+04</pdfrwt>
<pdfrwt beam="2">  1       21 0.28716881E+00 0.11162767E+04</pdfrwt>
<totfact> 0.71441970E-01</totfact>
</mgrwt>
</event>
<event>
 8    1  0.1168507E-005  0.1234758E+04  0.7818608E-02  0.8584062E-01
         21   -1    0    0  501  502  0.00000000000E+00  0.00000000000E+00  0.11810411224E+04  0.11810411224E+04  0.00000000000E+00 0. -1.
         21   -1    0    0  502  503 -0.00000000000E+00 -0.00000000000E+00 -0.12729878073E+04  0.12729878073E+04  0.00000000000E+00 0. -1.
   -9000010    2    1    2    0  503 -0.48149417558E+03 -0.54293333366E+03 -0.68016674735E+02  0.12366301524E+04  0.99900681678E+03 0.  0.
    9000010    2    1    2  501    0  0.48149417558E+03  0.54293333366E+03 -0.23930010192E+02  0.12173987773E+04  0.97717648948E+03 0.  0.
        -13    1    4    4    0    0  0.42793694424E+03  0.61739824240E+03  0.35261124661E+03  0.82984656435E+03  0.10566000000E+00 0.  1.
          4    1    4    4  501    0  0.53557231342E+02 -0.74464908737E+02 -0.37654125681E+03  0.38755221292E+03  0.00000000000E+00 0.  1.
         13    1    3    3    0    0  0.16162252216E+03  0.19502420687E+03 -0.46518453169E+02  0.25752719970E+03  0.10566000000E+00 0. -1.
         -4    1    3    3    0  503 -0.64311669775E+03 -0.73795754053E+03 -0.21498221566E+02  0.97910295275E+03  0.00000000000E+00 0. -1.
<mgrwt>
<rscale>  2 0.12303359E+04</rscale>
<asrwt>0</asrwt>
<pdfrwt beam="1">  1       21 0.18169863E+00 0.12347582E+04</pdfrwt>
<pdfrwt beam="2">  1       21 0.19584428E+00 0.12347582E+04</pdfrwt>
<totfact> 0.10048975E+01</totfact>
</mgrwt>
</event>
<event>
 8    1  0.1168507E-005  0.1152503E+04  0.7818608E-02  0.8645608E-01
         21   -1    0    0  501  502  0.00000000000E+00  0.00000000000E+00  0.32790874399E+03  0.32790874399E+03  0.00000000000E+00 0.  1.
         21   -1    0    0  502  503 -0.00000000000E+00 -0.00000000000E+00 -0.40254902971E+04  0.40254902971E+04  0.00000000000E+00 0.  1.
   -9000010    2    1    2    0  503  0.45617492619E+03  0.16711551652E+03 -0.19999154246E+04  0.23082299724E+04  0.10451032203E+04 0.  0.
    9000010    2    1    2  501    0 -0.45617492619E+03 -0.16711551652E+03 -0.16976661286E+04  0.20451690687E+04  0.10318057357E+04 0.  0.
        -13    1    4    4    0    0 -0.65250665728E+03  0.21942958963E+03 -0.12142376328E+04  0.13958106329E+04  0.10566000000E+00 0.  1.
          4    1    4    4  501    0  0.19633173109E+03 -0.38654510615E+03 -0.48342849572E+03  0.64935843584E+03  0.00000000000E+00 0.  1.
         13    1    3    3    0    0  0.89846604109E+02  0.30695847306E+03 -0.18670067599E+04  0.18942043631E+04  0.10566000000E+00 0. -1.
         -4    1    3    3    0  503  0.36632832208E+03 -0.13984295654E+03 -0.13290866467E+03  0.41402560935E+03  0.00000000000E+00 0. -1.
<mgrwt>
<rscale>  2 0.11494803E+04</rscale>
<asrwt>0</asrwt>
<pdfrwt beam="1">  1       21 0.50447498E-01 0.11525033E+04</pdfrwt>
<pdfrwt beam="2">  1       21 0.61930622E+00 0.11525033E+04</pdfrwt>
<totfact> 0.28141696E-01</totfact>
</mgrwt>
</event>
<event>
 8    1  0.1168507E-005  0.1311363E+04  0.7818608E-02  0.8529441E-01
         21   -1    0    0  503  502  0.00000000000E+00  0.00000000000E+00  0.12550211022E+04  0.12550211022E+04  0.00000000000E+00 0.  1.
         21   -1    0    0  501  503 -0.00000000000E+00 -0.00000000000E+00 -0.14010648684E+04  0.14010648684E+04  0.00000000000E+00 0.  1.
    9000010    2    1    2  501    0  0.81632848900E+03  0.57674744796E+01  0.16561846162E+03  0.13081968686E+04  0.10087239991E+04 0.  0.
   -9000010    2    1    2    0  502 -0.81632848900E+03 -0.57674744796E+01 -0.31166222781E+03  0.13478891020E+04  0.10262778480E+04 0.  0.
        -13    1    3    3    0    0  0.44011917971E+03  0.32038992451E+03  0.47989602282E+03  0.72570985935E+03  0.10566000000E+00 0.  1.
          4    1    3    3  501    0  0.37620930929E+03 -0.31462245003E+03 -0.31427756120E+03  0.58248700923E+03  0.00000000000E+00 0.  1.
         13    1    4    4    0    0 -0.41912229796E+03 -0.58630045150E+02 -0.68175009466E+03  0.80242394380E+03  0.10566000000E+00 0. -1.
         -4    1    4    4    0  502 -0.39720619103E+03  0.52862570670E+02  0.37008786685E+03  0.54546515816E+03  0.00000000000E+00 0. -1.
<mgrwt>
<rscale>  2 0.13079261E+04</rscale>
<asrwt>0</asrwt>
<pdfrwt beam="1">  1       21 0.19308017E+00 0.13113625E+04</pdfrwt>
<pdfrwt beam="2">  1       21 0.21554844E+00 0.13113625E+04</pdfrwt>
<totfact> 0.56406650E+00</totfact>
</mgrwt>
</event>
<event>
 8    1  0.1168507E-005  0.1138196E+04  0.7818608E-02  0.8655736E-01
         21   -1    0    0  503  502  0.00000000000E+00  0.00000000000E+00  0.95652684741E+03  0.95652684741E+03  0.00000000000E+00 0. -1.
         21   -1    0    0  501  503 -0.00000000000E+00 -0.00000000000E+00 -0.14009564091E+04  0.14009564091E+04  0.00000000000E+00 0. -1.
    9000010    2    1    2  501    0  0.45983645637E+03 -0.24907259180E+03  0.80339058368E+01  0.11326512578E+04  0.10046629314E+04 0.  0.
   -9000010    2    1    2    0  502 -0.45983645637E+03  0.24907259180E+03 -0.45246346752E+03  0.12248319987E+04  0.10109418939E+04 0.  0.
        -13    1    3    3    0    0  0.30498798745E+03 -0.50996006249E+03  0.33865280329E+03  0.68393177303E+03  0.10566000000E+00 0.  1.
          4    1    3    3  501    0  0.15484846892E+03  0.26088747069E+03 -0.33061889746E+03  0.44871948481E+03  0.00000000000E+00 0.  1.
         13    1    4    4    0    0 -0.19998691374E+03  0.50474979291E+03  0.11058665680E+03  0.55407268380E+03  0.10566000000E+00 0. -1.
         -4    1    4    4    0  502 -0.25984954263E+03 -0.25567720110E+03 -0.56305012432E+03  0.67075931486E+03  0.00000000000E+00 0. -1.
<mgrwt>
<rscale>  2 0.11368002E+04</rscale>
<asrwt>0</asrwt>
<pdfrwt beam="1">  1       21 0.14715798E+00 0.11381960E+04</pdfrwt>
<pdfrwt beam="2">  1       21 0.21553175E+00 0.11381960E+04</pdfrwt>
<totfact> 0.14249196E+01</totfact>
</mgrwt>
</event>
<event>
 8    1  0.1168507E-005  0.1080996E+04  0.7818608E-02  0.8718279E-01
         21   -1    0    0  503  502  0.00000000000E+00  0.00000000000E+00  0.53935821004E+03  0.53935821004E+03  0.00000000000E+00 0.  1.
         21   -1    0    0  501  503 -0.00000000000E+00 -0.00000000000E+00 -0.20224507755E+04  0.20224507755E+04  0.00000000000E+00 0.  1.
    9000010    2    1    2  501    0 -0.26362566203E+03 -0.19506597681E+03 -0.69587696975E+03  0.12245505420E+04  0.95274868039E+03 0.  0.
   -9000010    2    1    2    0  502  0.26362566203E+03  0.19506597681E+03 -0.78721559569E+03  0.13372584435E+04  0.10300497685E+04 0.  0.
        -13    1    3    3    0    0 -0.50801419836E+03 -0.10889865223E+03 -0.79280621562E+03  0.94788134747E+03  0.10566000000E+00 0.  1.
          4    1    3    3  501    0  0.24438853634E+03 -0.86167324580E+02  0.96929245868E+02  0.27666919457E+03  0.00000000000E+00 0.  1.
         13    1    4    4    0    0  0.40071830645E+03 -0.11466033015E+03 -0.89044582829E+03  0.98316628132E+03  0.10566000000E+00 0. -1.
         -4    1    4    4    0  502 -0.13709264443E+03  0.30972630696E+03  0.10323023260E+03  0.35409216216E+03  0.00000000000E+00 0. -1.
<mgrwt>
<rscale>  2 0.10621630E+04</rscale>
<asrwt>0</asrwt>
<pdfrwt beam="1">  1       21 0.82978185E-01 0.10809957E+04</pdfrwt>
<pdfrwt beam="2">  1       21 0.31114628E+00 0.10809957E+04</pdfrwt>
<totfact> 0.14041907E+01</totfact>
</mgrwt>
</event>
<event>
 8    1  0.1168507E-005  0.1115520E+04  0.7818608E-02  0.8682525E-01
         21   -1    0    0  501  502  0.00000000000E+00  0.00000000000E+00  0.25083287916E+04  0.25083287916E+04  0.00000000000E+00 0.  1.
         21   -1    0    0  502  503 -0.00000000000E+00 -0.00000000000E+00 -0.53561421248E+03  0.53561421248E+03  0.00000000000E+00 0.  1.
   -9000010    2    1    2    0  503 -0.44543996763E+03 -0.14945800258E+03  0.49785938696E+03  0.12215765350E+04  0.10117464121E+04 0.  0.
    9000010    2    1    2  501    0  0.44543996763E+03  0.14945800258E+03  0.14748551922E+04  0.18223664691E+04  0.96180416434E+03 0.  0.
        -13    1    4    4    0    0 -0.21092650582E+03  0.56633540940E+02  0.14831017536E+02  0.21890024911E+03  0.10566000000E+00 0.  1.
          4    1    4    4  501    0  0.65636647345E+03  0.92824461637E+02  0.14600241746E+04  0.16034662200E+04  0.00000000000E+00 0.  1.
         13    1    3    3    0    0  0.30034023843E+02 -0.14792197836E+03  0.69179496091E+03  0.70807007660E+03  0.10566000000E+00 0. -1.
         -4    1    3    3    0  503 -0.47547399148E+03 -0.15360242180E+01 -0.19393557396E+03  0.51350645837E+03  0.00000000000E+00 0. -1.
<mgrwt>
<rscale>  2 0.11040728E+04</rscale>
<asrwt>0</asrwt>
<pdfrwt beam="1">  1       21 0.38589673E+00 0.11155202E+04</pdfrwt>
<pdfrwt beam="2">  1       21 0.82402188E-01 0.11155202E+04</pdfrwt>
<totfact> 0.42377741E+00</totfact>
</mgrwt>
</event>
<event>
 8    1  0.1168507E-005  0.1146996E+04  0.7818608E-02  0.8649025E-01
         21   -1    0    0  503  502  0.00000000000E+00  0.00000000000E+00  0.15560766301E+04  0.15560766301E+04  0.00000000000E+00 0. -1.
         21   -1    0    0  501  503 -0.00000000000E+00 -0.00000000000E+00 -0.84018475222E+03  0.84018475222E+03  0.00000000000E+00 0. -1.
    9000010    2    1    2  501    0  0.14881203762E+03  0.52400614584E+03  0.34973701261E+03  0.11991316169E+04  0.10093924872E+04 0.  0.
   -9000010    2    1    2    0  502 -0.14881203762E+03 -0.52400614584E+03  0.36615486524E+03  0.11971297654E+04  0.10011607395E+04 0.  0.
        -13    1    3    3    0    0 -0.36873109111E+03 -0.51233121878E+02  0.13635112051E+03  0.39645818134E+03  0.10566000000E+00 0.  1.
          4    1    3    3  501    0  0.51754312873E+03  0.57523926771E+03  0.21338589211E+03  0.80267343557E+03  0.00000000000E+00 0.  1.
         13    1    4    4    0    0  0.81477574944E+02 -0.57916399077E+03 -0.17161979243E+03  0.60952677360E+03  0.10566000000E+00 0. -1.
         -4    1    4    4    0  502 -0.23028961256E+03  0.55157844929E+02  0.53777465767E+03  0.58760299178E+03  0.00000000000E+00 0. -1.
<mgrwt>
<rscale>  2 0.11451827E+04</rscale>
<asrwt>0</asrwt>
<pdfrwt beam="1">  1       21 0.23939640E+00 0.11469964E+04</pdfrwt>
<pdfrwt beam="2">  1       21 0.12925919E+00 0.11469964E+04</pdfrwt>
<totfact> 0.13863912E+01</totfact>
</mgrwt>
</event>
<event>
 8    1  0.1168507E-005  0.1219294E+04  0.7818608E-02  0.8599613E-01
         21   -1    0    0  501  502  0.00000000000E+00  0.00000000000E+00  0.91099889938E+03  0.91099889938E+03  0.00000000000E+00 0.  1.
         21   -1    0    0  502  503 -0.00000000000E+00 -0.00000000000E+00 -0.15806824746E+04  0.15806824746E+04  0.00000000000E+00 0.  1.
   -9000010    2    1    2    0  503  0.37351509839E+03 -0.51045277580E+03 -0.37650253778E+03  0.12760999280E+04  0.10424016981E+04 0.  0.
    9000010    2    1    2  501    0 -0.37351509839E+03  0.51045277580E+03 -0.29318103747E+03  0.12155814460E+04  0.99579494183E+03 0.  0.
        -13    1    4    4    0    0 -0.12541245175E+03 -0.29519913565E+03  0.68046222331E+01  0.32080699305E+03  0.10566000000E+00 0.  1.
          4    1    4    4  501    0 -0.24810264664E+03  0.80565191145E+03 -0.29998565971E+03  0.89477445299E+03  0.00000000000E+00 0.  1.
         13    1    3    3    0    0 -0.37619067048E+02  0.25960465942E+03  0.10101147956E+03  0.28109269569E+03  0.10566000000E+00 0. -1.
         -4    1    3    3    0  503  0.41113416543E+03 -0.77005743523E+03 -0.47751401735E+03  0.99500723229E+03  0.00000000000E+00 0. -1.
<mgrwt>
<rscale>  2 0.12092714E+04</rscale>
<asrwt>0</asrwt>
<pdfrwt beam="1">  1       21 0.14015368E+00 0.12192936E+04</pdfrwt>
<pdfrwt beam="2">  1       21 0.24318192E+00 0.12192936E+04</pdfrwt>
<totfact> 0.10101084E+01</totfact>
</mgrwt>
</event>
<event>
 8    1  0.1168507E-005  0.1422056E+04  0.7818608E-02  0.8456420E-01
         21   -1    0    0  501  502  0.00000000000E+00  0.00000000000E+00  0.17862178959E+04  0.17862178959E+04  0.00000000000E+00 0.  1.
         21   -1    0    0  502  503 -0.00000000000E+00 -0.00000000000E+00 -0.12209011299E+04  0.12209011299E+04  0.00000000000E+00 0.  1.
   -9000010    2    1    2    0  503 -0.10071907759E+04  0.14943906980E+02  0.69476493604E+03  0.15791837352E+04  0.99823162333E+03 0.  0.
    9000010    2    1    2  501    0  0.10071907759E+04 -0.14943906980E+02 -0.12944817002E+03  0.14279352906E+04  0.10037857272E+04 0.  0.
        -13    1    4    4    0    0 -0.11988966771E+03 -0.14754897773E+03  0.16913189434E+03  0.25445990274E+03  0.10566000000E+00 0.  1.
          4    1    4    4  501    0  0.11270804436E+04  0.13260507075E+03 -0.29858006437E+03  0.11734753879E+04  0.00000000000E+00 0.  1.
         13    1    3    3    0    0  0.28853881305E+02 -0.24032605362E+03  0.40782420871E+03  0.47424651279E+03  0.10566000000E+00 0. -1.
         -4    1    3    3    0  503 -0.10360446572E+04  0.25526996060E+03  0.28694072733E+03  0.11049372224E+04  0.00000000000E+00 0. -1.
<mgrwt>
<rscale>  2 0.14210759E+04</rscale>
<asrwt>0</asrwt>
<pdfrwt beam="1">  1       21 0.27480275E+00 0.14220557E+04</pdfrwt>
<pdfrwt beam="2">  1       21 0.18783094E+00 0.14220557E+04</pdfrwt>
<totfact> 0.22309270E+00</totfact>
</mgrwt>
</event>
<event>
 8    1  0.1168507E-005  0.1193327E+04  0.7818608E-02  0.8614605E-01
         21   -1    0    0  501  502  0.00000000000E+00  0.00000000000E+00  0.10779598766E+04  0.10779598766E+04  0.00000000000E+00 0. -1.
         21   -1    0    0  502  503 -0.00000000000E+00 -0.00000000000E+00 -0.14083601665E+04  0.14083601665E+04  0.00000000000E+00 0. -1.
   -9000010    2    1    2    0  503  0.62940506549E+03  0.56798455644E+01 -0.50510721753E+03  0.12958247556E+04  0.10138271543E+04 0.  0.
    9000010    2    1    2  501    0 -0.62940506549E+03 -0.56798455644E+01  0.17470692764E+03  0.11904952875E+04  0.99527560096E+03 0.  0.
        -13    1    4    4    0    0  0.20371170479E+03 -0.13889520581E+03 -0.14756224771E+03  0.28734119958E+03  0.10566000000E+00 0.  1.
          4    1    4    4  501    0 -0.83311677028E+03  0.13321536024E+03  0.32226917535E+03  0.90315408791E+03  0.00000000000E+00 0.  1.
         13    1    3    3    0    0  0.70489592970E+03  0.14742646403E+03  0.46175377039E+02  0.72162664212E+03  0.10566000000E+00 0. -1.
         -4    1    3    3    0  503 -0.75490864206E+02 -0.14174661847E+03 -0.55128259457E+03  0.57419811346E+03  0.00000000000E+00 0. -1.
<mgrwt>
<rscale>  2 0.11893770E+04</rscale>
<asrwt>0</asrwt>
<pdfrwt beam="1">  1       21 0.16583998E+00 0.11933267E+04</pdfrwt>
<pdfrwt beam="2">  1       21 0.21667079E+00 0.11933267E+04</pdfrwt>
<totfact> 0.94760512E+00</totfact>
</mgrwt>
</event>
<event>
 8    1  0.1168507E-005  0.1275423E+04  0.7818608E-02  0.8553035E-01
         21   -1    0    0  501  502  0.00000000000E+00  0.00000000000E+00  0.25565408901E+04  0.25565408901E+04  0.00000000000E+00 0.  1.
         21   -1    0    0  502  503 -0.00000000000E+00 -0.00000000000E+00 -0.68988229450E+03  0.68988229450E+03  0.00000000000E+00 0.  1.
   -9000010    2    1    2    0  503  0.80169553479E+01 -0.78692731433E+03  0.46441218287E+03  0.13509025017E+04  0.99495729749E+03 0.  0.
    9000010    2    1    2  501    0 -0.80169553479E+01  0.78692731433E+03  0.14022464127E+04  0.18955206829E+04  0.10036856021E+04 0.  0.
        -13    1    4    4    0    0  0.19350704244E+03  0.66612615822E+03  0.27851510526E+03  0.74748893581E+03  0.10566000000E+00 0.  1.
          4    1    4    4  501    0 -0.20152399778E+03  0.12080115610E+03  0.11237313075E+04  0.11480317471E+04  0.00000000000E+00 0.  1.
         13    1    3    3    0    0  0.38341807136E+03 -0.17917586450E+03 -0.10654019537E+03  0.43642208040E+03  0.10566000000E+00 0. -1.
         -4    1    3    3    0  503 -0.37540111601E+03 -0.60775144983E+03  0.57095237825E+03  0.91448042128E+03  0.00000000000E+00 0. -1.
<mgrwt>
<rscale>  2 0.12737052E+04</rscale>
<asrwt>0</asrwt>
<pdfrwt beam="1">  1       21 0.39331398E+00 0.12754229E+04</pdfrwt>
<pdfrwt beam="2">  1       21 0.10613574E+00 0.12754229E+04</pdfrwt>
<totfact> 0.18953010E+00</totfact>
</mgrwt>
</event>
<event>
 8    1  0.1168507E-005  0.1237705E+04  0.7818608E-02  0.8587529E-01
         21   -1    0    0  503  502  0.00000000000E+00  0.00000000000E+00  0.93231793223E+03  0.93231793223E+03  0.00000000000E+00 0. -1.
         21   -1    0    0  501  503 -0.00000000000E+00 -0.00000000000E+00 -0.15844060357E+04  0.15844060357E+04  0.00000000000E+00 0. -1.
    9000010    2    1    2  501    0  0.11783891466E+03 -0.62553429523E+03 -0.38290901536E+03  0.12500861780E+04  0.10054436703E+04 0.  0.
   -9000010    2    1    2    0  502 -0.11783891466E+03  0.62553429523E+03 -0.26917908814E+03  0.12666377899E+04  0.10614776234E+04 0.  0.
        -13    1    3    3    0    0  0.13589511551E+03 -0.50048451872E+02  0.31418629761E+03  0.34595573521E+03  0.10566000000E+00 0.  1.
          4    1    3    3  501    0 -0.18056200855E+02 -0.57548584336E+03 -0.69709531297E+03  0.90413044284E+03  0.00000000000E+00 0.  1.
         13    1    4    4    0    0  0.42088159567E+03  0.45808798187E+03  0.39925864934E+02  0.62336185524E+03  0.10566000000E+00 0. -1.
         -4    1    4    4    0  502 -0.53872051033E+03  0.16744631336E+03 -0.30910495307E+03  0.64327593467E+03  0.00000000000E+00 0. -1.
<mgrwt>
<rscale>  2 0.12256020E+04</rscale>
<asrwt>0</asrwt>
<pdfrwt beam="1">  1       21 0.14343353E+00 0.12377051E+04</pdfrwt>
<pdfrwt beam="2">  1       21 0.24375477E+00 0.12377051E+04</pdfrwt>
<totfact> 0.92976562E+00</totfact>
</mgrwt>
</event>
<event>
 8    1  0.1168507E-005  0.1036227E+04  0.7818608E-02  0.8742305E-01
         21   -1    0    0  503  502  0.00000000000E+00  0.00000000000E+00  0.14424651344E+04  0.14424651344E+04  0.00000000000E+00 0. -1.
         21   -1    0    0  501  503 -0.00000000000E+00 -0.00000000000E+00 -0.11713675726E+04  0.11713675726E+04  0.00000000000E+00 0. -1.
    9000010    2    1    2  501    0 -0.14756411224E+03 -0.20657194598E+03 -0.65669384502E+03  0.12229470668E+04  0.99995279187E+03 0.  0.
   -9000010    2    1    2    0  502  0.14756411224E+03  0.20657194598E+03  0.92779140675E+03  0.13908856402E+04  0.10046486120E+04 0.  0.
        -13    1    3    3    0    0 -0.17488445536E+03 -0.24366185466E+03  0.20290587421E+03  0.36211390073E+03  0.10566000000E+00 0.  1.
          4    1    3    3  501    0  0.27320343127E+02  0.37089908679E+02 -0.85959971923E+03  0.86083316606E+03  0.00000000000E+00 0.  1.
         13    1    4    4    0    0 -0.35402961559E+03 -0.10053625971E+03  0.11104964093E+03  0.38441714601E+03  0.10566000000E+00 0. -1.
         -4    1    4    4    0  502  0.50159372783E+03  0.30710820569E+03  0.81674176581E+03  0.10064684942E+04  0.00000000000E+00 0. -1.
<mgrwt>
<rscale>  2 0.10350869E+04</rscale>
<asrwt>0</asrwt>
<pdfrwt beam="1">  1       21 0.22191771E+00 0.10362268E+04</pdfrwt>
<pdfrwt beam="2">  1       21 0.18021040E+00 0.10362268E+04</pdfrwt>
<totfact> 0.68053320E+00</totfact>
</mgrwt>
</event>
<event>
 8    1  0.1168507E-005  0.1088401E+04  0.7818608E-02  0.8696592E-01
         21   -1    0    0  503  502  0.00000000000E+00  0.00000000000E+00  0.97211176552E+03  0.97211176552E+03  0.00000000000E+00 0.  1.
         21   -1    0    0  501  503 -0.00000000000E+00 -0.00000000000E+00 -0.12154103308E+04  0.12154103308E+04  0.00000000000E+00 0.  1.
    9000010    2    1    2  501    0 -0.29277256966E+03  0.20680445067E+03 -0.16003347776E+03  0.10959409077E+04  0.10232262217E+04 0.  0.
   -9000010    2    1    2    0  502  0.29277256966E+03 -0.20680445067E+03 -0.83265087494E+02  0.10915811886E+04  0.10276831021E+04 0.  0.
        -13    1    3    3    0    0  0.57044884628E+02 -0.31267373171E+03  0.19807550832E+03  0.37450353740E+03  0.10566000000E+00 0.  1.
          4    1    3    3  501    0 -0.34981745428E+03  0.51947818238E+03 -0.35810898608E+03  0.72143737026E+03  0.00000000000E+00 0.  1.
         13    1    4    4    0    0  0.17210443642E+03  0.32805534602E+03  0.25278842205E+03  0.44848884553E+03  0.10566000000E+00 0. -1.
         -4    1    4    4    0  502  0.12066813324E+03 -0.53485979668E+03 -0.33605350954E+03  0.64309234311E+03  0.00000000000E+00 0. -1.
<mgrwt>
<rscale>  2 0.10873475E+04</rscale>
<asrwt>0</asrwt>
<pdfrwt beam="1">  1       21 0.14955566E+00 0.10884009E+04</pdfrwt>
<pdfrwt beam="2">  1       21 0.18698620E+00 0.10884009E+04</pdfrwt>
<totfact> 0.22883093E+01</totfact>
</mgrwt>
</event>
<event>
 8    1  0.1168507E-005  0.1077390E+04  0.7818608E-02  0.8711420E-01
         21   -1    0    0  501  502  0.00000000000E+00  0.00000000000E+00  0.10734796774E+04  0.10734796774E+04  0.00000000000E+00 0.  1.
         21   -1    0    0  502  503 -0.00000000000E+00 -0.00000000000E+00 -0.14112654390E+04  0.14112654390E+04  0.00000000000E+00 0.  1.
   -9000010    2    1    2    0  503 -0.34492943271E+03  0.35810045225E+03 -0.79366187619E+03  0.13148769126E+04  0.92292463078E+03 0.  0.
    9000010    2    1    2  501    0  0.34492943271E+03 -0.35810045225E+03  0.45587611457E+03  0.11698682038E+04  0.95580140982E+03 0.  0.
        -13    1    4    4    0    0  0.58799577248E+03 -0.52015444769E+03  0.32199755369E+03  0.84851759773E+03  0.10566000000E+00 0.  1.
          4    1    4    4  501    0 -0.24306633977E+03  0.16205399544E+03  0.13387856088E+03  0.32135060609E+03  0.00000000000E+00 0.  1.
         13    1    3    3    0    0  0.11151394818E+03  0.27795430597E+02 -0.74004053323E+03  0.74891117537E+03  0.10566000000E+00 0. -1.
         -4    1    3    3    0  503 -0.45644338089E+03  0.33030502165E+03 -0.53621342953E+02  0.56596573722E+03  0.00000000000E+00 0. -1.
<mgrwt>
<rscale>  2 0.10700509E+04</rscale>
<asrwt>0</asrwt>
<pdfrwt beam="1">  1       21 0.16515072E+00 0.10773897E+04</pdfrwt>
<pdfrwt beam="2">  1       21 0.21711776E+00 0.10773897E+04</pdfrwt>
<totfact> 0.97751426E+00</totfact>
</mgrwt>
</event>
<event>
 8    1  0.1168507E-005  0.1084746E+04  0.7818608E-02  0.8704883E-01
         21   -1    0    0  503  502  0.00000000000E+00  0.00000000000E+00  0.16361286640E+04  0.16361286640E+04  0.00000000000E+00 0.  1.
         21   -1    0    0  501  503 -0.00000000000E+00 -0.00000000000E+00 -0.72848297428E+03  0.72848297428E+03  0.00000000000E+00 0.  1.
    9000010    2    1    2  501    0  0.92842050456E+02  0.34861509242E+03  0.21691267783E+03  0.10786157893E+04  0.99308045096E+03 0.  0.
   -9000010    2    1    2    0  502 -0.92842050456E+02 -0.34861509242E+03  0.69073301193E+03  0.12859958490E+04  0.10229961393E+04 0.  0.
        -13    1    3    3    0    0 -0.19268251102E+03 -0.11902436911E+03  0.43377849949E+03  0.48934358919E+03  0.10566000000E+00 0.  1.
          4    1    3    3  501    0  0.28552456148E+03  0.46763946153E+03 -0.21686582165E+03  0.58927220008E+03  0.00000000000E+00 0.  1.
         13    1    4    4    0    0  0.45212888754E+03 -0.29211114114E+02  0.28853965790E+03  0.53714892300E+03  0.10566000000E+00 0. -1.
         -4    1    4    4    0  502 -0.54497093800E+03 -0.31940397830E+03  0.40219335403E+03  0.74884692604E+03  0.00000000000E+00 0. -1.
<mgrwt>
<rscale>  2 0.10776346E+04</rscale>
<asrwt>0</asrwt>
<pdfrwt beam="1">  1       21 0.25171210E+00 0.10847457E+04</pdfrwt>
<pdfrwt beam="2">  1       21 0.11207430E+00 0.10847457E+04</pdfrwt>
<totfact> 0.17038996E+01</totfact>
</mgrwt>
</event>
<event>
 8    1  0.1168507E-005  0.1121383E+04  0.7818608E-02  0.8669384E-01
         21   -1    0    0  501  502  0.00000000000E+00  0.00000000000E+00  0.12465332545E+04  0.12465332545E+04  0.00000000000E+00 0. -1.
         21   -1    0    0  502  503 -0.00000000000E+00 -0.00000000000E+00 -0.10417503305E+04  0.10417503305E+04  0.00000000000E+00 0. -1.
   -9000010    2    1    2    0  503  0.39466572634E+02 -0.48222872921E+03 -0.11582746424E+03  0.11273492445E+04  0.10116314348E+04 0.  0.
    9000010    2    1    2  501    0 -0.39466572634E+02  0.48222872921E+03  0.32061038819E+03  0.11609343406E+04  0.10054229779E+04 0.  0.
        -13    1    4    4    0    0 -0.19155781178E+03  0.76779620622E+03  0.20617251378E+03  0.81774844918E+03  0.10566000000E+00 0.  1.
          4    1    4    4  501    0  0.15209123915E+03 -0.28556747701E+03  0.11443787441E+03  0.34318589139E+03  0.00000000000E+00 0.  1.
         13    1    3    3    0    0 -0.27446810346E+03 -0.68657565461E+03 -0.15516618081E+02  0.73956720177E+03  0.10566000000E+00 0. -1.
         -4    1    3    3    0  503  0.31393467610E+03  0.20434692540E+03 -0.10031084616E+03  0.38778204269E+03  0.00000000000E+00 0. -1.
<mgrwt>
<rscale>  2 0.11199812E+04</rscale>
<asrwt>0</asrwt>
<pdfrwt beam="1">  1       21 0.19177435E+00 0.11213832E+04</pdfrwt>
<pdfrwt beam="2">  1       21 0.16026928E+00 0.11213832E+04</pdfrwt>
<totfact> 0.16754030E+01</totfact>
</mgrwt>
</event>
<event>
 8    1  0.1168507E-005  0.1155397E+04  0.7818608E-02  0.8642437E-01
         21   -1    0    0  503  502  0.00000000000E+00  0.00000000000E+00  0.17421660016E+04  0.17421660016E+04  0.00000000000E+00 0. -1.
         21   -1    0    0  501  503 -0.00000000000E+00 -0.00000000000E+00 -0.78193141615E+03  0.78193141615E+03  0.00000000000E+00 0. -1.
    9000010    2    1    2  501    0 -0.33304421340E+03  0.45569245318E+03  0.68714128579E+03  0.13442864498E+04  0.10081512051E+04 0.  0.
   -9000010    2    1    2    0  502  0.33304421340E+03 -0.45569245318E+03  0.27309329970E+03  0.11798109680E+04  0.99939977483E+03 0.  0.
        -13    1    3    3    0    0  0.12786788248E+02  0.69053523674E+03  0.23751496078E+03  0.73035319051E+03  0.10566000000E+00 0.  1.
          4    1    3    3  501    0 -0.34583100165E+03 -0.23484278356E+03  0.44962632501E+03  0.61393325926E+03  0.00000000000E+00 0.  1.
         13    1    4    4    0    0 -0.89672628197E+02 -0.41150917316E+03 -0.26234492853E+03  0.49619134669E+03  0.10566000000E+00 0. -1.
         -4    1    4    4    0  502  0.42271684160E+03 -0.44183280017E+02  0.53543822823E+03  0.68361962132E+03  0.00000000000E+00 0. -1.
<mgrwt>
<rscale>  2 0.11534855E+04</rscale>
<asrwt>0</asrwt>
<pdfrwt beam="1">  1       21 0.26802554E+00 0.11553973E+04</pdfrwt>
<pdfrwt beam="2">  1       21 0.12029714E+00 0.11553973E+04</pdfrwt>
<totfact> 0.10520944E+01</totfact>
</mgrwt>
</event>
<event>
 8    1  0.1168507E-005  0.1079316E+04  0.7818608E-02  0.8708571E-01
         21   -1    0    0  501  502  0.00000000000E+00  0.00000000000E+00  0.15710805273E+04  0.15710805273E+04  0.00000000000E+00 0. -1.
         21   -1    0    0  502  503 -0.00000000000E+00 -0.00000000000E+00 -0.83647494834E+03  0.83647494834E+03  0.00000000000E+00 0. -1.
   -9000010    2    1    2    0  503 -0.12859569678E+03 -0.41661787777E+03 -0.75055686192E+02  0.10583059932E+04  0.96139009246E+03 0.  0.
    9000010    2    1    2  501    0  0.12859569678E+03  0.41661787777E+03  0.80966126514E+03  0.13492494824E+04  0.98732744938E+03 0.  0.
        -13    1    4    4    0    0  0.16861436603E+03 -0.24319139092E+03 -0.10197391346E+02  0.29610277778E+03  0.10566000000E+00 0.  1.
          4    1    4    4  501    0 -0.40018669256E+02  0.65980926869E+03  0.81985865649E+03  0.10531467047E+04  0.00000000000E+00 0.  1.
         13    1    3    3    0    0 -0.18825982535E+03  0.29003156911E+03 -0.64929134003E+01  0.34583557077E+03  0.10566000000E+00 0. -1.
         -4    1    3    3    0  503  0.59664128569E+02 -0.70664944688E+03 -0.68562772792E+02  0.71247042242E+03  0.00000000000E+00 0. -1.
<mgrwt>
<rscale>  2 0.10733479E+04</rscale>
<asrwt>0</asrwt>
<pdfrwt beam="1">  1       21 0.24170470E+00 0.10793159E+04</pdfrwt>
<pdfrwt beam="2">  1       21 0.12868845E+00 0.10793159E+04</pdfrwt>
<totfact> 0.13703599E+01</totfact>
</mgrwt>
</event>
<event>
 8    1  0.1168507E-005  0.1155712E+04  0.7818608E-02  0.8643764E-01
         21   -1    0    0  501  502  0.00000000000E+00  0.00000000000E+00  0.13352010980E+04  0.13352010980E+04  0.00000000000E+00 0.  1.
         21   -1    0    0  502  503 -0.00000000000E+00 -0.00000000000E+00 -0.10678828541E+04  0.10678828541E+04  0.00000000000E+00 0.  1.
   -9000010    2    1    2    0  503  0.50026406068E+03  0.13098542887E+03 -0.19796163798E+03  0.11572283327E+04  0.10161531828E+04 0.  0.
    9000010    2    1    2  501    0 -0.50026406068E+03 -0.13098542887E+03  0.46527988190E+03  0.12458556194E+04  0.10335615816E+04 0.  0.
        -13    1    4    4    0    0 -0.55544403157E+03 -0.50053192277E+03  0.16302043692E+03  0.76526201522E+03  0.10566000000E+00 0.  1.
          4    1    4    4  501    0  0.55179970886E+02  0.36954649390E+03  0.30225944498E+03  0.48059360422E+03  0.00000000000E+00 0.  1.
         13    1    3    3    0    0 -0.45983171386E+02  0.48630908118E+03 -0.90038218488E+02  0.49670702274E+03  0.10566000000E+00 0. -1.
         -4    1    3    3    0  503  0.54624723207E+03 -0.35532365231E+03 -0.10792341949E+03  0.66052130996E+03  0.00000000000E+00 0. -1.
<mgrwt>
<rscale>  2 0.11518071E+04</rscale>
<asrwt>0</asrwt>
<pdfrwt beam="1">  1       21 0.20541555E+00 0.11557123E+04</pdfrwt>
<pdfrwt beam="2">  1       21 0.16428967E+00 0.11557123E+04</pdfrwt>
<totfact> 0.12008078E+01</totfact>
</mgrwt>
</event>
<event>
 8    1  0.1168507E-005  0.1096022E+04  0.7818608E-02  0.8695638E-01
         21   -1    0    0  501  502  0.00000000000E+00  0.00000000000E+00  0.13860777422E+04  0.13860777422E+04  0.00000000000E+00 0. -1.
         21   -1    0    0  502  503 -0.00000000000E+00 -0.00000000000E+00 -0.98387171446E+03  0.98387171446E+03  0.00000000000E+00 0. -1.
   -9000010    2    1    2    0  503 -0.30024054663E+03 -0.21519076154E+03 -0.24455882801E+03  0.11229750151E+04  0.10318974825E+04 0.  0.
    9000010    2    1    2  501    0  0.30024054663E+03  0.21519076154E+03  0.64676485578E+03  0.12469744416E+04  0.10000945104E+04 0.  0.
        -13    1    4    4    0    0  0.18659267517E+03 -0.31617152062E+03  0.59761840782E+03  0.70137652471E+03  0.10566000000E+00 0.  1.
          4    1    4    4  501    0  0.11364787146E+03  0.53136228216E+03  0.49146447958E+02  0.54559791691E+03  0.00000000000E+00 0.  1.
         13    1    3    3    0    0 -0.10110004210E+02  0.31707106188E+03 -0.38686007176E+03  0.50029690859E+03  0.10566000000E+00 0. -1.
         -4    1    3    3    0  503 -0.29013054242E+03 -0.53226182341E+03  0.14230124375E+03  0.62267810648E+03  0.00000000000E+00 0. -1.
<mgrwt>
<rscale>  2 0.10884721E+04</rscale>
<asrwt>0</asrwt>
<pdfrwt beam="1">  1       21 0.21324273E+00 0.10960218E+04</pdfrwt>
<pdfrwt beam="2">  1       21 0.15136488E+00 0.10960218E+04</pdfrwt>
<totfact> 0.13723327E+01</totfact>
</mgrwt>
</event>
<event>
 8    1  0.1168507E-005  0.1305986E+04  0.7818608E-02  0.8531697E-01
         21   -1    0    0  503  502  0.00000000000E+00  0.00000000000E+00  0.23089651806E+04  0.23089651806E+04  0.00000000000E+00 0. -1.
         21   -1    0    0  501  503 -0.00000000000E+00 -0.00000000000E+00 -0.73611170442E+03  0.73611170442E+03  0.00000000000E+00 0. -1.
    9000010    2    1    2  501    0  0.33269141040E+03 -0.75646709559E+03  0.82595906124E+03  0.15406000059E+04  0.10041483784E+04 0.  0.
   -9000010    2    1    2    0  502 -0.33269141040E+03  0.75646709559E+03  0.74689441493E+03  0.15044768792E+04  0.10112731439E+04 0.  0.
        -13    1    3    3    0    0 -0.15078046942E+03 -0.58370647849E+02  0.65465686234E+03  0.67432744351E+03  0.10566000000E+00 0.  1.
          4    1    3    3  501    0  0.48347187982E+03 -0.69809644774E+03  0.17130219890E+03  0.86627256235E+03  0.00000000000E+00 0.  1.
         13    1    4    4    0    0  0.22215972647E+03  0.65824491190E+03  0.20900448925E+03  0.72548204375E+03  0.10566000000E+00 0. -1.
         -4    1    4    4    0  502 -0.55485113687E+03  0.98222183693E+02  0.53788992568E+03  0.77899483541E+03  0.00000000000E+00 0. -1.
<mgrwt>
<rscale>  2 0.13046065E+04</rscale>
<asrwt>0</asrwt>
<pdfrwt beam="1">  1       21 0.35522541E+00 0.13059860E+04</pdfrwt>
<pdfrwt beam="2">  1       21 0.11324796E+00 0.13059860E+04</pdfrwt>
<totfact> 0.29215119E+00</totfact>
</mgrwt>
</event>
<event>
 8    1  0.1168507E-005  0.1053516E+04  0.7818608E-02  0.8730354E-01
         21   -1    0    0  503  502  0.00000000000E+00  0.00000000000E+00  0.64825337108E+03  0.64825337108E+03  0.00000000000E+00 0. -1.
         21   -1    0    0  501  503 -0.00000000000E+00 -0.00000000000E+00 -0.17026428943E+04  0.17026428943E+04  0.00000000000E+00 0. -1.
    9000010    2    1    2  501    0  0.18703026518E+03 -0.22148736314E+03 -0.39545535239E+03  0.11252914119E+04  0.10128469054E+04 0.  0.
   -9000010    2    1    2    0  502 -0.18703026518E+03  0.22148736314E+03 -0.65893417085E+03  0.12256048535E+04  0.99190525923E+03 0.  0.
        -13    1    3    3    0    0 -0.11556964862E+03  0.22696576226E+03  0.19774201224E+03  0.32244645368E+03  0.10566000000E+00 0.  1.
          4    1    3    3  501    0  0.30259991381E+03 -0.44845312540E+03 -0.59319736463E+03  0.80284495821E+03  0.00000000000E+00 0.  1.
         13    1    4    4    0    0 -0.36201307210E+03  0.13816953390E+03  0.13348302485E+03  0.40983168930E+03  0.10566000000E+00 0. -1.
         -4    1    4    4    0  502  0.17498280691E+03  0.83317829237E+02 -0.79241719571E+03  0.81577316420E+03  0.00000000000E+00 0. -1.
<mgrwt>
<rscale>  2 0.10484502E+04</rscale>
<asrwt>0</asrwt>
<pdfrwt beam="1">  1       21 0.99731289E-01 0.10535159E+04</pdfrwt>
<pdfrwt beam="2">  1       21 0.26194506E+00 0.10535159E+04</pdfrwt>
<totfact> 0.19761469E+01</totfact>
</mgrwt>
</event>
<event>
 8    1  0.1168507E-005  0.1189530E+04  0.7818608E-02  0.8618816E-01
         21   -1    0    0  501  502  0.00000000000E+00  0.00000000000E+00  0.16895645608E+04  0.16895645608E+04  0.00000000000E+00 0.  1.
         21   -1    0    0  502  503 -0.00000000000E+00 -0.00000000000E+00 -0.85044192148E+03  0.85044192148E+03  0.00000000000E+00 0.  1.
   -9000010    2    1    2    0  503  0.52037566087E+03  0.34910387231E+03  0.18224939256E+03  0.11811602704E+04  0.98451023423E+03 0.  0.
    9000010    2    1    2  501    0 -0.52037566087E+03 -0.34910387231E+03  0.65687324677E+03  0.13588462118E+04  0.10110965449E+04 0.  0.
        -13    1    4    4    0    0 -0.28403625598E+02  0.22542337090E+03  0.54982970784E+03  0.59492451696E+03  0.10566000000E+00 0.  1.
          4    1    4    4  501    0 -0.49197203527E+03 -0.57452724321E+03  0.10704353893E+03  0.76392169488E+03  0.00000000000E+00 0.  1.
         13    1    3    3    0    0  0.48997420733E+03 -0.11370888960E+03  0.42424120251E+03  0.65801599107E+03  0.10566000000E+00 0. -1.
         -4    1    3    3    0  503  0.30401453536E+02  0.46281276191E+03 -0.24199180995E+03  0.52314427938E+03  0.00000000000E+00 0. -1.
<mgrwt>
<rscale>  2 0.11838606E+04</rscale>
<asrwt>0</asrwt>
<pdfrwt beam="1">  1       21 0.25993301E+00 0.11895296E+04</pdfrwt>
<pdfrwt beam="2">  1       21 0.13083722E+00 0.11895296E+04</pdfrwt>
<totfact> 0.93996124E+00</totfact>
</mgrwt>
</event>
<event>
 8    1  0.1168507E-005  0.1389673E+04  0.7818608E-02  0.8476346E-01
         21   -1    0    0  501  502  0.00000000000E+00  0.00000000000E+00  0.18829607788E+04  0.18829607788E+04  0.00000000000E+00 0. -1.
         21   -1    0    0  502  503 -0.00000000000E+00 -0.00000000000E+00 -0.10238723394E+04  0.10238723394E+04  0.00000000000E+00 0.  1.
   -9000010    2    1    2    0  503 -0.89659441938E+03 -0.35105165131E+03  0.43794846746E+03  0.14547483967E+04  0.99868674909E+03 0.  0.
    9000010    2    1    2  501    0  0.89659441938E+03  0.35105165131E+03  0.42113997198E+03  0.14520847215E+04  0.10020341050E+04 0.  0.
        -13    1    4    4    0    0  0.56128019314E+03  0.70734104558E+01  0.69951142840E+03  0.89688446188E+03  0.10566000000E+00 0.  1.
          4    1    4    4  501    0  0.33531422624E+03  0.34397824085E+03 -0.27837145642E+03  0.55520025959E+03  0.00000000000E+00 0.  1.
         13    1    3    3    0    0 -0.30891017037E+03 -0.62298763695E+03  0.43958971397E+02  0.69675784278E+03  0.10566000000E+00 0. -1.
         -4    1    3    3    0  503 -0.58768424901E+03  0.27193598564E+03  0.39398949606E+03  0.75799055392E+03  0.00000000000E+00 0. -1.
<mgrwt>
<rscale>  2 0.13890697E+04</rscale>
<asrwt>0</asrwt>
<pdfrwt beam="1">  1       21 0.28968627E+00 0.13896730E+04</pdfrwt>
<pdfrwt beam="2">  1       21 0.15751882E+00 0.13896730E+04</pdfrwt>
<totfact> 0.31535289E+00</totfact>
</mgrwt>
</event>
<event>
 8    1  0.1168507E-005  0.1057262E+04  0.7818608E-02  0.8732376E-01
         21   -1    0    0  503  502  0.00000000000E+00  0.00000000000E+00  0.88303812620E+03  0.88303812620E+03  0.00000000000E+00 0. -1.
         21   -1    0    0  501  503 -0.00000000000E+00 -0.00000000000E+00 -0.13458554401E+04  0.13458554401E+04  0.00000000000E+00 0. -1.
    9000010    2    1    2  501    0 -0.81357532551E+02  0.19800274861E+03 -0.57559540977E+03  0.11656333582E+04  0.99074058842E+03 0.  0.
   -9000010    2    1    2    0  502  0.81357532551E+02 -0.19800274861E+03  0.11277809583E+03  0.10632602081E+04  0.10353643005E+04 0.  0.
        -13    1    3    3    0    0  0.18515409054E+03  0.61135086833E+01 -0.76460057189E+03  0.78672324100E+03  0.10566000000E+00 0.  1.
          4    1    3    3  501    0 -0.26651162309E+03  0.19188923993E+03  0.18900516212E+03  0.37891011724E+03  0.00000000000E+00 0.  1.
         13    1    4    4    0    0 -0.16341872622E+02  0.24109745945E+03 -0.34515765733E+03  0.42134173936E+03  0.10566000000E+00 0. -1.
         -4    1    4    4    0  502  0.97699405173E+02 -0.43910020806E+03  0.45793575315E+03  0.64191846874E+03  0.00000000000E+00 0. -1.
<mgrwt>
<rscale>  2 0.10461742E+04</rscale>
<asrwt>0</asrwt>
<pdfrwt beam="1">  1       21 0.13585202E+00 0.10572622E+04</pdfrwt>
<pdfrwt beam="2">  1       21 0.20705468E+00 0.10572622E+04</pdfrwt>
<totfact> 0.21400681E+01</totfact>
</mgrwt>
</event>
<event>
 8    1  0.1168507E-005  0.1411527E+04  0.7818608E-02  0.8474749E-01
         21   -1    0    0  501  502  0.00000000000E+00  0.00000000000E+00  0.13051892230E+04  0.13051892230E+04  0.00000000000E+00 0. -1.
         21   -1    0    0  502  503 -0.00000000000E+00 -0.00000000000E+00 -0.17434942873E+04  0.17434942873E+04  0.00000000000E+00 0.  1.
   -9000010    2    1    2    0  503 -0.36238042466E+02  0.88314763250E+03 -0.84628951553E+03  0.15793776519E+04  0.99848129009E+03 0.  0.
    9000010    2    1    2  501    0  0.36238042466E+02 -0.88314763250E+03  0.40798445132E+03  0.14693058584E+04  0.11005205389E+04 0.  0.
        -13    1    4    4    0    0 -0.26633159157E+03  0.56886341496E+02 -0.17387025516E+03  0.32310903625E+03  0.10566000000E+00 0.  1.
          4    1    4    4  501    0  0.30256963403E+03 -0.94003397400E+03  0.58185470648E+03  0.11461968222E+04  0.00000000000E+00 0.  1.
         13    1    3    3    0    0  0.41479395530E+02  0.21319324767E+03 -0.87772586854E+03  0.90419832591E+03  0.10566000000E+00 0. -1.
         -4    1    3    3    0  503 -0.77717437996E+02  0.66995438483E+03  0.31436353014E+02  0.67517932597E+03  0.00000000000E+00 0. -1.
<mgrwt>
<rscale>  2 0.13916029E+04</rscale>
<asrwt>0</asrwt>
<pdfrwt beam="1">  1       21 0.20079834E+00 0.14115270E+04</pdfrwt>
<pdfrwt beam="2">  1       21 0.26822989E+00 0.14115270E+04</pdfrwt>
<totfact> 0.19661873E+00</totfact>
</mgrwt>
</event>
<event>
 8    1  0.1168507E-005  0.1034661E+04  0.7818608E-02  0.8747351E-01
         21   -1    0    0  501  502  0.00000000000E+00  0.00000000000E+00  0.65399276191E+03  0.65399276191E+03  0.00000000000E+00 0.  1.
         21   -1    0    0  502  503 -0.00000000000E+00 -0.00000000000E+00 -0.16588904175E+04  0.16588904175E+04  0.00000000000E+00 0.  1.
   -9000010    2    1    2    0  503  0.20510436287E+03 -0.14027240127E+03 -0.71632366817E+03  0.12584284497E+04  0.10043796191E+04 0.  0.
    9000010    2    1    2  501    0 -0.20510436287E+03  0.14027240127E+03 -0.28857398738E+03  0.10544547297E+04  0.98328820011E+03 0.  0.
        -13    1    4    4    0    0  0.33379243762E+03  0.22121250899E+03  0.63828214358E+02  0.40549527452E+03  0.10566000000E+00 0.  1.
          4    1    4    4  501    0 -0.53889680049E+03 -0.80940107721E+02 -0.35240220174E+03  0.64895945513E+03  0.00000000000E+00 0.  1.
         13    1    3    3    0    0  0.40082870075E+02  0.22717326849E+03 -0.81224221764E+03  0.84436470892E+03  0.10566000000E+00 0. -1.
         -4    1    3    3    0  503  0.16502149279E+03 -0.36744566976E+03  0.95918549471E+02  0.41406374080E+03  0.00000000000E+00 0. -1.
<mgrwt>
<rscale>  2 0.10295069E+04</rscale>
<asrwt>0</asrwt>
<pdfrwt beam="1">  1       21 0.10061427E+00 0.10346606E+04</pdfrwt>
<pdfrwt beam="2">  1       21 0.25521391E+00 0.10346606E+04</pdfrwt>
<totfact> 0.21687874E+01</totfact>
</mgrwt>
</event>
<event>
 8    1  0.1168507E-005  0.1051183E+04  0.7818608E-02  0.8751539E-01
         21   -1    0    0  503  502  0.00000000000E+00  0.00000000000E+00  0.16201342745E+04  0.16201342745E+04  0.00000000000E+00 0. -1.
         21   -1    0    0  501  503 -0.00000000000E+00 -0.00000000000E+00 -0.62271868856E+03  0.62271868856E+03  0.00000000000E+00 0. -1.
    9000010    2    1    2  501    0  0.18594963635E+03  0.24741030236E+03  0.62201135736E+03  0.12214268672E+04  0.10045876458E+04 0.  0.
   -9000010    2    1    2    0  502 -0.18594963635E+03 -0.24741030236E+03  0.37540422857E+03  0.10214260959E+04  0.89810567839E+03 0.  0.
        -13    1    3    3    0    0 -0.10432321642E+03  0.53072869136E+03  0.61050660806E+03  0.81564367646E+03  0.10566000000E+00 0.  1.
          4    1    3    3  501    0  0.29027285277E+03 -0.28331838899E+03  0.11504749307E+02  0.40578319070E+03  0.00000000000E+00 0.  1.
         13    1    4    4    0    0 -0.51620468074E+03 -0.71933044306E+02  0.38395181320E+03  0.64734893319E+03  0.10566000000E+00 0. -1.
         -4    1    4    4    0  502  0.33025504440E+03 -0.17547725806E+03 -0.85475846297E+01  0.37407716269E+03  0.00000000000E+00 0. -1.
<mgrwt>
<rscale>  2 0.10249025E+04</rscale>
<asrwt>0</asrwt>
<pdfrwt beam="1">  1       21 0.24925143E+00 0.10511829E+04</pdfrwt>
<pdfrwt beam="2">  1       21 0.95802876E-01 0.10511829E+04</pdfrwt>
<totfact> 0.27110376E+01</totfact>
</mgrwt>
</event>
<event>
 8    1  0.1168507E-005  0.1093317E+04  0.7818608E-02  0.8697869E-01
         21   -1    0    0  501  502  0.00000000000E+00  0.00000000000E+00  0.70602827013E+03  0.70602827013E+03  0.00000000000E+00 0. -1.
         21   -1    0    0  502  503 -0.00000000000E+00 -0.00000000000E+00 -0.16481805883E+04  0.16481805883E+04  0.00000000000E+00 0. -1.
   -9000010    2    1    2    0  503 -0.40104553735E+03  0.12741746704E+03 -0.44156425777E+03  0.11517404909E+04  0.97696183682E+03 0.  0.
    9000010    2    1    2  501    0  0.40104553735E+03 -0.12741746704E+03 -0.50058806035E+03  0.12024683675E+04  0.10090931745E+04 0.  0.
        -13    1    4    4    0    0 -0.15426975187E+03  0.20281714525E+03  0.14159517955E+03  0.29151870744E+03  0.10566000000E+00 0.  1.
          4    1    4    4  501    0  0.55531528922E+03 -0.33023461229E+03 -0.64218323990E+03  0.91094966009E+03  0.00000000000E+00 0.  1.
         13    1    3    3    0    0 -0.58362579744E+03  0.31452560059E+03 -0.29369557989E+02  0.66363243362E+03  0.10566000000E+00 0. -1.
         -4    1    3    3    0  503  0.18258026008E+03 -0.18710813354E+03 -0.41219469978E+03  0.48810805723E+03  0.00000000000E+00 0. -1.
<mgrwt>
<rscale>  2 0.10858446E+04</rscale>
<asrwt>0</asrwt>
<pdfrwt beam="1">  1       21 0.10861973E+00 0.10933169E+04</pdfrwt>
<pdfrwt beam="2">  1       21 0.25356624E+00 0.10933169E+04</pdfrwt>
<totfact> 0.17951966E+01</totfact>
</mgrwt>
</event>
<event>
 8    1  0.1168507E-005  0.1206390E+04  0.7818608E-02  0.8604849E-01
         21   -1    0    0  503  502  0.00000000000E+00  0.00000000000E+00  0.68225724103E+03  0.68225724103E+03  0.00000000000E+00 0. -1.
         21   -1    0    0  501  503 -0.00000000000E+00 -0.00000000000E+00 -0.21117900509E+04  0.21117900509E+04  0.00000000000E+00 0. -1.
    9000010    2    1    2  501    0 -0.38407440649E+03  0.50494551867E+03 -0.62692283606E+03  0.13450619333E+04  0.10068148963E+04 0.  0.
   -9000010    2    1    2    0  502  0.38407440649E+03 -0.50494551867E+03 -0.80260997382E+03  0.14489853587E+04  0.10261055857E+04 0.  0.
        -13    1    3    3    0    0 -0.18641277908E+03 -0.29535016102E+03 -0.87961901652E+02  0.36016489158E+03  0.10566000000E+00 0.  1.
          4    1    3    3  501    0 -0.19766162741E+03  0.80029567969E+03 -0.53896093441E+03  0.98489704168E+03  0.00000000000E+00 0.  1.
         13    1    4    4    0    0 -0.11905933789E+03 -0.37582983749E+03 -0.84029814208E+03  0.92818326393E+03  0.10566000000E+00 0. -1.
         -4    1    4    4    0  502  0.50313374438E+03 -0.12911568118E+03  0.37688168265E+02  0.52080209474E+03  0.00000000000E+00 0. -1.
<mgrwt>
<rscale>  2 0.12022774E+04</rscale>
<asrwt>0</asrwt>
<pdfrwt beam="1">  1       21 0.10496265E+00 0.12063896E+04</pdfrwt>
<pdfrwt beam="2">  1       21 0.32489077E+00 0.12063896E+04</pdfrwt>
<totfact> 0.59754712E+00</totfact>
</mgrwt>
</event>
<event>
 8    1  0.1168507E-005  0.1338187E+04  0.7818608E-02  0.8509940E-01
         21   -1    0    0  503  502  0.00000000000E+00  0.00000000000E+00  0.22986271589E+04  0.22986271589E+04  0.00000000000E+00 0. -1.
         21   -1    0    0  501  503 -0.00000000000E+00 -0.00000000000E+00 -0.82310897155E+03  0.82310897155E+03  0.00000000000E+00 0. -1.
    9000010    2    1    2  501    0  0.87463021811E+03  0.18516341991E+03  0.36477529336E+03  0.13826287784E+04  0.98961498251E+03 0.  0.
   -9000010    2    1    2    0  502 -0.87463021811E+03 -0.18516341991E+03  0.11107428940E+04  0.17391073521E+04  0.99573143722E+03 0.  0.
        -13    1    3    3    0    0 -0.14307807357E+03 -0.19949571865E+03  0.75650693975E+02  0.25689086313E+03  0.10566000000E+00 0.  1.
          4    1    3    3  501    0  0.10177082917E+04  0.38465913856E+03  0.28912459938E+03  0.11257379152E+04  0.00000000000E+00 0.  1.
         13    1    4    4    0    0 -0.11425299243E+02 -0.40593088168E+03  0.55964686294E+03  0.69145863255E+03  0.10566000000E+00 0. -1.
         -4    1    4    4    0  502 -0.86320491887E+03  0.22076746177E+03  0.55109603107E+03  0.10476487196E+04  0.00000000000E+00 0. -1.
<mgrwt>
<rscale>  2 0.13370494E+04</rscale>
<asrwt>0</asrwt>
<pdfrwt beam="1">  1       21 0.35363494E+00 0.13381871E+04</pdfrwt>
<pdfrwt beam="2">  1       21 0.12663215E+00 0.13381871E+04</pdfrwt>
<totfact> 0.21771520E+00</totfact>
</mgrwt>
</event>
<event>
 8    1  0.1168507E-005  0.1478681E+04  0.7818608E-02  0.8421939E-01
         21   -1    0    0  501  502  0.00000000000E+00  0.00000000000E+00  0.23741634439E+04  0.23741634439E+04  0.00000000000E+00 0.  1.
         21   -1    0    0  502  503 -0.00000000000E+00 -0.00000000000E+00 -0.10161050133E+04  0.10161050133E+04  0.00000000000E+00 0. -1.
   -9000010    2    1    2    0  503  0.10647562015E+04  0.26309675656E+03  0.15946766899E+03  0.14868198973E+04  0.99109928747E+03 0.  0.
    9000010    2    1    2  501    0 -0.10647562015E+04 -0.26309675656E+03  0.11985907616E+04  0.19034485599E+04  0.99175144779E+03 0.  0.
        -13    1    4    4    0    0 -0.67932278490E+03  0.31859845805E+03  0.81249653519E+03  0.11059543636E+04  0.10566000000E+00 0.  1.
          4    1    4    4  501    0 -0.38543341660E+03 -0.58169521461E+03  0.38609422646E+03  0.79749419624E+03  0.00000000000E+00 0.  1.
         13    1    3    3    0    0 -0.43425783418E+02  0.87252079431E+02 -0.26871992264E+03  0.28584809256E+03  0.10566000000E+00 0. -1.
         -4    1    3    3    0  503  0.11081819849E+04  0.17584467713E+03  0.42818759163E+03  0.12009718047E+04  0.00000000000E+00 0. -1.
<mgrwt>
<rscale>  2 0.14785714E+04</rscale>
<asrwt>0</asrwt>
<pdfrwt beam="1">  1       21 0.36525591E+00 0.14786807E+04</pdfrwt>
<pdfrwt beam="2">  1       21 0.15632385E+00 0.14786807E+04</pdfrwt>
<totfact> 0.93316228E-01</totfact>
</mgrwt>
</event>
<event>
 8    1  0.1168507E-005  0.1059128E+04  0.7818608E-02  0.8748086E-01
         21   -1    0    0  501  502  0.00000000000E+00  0.00000000000E+00  0.10465382127E+04  0.10465382127E+04  0.00000000000E+00 0. -1.
         21   -1    0    0  502  503 -0.00000000000E+00 -0.00000000000E+00 -0.12650323940E+04  0.12650323940E+04  0.00000000000E+00 0. -1.
   -9000010    2    1    2    0  503 -0.10089520238E+03  0.32296859618E+03 -0.67390250934E+03  0.11586836353E+04  0.87972417196E+03 0.  0.
    9000010    2    1    2  501    0  0.10089520238E+03 -0.32296859618E+03  0.45540832802E+03  0.11528869714E+04  0.10036249636E+04 0.  0.
        -13    1    4    4    0    0  0.23344981422E+03  0.12570407928E+01  0.69191829649E+03  0.73024060151E+03  0.10566000000E+00 0.  1.
          4    1    4    4  501    0 -0.13255461184E+03 -0.32422563697E+03 -0.23650996848E+03  0.42264636989E+03  0.00000000000E+00 0.  1.
         13    1    3    3    0    0 -0.46881360367E+03  0.57703933419E+02 -0.23523243478E+03  0.52768385275E+03  0.10566000000E+00 0. -1.
         -4    1    3    3    0  503  0.36791840129E+03  0.26526466276E+03 -0.43867007457E+03  0.63099978260E+03  0.00000000000E+00 0. -1.
<mgrwt>
<rscale>  2 0.10286971E+04</rscale>
<asrwt>0</asrwt>
<pdfrwt beam="1">  1       21 0.16100588E+00 0.10591278E+04</pdfrwt>
<pdfrwt beam="2">  1       21 0.19462037E+00 0.10591278E+04</pdfrwt>
<totfact> 0.15892706E+01</totfact>
</mgrwt>
</event>
<event>
 8    1  0.1168507E-005  0.1051618E+04  0.7818608E-02  0.8728084E-01
         21   -1    0    0  501  502  0.00000000000E+00  0.00000000000E+00  0.33386853967E+03  0.33386853967E+03  0.00000000000E+00 0. -1.
         21   -1    0    0  502  503 -0.00000000000E+00 -0.00000000000E+00 -0.33699126123E+04  0.33699126123E+04  0.00000000000E+00 0. -1.
   -9000010    2    1    2    0  503  0.15519565588E+02  0.33230274318E+03 -0.12622349467E+04  0.16429051220E+04  0.99761425865E+03 0.  0.
    9000010    2    1    2  501    0 -0.15519565588E+02 -0.33230274318E+03 -0.17738091259E+04  0.20608760300E+04  0.99506041316E+03 0.  0.
        -13    1    4    4    0    0  0.18276308342E+03 -0.61959441907E+03 -0.81158097604E+03  0.10372864988E+04  0.10566000000E+00 0.  1.
          4    1    4    4  501    0 -0.19828264900E+03  0.28729167589E+03 -0.96222814991E+03  0.10235895312E+04  0.00000000000E+00 0.  1.
         13    1    3    3    0    0  0.21247863887E+03 -0.20307078255E+03 -0.43294982234E+02  0.29708480498E+03  0.10566000000E+00 0. -1.
         -4    1    3    3    0  503 -0.19695907328E+03  0.53537352573E+03 -0.12189399645E+04  0.13458203170E+04  0.00000000000E+00 0. -1.
<mgrwt>
<rscale>  2 0.10510118E+04</rscale>
<asrwt>0</asrwt>
<pdfrwt beam="1">  1       21 0.51364394E-01 0.10516179E+04</pdfrwt>
<pdfrwt beam="2">  1       21 0.51844806E+00 0.10516179E+04</pdfrwt>
<totfact> 0.15551799E+00</totfact>
</mgrwt>
</event>
<event>
 8    1  0.1168507E-005  0.1058728E+04  0.7818608E-02  0.8723604E-01
         21   -1    0    0  501  502  0.00000000000E+00  0.00000000000E+00  0.66316144398E+03  0.66316144398E+03  0.00000000000E+00 0.  1.
         21   -1    0    0  502  503 -0.00000000000E+00 -0.00000000000E+00 -0.17798094090E+04  0.17798094090E+04  0.00000000000E+00 0.  1.
   -9000010    2    1    2    0  503 -0.40056565020E+01  0.27738773040E+03 -0.25716641794E+03  0.10792941091E+04  0.10108319392E+04 0.  0.
    9000010    2    1    2  501    0  0.40056565020E+01 -0.27738773040E+03 -0.85948154708E+03  0.13636767438E+04  0.10217366264E+04 0.  0.
        -13    1    4    4    0    0 -0.40204328430E+03  0.17779259723E+02 -0.42341013468E+02  0.40465748122E+03  0.10566000000E+00 0.  1.
          4    1    4    4  501    0  0.40604894080E+03 -0.29516699012E+03 -0.81714053361E+03  0.95901926260E+03  0.00000000000E+00 0.  1.
         13    1    3    3    0    0  0.20606521439E+03  0.56776808610E+03  0.51635637460E+02  0.60620930576E+03  0.10566000000E+00 0. -1.
         -4    1    3    3    0  503 -0.21007087089E+03 -0.29038035570E+03 -0.30880205540E+03  0.47308480338E+03  0.00000000000E+00 0. -1.
<mgrwt>
<rscale>  2 0.10560886E+04</rscale>
<asrwt>0</asrwt>
<pdfrwt beam="1">  1       21 0.10202484E+00 0.10587284E+04</pdfrwt>
<pdfrwt beam="2">  1       21 0.27381683E+00 0.10587284E+04</pdfrwt>
<totfact> 0.15280823E+01</totfact>
</mgrwt>
</event>
<event>
 8    1  0.1168507E-005  0.1144354E+04  0.7818608E-02  0.8657021E-01
         21   -1    0    0  501  502  0.00000000000E+00  0.00000000000E+00  0.20696983480E+04  0.20696983480E+04  0.00000000000E+00 0. -1.
         21   -1    0    0  502  503 -0.00000000000E+00 -0.00000000000E+00 -0.65031724385E+03  0.65031724385E+03  0.00000000000E+00 0. -1.
   -9000010    2    1    2    0  503 -0.47911509837E+03  0.28661787541E+03  0.39417986403E+03  0.12103405855E+04  0.99892216097E+03 0.  0.
    9000010    2    1    2  501    0  0.47911509837E+03 -0.28661787541E+03  0.10252012401E+04  0.15096750064E+04  0.95727736740E+03 0.  0.
        -13    1    4    4    0    0  0.59785803653E+03 -0.54749243002E+03  0.84564152996E+03  0.11714485909E+04  0.10566000000E+00 0.  1.
          4    1    4    4  501    0 -0.11874293816E+03  0.26087455462E+03  0.17955971017E+03  0.33822641548E+03  0.00000000000E+00 0.  1.
         13    1    3    3    0    0 -0.24044416120E+03  0.10246101055E+03  0.72028777432E+03  0.76624156918E+03  0.10566000000E+00 0. -1.
         -4    1    3    3    0  503 -0.23867093718E+03  0.18415686485E+03 -0.32610791029E+03  0.44409901630E+03  0.00000000000E+00 0. -1.
<mgrwt>
<rscale>  2 0.11352035E+04</rscale>
<asrwt>0</asrwt>
<pdfrwt beam="1">  1       21 0.31841513E+00 0.11443542E+04</pdfrwt>
<pdfrwt beam="2">  1       21 0.10004881E+00 0.11443542E+04</pdfrwt>
<totfact> 0.76315785E+00</totfact>
</mgrwt>
</event>
<event>
 8    1  0.1168507E-005  0.1128253E+04  0.7818608E-02  0.8663877E-01
         21   -1    0    0  503  502  0.00000000000E+00  0.00000000000E+00  0.15164061057E+04  0.15164061057E+04  0.00000000000E+00 0. -1.
         21   -1    0    0  501  503 -0.00000000000E+00 -0.00000000000E+00 -0.89080183326E+03  0.89080183326E+03  0.00000000000E+00 0. -1.
    9000010    2    1    2  501    0 -0.31520931147E+03  0.39022456006E+03  0.10611341411E+02  0.11222290530E+04  0.10038193709E+04 0.  0.
   -9000010    2    1    2    0  502  0.31520931147E+03 -0.39022456006E+03  0.61499293105E+03  0.12849788860E+04  0.10106049252E+04 0.  0.
        -13    1    3    3    0    0 -0.10731741147E+03  0.55108425058E+03 -0.36068028420E+03  0.66730889146E+03  0.10566000000E+00 0.  1.
          4    1    3    3  501    0 -0.20789190000E+03 -0.16085969052E+03  0.37129162561E+03  0.45492016153E+03  0.00000000000E+00 0.  1.
         13    1    4    4    0    0  0.61244986565E+03 -0.36334794742E+01  0.48238701485E+03  0.77961867818E+03  0.10566000000E+00 0. -1.
         -4    1    4    4    0  502 -0.29724055417E+03 -0.38659108059E+03  0.13260591620E+03  0.50536020782E+03  0.00000000000E+00 0. -1.
<mgrwt>
<rscale>  2 0.11267313E+04</rscale>
<asrwt>0</asrwt>
<pdfrwt beam="1">  1       21 0.23329325E+00 0.11282528E+04</pdfrwt>
<pdfrwt beam="2">  1       21 0.13704644E+00 0.11282528E+04</pdfrwt>
<totfact> 0.13014839E+01</totfact>
</mgrwt>
</event>
<event>
 8    1  0.1168507E-005  0.1153560E+04  0.7818608E-02  0.8645446E-01
         21   -1    0    0  501  502  0.00000000000E+00  0.00000000000E+00  0.16975820872E+04  0.16975820872E+04  0.00000000000E+00 0. -1.
         21   -1    0    0  502  503 -0.00000000000E+00 -0.00000000000E+00 -0.78325295676E+03  0.78325295676E+03  0.00000000000E+00 0. -1.
   -9000010    2    1    2    0  503 -0.54188139953E+03  0.33443155692E+02  0.32132646681E+03  0.11974769698E+04  0.10178145701E+04 0.  0.
    9000010    2    1    2  501    0  0.54188139953E+03 -0.33443155692E+02  0.59300266363E+03  0.12833580742E+04  0.10003009006E+04 0.  0.
        -13    1    4    4    0    0  0.22584594212E+03  0.41059418491E+03  0.56993674767E+03  0.73784949804E+03  0.10566000000E+00 0.  1.
          4    1    4    4  501    0  0.31603545741E+03 -0.44403734060E+03  0.23065915963E+02  0.54550857616E+03  0.00000000000E+00 0.  1.
         13    1    3    3    0    0 -0.26074974525E+03  0.37532705927E+03 -0.21251119399E+03  0.50400580335E+03  0.10566000000E+00 0. -1.
         -4    1    3    3    0  503 -0.28113165428E+03 -0.34188390358E+03  0.53383766081E+03  0.69347116642E+03  0.00000000000E+00 0. -1.
<mgrwt>
<rscale>  2 0.11496847E+04</rscale>
<asrwt>0</asrwt>
<pdfrwt beam="1">  1       21 0.26116647E+00 0.11535599E+04</pdfrwt>
<pdfrwt beam="2">  1       21 0.12050046E+00 0.11535599E+04</pdfrwt>
<totfact> 0.11735424E+01</totfact>
</mgrwt>
</event>
<event>
 8    1  0.1168507E-005  0.1096533E+04  0.7818608E-02  0.8696033E-01
         21   -1    0    0  503  502  0.00000000000E+00  0.00000000000E+00  0.38807423837E+03  0.38807423837E+03  0.00000000000E+00 0. -1.
         21   -1    0    0  501  503 -0.00000000000E+00 -0.00000000000E+00 -0.30315561692E+04  0.30315561692E+04  0.00000000000E+00 0. -1.
    9000010    2    1    2  501    0 -0.19388482468E+03 -0.39386560309E+03 -0.11786607622E+04  0.16098527700E+04  0.10048200388E+04 0.  0.
   -9000010    2    1    2    0  502  0.19388482468E+03  0.39386560309E+03 -0.14648211687E+04  0.18097776375E+04  0.96792179574E+03 0.  0.
        -13    1    3    3    0    0  0.21933500471E+03 -0.26828522895E+03 -0.11219708544E+04  0.11742671833E+04  0.10566000000E+00 0.  1.
          4    1    3    3  501    0 -0.41321982939E+03 -0.12558037414E+03 -0.56689907765E+02  0.43558558678E+03  0.00000000000E+00 0.  1.
         13    1    4    4    0    0 -0.19381705681E+03 -0.63586976310E+02  0.23372887491E+02  0.20531599573E+03  0.10566000000E+00 0. -1.
         -4    1    4    4    0  502  0.38770188149E+03  0.45745257940E+03 -0.14881940561E+04  0.16044616418E+04  0.00000000000E+00 0. -1.
<mgrwt>
<rscale>  2 0.10880068E+04</rscale>
<asrwt>0</asrwt>
<pdfrwt beam="1">  1       21 0.59703729E-01 0.10965331E+04</pdfrwt>
<pdfrwt beam="2">  1       21 0.46639325E+00 0.10965331E+04</pdfrwt>
<totfact> 0.25285924E+00</totfact>
</mgrwt>
</event>
<event>
 8    1  0.1168507E-005  0.1148222E+04  0.7818608E-02  0.8651501E-01
         21   -1    0    0  501  502  0.00000000000E+00  0.00000000000E+00  0.25903261324E+04  0.25903261324E+04  0.00000000000E+00 0.  1.
         21   -1    0    0  502  503 -0.00000000000E+00 -0.00000000000E+00 -0.53732048116E+03  0.53732048116E+03  0.00000000000E+00 0.  1.
   -9000010    2    1    2    0  503 -0.49343748297E+03  0.26625898456E+03  0.61494713675E+03  0.13025255062E+04  0.10020171241E+04 0.  0.
    9000010    2    1    2  501    0  0.49343748297E+03 -0.26625898456E+03  0.14380585145E+04  0.18251211074E+04  0.97400224275E+03 0.  0.
        -13    1    4    4    0    0  0.72329158610E+03 -0.35385791964E+03  0.13336920761E+04  0.15579155018E+04  0.10566000000E+00 0.  1.
          4    1    4    4  501    0 -0.22985410313E+03  0.87598935082E+02  0.10436643841E+03  0.26720560552E+03  0.00000000000E+00 0.  1.
         13    1    3    3    0    0 -0.12681049132E+03 -0.32668040550E+03 -0.31439520319E+02  0.35183723886E+03  0.10566000000E+00 0. -1.
         -4    1    3    3    0  503 -0.36662699165E+03  0.59293939006E+03  0.64638665707E+03  0.95068826737E+03  0.00000000000E+00 0. -1.
<mgrwt>
<rscale>  2 0.11420814E+04</rscale>
<asrwt>0</asrwt>
<pdfrwt beam="1">  1       21 0.39851171E+00 0.11482215E+04</pdfrwt>
<pdfrwt beam="2">  1       21 0.82664691E-01 0.11482215E+04</pdfrwt>
<totfact> 0.34099541E+00</totfact>
</mgrwt>
</event>
<event>
 8    1  0.1168507E-005  0.1303381E+04  0.7818608E-02  0.8536122E-01
         21   -1    0    0  501  502  0.00000000000E+00  0.00000000000E+00  0.17685393903E+04  0.17685393903E+04  0.00000000000E+00 0. -1.
         21   -1    0    0  502  503 -0.00000000000E+00 -0.00000000000E+00 -0.10219597503E+04  0.10219597503E+04  0.00000000000E+00 0. -1.
   -9000010    2    1    2    0  503  0.57021407648E+03  0.59470104201E+03  0.75280741407E+03  0.14871030416E+04  0.98282400833E+03 0.  0.
    9000010    2    1    2  501    0 -0.57021407648E+03 -0.59470104201E+03 -0.62277740798E+01  0.13033960989E+04  0.10099451386E+04 0.  0.
        -13    1    4    4    0    0 -0.60048296354E+03 -0.30404335333E+03 -0.42257546453E+03  0.79472774243E+03  0.10566000000E+00 0.  1.
          4    1    4    4  501    0  0.30268887061E+02 -0.29065768868E+03  0.41634769045E+03  0.50866835646E+03  0.00000000000E+00 0.  1.
         13    1    3    3    0    0 -0.24404575131E+03  0.35543748780E+03  0.20901509235E+03  0.47914659183E+03  0.10566000000E+00 0. -1.
         -4    1    3    3    0  503  0.81425982779E+03  0.23926355421E+03  0.54379232173E+03  0.10079564498E+04  0.00000000000E+00 0. -1.
<mgrwt>
<rscale>  2 0.12981243E+04</rscale>
<asrwt>0</asrwt>
<pdfrwt beam="1">  1       21 0.27208298E+00 0.13033812E+04</pdfrwt>
<pdfrwt beam="2">  1       21 0.15722458E+00 0.13033812E+04</pdfrwt>
<totfact> 0.43063994E+00</totfact>
</mgrwt>
</event>
<event>
 8    1  0.1168507E-005  0.1077775E+04  0.7818608E-02  0.8707413E-01
         21   -1    0    0  501  502  0.00000000000E+00  0.00000000000E+00  0.19948595024E+04  0.19948595024E+04  0.00000000000E+00 0.  1.
         21   -1    0    0  502  503 -0.00000000000E+00 -0.00000000000E+00 -0.63363611987E+03  0.63363611987E+03  0.00000000000E+00 0.  1.
   -9000010    2    1    2    0  503 -0.31881201328E+03  0.96495421286E+02  0.10745317753E+04  0.15132422536E+04  0.10120924443E+04 0.  0.
    9000010    2    1    2  501    0  0.31881201328E+03 -0.96495421286E+02  0.28669160721E+03  0.11152533687E+04  0.10250100158E+04 0.  0.
        -13    1    4    4    0    0  0.24807390602E+03 -0.17143287797E+03 -0.35474598866E+03  0.46559061645E+03  0.10566000000E+00 0.  1.
          4    1    4    4  501    0  0.70738107258E+02  0.74937456683E+02  0.64143759586E+03  0.64966275222E+03  0.00000000000E+00 0.  1.
         13    1    3    3    0    0 -0.19612745207E+00  0.39178456347E+03  0.43205498885E+02  0.39415975053E+03  0.10566000000E+00 0. -1.
         -4    1    3    3    0  503 -0.31861588583E+03 -0.29528914219E+03  0.10313262764E+04  0.11190825031E+04  0.00000000000E+00 0. -1.
<mgrwt>
<rscale>  2 0.10746919E+04</rscale>
<asrwt>0</asrwt>
<pdfrwt beam="1">  1       21 0.30690146E+00 0.10777746E+04</pdfrwt>
<pdfrwt beam="2">  1       21 0.97482481E-01 0.10777746E+04</pdfrwt>
<totfact> 0.99821645E+00</totfact>
</mgrwt>
</event>
<event>
 8    1  0.1168507E-005  0.1156895E+04  0.7818608E-02  0.8640189E-01
         21   -1    0    0  501  502  0.00000000000E+00  0.00000000000E+00  0.16663839329E+04  0.16663839329E+04  0.00000000000E+00 0.  1.
         21   -1    0    0  502  503 -0.00000000000E+00 -0.00000000000E+00 -0.11955839915E+04  0.11955839915E+04  0.00000000000E+00 0.  1.
   -9000010    2    1    2    0  503  0.50740840198E+03  0.27351872937E+03 -0.58618061156E+03  0.12949277795E+04  0.10004771177E+04 0.  0.
    9000010    2    1    2  501    0 -0.50740840198E+03 -0.27351872937E+03  0.10569805530E+04  0.15670401449E+04  0.10030608878E+04 0.  0.
        -13    1    4    4    0    0 -0.46746911045E+03 -0.15606455696E+03 -0.99388046009E+01  0.49293235455E+03  0.10566000000E+00 0.  1.
          4    1    4    4  501    0 -0.39939291528E+02 -0.11745417240E+03  0.10669193576E+04  0.10741077904E+04  0.00000000000E+00 0.  1.
         13    1    3    3    0    0 -0.14118476047E+03 -0.26884137521E+03 -0.21206788955E+03  0.37038037550E+03  0.10566000000E+00 0. -1.
         -4    1    3    3    0  503  0.64859316245E+03  0.54236010457E+03 -0.37411272201E+03  0.92454740397E+03  0.00000000000E+00 0. -1.
<mgrwt>
<rscale>  2 0.11563351E+04</rscale>
<asrwt>0</asrwt>
<pdfrwt beam="1">  1       21 0.25636676E+00 0.11568954E+04</pdfrwt>
<pdfrwt beam="2">  1       21 0.18393600E+00 0.11568954E+04</pdfrwt>
<totfact> 0.34384959E+00</totfact>
</mgrwt>
</event>
<event>
 8    1  0.1168507E-005  0.1238076E+04  0.7818608E-02  0.8579337E-01
         21   -1    0    0  503  502  0.00000000000E+00  0.00000000000E+00  0.85352043526E+03  0.85352043526E+03  0.00000000000E+00 0.  1.
         21   -1    0    0  501  503 -0.00000000000E+00 -0.00000000000E+00 -0.19811856450E+04  0.19811856450E+04  0.00000000000E+00 0. -1.
    9000010    2    1    2  501    0 -0.49653879845E+03  0.51138876299E+03 -0.10046496934E+04  0.15905331816E+04  0.10061836561E+04 0.  0.
   -9000010    2    1    2    0  502  0.49653879845E+03 -0.51138876299E+03 -0.12301551626E+03  0.12441728986E+04  0.10123063465E+04 0.  0.
        -13    1    3    3    0    0 -0.57790543652E+03  0.67014325157E+03 -0.42047495019E+03  0.97972744480E+03  0.10566000000E+00 0.  1.
          4    1    3    3  501    0  0.81366638075E+02 -0.15875448858E+03 -0.58417474324E+03  0.61080573678E+03  0.00000000000E+00 0.  1.
         13    1    4    4    0    0 -0.30532594721E+03 -0.16295050577E+03  0.59131412879E+02  0.35110302836E+03  0.10566000000E+00 0. -1.
         -4    1    4    4    0  502  0.80186474565E+03 -0.34843825721E+03 -0.18214692914E+03  0.89306987028E+03  0.00000000000E+00 0. -1.
<mgrwt>
<rscale>  2 0.12368243E+04</rscale>
<asrwt>0</asrwt>
<pdfrwt beam="1">  1       21 0.13131084E+00 0.12380765E+04</pdfrwt>
<pdfrwt beam="2">  1       21 0.30479779E+00 0.12380765E+04</pdfrwt>
<totfact> 0.44070867E+00</totfact>
</mgrwt>
</event>
<event>
 8    1  0.1168507E-005  0.1028075E+04  0.7818608E-02  0.8748959E-01
         21   -1    0    0  503  502  0.00000000000E+00  0.00000000000E+00  0.53704779155E+03  0.53704779155E+03  0.00000000000E+00 0.  1.
         21   -1    0    0  501  503 -0.00000000000E+00 -0.00000000000E+00 -0.19663208585E+04  0.19663208585E+04  0.00000000000E+00 0.  1.
    9000010    2    1    2  501    0 -0.21746327399E+03  0.99853935319E+02 -0.68800375361E+03  0.12359232018E+04  0.99844674967E+03 0.  0.
   -9000010    2    1    2    0  502  0.21746327399E+03 -0.99853935319E+02 -0.74126931338E+03  0.12674454482E+04  0.99983832963E+03 0.  0.
        -13    1    3    3    0    0 -0.44686605546E+03  0.19021466844E+03  0.20141556990E+02  0.48608289940E+03  0.10566000000E+00 0.  1.
          4    1    3    3  501    0  0.22940278146E+03 -0.90360733119E+02 -0.70814531060E+03  0.74984030244E+03  0.00000000000E+00 0.  1.
         13    1    4    4    0    0  0.55445247988E+03  0.10234417761E+03 -0.65655503185E+03  0.86542267370E+03  0.10566000000E+00 0. -1.
         -4    1    4    4    0  502 -0.33698920589E+03 -0.20219811293E+03 -0.84714281525E+02  0.40202277455E+03  0.00000000000E+00 0. -1.
<mgrwt>
<rscale>  2 0.10277363E+04</rscale>
<asrwt>0</asrwt>
<pdfrwt beam="1">  1       21 0.82622737E-01 0.10280748E+04</pdfrwt>
<pdfrwt beam="2">  1       21 0.30251090E+00 0.10280748E+04</pdfrwt>
<totfact> 0.16520946E+01</totfact>
</mgrwt>
</event>
<event>
 8    1  0.1168507E-005  0.1205860E+04  0.7818608E-02  0.8606183E-01
         21   -1    0    0  501  502  0.00000000000E+00  0.00000000000E+00  0.20626984712E+04  0.20626984712E+04  0.00000000000E+00 0.  1.
         21   -1    0    0  502  503 -0.00000000000E+00 -0.00000000000E+00 -0.83115092208E+03  0.83115092208E+03  0.00000000000E+00 0.  1.
   -9000010    2    1    2    0  503 -0.62170714444E+03 -0.26860889298E+03  0.20387123099E+02  0.11847536022E+04  0.97188216992E+03 0.  0.
    9000010    2    1    2  501    0  0.62170714444E+03  0.26860889298E+03  0.12111604260E+04  0.17090957911E+04  0.99771154891E+03 0.  0.
        -13    1    4    4    0    0 -0.15419709449E+03  0.17476757399E+03  0.78506847728E+03  0.81893404743E+03  0.10566000000E+00 0.  1.
          4    1    4    4  501    0  0.77590423893E+03  0.93841318993E+02  0.42609194874E+03  0.89016174368E+03  0.00000000000E+00 0.  1.
         13    1    3    3    0    0 -0.11398472270E+02 -0.52246329364E+03 -0.15071663153E+02  0.52280492018E+03  0.10566000000E+00 0. -1.
         -4    1    3    3    0  503 -0.61030867217E+03  0.25385440066E+03  0.35458786252E+02  0.66194868198E+03  0.00000000000E+00 0. -1.
<mgrwt>
<rscale>  2 0.12005041E+04</rscale>
<asrwt>0</asrwt>
<pdfrwt beam="1">  1       21 0.31733822E+00 0.12058602E+04</pdfrwt>
<pdfrwt beam="2">  1       21 0.12786937E+00 0.12058602E+04</pdfrwt>
<totfact> 0.39088935E+00</totfact>
</mgrwt>
</event>
<event>
 8    1  0.1168507E-005  0.1051030E+04  0.7818608E-02  0.8728276E-01
         21   -1    0    0  503  502  0.00000000000E+00  0.00000000000E+00  0.18035651026E+04  0.18035651026E+04  0.00000000000E+00 0. -1.
         21   -1    0    0  501  503 -0.00000000000E+00 -0.00000000000E+00 -0.62843026350E+03  0.62843026350E+03  0.00000000000E+00 0. -1.
    9000010    2    1    2  501    0  0.19451399565E+02 -0.30899595564E+03  0.39083988601E+03  0.11213476905E+04  0.10043943294E+04 0.  0.
   -9000010    2    1    2    0  502 -0.19451399565E+02  0.30899595564E+03  0.78429495305E+03  0.13106476755E+04  0.10034051517E+04 0.  0.
        -13    1    3    3    0    0 -0.39180847339E+03  0.10182404520E+03 -0.26592379608E+02  0.40569592285E+03  0.10566000000E+00 0.  1.
          4    1    3    3  501    0  0.41125987296E+03 -0.41082000085E+03  0.41743226562E+03  0.71565176768E+03  0.00000000000E+00 0.  1.
         13    1    4    4    0    0 -0.30804153480E+03  0.33777966324E+03 -0.18039734344E+02  0.45750424177E+03  0.10566000000E+00 0. -1.
         -4    1    4    4    0  502  0.28859013523E+03 -0.28783707598E+02  0.80233468739E+03  0.85314343376E+03  0.00000000000E+00 0. -1.
<mgrwt>
<rscale>  2 0.10507940E+04</rscale>
<asrwt>0</asrwt>
<pdfrwt beam="1">  1       21 0.27747155E+00 0.10510304E+04</pdfrwt>
<pdfrwt beam="2">  1       21 0.96681580E-01 0.10510304E+04</pdfrwt>
<totfact> 0.16588551E+01</totfact>
</mgrwt>
</event>
<event>
 8    1  0.1168507E-005  0.1184352E+04  0.7818608E-02  0.8625744E-01
         21   -1    0    0  503  502  0.00000000000E+00  0.00000000000E+00  0.11492795030E+04  0.11492795030E+04  0.00000000000E+00 0. -1.
         21   -1    0    0  501  503 -0.00000000000E+00 -0.00000000000E+00 -0.14245369697E+04  0.14245369697E+04  0.00000000000E+00 0. -1.
    9000010    2    1    2  501    0  0.78502679668E+02  0.49808422010E+03 -0.67029522117E+03  0.13608766726E+04  0.10716524966E+04 0.  0.
   -9000010    2    1    2    0  502 -0.78502679668E+02 -0.49808422010E+03  0.39503775451E+03  0.12129398001E+04  0.10300085292E+04 0.  0.
        -13    1    3    3    0    0 -0.30409599959E+03  0.64358181937E+03 -0.20412107145E+03  0.74049804738E+03  0.10566000000E+00 0.  1.
          4    1    3    3  501    0  0.38259867926E+03 -0.14549759928E+03 -0.46617414972E+03  0.62037862523E+03  0.00000000000E+00 0.  1.
         13    1    4    4    0    0 -0.45693429115E+03  0.20133904788E+02 -0.38224824429E+01  0.45739364128E+03  0.10566000000E+00 0. -1.
         -4    1    4    4    0  502  0.37843161148E+03 -0.51821812489E+03  0.39886023695E+03  0.75554615885E+03  0.00000000000E+00 0. -1.
<mgrwt>
<rscale>  2 0.11748523E+04</rscale>
<asrwt>0</asrwt>
<pdfrwt beam="1">  1       21 0.17681223E+00 0.11843520E+04</pdfrwt>
<pdfrwt beam="2">  1       21 0.21915953E+00 0.11843520E+04</pdfrwt>
<totfact> 0.73575494E+00</totfact>
</mgrwt>
</event>
<event>
 8    1  0.1168507E-005  0.1143141E+04  0.7818608E-02  0.8652977E-01
         21   -1    0    0  503  502  0.00000000000E+00  0.00000000000E+00  0.80366976284E+03  0.80366976284E+03  0.00000000000E+00 0.  1.
         21   -1    0    0  501  503 -0.00000000000E+00 -0.00000000000E+00 -0.16765134881E+04  0.16765134881E+04  0.00000000000E+00 0.  1.
    9000010    2    1    2  501    0  0.32396088438E+03  0.40562244867E+03 -0.68205157141E+03  0.13212300533E+04  0.10054721687E+04 0.  0.
   -9000010    2    1    2    0  502 -0.32396088438E+03 -0.40562244867E+03 -0.19079215384E+03  0.11589531977E+04  0.10184746649E+04 0.  0.
        -13    1    3    3    0    0 -0.36362374416E+03  0.93557070020E+02 -0.20033658960E+03  0.42557010347E+03  0.10566000000E+00 0.  1.
          4    1    3    3  501    0  0.68758462855E+03  0.31206537865E+03 -0.48171498181E+03  0.89565994980E+03  0.00000000000E+00 0.  1.
         13    1    4    4    0    0 -0.35572836781E+02  0.28627356604E+03  0.16160683771E+03  0.33065807489E+03  0.10566000000E+00 0. -1.
         -4    1    4    4    0  502 -0.28838804760E+03 -0.69189601471E+03 -0.35239899155E+03  0.82829512278E+03  0.00000000000E+00 0. -1.
<mgrwt>
<rscale>  2 0.11402375E+04</rscale>
<asrwt>0</asrwt>
<pdfrwt beam="1">  1       21 0.12364150E+00 0.11431408E+04</pdfrwt>
<pdfrwt beam="2">  1       21 0.25792515E+00 0.11431408E+04</pdfrwt>
<totfact> 0.11543698E+01</totfact>
</mgrwt>
</event>
<event>
 8    1  0.1168507E-005  0.1092654E+04  0.7818608E-02  0.8699838E-01
         21   -1    0    0  503  502  0.00000000000E+00  0.00000000000E+00  0.81326070125E+03  0.81326070125E+03  0.00000000000E+00 0. -1.
         21   -1    0    0  501  503 -0.00000000000E+00 -0.00000000000E+00 -0.14818738163E+04  0.14818738163E+04  0.00000000000E+00 0. -1.
    9000010    2    1    2  501    0  0.71721660494E+02 -0.44772960614E+03 -0.94514946549E+02  0.10608401820E+04  0.95438096157E+03 0.  0.
   -9000010    2    1    2    0  502 -0.71721660494E+02  0.44772960614E+03 -0.57409816850E+03  0.12342943356E+04  0.99412675395E+03 0.  0.
        -13    1    3    3    0    0 -0.21773589849E+02 -0.74181185990E+03 -0.15478667921E+02  0.74229274887E+03  0.10566000000E+00 0.  1.
          4    1    3    3  501    0  0.93495250342E+02  0.29408225376E+03 -0.79036278627E+02  0.31854743312E+03  0.00000000000E+00 0.  1.
         13    1    4    4    0    0  0.40849684736E+02  0.42086182696E+03 -0.84214027561E+03  0.94233413878E+03  0.10566000000E+00 0. -1.
         -4    1    4    4    0  502 -0.11257134523E+03  0.26867779181E+02  0.26804210710E+03  0.29196019678E+03  0.00000000000E+00 0. -1.
<mgrwt>
<rscale>  2 0.10835326E+04</rscale>
<asrwt>0</asrwt>
<pdfrwt beam="1">  1       21 0.12511703E+00 0.10926545E+04</pdfrwt>
<pdfrwt beam="2">  1       21 0.22798058E+00 0.10926545E+04</pdfrwt>
<totfact> 0.18707951E+01</totfact>
</mgrwt>
</event>
<event>
 8    1  0.1168507E-005  0.1041526E+04  0.7818608E-02  0.8758934E-01
         21   -1    0    0  501  502  0.00000000000E+00  0.00000000000E+00  0.93990640911E+03  0.93990640911E+03  0.00000000000E+00 0.  1.
         21   -1    0    0  502  503 -0.00000000000E+00 -0.00000000000E+00 -0.10595165396E+04  0.10595165396E+04  0.00000000000E+00 0.  1.
   -9000010    2    1    2    0  503  0.13638591995E+02 -0.23915186340E+03 -0.15253880154E+03  0.10526372344E+04  0.10136061545E+04 0.  0.
    9000010    2    1    2  501    0 -0.13638591995E+02  0.23915186340E+03  0.32928671015E+02  0.94678571431E+03  0.91539022635E+03 0.  0.
        -13    1    4    4    0    0  0.42539021587E+03  0.23632165931E+03  0.11527251241E+03  0.50009251714E+03  0.10566000000E+00 0.  1.
          4    1    4    4  501    0 -0.43902880786E+03  0.28302040831E+01 -0.82343841391E+02  0.44669319718E+03  0.00000000000E+00 0.  1.
         13    1    3    3    0    0  0.20906198844E+02 -0.64009546447E+03 -0.10015185751E+03  0.64822039347E+03  0.10566000000E+00 0. -1.
         -4    1    3    3    0  503 -0.72676068489E+01  0.40094360107E+03 -0.52386944029E+02  0.40441684096E+03  0.00000000000E+00 0. -1.
<mgrwt>
<rscale>  2 0.10168336E+04</rscale>
<asrwt>0</asrwt>
<pdfrwt beam="1">  1       21 0.14460099E+00 0.10415263E+04</pdfrwt>
<pdfrwt beam="2">  1       21 0.16300255E+00 0.10415263E+04</pdfrwt>
<totfact> 0.40473071E+01</totfact>
</mgrwt>
</event>
<event>
 8    1  0.1168507E-005  0.1177120E+04  0.7818608E-02  0.8643314E-01
         21   -1    0    0  503  502  0.00000000000E+00  0.00000000000E+00  0.25430475555E+04  0.25430475555E+04  0.00000000000E+00 0. -1.
         21   -1    0    0  501  503 -0.00000000000E+00 -0.00000000000E+00 -0.53133397443E+03  0.53133397443E+03  0.00000000000E+00 0. -1.
    9000010    2    1    2  501    0  0.11036402501E+03 -0.39808986692E+03  0.68146728873E+03  0.13601503652E+04  0.11022502394E+04 0.  0.
   -9000010    2    1    2    0  502 -0.11036402501E+03  0.39808986692E+03  0.13302462923E+04  0.17142311647E+04  0.99918843452E+03 0.  0.
        -13    1    3    3    0    0 -0.18790336770E+03 -0.59903417570E+03  0.45404005958E+02  0.62945305955E+03  0.10566000000E+00 0.  1.
          4    1    3    3  501    0  0.29826739271E+03  0.20094430878E+03  0.63606328277E+03  0.73069730564E+03  0.00000000000E+00 0.  1.
         13    1    4    4    0    0  0.38545518147E+03  0.63165473015E+02  0.88826456109E+03  0.97035020254E+03  0.10566000000E+00 0. -1.
         -4    1    4    4    0  502 -0.49581920648E+03  0.33492439391E+03  0.44198173120E+03  0.74388096216E+03  0.00000000000E+00 0. -1.
<mgrwt>
<rscale>  2 0.11523752E+04</rscale>
<asrwt>0</asrwt>
<pdfrwt beam="1">  1       21 0.39123808E+00 0.11771199E+04</pdfrwt>
<pdfrwt beam="2">  1       21 0.81743690E-01 0.11771199E+04</pdfrwt>
<totfact> 0.39172817E+00</totfact>
</mgrwt>
</event>
<event>
 8    1  0.1168507E-005  0.1147678E+04  0.7818608E-02  0.8651213E-01
         21   -1    0    0  501  502  0.00000000000E+00  0.00000000000E+00  0.95210473886E+03  0.95210473886E+03  0.00000000000E+00 0.  1.
         21   -1    0    0  502  503 -0.00000000000E+00 -0.00000000000E+00 -0.14445112889E+04  0.14445112889E+04  0.00000000000E+00 0.  1.
   -9000010    2    1    2    0  503  0.10297675708E+03 -0.59544227660E+03 -0.53654671390E+03  0.12480893669E+04  0.95115139401E+03 0.  0.
    9000010    2    1    2  501    0 -0.10297675708E+03  0.59544227660E+03  0.44140163842E+02  0.11485266609E+04  0.97570970038E+03 0.  0.
        -13    1    4    4    0    0 -0.54610478860E+02  0.42149568224E+03  0.50117200331E+03  0.65712578904E+03  0.10566000000E+00 0.  1.
          4    1    4    4  501    0 -0.48366278219E+02  0.17394659436E+03 -0.45703183947E+03  0.49140087184E+03  0.00000000000E+00 0.  1.
         13    1    3    3    0    0  0.29652500089E+03 -0.66116334968E+03 -0.68368419367E+03  0.99623698935E+03  0.10566000000E+00 0. -1.
         -4    1    3    3    0  503 -0.19354824381E+03  0.65721073082E+02  0.14713747977E+03  0.25185237756E+03  0.00000000000E+00 0. -1.
<mgrwt>
<rscale>  2 0.11424413E+04</rscale>
<asrwt>0</asrwt>
<pdfrwt beam="1">  1       21 0.14647765E+00 0.11476782E+04</pdfrwt>
<pdfrwt beam="2">  1       21 0.22223251E+00 0.11476782E+04</pdfrwt>
<totfact> 0.12835275E+01</totfact>
</mgrwt>
</event>
<event>
 8    1  0.1168507E-005  0.1195943E+04  0.7818608E-02  0.8624014E-01
         21   -1    0    0  501  502  0.00000000000E+00  0.00000000000E+00  0.71612365170E+03  0.71612365170E+03  0.00000000000E+00 0.  1.
         21   -1    0    0  502  503 -0.00000000000E+00 -0.00000000000E+00 -0.20138977298E+04  0.20138977298E+04  0.00000000000E+00 0.  1.
   -9000010    2    1    2    0  503  0.64376054631E+03 -0.78674010326E+02 -0.10248833047E+04  0.15750125461E+04  0.10048191336E+04 0.  0.
    9000010    2    1    2  501    0 -0.64376054631E+03  0.78674010326E+02 -0.27289077345E+03  0.11550088355E+04  0.91594693890E+03 0.  0.
        -13    1    4    4    0    0 -0.85726107884E+03  0.15766905619E+03 -0.30844111608E+03  0.92460371069E+03  0.10566000000E+00 0.  1.
          4    1    4    4  501    0  0.21350053253E+03 -0.78995045868E+02  0.35550342623E+02  0.23040512477E+03  0.00000000000E+00 0.  1.
         13    1    3    3    0    0 -0.65374382114E+02  0.61391964764E+02 -0.81835097132E+03  0.82325033046E+03  0.10566000000E+00 0. -1.
         -4    1    3    3    0  503  0.70913492842E+03 -0.14006597509E+03 -0.20653233336E+03  0.75176221560E+03  0.00000000000E+00 0. -1.
<mgrwt>
<rscale>  2 0.11770931E+04</rscale>
<asrwt>0</asrwt>
<pdfrwt beam="1">  1       21 0.11017287E+00 0.11959426E+04</pdfrwt>
<pdfrwt beam="2">  1       21 0.30983042E+00 0.11959426E+04</pdfrwt>
<totfact> 0.67073032E+00</totfact>
</mgrwt>
</event>
<event>
 8    1  0.1168507E-005  0.1087614E+04  0.7818608E-02  0.8698123E-01
         21   -1    0    0  501  502  0.00000000000E+00  0.00000000000E+00  0.50676888361E+03  0.50676888361E+03  0.00000000000E+00 0. -1.
         21   -1    0    0  502  503 -0.00000000000E+00 -0.00000000000E+00 -0.24281723834E+04  0.24281723834E+04  0.00000000000E+00 0. -1.
   -9000010    2    1    2    0  503 -0.43582092081E+03  0.35904643854E+02 -0.12788385916E+04  0.16787889953E+04  0.99582896567E+03 0.  0.
    9000010    2    1    2  501    0  0.43582092081E+03 -0.35904643854E+02 -0.64256490818E+03  0.12561522717E+04  0.98681297621E+03 0.  0.
        -13    1    4    4    0    0  0.14939298002E+03 -0.36658038737E+03  0.87162451495E+02  0.40533535128E+03  0.10566000000E+00 0.  1.
          4    1    4    4  501    0  0.28642794079E+03  0.33067574352E+03 -0.72972735968E+03  0.85081692042E+03  0.00000000000E+00 0.  1.
         13    1    3    3    0    0 -0.22683791655E+03 -0.39590910592E+02  0.12189526705E+03  0.26054049182E+03  0.10566000000E+00 0. -1.
         -4    1    3    3    0  503 -0.20898300426E+03  0.75495554446E+02 -0.14007338586E+04  0.14182485034E+04  0.00000000000E+00 0. -1.
<mgrwt>
<rscale>  2 0.10855459E+04</rscale>
<asrwt>0</asrwt>
<pdfrwt beam="1">  1       21 0.77964444E-01 0.10876141E+04</pdfrwt>
<pdfrwt beam="2">  1       21 0.37356498E+00 0.10876141E+04</pdfrwt>
<totfact> 0.59567631E+00</totfact>
</mgrwt>
</event>
<event>
 8    1  0.1168507E-005  0.1427727E+04  0.7818608E-02  0.8469162E-01
         21   -1    0    0  501  502  0.00000000000E+00  0.00000000000E+00  0.19051437806E+04  0.19051437806E+04  0.00000000000E+00 0.  1.
         21   -1    0    0  502  503 -0.00000000000E+00 -0.00000000000E+00 -0.13061725007E+04  0.13061725007E+04  0.00000000000E+00 0.  1.
   -9000010    2    1    2    0  503 -0.63388582080E+03  0.58183919565E+03 -0.47863403254E+03  0.15058204622E+04  0.11393228884E+04 0.  0.
    9000010    2    1    2  501    0  0.63388582080E+03 -0.58183919565E+03  0.10776053125E+04  0.17054958191E+04  0.10035610076E+04 0.  0.
        -13    1    4    4    0    0  0.63572140469E+03 -0.67721933726E+03  0.38356980349E+03  0.10049345951E+04  0.10566000000E+00 0.  1.
          4    1    4    4  501    0 -0.18355838841E+01  0.95380141611E+02  0.69403550899E+03  0.70056122397E+03  0.00000000000E+00 0.  1.
         13    1    3    3    0    0  0.91721135009E+02  0.46709419645E+03  0.18994079967E+03  0.51251075453E+03  0.10566000000E+00 0. -1.
         -4    1    3    3    0  503 -0.72560695581E+03  0.11474499920E+03 -0.66857483221E+03  0.99330970771E+03  0.00000000000E+00 0. -1.
<mgrwt>
<rscale>  2 0.14005078E+04</rscale>
<asrwt>0</asrwt>
<pdfrwt beam="1">  1       21 0.29309904E+00 0.14277271E+04</pdfrwt>
<pdfrwt beam="2">  1       21 0.20094962E+00 0.14277271E+04</pdfrwt>
<totfact> 0.12984745E+00</totfact>
</mgrwt>
</event>
<event>
 8    1  0.1168507E-005  0.1090845E+04  0.7818608E-02  0.8694093E-01
         21   -1    0    0  503  502  0.00000000000E+00  0.00000000000E+00  0.14070146112E+04  0.14070146112E+04  0.00000000000E+00 0.  1.
         21   -1    0    0  501  503 -0.00000000000E+00 -0.00000000000E+00 -0.85856718273E+03  0.85856718273E+03  0.00000000000E+00 0.  1.
    9000010    2    1    2  501    0  0.41754351723E+03 -0.85894258144E+02  0.42193842817E+03  0.11696045066E+04  0.10041027100E+04 0.  0.
   -9000010    2    1    2    0  502 -0.41754351723E+03  0.85894258144E+02  0.12650900027E+03  0.10959772873E+04  0.10017191597E+04 0.  0.
        -13    1    3    3    0    0  0.24585055147E+02  0.43629591566E+03  0.18317493628E+03  0.47382657102E+03  0.10566000000E+00 0.  1.
          4    1    3    3  501    0  0.39295846209E+03 -0.52219017380E+03  0.23876349189E+03  0.69577793555E+03  0.00000000000E+00 0.  1.
         13    1    4    4    0    0 -0.16355305985E+03 -0.40526272454E+03 -0.16955566537E+03  0.46876072160E+03  0.10566000000E+00 0. -1.
         -4    1    4    4    0  502 -0.25399045739E+03  0.49115698269E+03  0.29606466563E+03  0.62721656573E+03  0.00000000000E+00 0. -1.
<mgrwt>
<rscale>  2 0.10902961E+04</rscale>
<asrwt>0</asrwt>
<pdfrwt beam="1">  1       21 0.21646379E+00 0.10908449E+04</pdfrwt>
<pdfrwt beam="2">  1       21 0.13208726E+00 0.10908449E+04</pdfrwt>
<totfact> 0.19545825E+01</totfact>
</mgrwt>
</event>
<event>
 8    1  0.1168507E-005  0.1038610E+04  0.7818608E-02  0.8743612E-01
         21   -1    0    0  503  502  0.00000000000E+00  0.00000000000E+00  0.20048632169E+04  0.20048632169E+04  0.00000000000E+00 0. -1.
         21   -1    0    0  501  503 -0.00000000000E+00 -0.00000000000E+00 -0.55718440441E+03  0.55718440441E+03  0.00000000000E+00 0. -1.
    9000010    2    1    2  501    0 -0.36123487080E+02 -0.21969354552E+03  0.42342579755E+03  0.11033479853E+04  0.99424202807E+03 0.  0.
   -9000010    2    1    2    0  502  0.36123487080E+02  0.21969354552E+03  0.10242530149E+04  0.14586996360E+04  0.10144654894E+04 0.  0.
        -13    1    3    3    0    0 -0.30591325141E+03 -0.39421374192E+03 -0.80759604543E+02  0.50547949176E+03  0.10566000000E+00 0.  1.
          4    1    3    3  501    0  0.26978976433E+03  0.17452019640E+03  0.50418540209E+03  0.59786849354E+03  0.00000000000E+00 0.  1.
         13    1    4    4    0    0 -0.81733836851E+00  0.18763561309E+03 -0.17611186205E+03  0.25733866880E+03  0.10566000000E+00 0. -1.
         -4    1    4    4    0  502  0.36940825449E+02  0.32057932434E+02  0.12003648770E+04  0.12013609672E+04  0.00000000000E+00 0. -1.
<mgrwt>
<rscale>  2 0.10336382E+04</rscale>
<asrwt>0</asrwt>
<pdfrwt beam="1">  1       21 0.30844049E+00 0.10386098E+04</pdfrwt>
<pdfrwt beam="2">  1       21 0.85720679E-01 0.10386098E+04</pdfrwt>
<totfact> 0.13650315E+01</totfact>
</mgrwt>
</event>
<event>
 8    1  0.1168507E-005  0.1064294E+04  0.7818608E-02  0.8725655E-01
         21   -1    0    0  501  502  0.00000000000E+00  0.00000000000E+00  0.19269059864E+04  0.19269059864E+04  0.00000000000E+00 0. -1.
         21   -1    0    0  502  503 -0.00000000000E+00 -0.00000000000E+00 -0.56524694006E+03  0.56524694006E+03  0.00000000000E+00 0. -1.
   -9000010    2    1    2    0  503 -0.15806154483E+03  0.29786101609E+03  0.65015093167E+03  0.12119317269E+04  0.96559703806E+03 0.  0.
    9000010    2    1    2  501    0  0.15806154483E+03 -0.29786101609E+03  0.71150811465E+03  0.12802211995E+04  0.10094641577E+04 0.  0.
        -13    1    4    4    0    0 -0.76692894356E+01  0.26719941266E+03  0.63175702645E+03  0.68598199376E+03  0.10566000000E+00 0.  1.
          4    1    4    4  501    0  0.16573083427E+03 -0.56506042876E+03  0.79751088195E+02  0.59423920574E+03  0.00000000000E+00 0.  1.
         13    1    3    3    0    0 -0.43057092960E+03  0.48148605078E+03  0.24632009795E+03  0.69129859274E+03  0.10566000000E+00 0. -1.
         -4    1    3    3    0  503  0.27250938477E+03 -0.18362503468E+03  0.40383083372E+03  0.52063313419E+03  0.00000000000E+00 0. -1.
<mgrwt>
<rscale>  2 0.10537608E+04</rscale>
<asrwt>0</asrwt>
<pdfrwt beam="1">  1       21 0.29644707E+00 0.10642944E+04</pdfrwt>
<pdfrwt beam="2">  1       21 0.86961068E-01 0.10642944E+04</pdfrwt>
<totfact> 0.15910461E+01</totfact>
</mgrwt>
</event>
<event>
 8    1  0.1168507E-005  0.1072195E+04  0.7818608E-02  0.8716975E-01
         21   -1    0    0  501  502  0.00000000000E+00  0.00000000000E+00  0.79476201503E+03  0.79476201503E+03  0.00000000000E+00 0.  1.
         21   -1    0    0  502  503 -0.00000000000E+00 -0.00000000000E+00 -0.14016221071E+04  0.14016221071E+04  0.00000000000E+00 0.  1.
   -9000010    2    1    2    0  503  0.30299435021E+03  0.22440230679E+03 -0.31504270236E+03  0.10851870186E+04  0.96758306593E+03 0.  0.
    9000010    2    1    2  501    0 -0.30299435021E+03 -0.22440230679E+03 -0.29181738969E+03  0.11111971035E+04  0.10037129283E+04 0.  0.
        -13    1    4    4    0    0  0.34680222450E+03 -0.20387781062E+03 -0.21616527283E+03  0.45668958924E+03  0.10566000000E+00 0.  1.
          4    1    4    4  501    0 -0.64979657471E+03 -0.20524496169E+02 -0.75652116857E+02  0.65450751427E+03  0.00000000000E+00 0.  1.
         13    1    3    3    0    0 -0.20333847100E+03 -0.46772192376E+02  0.21787133146E+03  0.30166554329E+03  0.10566000000E+00 0. -1.
         -4    1    3    3    0  503  0.50633282121E+03  0.27117449916E+03 -0.53291403382E+03  0.78352147531E+03  0.00000000000E+00 0. -1.
<mgrwt>
<rscale>  2 0.10636572E+04</rscale>
<asrwt>0</asrwt>
<pdfrwt beam="1">  1       21 0.12227108E+00 0.10721948E+04</pdfrwt>
<pdfrwt beam="2">  1       21 0.21563417E+00 0.10721948E+04</pdfrwt>
<totfact> 0.24841242E+01</totfact>
</mgrwt>
</event>
<event>
 8    1  0.1168507E-005  0.1068803E+04  0.7818608E-02  0.8713077E-01
         21   -1    0    0  503  502  0.00000000000E+00  0.00000000000E+00  0.15084971370E+04  0.15084971370E+04  0.00000000000E+00 0. -1.
         21   -1    0    0  501  503 -0.00000000000E+00 -0.00000000000E+00 -0.76360147257E+03  0.76360147257E+03  0.00000000000E+00 0. -1.
    9000010    2    1    2  501    0 -0.18897624998E+03  0.28100490793E+03  0.25509302431E+03  0.10988230133E+04  0.10137375312E+04 0.  0.
   -9000010    2    1    2    0  502  0.18897624998E+03 -0.28100490793E+03  0.48980264009E+03  0.11732755962E+04  0.10109368017E+04 0.  0.
        -13    1    3    3    0    0 -0.43003728177E+03  0.16582345801E+03  0.53885646804E+03  0.70908094548E+03  0.10566000000E+00 0.  1.
          4    1    3    3  501    0  0.24106103179E+03  0.11518144992E+03 -0.28376344373E+03  0.38974206785E+03  0.00000000000E+00 0.  1.
         13    1    4    4    0    0  0.39739588651E+03 -0.52141148686E+03  0.89097648254E+02  0.66161305257E+03  0.10566000000E+00 0. -1.
         -4    1    4    4    0  502 -0.20841963653E+03  0.24040657894E+03  0.40070499183E+03  0.51166254364E+03  0.00000000000E+00 0. -1.
<mgrwt>
<rscale>  2 0.10681382E+04</rscale>
<asrwt>0</asrwt>
<pdfrwt beam="1">  1       21 0.23207648E+00 0.10688029E+04</pdfrwt>
<pdfrwt beam="2">  1       21 0.11747715E+00 0.10688029E+04</pdfrwt>
<totfact> 0.20928429E+01</totfact>
</mgrwt>
</event>
<event>
 8    1  0.1168507E-005  0.1190452E+04  0.7818608E-02  0.8615555E-01
         21   -1    0    0  503  502  0.00000000000E+00  0.00000000000E+00  0.10635495228E+04  0.10635495228E+04  0.00000000000E+00 0.  1.
         21   -1    0    0  501  503 -0.00000000000E+00 -0.00000000000E+00 -0.13344214461E+04  0.13344214461E+04  0.00000000000E+00 0.  1.
    9000010    2    1    2  501    0 -0.62677311744E+03 -0.31169281319E+02 -0.19917744506E+02  0.11813552212E+04  0.10006934482E+04 0.  0.
   -9000010    2    1    2    0  502  0.62677311744E+03  0.31169281319E+02 -0.25095417883E+03  0.12166157478E+04  0.10116124816E+04 0.  0.
        -13    1    3    3    0    0 -0.56661622103E+03 -0.42739765408E+03 -0.20666671288E+03  0.73921163277E+03  0.10566000000E+00 0.  1.
          4    1    3    3  501    0 -0.60156896406E+02  0.39622837277E+03  0.18674896838E+03  0.44214358839E+03  0.00000000000E+00 0.  1.
         13    1    4    4    0    0  0.19519488711E+03 -0.26476120235E+03  0.30821997253E+03  0.45077610945E+03  0.10566000000E+00 0. -1.
         -4    1    4    4    0  502  0.43157823033E+03  0.29593048366E+03 -0.55917415136E+03  0.76583963831E+03  0.00000000000E+00 0. -1.
<mgrwt>
<rscale>  2 0.11881290E+04</rscale>
<asrwt>0</asrwt>
<pdfrwt beam="1">  1       21 0.16362300E+00 0.11904520E+04</pdfrwt>
<pdfrwt beam="2">  1       21 0.20529561E+00 0.11904520E+04</pdfrwt>
<totfact> 0.12105026E+01</totfact>
</mgrwt>
</event>
<event>
 8    1  0.1168507E-005  0.1036362E+04  0.7818608E-02  0.8742027E-01
         21   -1    0    0  503  502  0.00000000000E+00  0.00000000000E+00  0.12967345196E+04  0.12967345196E+04  0.00000000000E+00 0.  1.
         21   -1    0    0  501  503 -0.00000000000E+00 -0.00000000000E+00 -0.82522186567E+03  0.82522186567E+03  0.00000000000E+00 0.  1.
    9000010    2    1    2  501    0  0.18622579810E+03 -0.16207899249E+03  0.24213992459E+03  0.10605152061E+04  0.10025522986E+04 0.  0.
   -9000010    2    1    2    0  502 -0.18622579810E+03  0.16207899249E+03  0.22937272934E+03  0.10614411792E+04  0.10065266416E+04 0.  0.
        -13    1    3    3    0    0 -0.27011749771E+03 -0.27578405265E+03  0.40814107008E+03  0.56178238716E+03  0.10566000000E+00 0.  1.
          4    1    3    3  501    0  0.45634329581E+03  0.11370506016E+03 -0.16600114550E+03  0.49873281890E+03  0.00000000000E+00 0.  1.
         13    1    4    4    0    0 -0.65771641317E+02  0.29407732414E+03 -0.34607562480E+03  0.45888531314E+03  0.10566000000E+00 0. -1.
         -4    1    4    4    0  502 -0.12045415678E+03 -0.13199833165E+03  0.57544835414E+03  0.60255586607E+03  0.00000000000E+00 0. -1.
<mgrwt>
<rscale>  2 0.10353955E+04</rscale>
<asrwt>0</asrwt>
<pdfrwt beam="1">  1       21 0.19949762E+00 0.10363617E+04</pdfrwt>
<pdfrwt beam="2">  1       21 0.12695721E+00 0.10363617E+04</pdfrwt>
<totfact> 0.29944054E+01</totfact>
</mgrwt>
</event>
<event>
 8    1  0.1168507E-005  0.1071527E+04  0.7818608E-02  0.8723782E-01
         21   -1    0    0  501  502  0.00000000000E+00  0.00000000000E+00  0.16715511524E+04  0.16715511524E+04  0.00000000000E+00 0.  1.
         21   -1    0    0  502  503 -0.00000000000E+00 -0.00000000000E+00 -0.99141490378E+03  0.99141490378E+03  0.00000000000E+00 0.  1.
   -9000010    2    1    2    0  503  0.19727942039E+03  0.35074913397E+03 -0.43656947843E+03  0.11570490790E+04  0.99308888679E+03 0.  0.
    9000010    2    1    2  501    0 -0.19727942039E+03 -0.35074913397E+03  0.11167057271E+04  0.15059169772E+04  0.92672009615E+03 0.  0.
        -13    1    4    4    0    0  0.16245306656E+03 -0.27725291124E+03  0.10915785559E+04  0.11378945164E+04  0.10566000000E+00 0.  1.
          4    1    4    4  501    0 -0.35973248695E+03 -0.73496222726E+02  0.25127171206E+02  0.36802246080E+03  0.00000000000E+00 0.  1.
         13    1    3    3    0    0 -0.14878600746E+03  0.60475105781E+03 -0.36495457247E+03  0.72183998855E+03  0.10566000000E+00 0. -1.
         -4    1    3    3    0  503  0.34606542785E+03 -0.25400192384E+03 -0.71614905962E+02  0.43520909046E+03  0.00000000000E+00 0. -1.
<mgrwt>
<rscale>  2 0.10558870E+04</rscale>
<asrwt>0</asrwt>
<pdfrwt beam="1">  1       21 0.25716172E+00 0.10715268E+04</pdfrwt>
<pdfrwt beam="2">  1       21 0.15252537E+00 0.10715268E+04</pdfrwt>
<totfact> 0.63758176E+00</totfact>
</mgrwt>
</event>
<event>
 8    1  0.1168507E-005  0.1158134E+04  0.7818608E-02  0.8639532E-01
         21   -1    0    0  503  502  0.00000000000E+00  0.00000000000E+00  0.96186943808E+03  0.96186943808E+03  0.00000000000E+00 0. -1.
         21   -1    0    0  501  503 -0.00000000000E+00 -0.00000000000E+00 -0.14843093959E+04  0.14843093959E+04  0.00000000000E+00 0. -1.
    9000010    2    1    2  501    0  0.57992823619E+03  0.10683428883E+03 -0.56942561685E+03  0.12870920783E+04  0.99228532215E+03 0.  0.
   -9000010    2    1    2    0  502 -0.57992823619E+03 -0.10683428883E+03  0.46985659013E+02  0.11590867557E+04  0.99676683865E+03 0.  0.
        -13    1    3    3    0    0  0.81467049070E+03 -0.50391564431E+02 -0.23517727066E+03  0.84943256235E+03  0.10566000000E+00 0.  1.
          4    1    3    3  501    0 -0.23474225451E+03  0.15722585326E+03 -0.33424834619E+03  0.43765951597E+03  0.00000000000E+00 0.  1.
         13    1    4    4    0    0 -0.41884460517E+03  0.29402278863E+03 -0.31030293676E+03  0.59847149242E+03  0.10566000000E+00 0. -1.
         -4    1    4    4    0  502 -0.16108363102E+03 -0.40085707746E+03  0.35728859577E+03  0.56061526326E+03  0.00000000000E+00 0. -1.
<mgrwt>
<rscale>  2 0.11571691E+04</rscale>
<asrwt>0</asrwt>
<pdfrwt beam="1">  1       21 0.14797991E+00 0.11581340E+04</pdfrwt>
<pdfrwt beam="2">  1       21 0.22835529E+00 0.11581340E+04</pdfrwt>
<totfact> 0.11169048E+01</totfact>
</mgrwt>
</event>
<event>
 8    1  0.1168507E-005  0.1373445E+04  0.7818608E-02  0.8486857E-01
         21   -1    0    0  503  502  0.00000000000E+00  0.00000000000E+00  0.16878145241E+04  0.16878145241E+04  0.00000000000E+00 0.  1.
         21   -1    0    0  501  503 -0.00000000000E+00 -0.00000000000E+00 -0.11163440442E+04  0.11163440442E+04  0.00000000000E+00 0.  1.
    9000010    2    1    2  501    0 -0.85106541421E+02  0.93390617863E+03  0.23193790733E+03  0.13928909500E+04  0.10034570901E+04 0.  0.
   -9000010    2    1    2    0  502  0.85106541421E+02 -0.93390617863E+03  0.33953257249E+03  0.14112676184E+04  0.99848387516E+03 0.  0.
        -13    1    3    3    0    0  0.25329228272E+03  0.91036343375E+03  0.38547631269E+03  0.10205442474E+04  0.10566000000E+00 0.  1.
          4    1    3    3  501    0 -0.33839882414E+03  0.23542744877E+02 -0.15353840536E+03  0.37234670260E+03  0.00000000000E+00 0.  1.
         13    1    4    4    0    0 -0.61672823675E+02 -0.32488199476E+03 -0.34873191782E+03  0.48058902335E+03  0.10566000000E+00 0. -1.
         -4    1    4    4    0  502  0.14677936510E+03 -0.60902418387E+03  0.68826449031E+03  0.93067859500E+03  0.00000000000E+00 0. -1.
<mgrwt>
<rscale>  2 0.13725364E+04</rscale>
<asrwt>0</asrwt>
<pdfrwt beam="1">  1       21 0.25966377E+00 0.13734446E+04</pdfrwt>
<pdfrwt beam="2">  1       21 0.17174524E+00 0.13734446E+04</pdfrwt>
<totfact> 0.39223662E+00</totfact>
</mgrwt>
</event>
<event>
 8    1  0.1168507E-005  0.1113531E+04  0.7818608E-02  0.8676764E-01
         21   -1    0    0  501  502  0.00000000000E+00  0.00000000000E+00  0.20726624753E+04  0.20726624753E+04  0.00000000000E+00 0.  1.
         21   -1    0    0  502  503 -0.00000000000E+00 -0.00000000000E+00 -0.77682804700E+03  0.77682804700E+03  0.00000000000E+00 0.  1.
   -9000010    2    1    2    0  503 -0.45090403304E+03 -0.19348118814E+03 -0.47652009056E+02  0.11045243488E+04  0.98840978641E+03 0.  0.
    9000010    2    1    2  501    0  0.45090403304E+03  0.19348118814E+03  0.13434864374E+04  0.17449661736E+04  0.99960078145E+03 0.  0.
        -13    1    4    4    0    0  0.63869692917E+03  0.39963350321E+03  0.64117283491E+03  0.98931457060E+03  0.10566000000E+00 0.  1.
          4    1    4    4  501    0 -0.18779289613E+03 -0.20615231507E+03  0.70231360246E+03  0.75565160296E+03  0.00000000000E+00 0.  1.
         13    1    3    3    0    0 -0.35662784364E+03 -0.58107136103E+03  0.78195408301E+02  0.68625205174E+03  0.10566000000E+00 0. -1.
         -4    1    3    3    0  503 -0.94276189395E+02  0.38759017289E+03 -0.12584741736E+03  0.41827229703E+03  0.00000000000E+00 0. -1.
<mgrwt>
<rscale>  2 0.11110137E+04</rscale>
<asrwt>0</asrwt>
<pdfrwt beam="1">  1       21 0.31887115E+00 0.11135309E+04</pdfrwt>
<pdfrwt beam="2">  1       21 0.11951201E+00 0.11135309E+04</pdfrwt>
<totfact> 0.47124868E+00</totfact>
</mgrwt>
</event>
<event>
 8    1  0.1168507E-005  0.1378673E+04  0.7818608E-02  0.8485236E-01
         21   -1    0    0  501  502  0.00000000000E+00  0.00000000000E+00  0.13273252099E+04  0.13273252099E+04  0.00000000000E+00 0. -1.
         21   -1    0    0  502  503 -0.00000000000E+00 -0.00000000000E+00 -0.15574380777E+04  0.15574380777E+04  0.00000000000E+00 0. -1.
   -9000010    2    1    2    0  503  0.88517742274E+03 -0.33461187654E+03 -0.54742318517E+03  0.14700463963E+04  0.98278180989E+03 0.  0.
    9000010    2    1    2  501    0 -0.88517742274E+03  0.33461187654E+03  0.31731031739E+03  0.14147168913E+04  0.10026135185E+04 0.  0.
        -13    1    4    4    0    0  0.64874883460E+02  0.39544290579E+03 -0.28780865228E+02  0.40176136153E+03  0.10566000000E+00 0.  1.
          4    1    4    4  501    0 -0.95005230620E+03 -0.60831029251E+02  0.34609118262E+03  0.10129555298E+04  0.00000000000E+00 0.  1.
         13    1    3    3    0    0  0.75706539155E+03 -0.66423746515E+03 -0.35817748552E+03  0.10689483334E+04  0.10566000000E+00 0. -1.
         -4    1    3    3    0  503  0.12811203119E+03  0.32962558860E+03 -0.18924569965E+03  0.40109806286E+03  0.00000000000E+00 0. -1.
<mgrwt>
<rscale>  2 0.13750699E+04</rscale>
<asrwt>0</asrwt>
<pdfrwt beam="1">  1       21 0.20420388E+00 0.13786726E+04</pdfrwt>
<pdfrwt beam="2">  1       21 0.23960586E+00 0.13786726E+04</pdfrwt>
<totfact> 0.30069712E+00</totfact>
</mgrwt>
</event>
<event>
 8    1  0.1168507E-005  0.1197715E+04  0.7818608E-02  0.8610889E-01
         21   -1    0    0  503  502  0.00000000000E+00  0.00000000000E+00  0.15735260241E+04  0.15735260241E+04  0.00000000000E+00 0.  1.
         21   -1    0    0  501  503 -0.00000000000E+00 -0.00000000000E+00 -0.94383125416E+03  0.94383125416E+03  0.00000000000E+00 0.  1.
    9000010    2    1    2  501    0 -0.62459740510E+03  0.11431705901E+03  0.45777037111E+02  0.11848856569E+04  0.99933386531E+03 0.  0.
   -9000010    2    1    2    0  502  0.62459740510E+03 -0.11431705901E+03  0.58391773286E+03  0.13324716214E+04  0.10155443834E+04 0.  0.
        -13    1    3    3    0    0 -0.71446468957E+03  0.22786209009E+03 -0.30178428031E+03  0.80836544195E+03  0.10566000000E+00 0.  1.
          4    1    3    3  501    0  0.89867284464E+02 -0.11354503108E+03  0.34756131742E+03  0.37652021495E+03  0.00000000000E+00 0.  1.
         13    1    4    4    0    0  0.32394940558E+03  0.45816001095E+02 -0.26289886239E+03  0.41971198022E+03  0.10566000000E+00 0. -1.
         -4    1    4    4    0  502  0.30064799952E+03 -0.16013306010E+03  0.84681659525E+03  0.91275964117E+03  0.00000000000E+00 0. -1.
<mgrwt>
<rscale>  2 0.11942715E+04</rscale>
<asrwt>0</asrwt>
<pdfrwt beam="1">  1       21 0.24208093E+00 0.11977148E+04</pdfrwt>
<pdfrwt beam="2">  1       21 0.14520481E+00 0.11977148E+04</pdfrwt>
<totfact> 0.92895487E+00</totfact>
</mgrwt>
</event>
<event>
 8    1  0.1168507E-005  0.1196519E+04  0.7818608E-02  0.8610990E-01
         21   -1    0    0  501  502  0.00000000000E+00  0.00000000000E+00  0.19137687155E+04  0.19137687155E+04  0.00000000000E+00 0. -1.
         21   -1    0    0  502  503 -0.00000000000E+00 -0.00000000000E+00 -0.87812093593E+03  0.87812093593E+03  0.00000000000E+00 0. -1.
   -9000010    2    1    2    0  503 -0.62247810498E+03 -0.22166388434E+03 -0.29722445275E+02  0.11968885091E+04  0.99751932852E+03 0.  0.
    9000010    2    1    2  501    0  0.62247810498E+03  0.22166388434E+03  0.10653702248E+04  0.15950011423E+04  0.98610397986E+03 0.  0.
        -13    1    4    4    0    0  0.18427716923E+03  0.51282656164E+03  0.88407507762E+03  0.10385267986E+04  0.10566000000E+00 0.  1.
          4    1    4    4  501    0  0.43820093575E+03 -0.29116267730E+03  0.18129514721E+03  0.55647434365E+03  0.00000000000E+00 0.  1.
         13    1    3    3    0    0 -0.21768788604E+03  0.24612206836E+03 -0.36676197589E+03  0.49242100522E+03  0.10566000000E+00 0. -1.
         -4    1    3    3    0  503 -0.40479021894E+03 -0.46778595270E+03  0.33703953061E+03  0.70446750392E+03  0.00000000000E+00 0. -1.
<mgrwt>
<rscale>  2 0.11941373E+04</rscale>
<asrwt>0</asrwt>
<pdfrwt beam="1">  1       21 0.29442595E+00 0.11965194E+04</pdfrwt>
<pdfrwt beam="2">  1       21 0.13509553E+00 0.11965194E+04</pdfrwt>
<totfact> 0.48452799E+00</totfact>
</mgrwt>
</event>
<event>
 8    1  0.1168507E-005  0.1192686E+04  0.7818608E-02  0.8612226E-01
         21   -1    0    0  501  502  0.00000000000E+00  0.00000000000E+00  0.10178449663E+04  0.10178449663E+04  0.00000000000E+00 0.  1.
         21   -1    0    0  502  503 -0.00000000000E+00 -0.00000000000E+00 -0.16163491003E+04  0.16163491003E+04  0.00000000000E+00 0.  1.
   -9000010    2    1    2    0  503  0.29105126939E+03  0.56950381794E+03  0.18617045128E+03  0.12071283124E+04  0.10067044678E+04 0.  0.
    9000010    2    1    2  501    0 -0.29105126939E+03 -0.56950381794E+03 -0.78467458524E+03  0.14270657542E+04  0.10058613333E+04 0.  0.
        -13    1    4    4    0    0 -0.35703379495E+03  0.20489181360E+03 -0.22318546056E+03  0.46825799190E+03  0.10566000000E+00 0.  1.
          4    1    4    4  501    0  0.65982525553E+02 -0.77439563154E+03 -0.56148912468E+03  0.95880776226E+03  0.00000000000E+00 0.  1.
         13    1    3    3    0    0  0.16147711500E+03  0.50255376755E+03  0.58173895778E+03  0.78552872265E+03  0.10566000000E+00 0. -1.
         -4    1    3    3    0  503  0.12957415439E+03  0.66950050398E+02 -0.39556850650E+03  0.42159958974E+03  0.00000000000E+00 0. -1.
<mgrwt>
<rscale>  2 0.11925078E+04</rscale>
<asrwt>0</asrwt>
<pdfrwt beam="1">  1       21 0.15659153E+00 0.11926858E+04</pdfrwt>
<pdfrwt beam="2">  1       21 0.24866909E+00 0.11926858E+04</pdfrwt>
<totfact> 0.65867866E+00</totfact>
</mgrwt>
</event>
<event>
 8    1  0.1168507E-005  0.1245711E+04  0.7818608E-02  0.8576424E-01
         21   -1    0    0  503  502  0.00000000000E+00  0.00000000000E+00  0.15807289330E+04  0.15807289330E+04  0.00000000000E+00 0.  1.
         21   -1    0    0  501  503 -0.00000000000E+00 -0.00000000000E+00 -0.15865427074E+04  0.15865427074E+04  0.00000000000E+00 0. -1.
    9000010    2    1    2  501    0 -0.28908963166E+03  0.68539020779E+03 -0.99290735186E+03  0.15930034180E+04  0.99923086838E+03 0.  0.
   -9000010    2    1    2    0  502  0.28908963166E+03 -0.68539020779E+03  0.98709357740E+03  0.15742682224E+04  0.97500469411E+03 0.  0.
        -13    1    3    3    0    0 -0.37014900741E+03  0.81672821785E+03 -0.10894075537E+04  0.14109798364E+04  0.10566000000E+00 0.  1.
          4    1    3    3  501    0  0.81059375751E+02 -0.13133801006E+03  0.96500201878E+02  0.18202358157E+03  0.00000000000E+00 0.  1.
         13    1    4    4    0    0  0.55997622082E+03 -0.20112579064E+03  0.78216651450E+03  0.98275603235E+03  0.10566000000E+00 0. -1.
         -4    1    4    4    0  502 -0.27088658916E+03 -0.48426441715E+03  0.20492706290E+03  0.59151219008E+03  0.00000000000E+00 0. -1.
<mgrwt>
<rscale>  2 0.12408453E+04</rscale>
<asrwt>0</asrwt>
<pdfrwt beam="1">  1       21 0.24318907E+00 0.12457106E+04</pdfrwt>
<pdfrwt beam="2">  1       21 0.24408349E+00 0.12457106E+04</pdfrwt>
<totfact> 0.14564641E+00</totfact>
</mgrwt>
</event>
<event>
 8    1  0.1168507E-005  0.1052227E+04  0.7818608E-02  0.8731912E-01
         21   -1    0    0  501  502  0.00000000000E+00  0.00000000000E+00  0.17172909836E+04  0.17172909836E+04  0.00000000000E+00 0. -1.
         21   -1    0    0  502  503 -0.00000000000E+00 -0.00000000000E+00 -0.63237166576E+03  0.63237166576E+03  0.00000000000E+00 0. -1.
   -9000010    2    1    2    0  503 -0.15140235652E+02  0.28081324976E+03  0.59550142352E+03  0.12090510213E+04  0.10139512408E+04 0.  0.
    9000010    2    1    2  501    0  0.15140235652E+02 -0.28081324976E+03  0.48941789427E+03  0.11406116280E+04  0.99115069629E+03 0.  0.
        -13    1    4    4    0    0 -0.25016784973E+03  0.29536528814E+03  0.25900345536E+03  0.46573319350E+03  0.10566000000E+00 0.  1.
          4    1    4    4  501    0  0.26530808539E+03 -0.57617853791E+03  0.23041443892E+03  0.67487843452E+03  0.00000000000E+00 0.  1.
         13    1    3    3    0    0  0.24901127343E+03  0.13849386952E+03 -0.20706713649E+03  0.35222716586E+03  0.10566000000E+00 0. -1.
         -4    1    3    3    0  503 -0.26415150908E+03  0.14231938024E+03  0.80256856001E+03  0.85682385545E+03  0.00000000000E+00 0. -1.
<mgrwt>
<rscale>  2 0.10466956E+04</rscale>
<asrwt>0</asrwt>
<pdfrwt beam="1">  1       21 0.26419861E+00 0.10522274E+04</pdfrwt>
<pdfrwt beam="2">  1       21 0.97287949E-01 0.10522274E+04</pdfrwt>
<totfact> 0.20311596E+01</totfact>
</mgrwt>
</event>
<event>
 8    1  0.1168507E-005  0.1107885E+04  0.7818608E-02  0.8680625E-01
         21   -1    0    0  503  502  0.00000000000E+00  0.00000000000E+00  0.53270103788E+03  0.53270103788E+03  0.00000000000E+00 0.  1.
         21   -1    0    0  501  503 -0.00000000000E+00 -0.00000000000E+00 -0.22970365306E+04  0.22970365306E+04  0.00000000000E+00 0.  1.
    9000010    2    1    2  501    0 -0.30410342807E+03 -0.29733570085E+03 -0.81480043542E+03  0.13752487073E+04  0.10229965021E+04 0.  0.
   -9000010    2    1    2    0  502  0.30410342807E+03  0.29733570085E+03 -0.94953505727E+03  0.14544888612E+04  0.10163826093E+04 0.  0.
        -13    1    3    3    0    0  0.15556196563E+03 -0.21601298420E+03 -0.86567688308E+03  0.90568074483E+03  0.10566000000E+00 0.  1.
          4    1    3    3  501    0 -0.45966539370E+03 -0.81322716654E+02  0.50876447661E+02  0.46956796242E+03  0.00000000000E+00 0.  1.
         13    1    4    4    0    0  0.43743569854E+03  0.33584122900E+03 -0.11117438538E+04  0.12410131865E+04  0.10566000000E+00 0. -1.
         -4    1    4    4    0  502 -0.13333227047E+03 -0.38505528146E+02  0.16220879649E+03  0.21347567474E+03  0.00000000000E+00 0. -1.
<mgrwt>
<rscale>  2 0.11063558E+04</rscale>
<asrwt>0</asrwt>
<pdfrwt beam="1">  1       21 0.81954005E-01 0.11078850E+04</pdfrwt>
<pdfrwt beam="2">  1       21 0.35339024E+00 0.11078850E+04</pdfrwt>
<totfact> 0.72732829E+00</totfact>
</mgrwt>
</event>
<event>
 8    1  0.1168507E-005  0.1030770E+04  0.7818608E-02  0.8747001E-01
         21   -1    0    0  501  502  0.00000000000E+00  0.00000000000E+00  0.99761038751E+03  0.99761038751E+03  0.00000000000E+00 0.  1.
         21   -1    0    0  502  503 -0.00000000000E+00 -0.00000000000E+00 -0.10627897184E+04  0.10627897184E+04  0.00000000000E+00 0.  1.
   -9000010    2    1    2    0  503  0.21138583047E+03 -0.99744223910E+02 -0.69693242361E+02  0.10331237264E+04  0.10039196215E+04 0.  0.
    9000010    2    1    2  501    0 -0.21138583047E+03  0.99744223910E+02  0.45139114480E+01  0.10272763795E+04  0.10003217008E+04 0.  0.
        -13    1    4    4    0    0 -0.34313834679E+03 -0.19359006663E+02  0.43921082362E+03  0.55769602377E+03  0.10566000000E+00 0.  1.
          4    1    4    4  501    0  0.13175251632E+03  0.11910323057E+03 -0.43469691217E+03  0.46958035578E+03  0.00000000000E+00 0.  1.
         13    1    3    3    0    0  0.55591614079E+03 -0.43478270312E+02 -0.28166375977E+03  0.62471401482E+03  0.10566000000E+00 0. -1.
         -4    1    3    3    0  503 -0.34453031031E+03 -0.56265953598E+02  0.21197051740E+03  0.40840971157E+03  0.00000000000E+00 0. -1.
<mgrwt>
<rscale>  2 0.10298932E+04</rscale>
<asrwt>0</asrwt>
<pdfrwt beam="1">  1       21 0.15347852E+00 0.10307703E+04</pdfrwt>
<pdfrwt beam="2">  1       21 0.16350611E+00 0.10307703E+04</pdfrwt>
<totfact> 0.33452000E+01</totfact>
</mgrwt>
</event>
<event>
 8    1  0.1168507E-005  0.1092259E+04  0.7818608E-02  0.8693705E-01
         21   -1    0    0  503  502  0.00000000000E+00  0.00000000000E+00  0.10736462875E+04  0.10736462875E+04  0.00000000000E+00 0.  1.
         21   -1    0    0  501  503 -0.00000000000E+00 -0.00000000000E+00 -0.11071781883E+04  0.11071781883E+04  0.00000000000E+00 0.  1.
    9000010    2    1    2  501    0  0.44137177728E+03  0.51235750294E+02  0.30513687707E+02  0.10926852194E+04  0.99779544776E+03 0.  0.
   -9000010    2    1    2    0  502 -0.44137177728E+03 -0.51235750294E+02 -0.64045588497E+02  0.10881392564E+04  0.99121695711E+03 0.  0.
        -13    1    3    3    0    0  0.29988828807E+03 -0.24059295420E+03 -0.39925571757E+03  0.55427709145E+03  0.10566000000E+00 0.  1.
          4    1    3    3  501    0  0.14148348921E+03  0.29182870449E+03  0.42976940527E+03  0.53840812790E+03  0.00000000000E+00 0.  1.
         13    1    4    4    0    0 -0.75816201656E+03  0.16890074255E+02 -0.86838727194E+02  0.76330589783E+03  0.10566000000E+00 0. -1.
         -4    1    4    4    0  502  0.31679023928E+03 -0.68125824549E+02  0.22793138697E+02  0.32483335858E+03  0.00000000000E+00 0. -1.
<mgrwt>
<rscale>  2 0.10907544E+04</rscale>
<asrwt>0</asrwt>
<pdfrwt beam="1">  1       21 0.16517635E+00 0.10922591E+04</pdfrwt>
<pdfrwt beam="2">  1       21 0.17033510E+00 0.10922591E+04</pdfrwt>
<totfact> 0.22888935E+01</totfact>
</mgrwt>
</event>
<event>
 8    1  0.1168507E-005  0.1389041E+04  0.7818608E-02  0.8479196E-01
         21   -1    0    0  503  502  0.00000000000E+00  0.00000000000E+00  0.12873793914E+04  0.12873793914E+04  0.00000000000E+00 0.  1.
         21   -1    0    0  501  503 -0.00000000000E+00 -0.00000000000E+00 -0.15200548223E+04  0.15200548223E+04  0.00000000000E+00 0.  1.
    9000010    2    1    2  501    0 -0.26026437984E+03  0.92594781850E+03 -0.34470316792E+03  0.14138833837E+04  0.97730703408E+03 0.  0.
   -9000010    2    1    2    0  502  0.26026437984E+03 -0.92594781850E+03  0.11202773703E+03  0.13935508300E+04  0.10021560716E+04 0.  0.
        -13    1    3    3    0    0  0.74025697322E+02  0.45699139421E+03  0.29825957903E+03  0.55070838553E+03  0.10566000000E+00 0.  1.
          4    1    3    3  501    0 -0.33429007716E+03  0.46895642428E+03 -0.64296274695E+03  0.86317499821E+03  0.00000000000E+00 0.  1.
         13    1    4    4    0    0 -0.82787139153E+02  0.64645798612E+02 -0.26060732448E+03  0.28097860848E+03  0.10566000000E+00 0. -1.
         -4    1    4    4    0  502  0.34305151899E+03 -0.99059361711E+03  0.37263506151E+03  0.11125722215E+04  0.00000000000E+00 0. -1.
<mgrwt>
<rscale>  2 0.13845640E+04</rscale>
<asrwt>0</asrwt>
<pdfrwt beam="1">  1       21 0.19805837E+00 0.13890406E+04</pdfrwt>
<pdfrwt beam="2">  1       21 0.23385459E+00 0.13890406E+04</pdfrwt>
<totfact> 0.36976731E+00</totfact>
</mgrwt>
</event>
<event>
 8    1  0.1168507E-005  0.1134807E+04  0.7818608E-02  0.8661455E-01
         21   -1    0    0  501  502  0.00000000000E+00  0.00000000000E+00  0.11005848541E+04  0.11005848541E+04  0.00000000000E+00 0.  1.
         21   -1    0    0  502  503 -0.00000000000E+00 -0.00000000000E+00 -0.11514982088E+04  0.11514982088E+04  0.00000000000E+00 0. -1.
   -9000010    2    1    2    0  503 -0.23193390577E+03  0.48453801515E+03 -0.74551494884E+02  0.11372534159E+04  0.99960841420E+03 0.  0.
    9000010    2    1    2  501    0  0.23193390577E+03 -0.48453801515E+03  0.23638140229E+02  0.11148296471E+04  0.97658381901E+03 0.  0.
        -13    1    4    4    0    0  0.19660249598E+03  0.28381124171E+03  0.16122971223E+02  0.34563177474E+03  0.10566000000E+00 0.  1.
          4    1    4    4  501    0  0.35331409783E+02 -0.76834925685E+03  0.75151690060E+01  0.76919787233E+03  0.00000000000E+00 0.  1.
         13    1    3    3    0    0 -0.12995945880E+03 -0.30837663873E+03 -0.40488394335E+02  0.33708297715E+03  0.10566000000E+00 0. -1.
         -4    1    3    3    0  503 -0.10197444697E+03  0.79291465387E+03 -0.34063100549E+02  0.80017043871E+03  0.00000000000E+00 0. -1.
<mgrwt>
<rscale>  2 0.11297160E+04</rscale>
<asrwt>0</asrwt>
<pdfrwt beam="1">  1       21 0.16932075E+00 0.11348072E+04</pdfrwt>
<pdfrwt beam="2">  1       21 0.17715357E+00 0.11348072E+04</pdfrwt>
<totfact> 0.18365893E+01</totfact>
</mgrwt>
</event>
<event>
 8    1  0.1168507E-005  0.1131676E+04  0.7818608E-02  0.8664836E-01
         21   -1    0    0  501  502  0.00000000000E+00  0.00000000000E+00  0.12470611652E+04  0.12470611652E+04  0.00000000000E+00 0. -1.
         21   -1    0    0  502  503 -0.00000000000E+00 -0.00000000000E+00 -0.11907637350E+04  0.11907637350E+04  0.00000000000E+00 0. -1.
   -9000010    2    1    2    0  503 -0.36079918829E+03  0.31121420480E+03 -0.45347633035E+03  0.11966318033E+04  0.99962820833E+03 0.  0.
    9000010    2    1    2  501    0  0.36079918829E+03 -0.31121420480E+03  0.50977376052E+03  0.12411930969E+04  0.10264797520E+04 0.  0.
        -13    1    4    4    0    0 -0.28037651813E+02  0.25299822279E+03 -0.14540368221E+03  0.29314919857E+03  0.10566000000E+00 0.  1.
          4    1    4    4  501    0  0.38883684010E+03 -0.56421242760E+03  0.65517744272E+03  0.94804389831E+03  0.00000000000E+00 0.  1.
         13    1    3    3    0    0 -0.57157925743E+03  0.33172133343E+03 -0.63589891041E+03  0.91712012627E+03  0.10566000000E+00 0. -1.
         -4    1    3    3    0  503  0.21078006914E+03 -0.20507128630E+02  0.18242258006E+03  0.27951167701E+03  0.00000000000E+00 0. -1.
<mgrwt>
<rscale>  2 0.11255522E+04</rscale>
<asrwt>0</asrwt>
<pdfrwt beam="1">  1       21 0.19185556E+00 0.11316762E+04</pdfrwt>
<pdfrwt beam="2">  1       21 0.18319442E+00 0.11316762E+04</pdfrwt>
<totfact> 0.10736522E+01</totfact>
</mgrwt>
</event>
<event>
 8    1  0.1168507E-005  0.1162554E+04  0.7818608E-02  0.8637694E-01
         21   -1    0    0  501  502  0.00000000000E+00  0.00000000000E+00  0.17544382592E+04  0.17544382592E+04  0.00000000000E+00 0. -1.
         21   -1    0    0  502  503 -0.00000000000E+00 -0.00000000000E+00 -0.10678242220E+04  0.10678242220E+04  0.00000000000E+00 0. -1.
   -9000010    2    1    2    0  503  0.18353196394E+03  0.53554336664E+03 -0.41017855110E+03  0.12327932185E+04  0.10154023816E+04 0.  0.
    9000010    2    1    2  501    0 -0.18353196394E+03 -0.53554336664E+03  0.10967925882E+04  0.15894692627E+04  0.10014828386E+04 0.  0.
        -13    1    4    4    0    0 -0.49166589683E+03 -0.54475515361E+03  0.10449379732E+04  0.12768668335E+04  0.10566000000E+00 0.  1.
          4    1    4    4  501    0  0.30813393290E+03  0.92117869697E+01  0.51854615008E+02  0.31260242917E+03  0.00000000000E+00 0.  1.
         13    1    3    3    0    0  0.59851984474E+03  0.24042189896E+03 -0.15573971508E+03  0.66353866810E+03  0.10566000000E+00 0. -1.
         -4    1    3    3    0  503 -0.41498788081E+03  0.29512146768E+03 -0.25443883602E+03  0.56925455042E+03  0.00000000000E+00 0. -1.
<mgrwt>
<rscale>  2 0.11595080E+04</rscale>
<asrwt>0</asrwt>
<pdfrwt beam="1">  1       21 0.26991358E+00 0.11625544E+04</pdfrwt>
<pdfrwt beam="2">  1       21 0.16428065E+00 0.11625544E+04</pdfrwt>
<totfact> 0.39945932E+00</totfact>
</mgrwt>
</event>
<event>
 8    1  0.1168507E-005  0.1080906E+04  0.7818608E-02  0.8702202E-01
         21   -1    0    0  503  502  0.00000000000E+00  0.00000000000E+00  0.61416033936E+03  0.61416033936E+03  0.00000000000E+00 0. -1.
         21   -1    0    0  501  503 -0.00000000000E+00 -0.00000000000E+00 -0.21635460208E+04  0.21635460208E+04  0.00000000000E+00 0. -1.
    9000010    2    1    2  501    0  0.23342783531E+03  0.34022229931E+03 -0.29139907459E+03  0.11194959336E+04  0.99905853556E+03 0.  0.
   -9000010    2    1    2    0  502 -0.23342783531E+03 -0.34022229931E+03 -0.12579866068E+04  0.16582104265E+04  0.99844466467E+03 0.  0.
        -13    1    3    3    0    0  0.42569520165E+03  0.33122668117E+03  0.21277650515E+03  0.57982874311E+03  0.10566000000E+00 0.  1.
          4    1    3    3  501    0 -0.19226736634E+03  0.89956181435E+01 -0.50417557974E+03  0.53966719051E+03  0.00000000000E+00 0.  1.
         13    1    4    4    0    0  0.34680469568E+03  0.76550397719E+02 -0.31171216425E+03  0.47254411946E+03  0.10566000000E+00 0. -1.
         -4    1    4    4    0  502 -0.58023253098E+03 -0.41677269703E+03 -0.94627444260E+03  0.11856663071E+04  0.00000000000E+00 0. -1.
<mgrwt>
<rscale>  2 0.10807641E+04</rscale>
<asrwt>0</asrwt>
<pdfrwt beam="1">  1       21 0.94486206E-01 0.10809060E+04</pdfrwt>
<pdfrwt beam="2">  1       21 0.33285323E+00 0.10809060E+04</pdfrwt>
<totfact> 0.71007836E+00</totfact>
</mgrwt>
</event>
<event>
 8    1  0.1168507E-005  0.1068503E+04  0.7818608E-02  0.8717763E-01
         21   -1    0    0  503  502  0.00000000000E+00  0.00000000000E+00  0.91399632131E+03  0.91399632131E+03  0.00000000000E+00 0. -1.
         21   -1    0    0  501  503 -0.00000000000E+00 -0.00000000000E+00 -0.12231232231E+04  0.12231232231E+04  0.00000000000E+00 0. -1.
    9000010    2    1    2  501    0 -0.36752775224E+03 -0.84822667417E+02 -0.13094465980E+03  0.10538621375E+04  0.97529860415E+03 0.  0.
   -9000010    2    1    2    0  502  0.36752775224E+03  0.84822667417E+02 -0.17818224198E+03  0.10832574069E+04  0.99971304122E+03 0.  0.
        -13    1    3    3    0    0  0.15038798689E+03 -0.22950432407E+03 -0.37390176465E+03  0.46377938952E+03  0.10566000000E+00 0.  1.
          4    1    3    3  501    0 -0.51791573913E+03  0.14468165665E+03  0.24295710485E+03  0.59008274793E+03  0.00000000000E+00 0.  1.
         13    1    4    4    0    0  0.61320354576E+03 -0.22054311650E+03  0.25635066662E+01  0.65166282501E+03  0.10566000000E+00 0. -1.
         -4    1    4    4    0  502 -0.24567579352E+03  0.30536578392E+03 -0.18074574865E+03  0.43159458194E+03  0.00000000000E+00 0. -1.
<mgrwt>
<rscale>  2 0.10627546E+04</rscale>
<asrwt>0</asrwt>
<pdfrwt beam="1">  1       21 0.14061482E+00 0.10685025E+04</pdfrwt>
<pdfrwt beam="2">  1       21 0.18817280E+00 0.10685025E+04</pdfrwt>
<totfact> 0.27106249E+01</totfact>
</mgrwt>
</event>
<event>
 8    1  0.1168507E-005  0.1142091E+04  0.7818608E-02  0.8654073E-01
         21   -1    0    0  501  502  0.00000000000E+00  0.00000000000E+00  0.87620874381E+03  0.87620874381E+03  0.00000000000E+00 0.  1.
         21   -1    0    0  502  503 -0.00000000000E+00 -0.00000000000E+00 -0.21559672564E+04  0.21559672564E+04  0.00000000000E+00 0.  1.
   -9000010    2    1    2    0  503 -0.17146532048E+03  0.49322043789E+03 -0.14913428844E+04  0.18706512570E+04  0.10012820632E+04 0.  0.
    9000010    2    1    2  501    0  0.17146532048E+03 -0.49322043789E+03  0.21158437181E+03  0.11615247432E+04  0.10157288153E+04 0.  0.
        -13    1    4    4    0    0  0.61028563799E+02 -0.78580379654E+03  0.28877642302E+03  0.83940688936E+03  0.10566000000E+00 0.  1.
          4    1    4    4  501    0  0.11043675668E+03  0.29258335864E+03 -0.77192051212E+02  0.32211785382E+03  0.00000000000E+00 0.  1.
         13    1    3    3    0    0  0.25532611479E+03 -0.14488399291E+03 -0.74162638436E+03  0.79761676352E+03  0.10566000000E+00 0. -1.
         -4    1    3    3    0  503 -0.42679143527E+03  0.63810443081E+03 -0.74971650004E+03  0.10730344935E+04  0.00000000000E+00 0. -1.
<mgrwt>
<rscale>  2 0.11388701E+04</rscale>
<asrwt>0</asrwt>
<pdfrwt beam="1">  1       21 0.13480135E+00 0.11420910E+04</pdfrwt>
<pdfrwt beam="2">  1       21 0.33168727E+00 0.11420910E+04</pdfrwt>
<totfact> 0.26947344E+00</totfact>
</mgrwt>
</event>
<event>
 8    1  0.1168507E-005  0.1190785E+04  0.7818608E-02  0.8617403E-01
         21   -1    0    0  503  502  0.00000000000E+00  0.00000000000E+00  0.12040698347E+04  0.12040698347E+04  0.00000000000E+00 0. -1.
         21   -1    0    0  501  503 -0.00000000000E+00 -0.00000000000E+00 -0.12675315105E+04  0.12675315105E+04  0.00000000000E+00 0. -1.
    9000010    2    1    2  501    0 -0.10175065439E+03 -0.63119228123E+03 -0.39511765056E+03  0.12354929863E+04  0.98059577298E+03 0.  0.
   -9000010    2    1    2    0  502  0.10175065439E+03  0.63119228123E+03  0.33165597472E+03  0.12361083589E+04  0.10045950914E+04 0.  0.
        -13    1    3    3    0    0  0.70578708259E+02 -0.86830623297E+03 -0.23885652422E+03  0.90332138168E+03  0.10566000000E+00 0.  1.
          4    1    3    3  501    0 -0.17232936264E+03  0.23711395174E+03 -0.15626112635E+03  0.33217160467E+03  0.00000000000E+00 0.  1.
         13    1    4    4    0    0  0.23175481927E+02  0.31683338981E+03 -0.35527257693E+03  0.47659114023E+03  0.10566000000E+00 0. -1.
         -4    1    4    4    0  502  0.78575172458E+02  0.31435889142E+03  0.68692855164E+03  0.75951721864E+03  0.00000000000E+00 0. -1.
<mgrwt>
<rscale>  2 0.11857084E+04</rscale>
<asrwt>0</asrwt>
<pdfrwt beam="1">  1       21 0.18524151E+00 0.11907847E+04</pdfrwt>
<pdfrwt beam="2">  1       21 0.19500485E+00 0.11907847E+04</pdfrwt>
<totfact> 0.96352096E+00</totfact>
</mgrwt>
</event>
<event>
 8    1  0.1168507E-005  0.1099085E+04  0.7818608E-02  0.8718351E-01
         21   -1    0    0  503  502  0.00000000000E+00  0.00000000000E+00  0.11551488999E+04  0.11551488999E+04  0.00000000000E+00 0.  1.
         21   -1    0    0  501  503 -0.00000000000E+00 -0.00000000000E+00 -0.93245495828E+03  0.93245495828E+03  0.00000000000E+00 0.  1.
    9000010    2    1    2  501    0  0.18579768904E+03  0.41347680158E+03 -0.18893674076E+02  0.10992475915E+04  0.10012514419E+04 0.  0.
   -9000010    2    1    2    0  502 -0.18579768904E+03 -0.41347680158E+03  0.24158761566E+03  0.98835626664E+03  0.84439308800E+03 0.  0.
        -13    1    3    3    0    0  0.26657049721E+03  0.26728291833E+03 -0.47893844079E+03  0.60982130960E+03  0.10566000000E+00 0.  1.
          4    1    3    3  501    0 -0.80772808167E+02  0.14619388325E+03  0.46004476672E+03  0.48942628191E+03  0.00000000000E+00 0.  1.
         13    1    4    4    0    0 -0.42283052687E+03 -0.54159051923E+03  0.20085481734E+03  0.71585516257E+03  0.10566000000E+00 0. -1.
         -4    1    4    4    0  502  0.23703283782E+03  0.12811371766E+03  0.40732798325E+02  0.27250110407E+03  0.00000000000E+00 0. -1.
<mgrwt>
<rscale>  2 0.10620805E+04</rscale>
<asrwt>0</asrwt>
<pdfrwt beam="1">  1       21 0.17771521E+00 0.10990852E+04</pdfrwt>
<pdfrwt beam="2">  1       21 0.14345461E+00 0.10990852E+04</pdfrwt>
<totfact> 0.30832784E+01</totfact>
</mgrwt>
</event>
<event>
 8    1  0.1168507E-005  0.1313673E+04  0.7818608E-02  0.8526302E-01
         21   -1    0    0  501  502  0.00000000000E+00  0.00000000000E+00  0.24885931617E+04  0.24885931617E+04  0.00000000000E+00 0. -1.
         21   -1    0    0  502  503 -0.00000000000E+00 -0.00000000000E+00 -0.71275515676E+03  0.71275515676E+03  0.00000000000E+00 0. -1.
   -9000010    2    1    2    0  503 -0.30567704014E+03  0.79200184218E+03  0.60756414495E+03  0.14433377927E+04  0.99668672243E+03 0.  0.
    9000010    2    1    2  501    0  0.30567704014E+03 -0.79200184218E+03  0.11682738600E+04  0.17580105257E+04  0.10025127560E+04 0.  0.
        -13    1    4    4    0    0  0.23724649089E+03  0.18700584353E+03  0.44938317741E+03  0.54148161027E+03  0.10566000000E+00 0.  1.
          4    1    4    4  501    0  0.68430549246E+02 -0.97900768571E+03  0.71889068254E+03  0.12165289155E+04  0.00000000000E+00 0.  1.
         13    1    3    3    0    0 -0.12661292416E+03 -0.22867791112E+03  0.48396034015E+02  0.26583191469E+03  0.10566000000E+00 0. -1.
         -4    1    3    3    0  503 -0.17906411597E+03  0.10206797533E+04  0.55916811093E+03  0.11775058780E+04  0.00000000000E+00 0. -1.
<mgrwt>
<rscale>  2 0.13125616E+04</rscale>
<asrwt>0</asrwt>
<pdfrwt beam="1">  1       21 0.38286048E+00 0.13136732E+04</pdfrwt>
<pdfrwt beam="2">  1       21 0.10965464E+00 0.13136732E+04</pdfrwt>
<totfact> 0.20392889E+00</totfact>
</mgrwt>
</event>
<event>
 8    1  0.1168507E-005  0.1318441E+04  0.7818608E-02  0.8523621E-01
         21   -1    0    0  501  502  0.00000000000E+00  0.00000000000E+00  0.78602940807E+03  0.78602940807E+03  0.00000000000E+00 0. -1.
         21   -1    0    0  502  503 -0.00000000000E+00 -0.00000000000E+00 -0.27380656201E+04  0.27380656201E+04  0.00000000000E+00 0. -1.
   -9000010    2    1    2    0  503  0.54247182216E+03 -0.67034219986E+03 -0.17602993828E+04  0.21993043003E+04  0.99732198696E+03 0.  0.
    9000010    2    1    2  501    0 -0.54247182216E+03  0.67034219986E+03 -0.19173682929E+03  0.13247907279E+04  0.98725534602E+03 0.  0.
        -13    1    4    4    0    0 -0.42276721971E+03  0.92893745276E+03 -0.10034775126E+03  0.10255372229E+04  0.10566000000E+00 0.  1.
          4    1    4    4  501    0 -0.11970460245E+03 -0.25859525290E+03 -0.91389078030E+02  0.29925350500E+03  0.00000000000E+00 0.  1.
         13    1    3    3    0    0  0.18988964266E+03  0.20040713692E+03 -0.84001931183E+03  0.88422483133E+03  0.10566000000E+00 0. -1.
         -4    1    3    3    0  503  0.35258217949E+03 -0.87074933678E+03 -0.92028007095E+03  0.13150794690E+04  0.00000000000E+00 0. -1.
<mgrwt>
<rscale>  2 0.13165369E+04</rscale>
<asrwt>0</asrwt>
<pdfrwt beam="1">  1       21 0.12092760E+00 0.13184406E+04</pdfrwt>
<pdfrwt beam="2">  1       21 0.42124086E+00 0.13184406E+04</pdfrwt>
<totfact> 0.84168054E-01</totfact>
</mgrwt>
</event>
<event>
 8    1  0.1168507E-005  0.1406232E+04  0.7818608E-02  0.8470191E-01
         21   -1    0    0  503  502  0.00000000000E+00  0.00000000000E+00  0.89069046866E+03  0.89069046866E+03  0.00000000000E+00 0.  1.
         21   -1    0    0  501  503 -0.00000000000E+00 -0.00000000000E+00 -0.26967747261E+04  0.26967747261E+04  0.00000000000E+00 0.  1.
    9000010    2    1    2  501    0 -0.94407133610E+03 -0.12831819806E+03 -0.16849289149E+04  0.21760239421E+04  0.99416221046E+03 0.  0.
   -9000010    2    1    2    0  502  0.94407133610E+03  0.12831819806E+03 -0.12115534246E+03  0.14114412526E+04  0.10342879410E+04 0.  0.
        -13    1    3    3    0    0 -0.76800760467E+03 -0.52425336746E+03 -0.12864925441E+04  0.15873690029E+04  0.10566000000E+00 0.  1.
          4    1    3    3  501    0 -0.17606373143E+03  0.39593516939E+03 -0.39843637080E+03  0.58865493922E+03  0.00000000000E+00 0.  1.
         13    1    4    4    0    0  0.11071308000E+04  0.27387937618E+03 -0.23579598431E+03  0.11646236638E+04  0.10566000000E+00 0. -1.
         -4    1    4    4    0  502 -0.16305946390E+03 -0.14556117812E+03  0.11464064186E+03  0.24681758874E+03  0.00000000000E+00 0. -1.
<mgrwt>
<rscale>  2 0.13988630E+04</rscale>
<asrwt>0</asrwt>
<pdfrwt beam="1">  1       21 0.13702930E+00 0.14062318E+04</pdfrwt>
<pdfrwt beam="2">  1       21 0.41488841E+00 0.14062318E+04</pdfrwt>
<totfact> 0.63816677E-01</totfact>
</mgrwt>
</event>
<event>
 8    1  0.1168507E-005  0.1062547E+04  0.7818608E-02  0.8721291E-01
         21   -1    0    0  501  502  0.00000000000E+00  0.00000000000E+00  0.95667553750E+03  0.95667553750E+03  0.00000000000E+00 0. -1.
         21   -1    0    0  502  503 -0.00000000000E+00 -0.00000000000E+00 -0.18395982474E+04  0.18395982474E+04  0.00000000000E+00 0. -1.
   -9000010    2    1    2    0  503  0.11829434423E+03  0.34837538759E+03 -0.12871661390E+04  0.16594281537E+04  0.98058460392E+03 0.  0.
    9000010    2    1    2  501    0 -0.11829434423E+03 -0.34837538759E+03  0.40424342904E+03  0.11368456312E+04  0.99681807605E+03 0.  0.
        -13    1    4    4    0    0 -0.34922902749E+03  0.23603422642E+03  0.77459827478E+02  0.42857100430E+03  0.10566000000E+00 0.  1.
          4    1    4    4  501    0  0.23093468326E+03 -0.58440961401E+03  0.32678360157E+03  0.70827462692E+03  0.00000000000E+00 0.  1.
         13    1    3    3    0    0  0.39287845064E+03  0.51221794225E+03 -0.52215062350E+03  0.83027825584E+03  0.10566000000E+00 0. -1.
         -4    1    3    3    0  503 -0.27458410641E+03 -0.16384255466E+03 -0.76501551549E+03  0.82914989788E+03  0.00000000000E+00 0. -1.
<mgrwt>
<rscale>  2 0.10587224E+04</rscale>
<asrwt>0</asrwt>
<pdfrwt beam="1">  1       21 0.14718085E+00 0.10625466E+04</pdfrwt>
<pdfrwt beam="2">  1       21 0.28301511E+00 0.10625466E+04</pdfrwt>
<totfact> 0.46548143E+00</totfact>
</mgrwt>
</event>
<event>
 8    1  0.1168507E-005  0.1046753E+04  0.7818608E-02  0.8754013E-01
         21   -1    0    0  503  502  0.00000000000E+00  0.00000000000E+00  0.74996860069E+03  0.74996860069E+03  0.00000000000E+00 0. -1.
         21   -1    0    0  501  503 -0.00000000000E+00 -0.00000000000E+00 -0.13338112668E+04  0.13338112668E+04  0.00000000000E+00 0. -1.
    9000010    2    1    2  501    0  0.26068865358E+03  0.17224946142E+03 -0.34789158427E+03  0.11030502385E+04  0.99903094202E+03 0.  0.
   -9000010    2    1    2    0  502 -0.26068865358E+03 -0.17224946142E+03 -0.23595108185E+03  0.98072962903E+03  0.89918254052E+03 0.  0.
        -13    1    3    3    0    0 -0.11794139822E+02  0.34097664281E+03 -0.60339588798E+03  0.69317442355E+03  0.10566000000E+00 0.  1.
          4    1    3    3  501    0  0.27248279341E+03 -0.16872718139E+03  0.25550430370E+03  0.40987581492E+03  0.00000000000E+00 0.  1.
         13    1    4    4    0    0 -0.51187101097E+03 -0.67142377174E+02  0.12249780527E+03  0.53059000570E+03  0.10566000000E+00 0. -1.
         -4    1    4    4    0  502  0.25118235739E+03 -0.10510708425E+03 -0.35844888712E+03  0.45013962334E+03  0.00000000000E+00 0. -1.
<mgrwt>
<rscale>  2 0.10221945E+04</rscale>
<asrwt>0</asrwt>
<pdfrwt beam="1">  1       21 0.11537979E+00 0.10467527E+04</pdfrwt>
<pdfrwt beam="2">  1       21 0.20520173E+00 0.10467527E+04</pdfrwt>
<totfact> 0.35285964E+01</totfact>
</mgrwt>
</event>
<event>
 8    1  0.1168507E-005  0.1234096E+04  0.7818608E-02  0.8587212E-01
         21   -1    0    0  501  502  0.00000000000E+00  0.00000000000E+00  0.10432535965E+04  0.10432535965E+04  0.00000000000E+00 0.  1.
         21   -1    0    0  502  503 -0.00000000000E+00 -0.00000000000E+00 -0.14484286046E+04  0.14484286046E+04  0.00000000000E+00 0.  1.
   -9000010    2    1    2    0  503  0.60343671589E+03  0.38723122890E+03 -0.37938436348E+02  0.12346792527E+04  0.10044449399E+04 0.  0.
    9000010    2    1    2  501    0 -0.60343671589E+03 -0.38723122890E+03 -0.36723657182E+03  0.12570029484E+04  0.96494031835E+03 0.  0.
        -13    1    4    4    0    0 -0.36593662213E+03 -0.22170189536E+03  0.30476167260E+03  0.52530089480E+03  0.10566000000E+00 0.  1.
          4    1    4    4  501    0 -0.23750009376E+03 -0.16552933354E+03 -0.67199824442E+03  0.73170205364E+03  0.00000000000E+00 0.  1.
         13    1    3    3    0    0  0.37043324496E+03 -0.29057563732E+03 -0.17992725170E+03  0.50401271516E+03  0.10566000000E+00 0. -1.
         -4    1    3    3    0  503  0.23300347093E+03  0.67780686622E+03  0.14198881535E+03  0.73066653752E+03  0.00000000000E+00 0. -1.
<mgrwt>
<rscale>  2 0.12260340E+04</rscale>
<asrwt>0</asrwt>
<pdfrwt beam="1">  1       21 0.16050055E+00 0.12340962E+04</pdfrwt>
<pdfrwt beam="2">  1       21 0.22283517E+00 0.12340962E+04</pdfrwt>
<totfact> 0.93803213E+00</totfact>
</mgrwt>
</event>
<event>
 8    1  0.1168507E-005  0.1087786E+04  0.7818608E-02  0.8696893E-01
         21   -1    0    0  503  502  0.00000000000E+00  0.00000000000E+00  0.89286954956E+03  0.89286954956E+03  0.00000000000E+00 0.  1.
         21   -1    0    0  501  503 -0.00000000000E+00 -0.00000000000E+00 -0.13242744190E+04  0.13242744190E+04  0.00000000000E+00 0.  1.
    9000010    2    1    2  501    0  0.39008871988E+03  0.20205124148E+02 -0.16370375395E+03  0.10969016449E+04  0.10118383483E+04 0.  0.
   -9000010    2    1    2    0  502 -0.39008871988E+03 -0.20205124148E+02 -0.26770111552E+03  0.11202423237E+04  0.10152347118E+04 0.  0.
        -13    1    3    3    0    0 -0.28892411023E+03 -0.15888398066E+03  0.10343667817E+03  0.34557259489E+03  0.10566000000E+00 0.  1.
          4    1    3    3  501    0  0.67901283011E+03  0.17908910481E+03 -0.26714043212E+03  0.75132905001E+03  0.00000000000E+00 0.  1.
         13    1    4    4    0    0 -0.32050412635E+03  0.66518123106E+02 -0.64694138477E+03  0.72503842809E+03  0.10566000000E+00 0. -1.
         -4    1    4    4    0  502 -0.69584593529E+02 -0.86723247254E+02  0.37924026926E+03  0.39520389560E+03  0.00000000000E+00 0. -1.
<mgrwt>
<rscale>  2 0.10869931E+04</rscale>
<asrwt>0</asrwt>
<pdfrwt beam="1">  1       21 0.13736455E+00 0.10877863E+04</pdfrwt>
<pdfrwt beam="2">  1       21 0.20373453E+00 0.10877863E+04</pdfrwt>
<totfact> 0.21823773E+01</totfact>
</mgrwt>
</event>
<event>
 8    1  0.1168507E-005  0.1114408E+04  0.7818608E-02  0.8675079E-01
         21   -1    0    0  501  502  0.00000000000E+00  0.00000000000E+00  0.16371289857E+04  0.16371289857E+04  0.00000000000E+00 0. -1.
         21   -1    0    0  502  503 -0.00000000000E+00 -0.00000000000E+00 -0.80767217749E+03  0.80767217749E+03  0.00000000000E+00 0. -1.
   -9000010    2    1    2    0  503 -0.23270894367E+03 -0.46163106305E+03  0.10323441188E+03  0.11191797348E+04  0.98724325479E+03 0.  0.
    9000010    2    1    2  501    0  0.23270894367E+03  0.46163106305E+03  0.72622239632E+03  0.13256214284E+04  0.98113022156E+03 0.  0.
        -13    1    4    4    0    0  0.14070948787E+03  0.11050737200E+03 -0.23661129704E+03  0.29664112374E+03  0.10566000000E+00 0.  1.
          4    1    4    4  501    0  0.91999455806E+02  0.35112369105E+03  0.96283369336E+03  0.10289803046E+04  0.00000000000E+00 0.  1.
         13    1    3    3    0    0 -0.38605292218E+03 -0.56512060726E+03  0.38262535516E+03  0.78409204373E+03  0.10566000000E+00 0. -1.
         -4    1    3    3    0  503  0.15334397850E+03  0.10348954422E+03 -0.27939094328E+03  0.33508769105E+03  0.00000000000E+00 0. -1.
<mgrwt>
<rscale>  2 0.11130529E+04</rscale>
<asrwt>0</asrwt>
<pdfrwt beam="1">  1       21 0.25186600E+00 0.11144083E+04</pdfrwt>
<pdfrwt beam="2">  1       21 0.12425726E+00 0.11144083E+04</pdfrwt>
<totfact> 0.12671044E+01</totfact>
</mgrwt>
</event>
<event>
 8    1  0.1168507E-005  0.1142031E+04  0.7818608E-02  0.8651576E-01
         21   -1    0    0  501  502  0.00000000000E+00  0.00000000000E+00  0.34987071020E+04  0.34987071020E+04  0.00000000000E+00 0. -1.
         21   -1    0    0  502  503 -0.00000000000E+00 -0.00000000000E+00 -0.58144618143E+03  0.58144618143E+03  0.00000000000E+00 0. -1.
   -9000010    2    1    2    0  503  0.36160132854E+03 -0.41708934126E+03  0.23639325327E+03  0.11662400413E+04  0.99975748274E+03 0.  0.
    9000010    2    1    2  501    0 -0.36160132854E+03  0.41708934126E+03  0.26808676673E+04  0.29139132422E+04  0.99955985005E+03 0.  0.
        -13    1    4    4    0    0 -0.64689292179E+03  0.52750775160E+03  0.20206036587E+04  0.21862236932E+04  0.10566000000E+00 0.  1.
          4    1    4    4  501    0  0.28529159325E+03 -0.11041841034E+03  0.66026400868E+03  0.72768954897E+03  0.00000000000E+00 0.  1.
         13    1    3    3    0    0  0.84048428480E+01  0.24123160874E+03  0.33476058242E+03  0.41270811616E+03  0.10566000000E+00 0. -1.
         -4    1    3    3    0  503  0.35319648569E+03 -0.65832095000E+03 -0.98367329154E+02  0.75353192511E+03  0.00000000000E+00 0. -1.
<mgrwt>
<rscale>  2 0.11419874E+04</rscale>
<asrwt>0</asrwt>
<pdfrwt beam="1">  1       21 0.53826262E+00 0.11420307E+04</pdfrwt>
<pdfrwt beam="2">  1       21 0.89453261E-01 0.11420307E+04</pdfrwt>
<totfact> 0.29633183E-01</totfact>
</mgrwt>
</event>
<event>
 8    1  0.1168507E-005  0.1093184E+04  0.7818608E-02  0.8691788E-01
         21   -1    0    0  501  502  0.00000000000E+00  0.00000000000E+00  0.17694041979E+04  0.17694041979E+04  0.00000000000E+00 0. -1.
         21   -1    0    0  502  503 -0.00000000000E+00 -0.00000000000E+00 -0.67562819179E+03  0.67562819179E+03  0.00000000000E+00 0. -1.
   -9000010    2    1    2    0  503  0.26532421376E+03 -0.36683885487E+03  0.58394376550E+03  0.12388067118E+04  0.99432593457E+03 0.  0.
    9000010    2    1    2  501    0 -0.26532421376E+03  0.36683885487E+03  0.50983224057E+03  0.12062256778E+04  0.99502954151E+03 0.  0.
        -13    1    4    4    0    0  0.31133315242E+03 -0.84497319870E+02  0.30945185069E+03  0.44702190989E+03  0.10566000000E+00 0.  1.
          4    1    4    4  501    0 -0.57665736618E+03  0.45133617474E+03  0.20038038988E+03  0.75920376794E+03  0.00000000000E+00 0.  1.
         13    1    3    3    0    0 -0.86767836574E+01 -0.63213673792E+03  0.12913702383E+03  0.64525074513E+03  0.10566000000E+00 0. -1.
         -4    1    3    3    0  503  0.27400099741E+03  0.26529788306E+03  0.45480674167E+03  0.59355596670E+03  0.00000000000E+00 0. -1.
<mgrwt>
<rscale>  2 0.10930240E+04</rscale>
<asrwt>0</asrwt>
<pdfrwt beam="1">  1       21 0.27221603E+00 0.10931841E+04</pdfrwt>
<pdfrwt beam="2">  1       21 0.10394280E+00 0.10931841E+04</pdfrwt>
<totfact> 0.14821595E+01</totfact>
</mgrwt>
</event>
<event>
 8    1  0.1168507E-005  0.9955767E+03  0.7818608E-02  0.8782724E-01
         21   -1    0    0  501  502  0.00000000000E+00  0.00000000000E+00  0.10076337249E+04  0.10076337249E+04  0.00000000000E+00 0. -1.
         21   -1    0    0  502  503 -0.00000000000E+00 -0.00000000000E+00 -0.96781207622E+03  0.96781207622E+03  0.00000000000E+00 0. -1.
   -9000010    2    1    2    0  503  0.45769509559E+02 -0.50068667995E+02  0.42690242340E+02  0.97986494693E+03  0.97658135242E+03 0.  0.
    9000010    2    1    2  501    0 -0.45769509559E+02  0.50068667995E+02 -0.28685937021E+01  0.99558085415E+03  0.99326295048E+03 0.  0.
        -13    1    4    4    0    0 -0.16683199261E+03 -0.24433771491E+03 -0.39309021505E+03  0.49198959443E+03  0.10566000000E+00 0.  1.
          4    1    4    4  501    0  0.12106248306E+03  0.29440638291E+03  0.39022162135E+03  0.50359125972E+03  0.00000000000E+00 0.  1.
         13    1    3    3    0    0 -0.64774477543E+02  0.13654546197E+02 -0.45821081197E+03  0.46296796752E+03  0.10566000000E+00 0. -1.
         -4    1    3    3    0  503  0.11054398710E+03 -0.63723214192E+02  0.50090105431E+03  0.51689697941E+03  0.00000000000E+00 0. -1.
<mgrwt>
<rscale>  2 0.99138984E+03</rscale>
<asrwt>0</asrwt>
<pdfrwt beam="1">  1       21 0.15502057E+00 0.99557672E+03</pdfrwt>
<pdfrwt beam="2">  1       21 0.14889417E+00 0.99557672E+03</pdfrwt>
<totfact> 0.43848120E+01</totfact>
</mgrwt>
</event>
<event>
 8    1  0.1168507E-005  0.1125604E+04  0.7818608E-02  0.8668592E-01
         21   -1    0    0  501  502  0.00000000000E+00  0.00000000000E+00  0.18982590382E+04  0.18982590382E+04  0.00000000000E+00 0. -1.
         21   -1    0    0  502  503 -0.00000000000E+00 -0.00000000000E+00 -0.87772884924E+03  0.87772884924E+03  0.00000000000E+00 0. -1.
   -9000010    2    1    2    0  503  0.44512313918E+03  0.13536857569E+03 -0.18968168060E+03  0.11232337430E+04  0.10045972532E+04 0.  0.
    9000010    2    1    2  501    0 -0.44512313918E+03 -0.13536857569E+03  0.12102118696E+04  0.16527541444E+04  0.10249508439E+04 0.  0.
        -13    1    4    4    0    0 -0.67784833864E+03 -0.23194270033E+03  0.12036135847E+04  0.14007003458E+04  0.10566000000E+00 0.  1.
          4    1    4    4  501    0  0.23272519946E+03  0.96574124641E+02  0.65982848899E+01  0.25205379858E+03  0.00000000000E+00 0.  1.
         13    1    3    3    0    0  0.73397362516E+03  0.27723568145E+03 -0.15267965526E+03  0.79930469397E+03  0.10566000000E+00 0. -1.
         -4    1    3    3    0  503 -0.28885048598E+03 -0.14186710577E+03 -0.37002025338E+02  0.32392904907E+03  0.00000000000E+00 0. -1.
<mgrwt>
<rscale>  2 0.11209494E+04</rscale>
<asrwt>0</asrwt>
<pdfrwt beam="1">  1       21 0.29203985E+00 0.11256036E+04</pdfrwt>
<pdfrwt beam="2">  1       21 0.13503521E+00 0.11256036E+04</pdfrwt>
<totfact> 0.51229751E+00</totfact>
</mgrwt>
</event>
<event>
 8    1  0.1168507E-005  0.1095544E+04  0.7818608E-02  0.8697079E-01
         21   -1    0    0  501  502  0.00000000000E+00  0.00000000000E+00  0.60223795007E+03  0.60223795007E+03  0.00000000000E+00 0. -1.
         21   -1    0    0  502  503 -0.00000000000E+00 -0.00000000000E+00 -0.19378350668E+04  0.19378350668E+04  0.00000000000E+00 0. -1.
   -9000010    2    1    2    0  503  0.20630738304E+03 -0.37442345209E+03 -0.59971169027E+03  0.12489479690E+04  0.10086928472E+04 0.  0.
    9000010    2    1    2  501    0 -0.20630738304E+03  0.37442345209E+03 -0.73588542648E+03  0.12911250479E+04  0.97093813942E+03 0.  0.
        -13    1    4    4    0    0 -0.35136579196E+03  0.62752078720E+03 -0.33002118159E+03  0.79129908985E+03  0.10566000000E+00 0.  1.
          4    1    4    4  501    0  0.14505840892E+03 -0.25309733512E+03 -0.40586424489E+03  0.49982595803E+03  0.00000000000E+00 0.  1.
         13    1    3    3    0    0 -0.14242392961E+03 -0.60543924244E+03 -0.54521680813E+03  0.82710496979E+03  0.10566000000E+00 0. -1.
         -4    1    3    3    0  503  0.34873131265E+03  0.23101579036E+03 -0.54494882140E+02  0.42184299922E+03  0.00000000000E+00 0. -1.
<mgrwt>
<rscale>  2 0.10867745E+04</rscale>
<asrwt>0</asrwt>
<pdfrwt beam="1">  1       21 0.92651992E-01 0.10955441E+04</pdfrwt>
<pdfrwt beam="2">  1       21 0.29812847E+00 0.10955441E+04</pdfrwt>
<totfact> 0.13068370E+01</totfact>
</mgrwt>
</event>
<event>
 8    1  0.1168507E-005  0.1169932E+04  0.7818608E-02  0.8634828E-01
         21   -1    0    0  503  502  0.00000000000E+00  0.00000000000E+00  0.28998248335E+04  0.28998248335E+04  0.00000000000E+00 0.  1.
         21   -1    0    0  501  503 -0.00000000000E+00 -0.00000000000E+00 -0.90187777185E+03  0.90187777185E+03  0.00000000000E+00 0.  1.
    9000010    2    1    2  501    0 -0.10583188531E+03  0.54204830996E+03 -0.33556308565E+03  0.11913367517E+04  0.10008316108E+04 0.  0.
   -9000010    2    1    2    0  502  0.10583188531E+03 -0.54204830996E+03  0.23335101473E+04  0.26103658537E+04  0.10313697320E+04 0.  0.
        -13    1    3    3    0    0  0.66235669275E+02 -0.85710173236E+02 -0.50682421540E+03  0.51827038712E+03  0.10566000000E+00 0.  1.
          4    1    3    3  501    0 -0.17206755458E+03  0.62775848319E+03  0.17126112975E+03  0.67306636458E+03  0.00000000000E+00 0.  1.
         13    1    4    4    0    0 -0.15830980094E+03 -0.67295759193E+03  0.21608002106E+04  0.22686981894E+04  0.10566000000E+00 0. -1.
         -4    1    4    4    0  502  0.26414168625E+03  0.13090928198E+03  0.17270993674E+03  0.34166766422E+03  0.00000000000E+00 0. -1.
<mgrwt>
<rscale>  2 0.11631657E+04</rscale>
<asrwt>0</asrwt>
<pdfrwt beam="1">  1       21 0.44612689E+00 0.11699317E+04</pdfrwt>
<pdfrwt beam="2">  1       21 0.13875043E+00 0.11699317E+04</pdfrwt>
<totfact> 0.39181567E-01</totfact>
</mgrwt>
</event>
<event>
 8    1  0.1168507E-005  0.1045199E+04  0.7818608E-02  0.8739880E-01
         21   -1    0    0  503  502  0.00000000000E+00  0.00000000000E+00  0.11103780702E+04  0.11103780702E+04  0.00000000000E+00 0.  1.
         21   -1    0    0  501  503 -0.00000000000E+00 -0.00000000000E+00 -0.96301107494E+03  0.96301107494E+03  0.00000000000E+00 0.  1.
    9000010    2    1    2  501    0  0.12384495710E+02  0.33572982854E+03 -0.11089497667E+02  0.10452576300E+04  0.98973362201E+03 0.  0.
   -9000010    2    1    2    0  502 -0.12384495710E+02 -0.33572982854E+03  0.15845649291E+03  0.10281315152E+04  0.95868558914E+03 0.  0.
        -13    1    3    3    0    0  0.26711008504E+03  0.23865451750E+03  0.40950092265E+03  0.54405403507E+03  0.10566000000E+00 0.  1.
          4    1    3    3  501    0 -0.25472558933E+03  0.97075311038E+02 -0.42059042032E+03  0.50120359490E+03  0.00000000000E+00 0.  1.
         13    1    4    4    0    0 -0.41019291884E+03 -0.33828266576E+03 -0.11680490872E+03  0.54436824897E+03  0.10566000000E+00 0. -1.
         -4    1    4    4    0  502  0.39780842313E+03  0.25528372191E+01  0.27526140163E+03  0.48376326620E+03  0.00000000000E+00 0. -1.
<mgrwt>
<rscale>  2 0.10377824E+04</rscale>
<asrwt>0</asrwt>
<pdfrwt beam="1">  1       21 0.17082739E+00 0.10451988E+04</pdfrwt>
<pdfrwt beam="2">  1       21 0.14815555E+00 0.10451988E+04</pdfrwt>
<totfact> 0.32253380E+01</totfact>
</mgrwt>
</event>
<event>
 8    1  0.1168507E-005  0.1037726E+04  0.7818608E-02  0.8742903E-01
         21   -1    0    0  503  502  0.00000000000E+00  0.00000000000E+00  0.10158169939E+04  0.10158169939E+04  0.00000000000E+00 0. -1.
         21   -1    0    0  501  503 -0.00000000000E+00 -0.00000000000E+00 -0.10605873886E+04  0.10605873886E+04  0.00000000000E+00 0. -1.
    9000010    2    1    2  501    0  0.46955961474E+02  0.23914589098E+03 -0.14095555969E+03  0.10342301247E+04  0.99517227732E+03 0.  0.
   -9000010    2    1    2    0  502 -0.46955961474E+02 -0.23914589098E+03  0.96185165003E+02  0.10421742578E+04  0.10087021256E+04 0.  0.
        -13    1    3    3    0    0  0.50025875477E+03  0.18128630669E+03  0.59124287344E+02  0.53536832110E+03  0.10566000000E+00 0.  1.
          4    1    3    3  501    0 -0.45330279329E+03  0.57859584292E+02 -0.20007984704E+03  0.49886180360E+03  0.00000000000E+00 0.  1.
         13    1    4    4    0    0  0.14950613016E+03  0.32415538337E+03  0.23791707901E+03  0.42899107587E+03  0.10566000000E+00 0. -1.
         -4    1    4    4    0  502 -0.19646209164E+03 -0.56330127436E+03 -0.14173191400E+03  0.61318318192E+03  0.00000000000E+00 0. -1.
<mgrwt>
<rscale>  2 0.10344238E+04</rscale>
<asrwt>0</asrwt>
<pdfrwt beam="1">  1       21 0.15627954E+00 0.10377262E+04</pdfrwt>
<pdfrwt beam="2">  1       21 0.16316729E+00 0.10377262E+04</pdfrwt>
<totfact> 0.31776191E+01</totfact>
</mgrwt>
</event>
<event>
 8    1  0.1168507E-005  0.1079281E+04  0.7818608E-02  0.8711269E-01
         21   -1    0    0  503  502  0.00000000000E+00  0.00000000000E+00  0.22329305579E+04  0.22329305579E+04  0.00000000000E+00 0. -1.
         21   -1    0    0  501  503 -0.00000000000E+00 -0.00000000000E+00 -0.50916457237E+03  0.50916457237E+03  0.00000000000E+00 0. -1.
    9000010    2    1    2  501    0  0.14896889759E+03 -0.26678033817E+03  0.74534876411E+03  0.13116375567E+04  0.10351255087E+04 0.  0.
   -9000010    2    1    2    0  502 -0.14896889759E+03  0.26678033817E+03  0.97841722144E+03  0.14304575736E+04  0.99777007837E+03 0.  0.
        -13    1    3    3    0    0  0.54870338018E+03 -0.30786213980E+03  0.63724897010E+03  0.89551145029E+03  0.10566000000E+00 0.  1.
          4    1    3    3  501    0 -0.39973448259E+03  0.41081801627E+02  0.10809979401E+03  0.41612610644E+03  0.00000000000E+00 0.  1.
         13    1    4    4    0    0 -0.24037452558E+03  0.36759747744E+03 -0.34283439349E+01  0.43922611793E+03  0.10566000000E+00 0. -1.
         -4    1    4    4    0  502  0.91405627984E+02 -0.10081713927E+03  0.98184556538E+03  0.99123145564E+03  0.00000000000E+00 0. -1.
<mgrwt>
<rscale>  2 0.10702246E+04</rscale>
<asrwt>0</asrwt>
<pdfrwt beam="1">  1       21 0.34352777E+00 0.10792814E+04</pdfrwt>
<pdfrwt beam="2">  1       21 0.78333012E-01 0.10792814E+04</pdfrwt>
<totfact> 0.95833074E+00</totfact>
</mgrwt>
</event>
<event>
 8    1  0.1168507E-005  0.1288156E+04  0.7818608E-02  0.8543134E-01
         21   -1    0    0  501  502  0.00000000000E+00  0.00000000000E+00  0.35013276293E+04  0.35013276293E+04  0.00000000000E+00 0. -1.
         21   -1    0    0  502  503 -0.00000000000E+00 -0.00000000000E+00 -0.51876318987E+03  0.51876318987E+03  0.00000000000E+00 0. -1.
   -9000010    2    1    2    0  503 -0.61463268697E+03 -0.51960707010E+03  0.89860974513E+03  0.15706196282E+04  0.10057741771E+04 0.  0.
    9000010    2    1    2  501    0  0.61463268697E+03  0.51960707010E+03  0.20839546943E+04  0.24494711910E+04  0.10046278417E+04 0.  0.
        -13    1    4    4    0    0  0.57336389177E+01  0.41570557207E+03  0.18957378923E+03  0.45692694163E+03  0.10566000000E+00 0.  1.
          4    1    4    4  501    0  0.60889904806E+03  0.10390149803E+03  0.18943809051E+04  0.19925442493E+04  0.00000000000E+00 0.  1.
         13    1    3    3    0    0 -0.64981278621E+03 -0.73649255444E+03  0.92516672331E+03  0.13493003435E+04  0.10566000000E+00 0. -1.
         -4    1    3    3    0  503  0.35180099237E+02  0.21688548434E+03 -0.26556978182E+02  0.22131928472E+03  0.00000000000E+00 0. -1.
<mgrwt>
<rscale>  2 0.12879325E+04</rscale>
<asrwt>0</asrwt>
<pdfrwt beam="1">  1       21 0.53866578E+00 0.12881563E+04</pdfrwt>
<pdfrwt beam="2">  1       21 0.79809724E-01 0.12881563E+04</pdfrwt>
<totfact> 0.38098898E-01</totfact>
</mgrwt>
</event>
<event>
 8    1  0.1168507E-005  0.2318187E+04  0.7818608E-02  0.8050000E-01
         21   -1    0    0  501  502  0.00000000000E+00  0.00000000000E+00  0.24177911137E+04  0.24177911137E+04  0.00000000000E+00 0. -1.
         21   -1    0    0  502  503 -0.00000000000E+00 -0.00000000000E+00 -0.30888535978E+04  0.30888535978E+04  0.00000000000E+00 0.  1.
   -9000010    2    1    2    0  503  0.46682644398E+03 -0.20358467054E+04 -0.17943422897E+04  0.29306504904E+04  0.10032194713E+04 0.  0.
    9000010    2    1    2  501    0 -0.46682644398E+03  0.20358467054E+04  0.11232798056E+04  0.25759942211E+04  0.10056788596E+04 0.  0.
        -13    1    4    4    0    0 -0.30364955143E+03  0.70265576684E+03  0.95262441838E+03  0.12220562468E+04  0.10566000000E+00 0.  1.
          4    1    4    4  501    0 -0.16317689254E+03  0.13331909385E+04  0.17065538726E+03  0.13539379742E+04  0.00000000000E+00 0.  1.
         13    1    3    3    0    0 -0.31268654159E+03 -0.60761876118E+03 -0.63419858887E+03  0.93229892927E+03  0.10566000000E+00 0. -1.
         -4    1    3    3    0  503  0.77951298557E+03 -0.14282279442E+04 -0.11601437008E+04  0.19983515611E+04  0.00000000000E+00 0. -1.
<mgrwt>
<rscale>  2 0.23179200E+04</rscale>
<asrwt>0</asrwt>
<pdfrwt beam="1">  1       21 0.37196786E+00 0.23181865E+04</pdfrwt>
<pdfrwt beam="2">  1       21 0.47520825E+00 0.23181865E+04</pdfrwt>
<totfact> 0.35084760E-03</totfact>
</mgrwt>
</event>
<event>
 8    1  0.1168507E-005  0.1880742E+04  0.7818608E-02  0.8218903E-01
         21   -1    0    0  501  502  0.00000000000E+00  0.00000000000E+00  0.30240492256E+04  0.30240492256E+04  0.00000000000E+00 0. -1.
         21   -1    0    0  502  503 -0.00000000000E+00 -0.00000000000E+00 -0.12973992372E+04  0.12973992372E+04  0.00000000000E+00 0.  1.
   -9000010    2    1    2    0  503  0.60090437243E+03  0.14715238254E+04  0.18343737104E+03  0.18896669557E+04  0.10053474528E+04 0.  0.
    9000010    2    1    2  501    0 -0.60090437243E+03 -0.14715238254E+04  0.15432126174E+04  0.24317815071E+04  0.10027899491E+04 0.  0.
        -13    1    4    4    0    0  0.68381356235E+01 -0.11264049778E+04  0.12240081637E+04  0.16634394880E+04  0.10566000000E+00 0.  1.
          4    1    4    4  501    0 -0.60774250805E+03 -0.34511884758E+03  0.31920445369E+03  0.76834201909E+03  0.00000000000E+00 0.  1.
         13    1    3    3    0    0  0.70717780129E+03  0.48791407097E+03 -0.88311691038E+02  0.86368949816E+03  0.10566000000E+00 0. -1.
         -4    1    3    3    0  503 -0.10627342886E+03  0.98360975442E+03  0.27174906208E+03  0.10259774576E+04  0.00000000000E+00 0. -1.
<mgrwt>
<rscale>  2 0.18804008E+04</rscale>
<asrwt>0</asrwt>
<pdfrwt beam="1">  1       21 0.46523834E+00 0.18807424E+04</pdfrwt>
<pdfrwt beam="2">  1       21 0.19959988E+00 0.18807424E+04</pdfrwt>
<totfact> 0.77383695E-02</totfact>
</mgrwt>
</event>
<event>
 8    1  0.1168507E-005  0.1045695E+04  0.7818608E-02  0.8744800E-01
         21   -1    0    0  503  502  0.00000000000E+00  0.00000000000E+00  0.22492349264E+04  0.22492349264E+04  0.00000000000E+00 0.  1.
         21   -1    0    0  501  503 -0.00000000000E+00 -0.00000000000E+00 -0.46212952354E+03  0.46212952354E+03  0.00000000000E+00 0.  1.
    9000010    2    1    2  501    0 -0.38797742019E+01  0.16947158592E+03  0.93219361724E+03  0.14008797156E+04  0.10318640251E+04 0.  0.
   -9000010    2    1    2    0  502  0.38797742019E+01 -0.16947158592E+03  0.85491178559E+03  0.13104847343E+04  0.97865234211E+03 0.  0.
        -13    1    3    3    0    0 -0.26122311218E+03  0.42619348075E+03  0.12448491515E+03  0.51514551598E+03  0.10566000000E+00 0.  1.
          4    1    3    3  501    0  0.25734333798E+03 -0.25672189482E+03  0.80770870209E+03  0.88573419959E+03  0.00000000000E+00 0.  1.
         13    1    4    4    0    0 -0.31318995839E+03 -0.46020672002E+03  0.40804177983E+03  0.69020017418E+03  0.10566000000E+00 0. -1.
         -4    1    4    4    0  502  0.31706973259E+03  0.29073513410E+03  0.44687000576E+03  0.62028456016E+03  0.00000000000E+00 0. -1.
<mgrwt>
<rscale>  2 0.10323236E+04</rscale>
<asrwt>0</asrwt>
<pdfrwt beam="1">  1       21 0.34603613E+00 0.10456955E+04</pdfrwt>
<pdfrwt beam="2">  1       21 0.71096851E-01 0.10456955E+04</pdfrwt>
<totfact> 0.11697267E+01</totfact>
</mgrwt>
</event>
<event>
 8    1  0.1168507E-005  0.1352827E+04  0.7818608E-02  0.8504745E-01
         21   -1    0    0  503  502  0.00000000000E+00  0.00000000000E+00  0.10127450603E+04  0.10127450603E+04  0.00000000000E+00 0. -1.
         21   -1    0    0  501  503 -0.00000000000E+00 -0.00000000000E+00 -0.17963476812E+04  0.17963476812E+04  0.00000000000E+00 0. -1.
    9000010    2    1    2  501    0 -0.59900529184E+03  0.65078362266E+03 -0.20346225704E+03  0.13371200941E+04  0.98191985053E+03 0.  0.
   -9000010    2    1    2    0  502  0.59900529184E+03 -0.65078362266E+03 -0.58014036385E+03  0.14719726474E+04  0.10236278473E+04 0.  0.
        -13    1    3    3    0    0 -0.30213588341E+03  0.42711958156E+03 -0.59834703812E+03  0.79481848129E+03  0.10566000000E+00 0.  1.
          4    1    3    3  501    0 -0.29686940843E+03  0.22366404110E+03  0.39488478109E+03  0.54230161282E+03  0.00000000000E+00 0.  1.
         13    1    4    4    0    0  0.20344320710E+03 -0.21209961316E+03  0.29482158500E+03  0.41628735575E+03  0.10566000000E+00 0. -1.
         -4    1    4    4    0  502  0.39556208474E+03 -0.43868400950E+03 -0.87496194885E+03  0.10556852917E+04  0.00000000000E+00 0. -1.
<mgrwt>
<rscale>  2 0.13449388E+04</rscale>
<asrwt>0</asrwt>
<pdfrwt beam="1">  1       21 0.15580693E+00 0.13528269E+04</pdfrwt>
<pdfrwt beam="2">  1       21 0.27636118E+00 0.13528269E+04</pdfrwt>
<totfact> 0.40904762E+00</totfact>
</mgrwt>
</event>
<event>
 8    1  0.1168507E-005  0.1049875E+04  0.7818608E-02  0.8731415E-01
         21   -1    0    0  501  502  0.00000000000E+00  0.00000000000E+00  0.11236402329E+04  0.11236402329E+04  0.00000000000E+00 0. -1.
         21   -1    0    0  502  503 -0.00000000000E+00 -0.00000000000E+00 -0.10454978466E+04  0.10454978466E+04  0.00000000000E+00 0. -1.
   -9000010    2    1    2    0  503  0.21876660999E+03 -0.65778665531E+02  0.32833175657E+03  0.11000174121E+04  0.10247199139E+04 0.  0.
    9000010    2    1    2  501    0 -0.21876660999E+03  0.65778665531E+02 -0.25018937023E+03  0.10691206674E+04  0.10140210146E+04 0.  0.
        -13    1    4    4    0    0 -0.13512659680E+02 -0.12079146042E+03  0.37014870042E+03  0.38959368638E+03  0.10566000000E+00 0.  1.
          4    1    4    4  501    0 -0.20525395031E+03  0.18657012595E+03 -0.62033807065E+03  0.67952698100E+03  0.00000000000E+00 0.  1.
         13    1    3    3    0    0  0.24415747729E+02  0.24051121834E+03  0.59996567734E+03  0.64683892897E+03  0.10566000000E+00 0. -1.
         -4    1    3    3    0  503  0.19435086226E+03 -0.30628988387E+03 -0.27163392077E+03  0.45317848309E+03  0.00000000000E+00 0. -1.
<mgrwt>
<rscale>  2 0.10472548E+04</rscale>
<asrwt>0</asrwt>
<pdfrwt beam="1">  1       21 0.17286773E+00 0.10498745E+04</pdfrwt>
<pdfrwt beam="2">  1       21 0.16084582E+00 0.10498745E+04</pdfrwt>
<totfact> 0.23964964E+01</totfact>
</mgrwt>
</event>
<event>
 8    1  0.1168507E-005  0.1106612E+04  0.7818608E-02  0.8682965E-01
         21   -1    0    0  503  502  0.00000000000E+00  0.00000000000E+00  0.23131676309E+04  0.23131676309E+04  0.00000000000E+00 0. -1.
         21   -1    0    0  501  503 -0.00000000000E+00 -0.00000000000E+00 -0.62666152738E+03  0.62666152738E+03  0.00000000000E+00 0. -1.
    9000010    2    1    2  501    0 -0.47126489457E+03  0.12566342628E+03  0.24315890148E+03  0.11210817261E+04  0.97970204021E+03 0.  0.
   -9000010    2    1    2    0  502  0.47126489457E+03 -0.12566342628E+03  0.14433472021E+04  0.18187474323E+04  0.99333236080E+03 0.  0.
        -13    1    3    3    0    0 -0.46426954817E+03 -0.20497107049E+03 -0.21903967096E+03  0.55275468493E+03  0.10566000000E+00 0.  1.
          4    1    3    3  501    0 -0.69953463996E+01  0.33063449677E+03  0.46219857244E+03  0.56832704114E+03  0.00000000000E+00 0.  1.
         13    1    4    4    0    0  0.56261814002E+02 -0.14398742350E+03  0.13915646502E+04  0.14001249789E+04  0.10566000000E+00 0. -1.
         -4    1    4    4    0  502  0.41500308057E+03  0.18323997222E+02  0.51782551922E+02  0.41862245334E+03  0.00000000000E+00 0. -1.
<mgrwt>
<rscale>  2 0.11035451E+04</rscale>
<asrwt>0</asrwt>
<pdfrwt beam="1">  1       21 0.35587194E+00 0.11066124E+04</pdfrwt>
<pdfrwt beam="2">  1       21 0.96409467E-01 0.11066124E+04</pdfrwt>
<totfact> 0.46234320E+00</totfact>
</mgrwt>
</event>
<event>
 8    1  0.1168507E-005  0.1140548E+04  0.7818608E-02  0.8655379E-01
         21   -1    0    0  501  502  0.00000000000E+00  0.00000000000E+00  0.26621858174E+04  0.26621858174E+04  0.00000000000E+00 0. -1.
         21   -1    0    0  502  503 -0.00000000000E+00 -0.00000000000E+00 -0.50192454090E+03  0.50192454090E+03  0.00000000000E+00 0. -1.
   -9000010    2    1    2    0  503  0.48289000506E+03 -0.27598767006E+03  0.13811332760E+04  0.17828460943E+04  0.98064219715E+03 0.  0.
    9000010    2    1    2  501    0 -0.48289000506E+03  0.27598767006E+03  0.77912800056E+03  0.13812642641E+04  0.99574021457E+03 0.  0.
        -13    1    4    4    0    0 -0.78480435237E+03  0.27985707424E+03  0.51076717471E+03  0.97730290669E+03  0.10566000000E+00 0.  1.
          4    1    4    4  501    0  0.30191434731E+03 -0.38694041790E+01  0.26836082585E+03  0.40396135737E+03  0.00000000000E+00 0.  1.
         13    1    3    3    0    0 -0.23997967882E+03 -0.27337554237E+03  0.25341354358E+03  0.44333155612E+03  0.10566000000E+00 0. -1.
         -4    1    3    3    0  503  0.72286968388E+03 -0.26121276844E+01  0.11277197324E+04  0.13395145381E+04  0.00000000000E+00 0. -1.
<mgrwt>
<rscale>  2 0.11372447E+04</rscale>
<asrwt>0</asrwt>
<pdfrwt beam="1">  1       21 0.40956704E+00 0.11405483E+04</pdfrwt>
<pdfrwt beam="2">  1       21 0.77219162E-01 0.11405483E+04</pdfrwt>
<totfact> 0.33828574E+00</totfact>
</mgrwt>
</event>
<event>
 8    1  0.1168507E-005  0.1148815E+04  0.7818608E-02  0.8648629E-01
         21   -1    0    0  503  502  0.00000000000E+00  0.00000000000E+00  0.83234075994E+03  0.83234075994E+03  0.00000000000E+00 0.  1.
         21   -1    0    0  501  503 -0.00000000000E+00 -0.00000000000E+00 -0.15758609455E+04  0.15758609455E+04  0.00000000000E+00 0.  1.
    9000010    2    1    2  501    0 -0.30735882811E+03  0.47966272048E+03 -0.45244557431E+03  0.12230856125E+04  0.98320173060E+03 0.  0.
   -9000010    2    1    2    0  502  0.30735882811E+03 -0.47966272048E+03 -0.29107461128E+03  0.11851160930E+04  0.99761212400E+03 0.  0.
        -13    1    3    3    0    0  0.44215776202E+02  0.41084246477E+03 -0.68213422400E+03  0.79752973389E+03  0.10566000000E+00 0.  1.
          4    1    3    3  501    0 -0.35157460431E+03  0.68820255713E+02  0.22968864968E+03  0.42555587857E+03  0.00000000000E+00 0.  1.
         13    1    4    4    0    0  0.59994049673E+03 -0.25305426105E+03  0.85997145108E+02  0.65678046468E+03  0.10566000000E+00 0. -1.
         -4    1    4    4    0  502 -0.29258166862E+03 -0.22660845943E+03 -0.37707175639E+03  0.52833562833E+03  0.00000000000E+00 0. -1.
<mgrwt>
<rscale>  2 0.11456793E+04</rscale>
<asrwt>0</asrwt>
<pdfrwt beam="1">  1       21 0.12805243E+00 0.11488149E+04</pdfrwt>
<pdfrwt beam="2">  1       21 0.24244014E+00 0.11488149E+04</pdfrwt>
<totfact> 0.13523935E+01</totfact>
</mgrwt>
</event>
<event>
 8    1  0.1168507E-005  0.1270249E+04  0.7818608E-02  0.8557577E-01
         21   -1    0    0  501  502  0.00000000000E+00  0.00000000000E+00  0.20818868755E+04  0.20818868755E+04  0.00000000000E+00 0. -1.
         21   -1    0    0  502  503 -0.00000000000E+00 -0.00000000000E+00 -0.82913364252E+03  0.82913364252E+03  0.00000000000E+00 0.  1.
   -9000010    2    1    2    0  503 -0.10948040876E+03  0.75864749589E+03  0.22757600088E+03  0.12786845703E+04  0.99785340167E+03 0.  0.
    9000010    2    1    2  501    0  0.10948040876E+03 -0.75864749589E+03  0.10251772321E+04  0.16323359477E+04  0.10129167320E+04 0.  0.
        -13    1    4    4    0    0 -0.19193348521E+03 -0.53857358502E+03  0.11109107534E+04  0.12494089332E+04  0.10566000000E+00 0.  1.
          4    1    4    4  501    0  0.30141389397E+03 -0.22007391087E+03 -0.85733521334E+02  0.38292701447E+03  0.00000000000E+00 0.  1.
         13    1    3    3    0    0 -0.42349065641E+02 -0.61624209753E+02 -0.29463574701E+03  0.30397569174E+03  0.10566000000E+00 0. -1.
         -4    1    3    3    0  503 -0.67131343124E+02  0.82027170565E+03  0.52221174789E+03  0.97470887856E+03  0.00000000000E+00 0. -1.
<mgrwt>
<rscale>  2 0.12672435E+04</rscale>
<asrwt>0</asrwt>
<pdfrwt beam="1">  1       21 0.32029029E+00 0.12702489E+04</pdfrwt>
<pdfrwt beam="2">  1       21 0.12755902E+00 0.12702489E+04</pdfrwt>
<totfact> 0.37037348E+00</totfact>
</mgrwt>
</event>
<event>
 8    1  0.1168507E-005  0.1661505E+04  0.7818608E-02  0.8329536E-01
         21   -1    0    0  503  502  0.00000000000E+00  0.00000000000E+00  0.21243844364E+04  0.21243844364E+04  0.00000000000E+00 0. -1.
         21   -1    0    0  501  503 -0.00000000000E+00 -0.00000000000E+00 -0.12572199329E+04  0.12572199329E+04  0.00000000000E+00 0.  1.
    9000010    2    1    2  501    0 -0.20804013353E+03  0.12981205768E+04  0.37619455751E+03  0.17035618070E+04  0.10159737969E+04 0.  0.
   -9000010    2    1    2    0  502  0.20804013353E+03 -0.12981205768E+04  0.49096994596E+03  0.16780425623E+04  0.91998783914E+03 0.  0.
        -13    1    3    3    0    0  0.32751861807E+03  0.69753983712E+03 -0.86320721589E+02  0.77542346346E+03  0.10566000000E+00 0.  1.
          4    1    3    3  501    0 -0.53555875160E+03  0.60058073966E+03  0.46251527910E+03  0.92813834349E+03  0.00000000000E+00 0.  1.
         13    1    4    4    0    0  0.27348907235E+03 -0.95385513758E+03  0.74868700263E+03  0.12430479215E+04  0.10566000000E+00 0. -1.
         -4    1    4    4    0  502 -0.65448938823E+02 -0.34426543920E+03 -0.25771705667E+03  0.43499464079E+03  0.00000000000E+00 0. -1.
<mgrwt>
<rscale>  2 0.16470954E+04</rscale>
<asrwt>0</asrwt>
<pdfrwt beam="1">  1       21 0.32682837E+00 0.16615055E+04</pdfrwt>
<pdfrwt beam="2">  1       21 0.19341845E+00 0.16615055E+04</pdfrwt>
<totfact> 0.82592464E-01</totfact>
</mgrwt>
</event>
<event>
 8    1  0.1168507E-005  0.1086478E+04  0.7818608E-02  0.8710691E-01
         21   -1    0    0  501  502  0.00000000000E+00  0.00000000000E+00  0.13571998250E+04  0.13571998250E+04  0.00000000000E+00 0.  1.
         21   -1    0    0  502  503 -0.00000000000E+00 -0.00000000000E+00 -0.83304839124E+03  0.83304839124E+03  0.00000000000E+00 0.  1.
   -9000010    2    1    2    0  503  0.29736094488E+03 -0.10246171645E+03  0.14123497777E+03  0.10956190961E+04  0.10399576674E+04 0.  0.
    9000010    2    1    2  501    0 -0.29736094488E+03  0.10246171645E+03  0.38291645599E+03  0.10946291201E+04  0.97604608677E+03 0.  0.
        -13    1    4    4    0    0 -0.17500320675E+03  0.37961934141E+03 -0.18018708279E+03  0.45519705921E+03  0.10566000000E+00 0.  1.
          4    1    4    4  501    0 -0.12235773813E+03 -0.27715762496E+03  0.56310353878E+03  0.63943206093E+03  0.00000000000E+00 0.  1.
         13    1    3    3    0    0 -0.12228220822E+03 -0.48768538020E+03 -0.21315362827E+02  0.50323386647E+03  0.10566000000E+00 0. -1.
         -4    1    3    3    0  503  0.41964315310E+03  0.38522366375E+03  0.16255034059E+03  0.59238522963E+03  0.00000000000E+00 0. -1.
<mgrwt>
<rscale>  2 0.10708936E+04</rscale>
<asrwt>0</asrwt>
<pdfrwt beam="1">  1       21 0.20879997E+00 0.10864777E+04</pdfrwt>
<pdfrwt beam="2">  1       21 0.12816129E+00 0.10864777E+04</pdfrwt>
<totfact> 0.24423155E+01</totfact>
</mgrwt>
</event>
<event>
 8    1  0.1168507E-005  0.1132693E+04  0.7818608E-02  0.8672340E-01
         21   -1    0    0  503  502  0.00000000000E+00  0.00000000000E+00  0.10160175755E+04  0.10160175755E+04  0.00000000000E+00 0.  1.
         21   -1    0    0  501  503 -0.00000000000E+00 -0.00000000000E+00 -0.11939634604E+04  0.11939634604E+04  0.00000000000E+00 0.  1.
    9000010    2    1    2  501    0 -0.17131804629E+03  0.69426485318E+02 -0.12922555379E+03  0.11400407669E+04  0.11175078508E+04 0.  0.
   -9000010    2    1    2    0  502  0.17131804629E+03 -0.69426485318E+02 -0.48720331092E+02  0.10699402690E+04  0.10527243697E+04 0.  0.
        -13    1    3    3    0    0 -0.46599573403E+03  0.15956078334E+01 -0.48535874452E+03  0.67285042331E+03  0.10566000000E+00 0.  1.
          4    1    3    3  501    0  0.29467768774E+03  0.67830877485E+02  0.35613319073E+03  0.46719034358E+03  0.00000000000E+00 0.  1.
         13    1    4    4    0    0 -0.38757408258E+03 -0.64917639173E+02 -0.26135604920E+03  0.47194805326E+03  0.10566000000E+00 0. -1.
         -4    1    4    4    0  502  0.55889212887E+03 -0.45088461452E+01  0.21263571811E+03  0.59799221569E+03  0.00000000000E+00 0. -1.
<mgrwt>
<rscale>  2 0.11163783E+04</rscale>
<asrwt>0</asrwt>
<pdfrwt beam="1">  1       21 0.15631040E+00 0.11326931E+04</pdfrwt>
<pdfrwt beam="2">  1       21 0.18368669E+00 0.11326931E+04</pdfrwt>
<totfact> 0.21008987E+01</totfact>
</mgrwt>
</event>
<event>
 8    1  0.1168507E-005  0.1059450E+04  0.7818608E-02  0.8730279E-01
         21   -1    0    0  503  502  0.00000000000E+00  0.00000000000E+00  0.14536875684E+04  0.14536875684E+04  0.00000000000E+00 0. -1.
         21   -1    0    0  501  503 -0.00000000000E+00 -0.00000000000E+00 -0.76148079328E+03  0.76148079328E+03  0.00000000000E+00 0. -1.
    9000010    2    1    2  501    0  0.37048095722E+02 -0.17716792517E+03  0.52023442079E+03  0.11418516765E+04  0.10002101596E+04 0.  0.
   -9000010    2    1    2    0  502 -0.37048095722E+02  0.17716792517E+03  0.17197235428E+03  0.10733166851E+04  0.10438741212E+04 0.  0.
        -13    1    3    3    0    0 -0.13602690933E+03  0.26724178165E+03 -0.13710396465E+03  0.32972564080E+03  0.10566000000E+00 0.  1.
          4    1    3    3  501    0  0.17307500505E+03 -0.44440970681E+03  0.65733838544E+03  0.81212603569E+03  0.00000000000E+00 0.  1.
         13    1    4    4    0    0 -0.24175451560E+03  0.55223354458E+03 -0.23818273186E+02  0.60330295447E+03  0.10566000000E+00 0. -1.
         -4    1    4    4    0  502  0.20470641987E+03 -0.37506561942E+03  0.19579062747E+03  0.47001373066E+03  0.00000000000E+00 0. -1.
<mgrwt>
<rscale>  2 0.10485337E+04</rscale>
<asrwt>0</asrwt>
<pdfrwt beam="1">  1       21 0.22364424E+00 0.10594500E+04</pdfrwt>
<pdfrwt beam="2">  1       21 0.11715089E+00 0.10594500E+04</pdfrwt>
<totfact> 0.24424599E+01</totfact>
</mgrwt>
</event>
<event>
 8    1  0.1168507E-005  0.1213866E+04  0.7818608E-02  0.8625266E-01
         21   -1    0    0  501  502  0.00000000000E+00  0.00000000000E+00  0.20085300002E+04  0.20085300002E+04  0.00000000000E+00 0.  1.
         21   -1    0    0  502  503 -0.00000000000E+00 -0.00000000000E+00 -0.74649853898E+03  0.74649853898E+03  0.00000000000E+00 0.  1.
   -9000010    2    1    2    0  503  0.43926805376E+03 -0.56193841145E+03  0.95801522296E+02  0.10717095152E+04  0.79413610421E+03 0.  0.
    9000010    2    1    2  501    0 -0.43926805376E+03  0.56193841145E+03  0.11662299389E+04  0.16833190239E+04  0.98221151726E+03 0.  0.
        -13    1    4    4    0    0 -0.80272003935E+02 -0.25074099516E+03  0.70286778668E+02  0.27249749299E+03  0.10566000000E+00 0.  1.
          4    1    4    4  501    0 -0.35899604982E+03  0.81267940661E+03  0.10959431602E+04  0.14108215309E+04  0.00000000000E+00 0.  1.
         13    1    3    3    0    0  0.33678557222E+03 -0.41726820869E+03  0.43400536267E+03  0.68985356825E+03  0.10566000000E+00 0. -1.
         -4    1    3    3    0  503  0.10248248154E+03 -0.14467020277E+03 -0.33820384037E+03  0.38185594697E+03  0.00000000000E+00 0. -1.
<mgrwt>
<rscale>  2 0.11754707E+04</rscale>
<asrwt>0</asrwt>
<pdfrwt beam="1">  1       21 0.30900461E+00 0.12138660E+04</pdfrwt>
<pdfrwt beam="2">  1       21 0.11484593E+00 0.12138660E+04</pdfrwt>
<totfact> 0.60438942E+00</totfact>
</mgrwt>
</event>
<event>
 8    1  0.1168507E-005  0.1102677E+04  0.7818608E-02  0.8684919E-01
         21   -1    0    0  503  502  0.00000000000E+00  0.00000000000E+00  0.20810490935E+04  0.20810490935E+04  0.00000000000E+00 0.  1.
         21   -1    0    0  501  503 -0.00000000000E+00 -0.00000000000E+00 -0.61753801417E+03  0.61753801417E+03  0.00000000000E+00 0.  1.
    9000010    2    1    2  501    0  0.41811727541E+03  0.17079936039E+03  0.10610711461E+04  0.15302836124E+04  0.10059331389E+04 0.  0.
   -9000010    2    1    2    0  502 -0.41811727541E+03 -0.17079936039E+03  0.40243993325E+03  0.11683034953E+04  0.99949020989E+03 0.  0.
        -13    1    3    3    0    0  0.24230244660E+03  0.55395558472E+03  0.33640138938E+03  0.69191269060E+03  0.10566000000E+00 0.  1.
          4    1    3    3  501    0  0.17581482881E+03 -0.38315622432E+03  0.72466975673E+03  0.83837092184E+03  0.00000000000E+00 0.  1.
         13    1    4    4    0    0 -0.27767813033E+03 -0.50707328354E+03  0.52790634370E+03  0.78288797272E+03  0.10566000000E+00 0. -1.
         -4    1    4    4    0  502 -0.14043914508E+03  0.33627392315E+03 -0.12546641046E+03  0.38541552254E+03  0.00000000000E+00 0. -1.
<mgrwt>
<rscale>  2 0.11012052E+04</rscale>
<asrwt>0</asrwt>
<pdfrwt beam="1">  1       21 0.32016140E+00 0.11026767E+04</pdfrwt>
<pdfrwt beam="2">  1       21 0.95005849E-01 0.11026767E+04</pdfrwt>
<totfact> 0.85577299E+00</totfact>
</mgrwt>
</event>
<event>
 8    1  0.1168507E-005  0.9975820E+03  0.7818608E-02  0.8780123E-01
         21   -1    0    0  503  502  0.00000000000E+00  0.00000000000E+00  0.68825137168E+03  0.68825137168E+03  0.00000000000E+00 0. -1.
         21   -1    0    0  501  503 -0.00000000000E+00 -0.00000000000E+00 -0.14262646679E+04  0.14262646679E+04  0.00000000000E+00 0. -1.
    9000010    2    1    2  501    0 -0.39487230327E+02  0.12131402080E+03 -0.36074897854E+03  0.10608061385E+04  0.98939047145E+03 0.  0.
   -9000010    2    1    2    0  502  0.39487230327E+02 -0.12131402080E+03 -0.37726431770E+03  0.10537099011E+04  0.97555105311E+03 0.  0.
        -13    1    3    3    0    0  0.25324011212E+03  0.40108128712E+03  0.58513771968E+02  0.47793370454E+03  0.10566000000E+00 0.  1.
          4    1    3    3  501    0 -0.29272734245E+03 -0.27976726632E+03 -0.41926275051E+03  0.58287243397E+03  0.00000000000E+00 0.  1.
         13    1    4    4    0    0  0.44292076196E+03 -0.21037185487E+03  0.56931371159E+01  0.49037489910E+03  0.10566000000E+00 0. -1.
         -4    1    4    4    0  502 -0.40343353163E+03  0.89057834074E+02 -0.38295745482E+03  0.56333500198E+03  0.00000000000E+00 0. -1.
<mgrwt>
<rscale>  2 0.99413310E+03</rscale>
<asrwt>0</asrwt>
<pdfrwt beam="1">  1       21 0.10588483E+00 0.99758200E+03</pdfrwt>
<pdfrwt beam="2">  1       21 0.21942533E+00 0.99758200E+03</pdfrwt>
<totfact> 0.35078318E+01</totfact>
</mgrwt>
</event>
<event>
 8    1  0.1168507E-005  0.1051930E+04  0.7818608E-02  0.8730654E-01
         21   -1    0    0  501  502  0.00000000000E+00  0.00000000000E+00  0.10289652114E+04  0.10289652114E+04  0.00000000000E+00 0. -1.
         21   -1    0    0  502  503 -0.00000000000E+00 -0.00000000000E+00 -0.10613215493E+04  0.10613215493E+04  0.00000000000E+00 0. -1.
   -9000010    2    1    2    0  503 -0.26566422377E+03 -0.12601621530E+03 -0.54092249048E+02  0.10533194094E+04  0.10099991289E+04 0.  0.
    9000010    2    1    2  501    0  0.26566422377E+03  0.12601621530E+03  0.21735911204E+02  0.10369673513E+04  0.99416863339E+03 0.  0.
        -13    1    4    4    0    0 -0.91999109025E+02  0.36917435182E+03  0.33179278913E+03  0.50481680260E+03  0.10566000000E+00 0.  1.
          4    1    4    4  501    0  0.35766333280E+03 -0.24315813652E+03 -0.31005687792E+03  0.53215054875E+03  0.00000000000E+00 0.  1.
         13    1    3    3    0    0 -0.35602072562E+03  0.15952593646E+03  0.36764153574E+03  0.53605931709E+03  0.10566000000E+00 0. -1.
         -4    1    3    3    0  503  0.90356501843E+02 -0.28554215177E+03 -0.42173378478E+03  0.51726009230E+03  0.00000000000E+00 0. -1.
<mgrwt>
<rscale>  2 0.10481113E+04</rscale>
<asrwt>0</asrwt>
<pdfrwt beam="1">  1       21 0.15830234E+00 0.10519296E+04</pdfrwt>
<pdfrwt beam="2">  1       21 0.16328024E+00 0.10519296E+04</pdfrwt>
<totfact> 0.30351265E+01</totfact>
</mgrwt>
</event>
<event>
 8    1  0.1168507E-005  0.1180129E+04  0.7818608E-02  0.8622405E-01
         21   -1    0    0  503  502  0.00000000000E+00  0.00000000000E+00  0.17417860843E+04  0.17417860843E+04  0.00000000000E+00 0. -1.
         21   -1    0    0  501  503 -0.00000000000E+00 -0.00000000000E+00 -0.79785720707E+03  0.79785720707E+03  0.00000000000E+00 0.  1.
    9000010    2    1    2  501    0 -0.42303720516E+03 -0.44778786251E+03  0.51371731598E+03  0.12870936810E+04  0.10065933718E+04 0.  0.
   -9000010    2    1    2    0  502  0.42303720516E+03  0.44778786251E+03  0.43021156122E+03  0.12525496103E+04  0.10021597139E+04 0.  0.
        -13    1    3    3    0    0  0.48569034505E+02 -0.65270234330E+03  0.19841699331E+03  0.68392149729E+03  0.10566000000E+00 0.  1.
          4    1    3    3  501    0 -0.47160623967E+03  0.20491448079E+03  0.31530032267E+03  0.60317218371E+03  0.00000000000E+00 0.  1.
         13    1    4    4    0    0 -0.27555651012E+03  0.18406229216E+03  0.37993424601E+03  0.50414319406E+03  0.10566000000E+00 0. -1.
         -4    1    4    4    0  502  0.69859371528E+03  0.26372557035E+03  0.50277315207E+02  0.74840641627E+03  0.00000000000E+00 0. -1.
<mgrwt>
<rscale>  2 0.11791831E+04</rscale>
<asrwt>0</asrwt>
<pdfrwt beam="1">  1       21 0.26796709E+00 0.11801291E+04</pdfrwt>
<pdfrwt beam="2">  1       21 0.12274726E+00 0.11801291E+04</pdfrwt>
<totfact> 0.98988749E+00</totfact>
</mgrwt>
</event>
<event>
 8    1  0.1168507E-005  0.1179821E+04  0.7818608E-02  0.8624009E-01
         21   -1    0    0  503  502  0.00000000000E+00  0.00000000000E+00  0.11355480649E+04  0.11355480649E+04  0.00000000000E+00 0.  1.
         21   -1    0    0  501  503 -0.00000000000E+00 -0.00000000000E+00 -0.21653063899E+04  0.21653063899E+04  0.00000000000E+00 0.  1.
    9000010    2    1    2  501    0  0.28921102641E+03 -0.53166070490E+03 -0.16071548054E+04  0.19873236420E+04  0.10001012783E+04 0.  0.
   -9000010    2    1    2    0  502 -0.28921102641E+03  0.53166070490E+03  0.57739648040E+03  0.13135308127E+04  0.10127538583E+04 0.  0.
        -13    1    3    3    0    0 -0.23343626630E+03  0.11972020198E+02 -0.97701389576E+03  0.10045854784E+04  0.10566000000E+00 0.  1.
          4    1    3    3  501    0  0.52264729270E+03 -0.54363272510E+03 -0.63014090961E+03  0.98273816367E+03  0.00000000000E+00 0.  1.
         13    1    4    4    0    0 -0.50126743348E+03 -0.62567871323E+02  0.82918066735E+02  0.51191717626E+03  0.10566000000E+00 0. -1.
         -4    1    4    4    0  502  0.21205640707E+03  0.59422857622E+03  0.49447841367E+03  0.80161363646E+03  0.00000000000E+00 0. -1.
<mgrwt>
<rscale>  2 0.11771004E+04</rscale>
<asrwt>0</asrwt>
<pdfrwt beam="1">  1       21 0.17469970E+00 0.11798205E+04</pdfrwt>
<pdfrwt beam="2">  1       21 0.33312406E+00 0.11798205E+04</pdfrwt>
<totfact> 0.11604575E+00</totfact>
</mgrwt>
</event>
<event>
 8    1  0.1168507E-005  0.1309661E+04  0.7818608E-02  0.8549390E-01
         21   -1    0    0  503  502  0.00000000000E+00  0.00000000000E+00  0.11864438929E+04  0.11864438929E+04  0.00000000000E+00 0. -1.
         21   -1    0    0  501  503 -0.00000000000E+00 -0.00000000000E+00 -0.13337574715E+04  0.13337574715E+04  0.00000000000E+00 0. -1.
    9000010    2    1    2  501    0 -0.13690730094E+03  0.60373067079E+03 -0.20867021491E+03  0.12091036571E+04  0.10174252126E+04 0.  0.
   -9000010    2    1    2    0  502  0.13690730094E+03 -0.60373067079E+03  0.61356636246E+02  0.13110977073E+04  0.11541136119E+04 0.  0.
        -13    1    3    3    0    0 -0.40859220034E+03  0.67763815778E+03  0.92665609061E+02  0.79669817705E+03  0.10566000000E+00 0.  1.
          4    1    3    3  501    0  0.27168489940E+03 -0.73907486985E+02 -0.30133582397E+03  0.41240548008E+03  0.00000000000E+00 0.  1.
         13    1    4    4    0    0 -0.25776554238E+03 -0.11984327148E+03  0.48102813942E+03  0.55874284482E+03  0.10566000000E+00 0. -1.
         -4    1    4    4    0  502  0.39467284331E+03 -0.48388739931E+03 -0.41967150318E+03  0.75235486244E+03  0.00000000000E+00 0. -1.
<mgrwt>
<rscale>  2 0.12789207E+04</rscale>
<asrwt>0</asrwt>
<pdfrwt beam="1">  1       21 0.18252983E+00 0.13096612E+04</pdfrwt>
<pdfrwt beam="2">  1       21 0.20519346E+00 0.13096612E+04</pdfrwt>
<totfact> 0.82399602E+00</totfact>
</mgrwt>
</event>
<event>
 8    1  0.1168507E-005  0.1234144E+04  0.7818608E-02  0.8584818E-01
         21   -1    0    0  503  502  0.00000000000E+00  0.00000000000E+00  0.10199198648E+04  0.10199198648E+04  0.00000000000E+00 0.  1.
         21   -1    0    0  501  503 -0.00000000000E+00 -0.00000000000E+00 -0.14931092319E+04  0.14931092319E+04  0.00000000000E+00 0. -1.
    9000010    2    1    2  501    0  0.64653301642E+03 -0.22404423719E+03 -0.39055072626E+03  0.12761210905E+04  0.10038697158E+04 0.  0.
   -9000010    2    1    2    0  502 -0.64653301642E+03  0.22404423719E+03 -0.82638640867E+02  0.12369080061E+04  0.10270888516E+04 0.  0.
        -13    1    3    3    0    0  0.35000569200E+03  0.39034438754E+03 -0.24434429773E+03  0.57842620300E+03  0.10566000000E+00 0.  1.
          4    1    3    3  501    0  0.29652732442E+03 -0.61438862473E+03 -0.14620642854E+03  0.69769488752E+03  0.00000000000E+00 0.  1.
         13    1    4    4    0    0 -0.50028366161E+03  0.34631362959E+03  0.39310412015E+03  0.72439473532E+03  0.10566000000E+00 0. -1.
         -4    1    4    4    0  502 -0.14624935481E+03 -0.12226939240E+03 -0.47574276102E+03  0.51251327082E+03  0.00000000000E+00 0. -1.
<mgrwt>
<rscale>  2 0.12293021E+04</rscale>
<asrwt>0</asrwt>
<pdfrwt beam="1">  1       21 0.15691075E+00 0.12341443E+04</pdfrwt>
<pdfrwt beam="2">  1       21 0.22970911E+00 0.12341443E+04</pdfrwt>
<totfact> 0.89528265E+00</totfact>
</mgrwt>
</event>
<event>
 8    1  0.1168507E-005  0.1079283E+04  0.7818608E-02  0.8705231E-01
         21   -1    0    0  501  502  0.00000000000E+00  0.00000000000E+00  0.11620819890E+04  0.11620819890E+04  0.00000000000E+00 0.  1.
         21   -1    0    0  502  503 -0.00000000000E+00 -0.00000000000E+00 -0.10642278247E+04  0.10642278247E+04  0.00000000000E+00 0.  1.
   -9000010    2    1    2    0  503  0.36098393584E+03 -0.12835005768E+03 -0.23559041284E+03  0.10966913198E+04  0.10002229097E+04 0.  0.
    9000010    2    1    2  501    0 -0.36098393584E+03  0.12835005768E+03  0.33344457721E+03  0.11296184939E+04  0.10089943094E+04 0.  0.
        -13    1    4    4    0    0  0.22421048703E+03  0.29463192469E+03  0.36570669458E+03  0.52040341195E+03  0.10566000000E+00 0.  1.
          4    1    4    4  501    0 -0.58519442288E+03 -0.16628186701E+03 -0.32262117370E+02  0.60921508195E+03  0.00000000000E+00 0.  1.
         13    1    3    3    0    0  0.60414881962E+03  0.22201438514E+03 -0.11895232707E+03  0.65455011324E+03  0.10566000000E+00 0. -1.
         -4    1    3    3    0  503 -0.24316488378E+03 -0.35036444282E+03 -0.11663808578E+03  0.44214120657E+03  0.00000000000E+00 0. -1.
<mgrwt>
<rscale>  2 0.10772286E+04</rscale>
<asrwt>0</asrwt>
<pdfrwt beam="1">  1       21 0.17878184E+00 0.10792834E+04</pdfrwt>
<pdfrwt beam="2">  1       21 0.16372736E+00 0.10792834E+04</pdfrwt>
<totfact> 0.20099625E+01</totfact>
</mgrwt>
</event>
<event>
 8    1  0.1168507E-005  0.1124710E+04  0.7818608E-02  0.8669500E-01
         21   -1    0    0  501  502  0.00000000000E+00  0.00000000000E+00  0.97809336310E+03  0.97809336310E+03  0.00000000000E+00 0. -1.
         21   -1    0    0  502  503 -0.00000000000E+00 -0.00000000000E+00 -0.14450052608E+04  0.14450052608E+04  0.00000000000E+00 0. -1.
   -9000010    2    1    2    0  503  0.23065189597E+03  0.44874736897E+03 -0.65191012298E+03  0.12832756523E+04  0.98348110968E+03 0.  0.
    9000010    2    1    2  501    0 -0.23065189597E+03 -0.44874736897E+03  0.18499822528E+03  0.11398229716E+04  0.10051853386E+04 0.  0.
        -13    1    4    4    0    0 -0.10715844174E+03 -0.28242978466E+03  0.60237115790E+03  0.67386982269E+03  0.10566000000E+00 0.  1.
          4    1    4    4  501    0 -0.12349345424E+03 -0.16631758431E+03 -0.41737293261E+03  0.46595314890E+03  0.00000000000E+00 0.  1.
         13    1    3    3    0    0 -0.33699873738E+02  0.28827324462E+03  0.21608147507E+03  0.36184024111E+03  0.10566000000E+00 0. -1.
         -4    1    3    3    0  503  0.26435176971E+03  0.16047412435E+03 -0.86799159805E+03  0.92143541120E+03  0.00000000000E+00 0. -1.
<mgrwt>
<rscale>  2 0.11198395E+04</rscale>
<asrwt>0</asrwt>
<pdfrwt beam="1">  1       21 0.15047590E+00 0.11247098E+04</pdfrwt>
<pdfrwt beam="2">  1       21 0.22230850E+00 0.11247098E+04</pdfrwt>
<totfact> 0.11858229E+01</totfact>
</mgrwt>
</event>
<event>
 8    1  0.1168507E-005  0.1098090E+04  0.7818608E-02  0.8691047E-01
         21   -1    0    0  503  502  0.00000000000E+00  0.00000000000E+00  0.11513344819E+04  0.11513344819E+04  0.00000000000E+00 0.  1.
         21   -1    0    0  501  503 -0.00000000000E+00 -0.00000000000E+00 -0.11739463017E+04  0.11739463017E+04  0.00000000000E+00 0.  1.
    9000010    2    1    2  501    0  0.17763600976E+03  0.38437548457E+03 -0.41622677936E+03  0.11587759215E+04  0.99509689948E+03 0.  0.
   -9000010    2    1    2    0  502 -0.17763600976E+03 -0.38437548457E+03  0.39361495958E+03  0.11665048620E+04  0.10131642471E+04 0.  0.
        -13    1    3    3    0    0 -0.14946022288E+03 -0.16676604738E+03  0.17701836414E+03  0.28545539965E+03  0.10566000000E+00 0.  1.
          4    1    3    3  501    0  0.32709623264E+03  0.55114153195E+03 -0.59324514350E+03  0.87332052188E+03  0.00000000000E+00 0.  1.
         13    1    4    4    0    0 -0.37758181690E+03  0.22643309412E+03  0.66237944316E+02  0.44522741492E+03  0.10566000000E+00 0. -1.
         -4    1    4    4    0  502  0.19994580714E+03 -0.61080857869E+03  0.32737701526E+03  0.72127744712E+03  0.00000000000E+00 0. -1.
<mgrwt>
<rscale>  2 0.10939039E+04</rscale>
<asrwt>0</asrwt>
<pdfrwt beam="1">  1       21 0.17712838E+00 0.10980896E+04</pdfrwt>
<pdfrwt beam="2">  1       21 0.18060712E+00 0.10980896E+04</pdfrwt>
<totfact> 0.14933983E+01</totfact>
</mgrwt>
</event>
<event>
 8    1  0.1168507E-005  0.1178728E+04  0.7818608E-02  0.8631735E-01
         21   -1    0    0  503  502  0.00000000000E+00  0.00000000000E+00  0.65986844709E+03  0.65986844709E+03  0.00000000000E+00 0. -1.
         21   -1    0    0  501  503 -0.00000000000E+00 -0.00000000000E+00 -0.24005674643E+04  0.24005674643E+04  0.00000000000E+00 0. -1.
    9000010    2    1    2  501    0  0.42175500499E+03 -0.30138562642E+03 -0.14612351154E+04  0.18490314815E+04  0.10074714771E+04 0.  0.
   -9000010    2    1    2    0  502 -0.42175500499E+03  0.30138562642E+03 -0.27946390179E+03  0.12114044298E+04  0.10586264875E+04 0.  0.
        -13    1    3    3    0    0 -0.14805509228E+02  0.33776479073E+03 -0.29152893209E+03  0.44642287841E+03  0.10566000000E+00 0.  1.
          4    1    3    3  501    0  0.43656051422E+03 -0.63915041715E+03 -0.11697061833E+04  0.14026086031E+04  0.00000000000E+00 0.  1.
         13    1    4    4    0    0  0.34981498039E+03  0.17494522432E+03 -0.37286406072E+02  0.39289520137E+03  0.10566000000E+00 0. -1.
         -4    1    4    4    0  502 -0.77156998538E+03  0.12644040210E+03 -0.24217749572E+03  0.81850922845E+03  0.00000000000E+00 0. -1.
<mgrwt>
<rscale>  2 0.11671284E+04</rscale>
<asrwt>0</asrwt>
<pdfrwt beam="1">  1       21 0.10151822E+00 0.11787284E+04</pdfrwt>
<pdfrwt beam="2">  1       21 0.36931808E+00 0.11787284E+04</pdfrwt>
<totfact> 0.32019873E+00</totfact>
</mgrwt>
</event>
<event>
 8    1  0.1168507E-005  0.1095107E+04  0.7818608E-02  0.8697610E-01
         21   -1    0    0  503  502  0.00000000000E+00  0.00000000000E+00  0.10329077413E+04  0.10329077413E+04  0.00000000000E+00 0.  1.
         21   -1    0    0  501  503 -0.00000000000E+00 -0.00000000000E+00 -0.11731974373E+04  0.11731974373E+04  0.00000000000E+00 0.  1.
    9000010    2    1    2  501    0 -0.30516836257E+03 -0.19768646652E+03 -0.29528062272E+03  0.11000842136E+04  0.99538282199E+03 0.  0.
   -9000010    2    1    2    0  502  0.30516836257E+03  0.19768646652E+03  0.15499092673E+03  0.11060209650E+04  0.10329823421E+04 0.  0.
        -13    1    3    3    0    0 -0.60427298229E+03 -0.36593850377E+03 -0.26892065219E+03  0.75589361289E+03  0.10566000000E+00 0.  1.
          4    1    3    3  501    0  0.29910461972E+03  0.16825203724E+03 -0.26359970529E+02  0.34419060072E+03  0.00000000000E+00 0.  1.
         13    1    4    4    0    0  0.95847320853E+01 -0.34547087795E+03 -0.19362359004E+03  0.39614656427E+03  0.10566000000E+00 0. -1.
         -4    1    4    4    0  502  0.29558363048E+03  0.54315734447E+03  0.34861451677E+03  0.70987440070E+03  0.00000000000E+00 0. -1.
<mgrwt>
<rscale>  2 0.10861498E+04</rscale>
<asrwt>0</asrwt>
<pdfrwt beam="1">  1       21 0.15890888E+00 0.10951074E+04</pdfrwt>
<pdfrwt beam="2">  1       21 0.18049191E+00 0.10951074E+04</pdfrwt>
<totfact> 0.21340914E+01</totfact>
</mgrwt>
</event>
<event>
 8    1  0.1168507E-005  0.1200887E+04  0.7818608E-02  0.8635418E-01
         21   -1    0    0  501  502  0.00000000000E+00  0.00000000000E+00  0.25966391587E+04  0.25966391587E+04  0.00000000000E+00 0. -1.
         21   -1    0    0  502  503 -0.00000000000E+00 -0.00000000000E+00 -0.50534121477E+03  0.50534121477E+03  0.00000000000E+00 0. -1.
   -9000010    2    1    2    0  503  0.52432463757E+02  0.67454891140E+03  0.83857934620E+03  0.14646994466E+04  0.99215107306E+03 0.  0.
    9000010    2    1    2  501    0 -0.52432463757E+02 -0.67454891140E+03  0.12527185978E+04  0.16372809269E+04  0.80846740899E+03 0.  0.
        -13    1    4    4    0    0  0.25105775702E+03  0.14289364129E+02  0.12344963554E+03  0.28013212412E+03  0.10566000000E+00 0.  1.
          4    1    4    4  501    0 -0.30349022077E+03 -0.68883827553E+03  0.11292689622E+04  0.13571488028E+04  0.00000000000E+00 0.  1.
         13    1    3    3    0    0 -0.18352425401E+02 -0.59600712974E+02 -0.18945565614E+03  0.19945554220E+03  0.10566000000E+00 0. -1.
         -4    1    3    3    0  503  0.70784889158E+02  0.73414962438E+03  0.10280350023E+04  0.12652439044E+04  0.00000000000E+00 0. -1.
<mgrwt>
<rscale>  2 0.11624108E+04</rscale>
<asrwt>0</asrwt>
<pdfrwt beam="1">  1       21 0.39948294E+00 0.12008868E+04</pdfrwt>
<pdfrwt beam="2">  1       21 0.77744804E-01 0.12008868E+04</pdfrwt>
<totfact> 0.38626589E+00</totfact>
</mgrwt>
</event>
<event>
 8    1  0.1168507E-005  0.1036747E+04  0.7818608E-02  0.8741321E-01
         21   -1    0    0  501  502  0.00000000000E+00  0.00000000000E+00  0.55566806935E+03  0.55566806935E+03  0.00000000000E+00 0. -1.
         21   -1    0    0  502  503 -0.00000000000E+00 -0.00000000000E+00 -0.19573440309E+04  0.19573440309E+04  0.00000000000E+00 0. -1.
   -9000010    2    1    2    0  503 -0.29951394699E+02 -0.29163983795E+03 -0.84984307144E+03  0.13405515584E+04  0.99443167366E+03 0.  0.
    9000010    2    1    2  501    0  0.29951394699E+02  0.29163983795E+03 -0.55183289014E+03  0.11724605419E+04  0.99206517047E+03 0.  0.
        -13    1    4    4    0    0 -0.81005805431E+02  0.61469771959E+03 -0.55311913995E+03  0.83087665819E+03  0.10566000000E+00 0.  1.
          4    1    4    4  501    0  0.11095720013E+03 -0.32305788163E+03  0.12862498114E+01  0.34158388367E+03  0.00000000000E+00 0.  1.
         13    1    3    3    0    0 -0.37519286747E+03 -0.44594050425E+03 -0.74931083355E+03  0.94926253354E+03  0.10566000000E+00 0. -1.
         -4    1    3    3    0  503  0.34524147277E+03  0.15430066630E+03 -0.10053223788E+03  0.39128902488E+03  0.00000000000E+00 0. -1.
<mgrwt>
<rscale>  2 0.10361795E+04</rscale>
<asrwt>0</asrwt>
<pdfrwt beam="1">  1       21 0.85487394E-01 0.10367474E+04</pdfrwt>
<pdfrwt beam="2">  1       21 0.30112986E+00 0.10367474E+04</pdfrwt>
<totfact> 0.15487636E+01</totfact>
</mgrwt>
</event>
<event>
 8    1  0.1168507E-005  0.1149282E+04  0.7818608E-02  0.8650739E-01
         21   -1    0    0  503  502  0.00000000000E+00  0.00000000000E+00  0.72485103246E+03  0.72485103246E+03  0.00000000000E+00 0.  1.
         21   -1    0    0  501  503 -0.00000000000E+00 -0.00000000000E+00 -0.31752762635E+04  0.31752762635E+04  0.00000000000E+00 0.  1.
    9000010    2    1    2  501    0 -0.37321382020E+03  0.35553733101E+03 -0.25088825040E+04  0.27493591947E+04  0.99939442322E+03 0.  0.
   -9000010    2    1    2    0  502  0.37321382020E+03 -0.35553733101E+03  0.58457272984E+02  0.11507681013E+04  0.10272071947E+04 0.  0.
        -13    1    3    3    0    0 -0.39798945971E+03  0.65051280159E+03 -0.21662677890E+04  0.22965797743E+04  0.10566000000E+00 0.  1.
          4    1    3    3  501    0  0.24775639513E+02 -0.29497547058E+03 -0.34261471503E+03  0.45277942037E+03  0.00000000000E+00 0.  1.
         13    1    4    4    0    0  0.23818905672E+03 -0.66870946132E+03  0.25840800272E+03  0.75543436341E+03  0.10566000000E+00 0. -1.
         -4    1    4    4    0  502  0.13502476348E+03  0.31317213030E+03 -0.19995072974E+03  0.39533373784E+03  0.00000000000E+00 0. -1.
<mgrwt>
<rscale>  2 0.11430343E+04</rscale>
<asrwt>0</asrwt>
<pdfrwt beam="1">  1       21 0.11151554E+00 0.11492824E+04</pdfrwt>
<pdfrwt beam="2">  1       21 0.48850404E+00 0.11492824E+04</pdfrwt>
<totfact> 0.37179516E-01</totfact>
</mgrwt>
</event>
<event>
 8    1  0.1168507E-005  0.1029284E+04  0.7818608E-02  0.8794980E-01
         21   -1    0    0  503  502  0.00000000000E+00  0.00000000000E+00  0.38319237108E+03  0.38319237108E+03  0.00000000000E+00 0. -1.
         21   -1    0    0  501  503 -0.00000000000E+00 -0.00000000000E+00 -0.23321980452E+04  0.23321980452E+04  0.00000000000E+00 0. -1.
    9000010    2    1    2  501    0 -0.96226993828E+02 -0.26025923586E+03 -0.10765894549E+04  0.13661184415E+04  0.79387671445E+03 0.  0.
   -9000010    2    1    2    0  502  0.96226993828E+02  0.26025923586E+03 -0.87241621925E+03  0.13492719748E+04  0.99117621949E+03 0.  0.
        -13    1    3    3    0    0 -0.52561179636E+02 -0.34759173854E+03 -0.74585565508E+02  0.35936849062E+03  0.10566000000E+00 0.  1.
          4    1    3    3  501    0 -0.43665814192E+02  0.87332502673E+02 -0.10020038894E+04  0.10067499509E+04  0.00000000000E+00 0.  1.
         13    1    4    4    0    0  0.21522535518E+03 -0.31233838027E+03 -0.12318907193E+03  0.39881421227E+03  0.10566000000E+00 0. -1.
         -4    1    4    4    0  502 -0.11899836136E+03  0.57259761613E+03 -0.74922714732E+03  0.95045776250E+03  0.00000000000E+00 0. -1.
<mgrwt>
<rscale>  2 0.97858093E+03</rscale>
<asrwt>0</asrwt>
<pdfrwt beam="1">  1       21 0.58952673E-01 0.10292836E+04</pdfrwt>
<pdfrwt beam="2">  1       21 0.35879969E+00 0.10292836E+04</pdfrwt>
<totfact> 0.14788802E+01</totfact>
</mgrwt>
</event>
<event>
 8    1  0.1168507E-005  0.1098436E+04  0.7818608E-02  0.8696370E-01
         21   -1    0    0  503  502  0.00000000000E+00  0.00000000000E+00  0.11716151965E+04  0.11716151965E+04  0.00000000000E+00 0.  1.
         21   -1    0    0  501  503 -0.00000000000E+00 -0.00000000000E+00 -0.10478847598E+04  0.10478847598E+04  0.00000000000E+00 0.  1.
    9000010    2    1    2  501    0  0.29622396732E+02 -0.38150403852E+03 -0.19728110792E+03  0.11160110401E+04  0.10296300249E+04 0.  0.
   -9000010    2    1    2    0  502 -0.29622396732E+02  0.38150403852E+03  0.32101154464E+03  0.11034889162E+04  0.98397995838E+03 0.  0.
        -13    1    3    3    0    0 -0.25407447625E+03  0.10624912106E+03  0.26828955457E+03  0.38447628206E+03  0.10566000000E+00 0.  1.
          4    1    3    3  501    0  0.28369687299E+03 -0.48775315958E+03 -0.46557066249E+03  0.73153475802E+03  0.00000000000E+00 0.  1.
         13    1    4    4    0    0  0.17629666376E+03  0.47211335028E+03  0.57473487235E+03  0.76438976565E+03  0.10566000000E+00 0. -1.
         -4    1    4    4    0  502 -0.20591906049E+03 -0.90609311761E+02 -0.25372332771E+03  0.33909915051E+03  0.00000000000E+00 0. -1.
<mgrwt>
<rscale>  2 0.10876089E+04</rscale>
<asrwt>0</asrwt>
<pdfrwt beam="1">  1       21 0.18024849E+00 0.10984356E+04</pdfrwt>
<pdfrwt beam="2">  1       21 0.16121304E+00 0.10984356E+04</pdfrwt>
<totfact> 0.20462616E+01</totfact>
</mgrwt>
</event>
<event>
 8    1  0.1168507E-005  0.1213089E+04  0.7818608E-02  0.8600353E-01
         21   -1    0    0  503  502  0.00000000000E+00  0.00000000000E+00  0.20721766701E+04  0.20721766701E+04  0.00000000000E+00 0. -1.
         21   -1    0    0  501  503 -0.00000000000E+00 -0.00000000000E+00 -0.70016328998E+03  0.70016328998E+03  0.00000000000E+00 0. -1.
    9000010    2    1    2  501    0  0.63846310221E+03 -0.15340488730E+03  0.74760536879E+03  0.14249556154E+04  0.10200081009E+04 0.  0.
   -9000010    2    1    2    0  502 -0.63846310221E+03  0.15340488730E+03  0.62440801132E+03  0.13473843447E+04  0.99719156405E+03 0.  0.
        -13    1    3    3    0    0  0.36855061067E+02  0.37796882939E+03  0.97615311846E+02  0.39210648016E+03  0.10566000000E+00 0.  1.
          4    1    3    3  501    0  0.60160804115E+03 -0.53137371668E+03  0.64999005695E+03  0.10328491352E+04  0.00000000000E+00 0.  1.
         13    1    4    4    0    0 -0.22634045746E+03 -0.21112346365E+02  0.82586719686E+03  0.85658179520E+03  0.10566000000E+00 0. -1.
         -4    1    4    4    0  502 -0.41212264475E+03  0.17451723366E+03 -0.20145918554E+03  0.49080254951E+03  0.00000000000E+00 0. -1.
<mgrwt>
<rscale>  2 0.12082801E+04</rscale>
<asrwt>0</asrwt>
<pdfrwt beam="1">  1       21 0.31879641E+00 0.12130889E+04</pdfrwt>
<pdfrwt beam="2">  1       21 0.10771743E+00 0.12130889E+04</pdfrwt>
<totfact> 0.61449193E+00</totfact>
</mgrwt>
</event>
<event>
 8    1  0.1168507E-005  0.1187469E+04  0.7818608E-02  0.8619981E-01
         21   -1    0    0  501  502  0.00000000000E+00  0.00000000000E+00  0.91990747049E+03  0.91990747049E+03  0.00000000000E+00 0. -1.
         21   -1    0    0  502  503 -0.00000000000E+00 -0.00000000000E+00 -0.15582024235E+04  0.15582024235E+04  0.00000000000E+00 0. -1.
   -9000010    2    1    2    0  503 -0.18549712557E+02  0.65810590067E+03 -0.54184075547E+03  0.12867295571E+04  0.96365661957E+03 0.  0.
    9000010    2    1    2  501    0  0.18549712557E+02 -0.65810590067E+03 -0.96454197581E+02  0.11913803370E+04  0.98824907119E+03 0.  0.
        -13    1    4    4    0    0 -0.35314803540E+03 -0.36032224437E+03  0.28654199065E+03  0.58021718198E+03  0.10566000000E+00 0.  1.
          4    1    4    4  501    0  0.37169774796E+03 -0.29778365630E+03 -0.38299618823E+03  0.61116315497E+03  0.00000000000E+00 0.  1.
         13    1    3    3    0    0  0.49527566427E+02  0.32461343658E+03 -0.79656872441E+03  0.86159654533E+03  0.10566000000E+00 0. -1.
         -4    1    3    3    0  503 -0.68077278984E+02  0.33349246408E+03  0.25472796894E+03  0.42513301175E+03  0.00000000000E+00 0. -1.
<mgrwt>
<rscale>  2 0.11823396E+04</rscale>
<asrwt>0</asrwt>
<pdfrwt beam="1">  1       21 0.14152423E+00 0.11874695E+04</pdfrwt>
<pdfrwt beam="2">  1       21 0.23972345E+00 0.11874695E+04</pdfrwt>
<totfact> 0.10468832E+01</totfact>
</mgrwt>
</event>
<event>
 8    1  0.1168507E-005  0.1140873E+04  0.7818608E-02  0.8653927E-01
         21   -1    0    0  503  502  0.00000000000E+00  0.00000000000E+00  0.84110758438E+03  0.84110758438E+03  0.00000000000E+00 0. -1.
         21   -1    0    0  501  503 -0.00000000000E+00 -0.00000000000E+00 -0.15415312013E+04  0.15415312013E+04  0.00000000000E+00 0. -1.
    9000010    2    1    2  501    0 -0.30906757744E+03 -0.45726131486E+03 -0.40895614436E+03  0.12051230269E+04  0.99018468198E+03 0.  0.
   -9000010    2    1    2    0  502  0.30906757744E+03  0.45726131486E+03 -0.29146747257E+03  0.11775157588E+04  0.99848855636E+03 0.  0.
        -13    1    3    3    0    0  0.24891246277E+03 -0.51492334279E+03 -0.22809095451E+03  0.61573448642E+03  0.10566000000E+00 0.  1.
          4    1    3    3  501    0 -0.55798004021E+03  0.57662027925E+02 -0.18086518985E+03  0.58938854047E+03  0.00000000000E+00 0.  1.
         13    1    4    4    0    0 -0.28387048717E+03 -0.73318552142E+02  0.73312203478E+02  0.30221309356E+03  0.10566000000E+00 0. -1.
         -4    1    4    4    0  502  0.59293806461E+03  0.53057986700E+03 -0.36477967605E+03  0.87530266525E+03  0.00000000000E+00 0. -1.
<mgrwt>
<rscale>  2 0.11390531E+04</rscale>
<asrwt>0</asrwt>
<pdfrwt beam="1">  1       21 0.12940117E+00 0.11408725E+04</pdfrwt>
<pdfrwt beam="2">  1       21 0.23715865E+00 0.11408725E+04</pdfrwt>
<totfact> 0.14372962E+01</totfact>
</mgrwt>
</event>
<event>
 8    1  0.1168507E-005  0.1225020E+04  0.7818608E-02  0.8593636E-01
         21   -1    0    0  503  502  0.00000000000E+00  0.00000000000E+00  0.14018226588E+04  0.14018226588E+04  0.00000000000E+00 0. -1.
         21   -1    0    0  501  503 -0.00000000000E+00 -0.00000000000E+00 -0.10554024236E+04  0.10554024236E+04  0.00000000000E+00 0.  1.
    9000010    2    1    2  501    0  0.57848713866E+03  0.38136281014E+03  0.47694713223E+02  0.12259484882E+04  0.10102425192E+04 0.  0.
   -9000010    2    1    2    0  502 -0.57848713866E+03 -0.38136281014E+03  0.29872552197E+03  0.12312765942E+04  0.97299545296E+03 0.  0.
        -13    1    3    3    0    0  0.59691628276E+03 -0.17348489941E+03 -0.14500004700E+03  0.63830328508E+03  0.10566000000E+00 0.  1.
          4    1    3    3  501    0 -0.18429144093E+02  0.55484770954E+03  0.19269476023E+03  0.58764520313E+03  0.00000000000E+00 0.  1.
         13    1    4    4    0    0  0.93809821087E+02  0.22731627347E+03 -0.64673781744E+02  0.25427481182E+03  0.10566000000E+00 0. -1.
         -4    1    4    4    0  502 -0.67229695975E+03 -0.60867908361E+03  0.36339930372E+03  0.97700178242E+03  0.00000000000E+00 0. -1.
<mgrwt>
<rscale>  2 0.12173153E+04</rscale>
<asrwt>0</asrwt>
<pdfrwt beam="1">  1       21 0.21566503E+00 0.12250204E+04</pdfrwt>
<pdfrwt beam="2">  1       21 0.16236960E+00 0.12250204E+04</pdfrwt>
<totfact> 0.10259414E+01</totfact>
</mgrwt>
</event>
<event>
 8    1  0.1168507E-005  0.1106524E+04  0.7818608E-02  0.8681029E-01
         21   -1    0    0  501  502  0.00000000000E+00  0.00000000000E+00  0.17485355661E+04  0.17485355661E+04  0.00000000000E+00 0.  1.
         21   -1    0    0  502  503 -0.00000000000E+00 -0.00000000000E+00 -0.11448223279E+04  0.11448223279E+04  0.00000000000E+00 0.  1.
   -9000010    2    1    2    0  503 -0.17357409810E+03  0.44066023755E+03 -0.60156305398E+03  0.12571772069E+04  0.99714944170E+03 0.  0.
    9000010    2    1    2  501    0  0.17357409810E+03 -0.44066023755E+03  0.12052762922E+04  0.16361806872E+04  0.10000434432E+04 0.  0.
        -13    1    4    4    0    0  0.48283570576E+03  0.85647276586E+02  0.45509129305E+03  0.66900961944E+03  0.10566000000E+00 0.  1.
          4    1    4    4  501    0 -0.30926160766E+03 -0.52630751414E+03  0.75018499911E+03  0.96717106775E+03  0.00000000000E+00 0.  1.
         13    1    3    3    0    0  0.27152897331E+03  0.49660218892E+03 -0.57646666038E+03  0.80787099161E+03  0.10566000000E+00 0. -1.
         -4    1    3    3    0  503 -0.44510307141E+03 -0.55941951367E+02 -0.25096393598E+02  0.44930621526E+03  0.00000000000E+00 0. -1.
<mgrwt>
<rscale>  2 0.11058701E+04</rscale>
<asrwt>0</asrwt>
<pdfrwt beam="1">  1       21 0.26900547E+00 0.11065244E+04</pdfrwt>
<pdfrwt beam="2">  1       21 0.17612651E+00 0.11065244E+04</pdfrwt>
<totfact> 0.32675864E+00</totfact>
</mgrwt>
</event>
<event>
 8    1  0.1168507E-005  0.1093563E+04  0.7818608E-02  0.8703212E-01
         21   -1    0    0  501  502  0.00000000000E+00  0.00000000000E+00  0.64623114063E+03  0.64623114063E+03  0.00000000000E+00 0.  1.
         21   -1    0    0  502  503 -0.00000000000E+00 -0.00000000000E+00 -0.17621283042E+04  0.17621283042E+04  0.00000000000E+00 0.  1.
   -9000010    2    1    2    0  503  0.30445389043E+01  0.35645536547E+03 -0.49194243791E+03  0.11493123453E+04  0.97562380462E+03 0.  0.
    9000010    2    1    2  501    0 -0.30445389043E+01 -0.35645536547E+03 -0.62395472569E+03  0.12590470995E+04  0.10338328696E+04 0.  0.
        -13    1    4    4    0    0 -0.49161403407E+02 -0.19286318434E+03  0.27761862514E+03  0.34159210127E+03  0.10566000000E+00 0.  1.
          4    1    4    4  501    0  0.46116864503E+02 -0.16359218113E+03 -0.90157335083E+03  0.91745499827E+03  0.00000000000E+00 0.  1.
         13    1    3    3    0    0  0.30498907620E+03 -0.10708273587E+03  0.10072987527E+03  0.33857283981E+03  0.10566000000E+00 0. -1.
         -4    1    3    3    0  503 -0.30194453729E+03  0.46353810135E+03 -0.59267231319E+03  0.81073950553E+03  0.00000000000E+00 0. -1.
<mgrwt>
<rscale>  2 0.10795831E+04</rscale>
<asrwt>0</asrwt>
<pdfrwt beam="1">  1       21 0.99420178E-01 0.10935630E+04</pdfrwt>
<pdfrwt beam="2">  1       21 0.27109666E+00 0.10935630E+04</pdfrwt>
<totfact> 0.16977636E+01</totfact>
</mgrwt>
</event>
<event>
 8    1  0.1168507E-005  0.1100500E+04  0.7818608E-02  0.8698184E-01
         21   -1    0    0  503  502  0.00000000000E+00  0.00000000000E+00  0.39033932336E+03  0.39033932336E+03  0.00000000000E+00 0. -1.
         21   -1    0    0  501  503 -0.00000000000E+00 -0.00000000000E+00 -0.29403527415E+04  0.29403527415E+04  0.00000000000E+00 0. -1.
    9000010    2    1    2  501    0 -0.28899591544E+03  0.36108232977E+03 -0.13471413855E+04  0.17395083790E+04  0.99859921897E+03 0.  0.
   -9000010    2    1    2    0  502  0.28899591544E+03 -0.36108232977E+03 -0.12028720326E+04  0.15911836858E+04  0.93330879517E+03 0.  0.
        -13    1    3    3    0    0 -0.21205600558E+03  0.21156008075E+03 -0.14894161755E+04  0.15192386159E+04  0.10566000000E+00 0.  1.
          4    1    3    3  501    0 -0.76939909856E+02  0.14952224902E+03  0.14227478994E+03  0.22026976309E+03  0.00000000000E+00 0.  1.
         13    1    4    4    0    0  0.22462695764E+03 -0.53149392060E+03 -0.26353273348E+03  0.63434420507E+03  0.10566000000E+00 0. -1.
         -4    1    4    4    0  502  0.64368957801E+02  0.17041159083E+03 -0.93933929910E+03  0.95683948071E+03  0.00000000000E+00 0. -1.
<mgrwt>
<rscale>  2 0.10854739E+04</rscale>
<asrwt>0</asrwt>
<pdfrwt beam="1">  1       21 0.60052202E-01 0.11004997E+04</pdfrwt>
<pdfrwt beam="2">  1       21 0.45236197E+00 0.11004997E+04</pdfrwt>
<totfact> 0.31220946E+00</totfact>
</mgrwt>
</event>
<event>
 8    1  0.1168507E-005  0.1109539E+04  0.7818608E-02  0.8678502E-01
         21   -1    0    0  501  502  0.00000000000E+00  0.00000000000E+00  0.10762744106E+04  0.10762744106E+04  0.00000000000E+00 0.  1.
         21   -1    0    0  502  503 -0.00000000000E+00 -0.00000000000E+00 -0.12034645805E+04  0.12034645805E+04  0.00000000000E+00 0.  1.
   -9000010    2    1    2    0  503 -0.45551820978E+03  0.15394989603E+03 -0.32281379471E+03  0.11555450956E+04  0.99993915417E+03 0.  0.
    9000010    2    1    2  501    0  0.45551820978E+03 -0.15394989603E+03  0.19562362481E+03  0.11241938954E+04  0.99716894358E+03 0.  0.
        -13    1    4    4    0    0  0.74445462251E+03 -0.13704748156E+03  0.30318415908E+03  0.81542341312E+03  0.10566000000E+00 0.  1.
          4    1    4    4  501    0 -0.28893641274E+03 -0.16902414467E+02 -0.10756053427E+03  0.30877048232E+03  0.00000000000E+00 0.  1.
         13    1    3    3    0    0 -0.10775252840E+03  0.32566343987E+03  0.27724255212E+03  0.44105637657E+03  0.10566000000E+00 0. -1.
         -4    1    3    3    0  503 -0.34776568138E+03 -0.17171354384E+03 -0.60005634683E+03  0.71448871905E+03  0.00000000000E+00 0. -1.
<mgrwt>
<rscale>  2 0.11089140E+04</rscale>
<asrwt>0</asrwt>
<pdfrwt beam="1">  1       21 0.16558068E+00 0.11095385E+04</pdfrwt>
<pdfrwt beam="2">  1       21 0.18514840E+00 0.11095385E+04</pdfrwt>
<totfact> 0.17091515E+01</totfact>
</mgrwt>
</event>
<event>
 8    1  0.1168507E-005  0.1008924E+04  0.7818608E-02  0.8776346E-01
         21   -1    0    0  503  502  0.00000000000E+00  0.00000000000E+00  0.55720601730E+03  0.55720601730E+03  0.00000000000E+00 0. -1.
         21   -1    0    0  501  503 -0.00000000000E+00 -0.00000000000E+00 -0.17507779079E+04  0.17507779079E+04  0.00000000000E+00 0. -1.
    9000010    2    1    2  501    0 -0.64451499988E+02  0.63980492358E+02 -0.58849879484E+03  0.11315311175E+04  0.96217687513E+03 0.  0.
   -9000010    2    1    2    0  502  0.64451499988E+02 -0.63980492358E+02 -0.60507309579E+03  0.11764528077E+04  0.10048284721E+04 0.  0.
        -13    1    3    3    0    0  0.15504634645E+03 -0.12117749805E+03  0.20710772631E+03  0.28568685137E+03  0.10566000000E+00 0.  1.
          4    1    3    3  501    0 -0.21949784644E+03  0.18515799041E+03 -0.79560652115E+03  0.84584426611E+03  0.00000000000E+00 0.  1.
         13    1    4    4    0    0  0.27934359834E+03 -0.42669190087E+03 -0.55200261098E+03  0.75153557327E+03  0.10566000000E+00 0. -1.
         -4    1    4    4    0  502 -0.21489209835E+03  0.36271140851E+03 -0.53070484817E+02  0.42491723448E+03  0.00000000000E+00 0. -1.
<mgrwt>
<rscale>  2 0.99813450E+03</rscale>
<asrwt>0</asrwt>
<pdfrwt beam="1">  1       21 0.85724004E-01 0.10089241E+04</pdfrwt>
<pdfrwt beam="2">  1       21 0.26935044E+00 0.10089241E+04</pdfrwt>
<totfact> 0.26037848E+01</totfact>
</mgrwt>
</event>
<event>
 8    1  0.1168507E-005  0.1060724E+04  0.7818608E-02  0.8722926E-01
         21   -1    0    0  501  502  0.00000000000E+00  0.00000000000E+00  0.15043578634E+04  0.15043578634E+04  0.00000000000E+00 0. -1.
         21   -1    0    0  502  503 -0.00000000000E+00 -0.00000000000E+00 -0.75510656857E+03  0.75510656857E+03  0.00000000000E+00 0. -1.
   -9000010    2    1    2    0  503 -0.32846792213E+03 -0.40471713459E+02  0.55166007896E+03  0.11956017854E+04  0.10077726187E+04 0.  0.
    9000010    2    1    2  501    0  0.32846792213E+03  0.40471713459E+02  0.19759121584E+03  0.10638626465E+04  0.99158071113E+03 0.  0.
        -13    1    4    4    0    0  0.64844783514E+03 -0.12103006544E+03  0.24212675723E+03  0.70267933608E+03  0.10566000000E+00 0.  1.
          4    1    4    4  501    0 -0.31997991300E+03  0.16150177890E+03 -0.44535541384E+02  0.36118331046E+03  0.00000000000E+00 0.  1.
         13    1    3    3    0    0 -0.21371932376E+03  0.10652005500E+03  0.82826961275E+03  0.86200524014E+03  0.10566000000E+00 0. -1.
         -4    1    3    3    0  503 -0.11474859837E+03 -0.14699176846E+03 -0.27660953379E+03  0.33359654525E+03  0.00000000000E+00 0. -1.
<mgrwt>
<rscale>  2 0.10568598E+04</rscale>
<asrwt>0</asrwt>
<pdfrwt beam="1">  1       21 0.23143967E+00 0.10607237E+04</pdfrwt>
<pdfrwt beam="2">  1       21 0.11617024E+00 0.10607237E+04</pdfrwt>
<totfact> 0.21861313E+01</totfact>
</mgrwt>
</event>
<event>
 8    1  0.1168507E-005  0.1135793E+04  0.7818608E-02  0.8659816E-01
         21   -1    0    0  503  502  0.00000000000E+00  0.00000000000E+00  0.14034234974E+04  0.14034234974E+04  0.00000000000E+00 0. -1.
         21   -1    0    0  501  503 -0.00000000000E+00 -0.00000000000E+00 -0.96225440493E+03  0.96225440493E+03  0.00000000000E+00 0. -1.
    9000010    2    1    2  501    0  0.49751300696E+03 -0.21816947072E+03 -0.63423034928E+02  0.11375627051E+04  0.99745141062E+03 0.  0.
   -9000010    2    1    2    0  502 -0.49751300696E+03  0.21816947072E+03  0.50459212737E+03  0.12281151972E+04  0.97904883057E+03 0.  0.
        -13    1    3    3    0    0  0.69500123698E+03 -0.33792892179E+03 -0.27900123718E+03  0.82162301398E+03  0.10566000000E+00 0.  1.
          4    1    3    3  501    0 -0.19748823001E+03  0.11975945108E+03  0.21557820225E+03  0.31593969109E+03  0.00000000000E+00 0.  1.
         13    1    4    4    0    0 -0.28605866621E+03 -0.17595252415E+03 -0.20196609482E+03  0.39189177829E+03  0.10566000000E+00 0. -1.
         -4    1    4    4    0  502 -0.21145434076E+03  0.39412199487E+03  0.70655822219E+03  0.83622341895E+03  0.00000000000E+00 0. -1.
<mgrwt>
<rscale>  2 0.11317400E+04</rscale>
<asrwt>0</asrwt>
<pdfrwt beam="1">  1       21 0.21591131E+00 0.11357933E+04</pdfrwt>
<pdfrwt beam="2">  1       21 0.14803914E+00 0.11357933E+04</pdfrwt>
<totfact> 0.13905439E+01</totfact>
</mgrwt>
</event>
<event>
 8    1  0.1570716E-005  0.1094530E+04  0.7818608E-02  0.8757709E-01
         21   -1    0    0  503  502  0.00000000000E+00  0.00000000000E+00  0.54006801462E+03  0.54006801462E+03  0.00000000000E+00 0. -1.
         21   -1    0    0  501  503 -0.00000000000E+00 -0.00000000000E+00 -0.17021239739E+04  0.17021239739E+04  0.00000000000E+00 0. -1.
    9000010    2    1    2  501    0  0.13811930466E+03  0.35973357863E+03 -0.73077724808E+03  0.13160663333E+04  0.10244559617E+04 0.  0.
   -9000010    2    1    2    0  502 -0.13811930466E+03 -0.35973357863E+03 -0.43127871117E+03  0.92612565519E+03  0.72334100712E+03 0.  0.
        -13    1    3    3    0    0  0.25919843010E+03 -0.10194945527E+03 -0.78760097756E+03  0.83539980166E+03  0.10566000000E+00 0.  1.
          4    1    3    3  501    0 -0.12107912544E+03  0.46168303390E+03  0.56823729480E+02  0.48066653164E+03  0.00000000000E+00 0.  1.
         13    1    4    4    0    0 -0.26715541687E+03  0.44826388545E+02  0.59285708782E+02  0.27730169185E+03  0.10566000000E+00 0. -1.
         -4    1    4    4    0  502  0.12903611220E+03 -0.40455996717E+03 -0.49056441995E+03  0.64882396335E+03  0.00000000000E+00 0. -1.
<mgrwt>
<rscale>  2 0.10181650E+04</rscale>
<asrwt>0</asrwt>
<pdfrwt beam="1">  1       21 0.83087387E-01 0.10945297E+04</pdfrwt>
<pdfrwt beam="2">  1       21 0.26186523E+00 0.10945297E+04</pdfrwt>
<totfact> 0.31286442E+01</totfact>
</mgrwt>
</event>
<event>
 8    1  0.1168507E-005  0.1030494E+04  0.7818608E-02  0.8759025E-01
         21   -1    0    0  503  502  0.00000000000E+00  0.00000000000E+00  0.76363191686E+03  0.76363191686E+03  0.00000000000E+00 0. -1.
         21   -1    0    0  501  503 -0.00000000000E+00 -0.00000000000E+00 -0.13265851525E+04  0.13265851525E+04  0.00000000000E+00 0. -1.
    9000010    2    1    2  501    0  0.56523459682E+02 -0.25220414902E+03 -0.20882677230E+03  0.10514398843E+04  0.99755469783E+03 0.  0.
   -9000010    2    1    2    0  502 -0.56523459682E+02  0.25220414902E+03 -0.35412646338E+03  0.10387771851E+04  0.94172748391E+03 0.  0.
        -13    1    3    3    0    0  0.21517908765E+03  0.31379318676E+03 -0.26087220148E+03  0.46132691282E+03  0.10566000000E+00 0.  1.
          4    1    3    3  501    0 -0.15865562797E+03 -0.56599733578E+03  0.52045429187E+02  0.59011297147E+03  0.00000000000E+00 0.  1.
         13    1    4    4    0    0 -0.27997044043E+03  0.52876182065E+03 -0.32789169356E+03  0.68226496639E+03  0.10566000000E+00 0. -1.
         -4    1    4    4    0  502  0.22344698075E+03 -0.27655767163E+03 -0.26234769823E+02  0.35651221871E+03  0.00000000000E+00 0. -1.
<mgrwt>
<rscale>  2 0.10167350E+04</rscale>
<asrwt>0</asrwt>
<pdfrwt beam="1">  1       21 0.11748183E+00 0.10304937E+04</pdfrwt>
<pdfrwt beam="2">  1       21 0.20409002E+00 0.10304937E+04</pdfrwt>
<totfact> 0.34361740E+01</totfact>
</mgrwt>
</event>
<event>
 8    1  0.1168507E-005  0.1132101E+04  0.7818608E-02  0.8671048E-01
         21   -1    0    0  501  502  0.00000000000E+00  0.00000000000E+00  0.70571070336E+03  0.70571070336E+03  0.00000000000E+00 0. -1.
         21   -1    0    0  502  503 -0.00000000000E+00 -0.00000000000E+00 -0.25589029052E+04  0.25589029052E+04  0.00000000000E+00 0. -1.
   -9000010    2    1    2    0  503 -0.23887971304E+03  0.49576519133E+03 -0.18407455831E+04  0.21324446756E+04  0.92527258165E+03 0.  0.
    9000010    2    1    2  501    0  0.23887971304E+03 -0.49576519133E+03 -0.12446618691E+02  0.11321689330E+04  0.98934570914E+03 0.  0.
        -13    1    4    4    0    0  0.15309742914E+03 -0.14636623261E+02 -0.45039893841E+03  0.47593305037E+03  0.10566000000E+00 0.  1.
          4    1    4    4  501    0  0.85782283902E+02 -0.48112856807E+03  0.43795231972E+03  0.65623588258E+03  0.00000000000E+00 0.  1.
         13    1    3    3    0    0  0.58810086312E+02 -0.19147724735E+03 -0.74048015234E+02  0.21355393284E+03  0.10566000000E+00 0. -1.
         -4    1    3    3    0  503 -0.29768979935E+03  0.68724243868E+03 -0.17666975679E+04  0.19188907427E+04  0.00000000000E+00 0. -1.
<mgrwt>
<rscale>  2 0.11179517E+04</rscale>
<asrwt>0</asrwt>
<pdfrwt beam="1">  1       21 0.10857088E+00 0.11321005E+04</pdfrwt>
<pdfrwt beam="2">  1       21 0.39367737E+00 0.11321005E+04</pdfrwt>
<totfact> 0.18248700E+00</totfact>
</mgrwt>
</event>
<event>
 8    1  0.1168507E-005  0.1158720E+04  0.7818608E-02  0.8646921E-01
         21   -1    0    0  501  502  0.00000000000E+00  0.00000000000E+00  0.19435882991E+04  0.19435882991E+04  0.00000000000E+00 0.  1.
         21   -1    0    0  502  503 -0.00000000000E+00 -0.00000000000E+00 -0.69032517876E+03  0.69032517876E+03  0.00000000000E+00 0.  1.
   -9000010    2    1    2    0  503 -0.46875371185E+03 -0.18062178029E+03  0.38796624856E+03  0.12219454973E+04  0.10441641243E+04 0.  0.
    9000010    2    1    2  501    0  0.46875371185E+03  0.18062178029E+03  0.86529687176E+03  0.14119679806E+04  0.99627337213E+03 0.  0.
        -13    1    4    4    0    0  0.33844464261E+03  0.55590862579E+03  0.76078162770E+03  0.10011832363E+04  0.10566000000E+00 0.  1.
          4    1    4    4  501    0  0.13030906924E+03 -0.37528684550E+03  0.10451524406E+03  0.41078474433E+03  0.00000000000E+00 0.  1.
         13    1    3    3    0    0  0.11583834699E+03 -0.37958486289E+03  0.45154062109E+03  0.60115899264E+03  0.10566000000E+00 0. -1.
         -4    1    3    3    0  503 -0.58459205884E+03  0.19896308260E+03 -0.63574372526E+02  0.62078650464E+03  0.00000000000E+00 0. -1.
<mgrwt>
<rscale>  2 0.11478270E+04</rscale>
<asrwt>0</asrwt>
<pdfrwt beam="1">  1       21 0.29901358E+00 0.11587204E+04</pdfrwt>
<pdfrwt beam="2">  1       21 0.10620387E+00 0.11587204E+04</pdfrwt>
<totfact> 0.88992188E+00</totfact>
</mgrwt>
</event>
<event>
 8    1  0.1168507E-005  0.1181359E+04  0.7818608E-02  0.8624416E-01
         21   -1    0    0  503  502  0.00000000000E+00  0.00000000000E+00  0.13345001643E+04  0.13345001643E+04  0.00000000000E+00 0.  1.
         21   -1    0    0  501  503 -0.00000000000E+00 -0.00000000000E+00 -0.10547405364E+04  0.10547405364E+04  0.00000000000E+00 0.  1.
    9000010    2    1    2  501    0 -0.42168017251E+03 -0.46008927650E+03 -0.47806648447E+02  0.11633088817E+04  0.98056400522E+03 0.  0.
   -9000010    2    1    2    0  502  0.42168017251E+03  0.46008927650E+03  0.32756627637E+03  0.12259318190E+04  0.10030517680E+04 0.  0.
        -13    1    3    3    0    0 -0.44826314090E+03 -0.12066100503E+03  0.39167289087E+03  0.60737680745E+03  0.10566000000E+00 0.  1.
          4    1    3    3  501    0  0.26582968392E+02 -0.33942827147E+03 -0.43947953931E+03  0.55593207423E+03  0.00000000000E+00 0.  1.
         13    1    4    4    0    0  0.15102653991E+03 -0.32090952828E+03  0.10639945298E+03  0.37028745031E+03  0.10566000000E+00 0. -1.
         -4    1    4    4    0  502  0.27065363260E+03  0.78099880478E+03  0.22116682339E+03  0.85564436870E+03  0.00000000000E+00 0. -1.
<mgrwt>
<rscale>  2 0.11765718E+04</rscale>
<asrwt>0</asrwt>
<pdfrwt beam="1">  1       21 0.20530772E+00 0.11813590E+04</pdfrwt>
<pdfrwt beam="2">  1       21 0.16226777E+00 0.11813590E+04</pdfrwt>
<totfact> 0.12453876E+01</totfact>
</mgrwt>
</event>
<event>
 8    1  0.1168507E-005  0.1161797E+04  0.7818608E-02  0.8636281E-01
         21   -1    0    0  501  502  0.00000000000E+00  0.00000000000E+00  0.10155029822E+04  0.10155029822E+04  0.00000000000E+00 0.  1.
         21   -1    0    0  502  503 -0.00000000000E+00 -0.00000000000E+00 -0.13295313706E+04  0.13295313706E+04  0.00000000000E+00 0.  1.
   -9000010    2    1    2    0  503 -0.53761403246E+03 -0.13652385059E+03 -0.20869495636E+03  0.11784725752E+04  0.10186149498E+04 0.  0.
    9000010    2    1    2  501    0  0.53761403246E+03  0.13652385059E+03 -0.10533343206E+03  0.11665617776E+04  0.10208347757E+04 0.  0.
        -13    1    4    4    0    0  0.70166701724E+03  0.32217890744E+03 -0.32284346380E+03  0.83687738932E+03  0.10566000000E+00 0.  1.
          4    1    4    4  501    0 -0.16405298478E+03 -0.18565505685E+03  0.21751003174E+03  0.32968438825E+03  0.00000000000E+00 0.  1.
         13    1    3    3    0    0 -0.23316359589E+03  0.28779977414E+03 -0.46682278476E+03  0.59591735667E+03  0.10566000000E+00 0. -1.
         -4    1    3    3    0  503 -0.30445043657E+03 -0.42432362473E+03  0.25812782841E+03  0.58255521852E+03  0.00000000000E+00 0. -1.
<mgrwt>
<rscale>  2 0.11613088E+04</rscale>
<asrwt>0</asrwt>
<pdfrwt beam="1">  1       21 0.15623123E+00 0.11617966E+04</pdfrwt>
<pdfrwt beam="2">  1       21 0.20454329E+00 0.11617966E+04</pdfrwt>
<totfact> 0.14299987E+01</totfact>
</mgrwt>
</event>
<event>
 8    1  0.1168507E-005  0.1128644E+04  0.7818608E-02  0.8665326E-01
         21   -1    0    0  501  502  0.00000000000E+00  0.00000000000E+00  0.71762077933E+03  0.71762077933E+03  0.00000000000E+00 0. -1.
         21   -1    0    0  502  503 -0.00000000000E+00 -0.00000000000E+00 -0.17520608916E+04  0.17520608916E+04  0.00000000000E+00 0. -1.
   -9000010    2    1    2    0  503 -0.29113804520E+03  0.45527600169E+03 -0.51856367809E+03  0.12287282715E+04  0.97407765496E+03 0.  0.
    9000010    2    1    2  501    0  0.29113804520E+03 -0.45527600169E+03 -0.51587643419E+03  0.12409533994E+04  0.99085783295E+03 0.  0.
        -13    1    4    4    0    0  0.50905138986E+03 -0.38083216793E+03  0.42294683433E+02  0.63714622266E+03  0.10566000000E+00 0.  1.
          4    1    4    4  501    0 -0.21791334465E+03 -0.74443833766E+02 -0.55817111763E+03  0.60380717677E+03  0.00000000000E+00 0.  1.
         13    1    3    3    0    0 -0.57728630863E+03  0.14183826538E+03 -0.50039250817E+02  0.59655805539E+03  0.10566000000E+00 0. -1.
         -4    1    3    3    0  503  0.28614826343E+03  0.31343773631E+03 -0.46852442728E+03  0.63217021613E+03  0.00000000000E+00 0. -1.
<mgrwt>
<rscale>  2 0.11249500E+04</rscale>
<asrwt>0</asrwt>
<pdfrwt beam="1">  1       21 0.11040320E+00 0.11286438E+04</pdfrwt>
<pdfrwt beam="2">  1       21 0.26954783E+00 0.11286438E+04</pdfrwt>
<totfact> 0.13075446E+01</totfact>
</mgrwt>
</event>
<event>
 8    1  0.1168507E-005  0.1353764E+04  0.7818608E-02  0.8499188E-01
         21   -1    0    0  501  502  0.00000000000E+00  0.00000000000E+00  0.21877686715E+04  0.21877686715E+04  0.00000000000E+00 0.  1.
         21   -1    0    0  502  503 -0.00000000000E+00 -0.00000000000E+00 -0.88093126039E+03  0.88093126039E+03  0.00000000000E+00 0.  1.
   -9000010    2    1    2    0  503 -0.90540361524E+03 -0.98551929812E+01  0.31065262990E+03  0.13889497248E+04  0.10063913008E+04 0.  0.
    9000010    2    1    2  501    0  0.90540361524E+03  0.98551929812E+01  0.99618478118E+03  0.16797502071E+04  0.10046510880E+04 0.  0.
        -13    1    4    4    0    0 -0.16699767041E+03  0.53263647010E+02 -0.48618854891E+02  0.18190393681E+03  0.10566000000E+00 0.  1.
          4    1    4    4  501    0  0.10724012856E+04 -0.43408454029E+02  0.10448036361E+04  0.14978462702E+04  0.00000000000E+00 0.  1.
         13    1    3    3    0    0  0.21168487632E+03 -0.33648389053E+02 -0.39656873977E+02  0.21798022792E+03  0.10566000000E+00 0. -1.
         -4    1    3    3    0  503 -0.11170884916E+04  0.23793196072E+02  0.35030950388E+03  0.11709694969E+04  0.00000000000E+00 0. -1.
<mgrwt>
<rscale>  2 0.13534403E+04</rscale>
<asrwt>0</asrwt>
<pdfrwt beam="1">  1       21 0.33657979E+00 0.13537637E+04</pdfrwt>
<pdfrwt beam="2">  1       21 0.13552789E+00 0.13537637E+04</pdfrwt>
<totfact> 0.23466140E+00</totfact>
</mgrwt>
</event>
<event>
 8    1  0.1168507E-005  0.1103064E+04  0.7818608E-02  0.8689441E-01
         21   -1    0    0  501  502  0.00000000000E+00  0.00000000000E+00  0.81193945756E+03  0.81193945756E+03  0.00000000000E+00 0. -1.
         21   -1    0    0  502  503 -0.00000000000E+00 -0.00000000000E+00 -0.14598092345E+04  0.14598092345E+04  0.00000000000E+00 0. -1.
   -9000010    2    1    2    0  503 -0.11744346735E+03  0.40798052646E+03 -0.31679674242E+03  0.11200721889E+04  0.98689434810E+03 0.  0.
    9000010    2    1    2  501    0  0.11744346735E+03 -0.40798052646E+03 -0.33107303453E+03  0.11516765032E+04  0.10180905342E+04 0.  0.
        -13    1    4    4    0    0  0.45772302968E+03 -0.21549408646E+03  0.15384787125E+03  0.52878847553E+03  0.10566000000E+00 0.  1.
          4    1    4    4  501    0 -0.34027956233E+03 -0.19248644000E+03 -0.48492090578E+03  0.62288802765E+03  0.00000000000E+00 0.  1.
         13    1    3    3    0    0  0.35767645298E+03 -0.97375886697E+02 -0.38477239411E+02  0.37268621847E+03  0.10566000000E+00 0. -1.
         -4    1    3    3    0  503 -0.47511992033E+03  0.50535641316E+03 -0.27831950301E+03  0.74738597041E+03  0.00000000000E+00 0. -1.
<mgrwt>
<rscale>  2 0.10958109E+04</rscale>
<asrwt>0</asrwt>
<pdfrwt beam="1">  1       21 0.12491376E+00 0.11030636E+04</pdfrwt>
<pdfrwt beam="2">  1       21 0.22458603E+00 0.11030636E+04</pdfrwt>
<totfact> 0.19880752E+01</totfact>
</mgrwt>
</event>
<event>
 8    1  0.1168507E-005  0.1037528E+04  0.7818608E-02  0.8741930E-01
         21   -1    0    0  503  502  0.00000000000E+00  0.00000000000E+00  0.15760582502E+04  0.15760582502E+04  0.00000000000E+00 0. -1.
         21   -1    0    0  501  503 -0.00000000000E+00 -0.00000000000E+00 -0.10469849577E+04  0.10469849577E+04  0.00000000000E+00 0. -1.
    9000010    2    1    2  501    0 -0.21679018422E+03  0.20279272163E+03 -0.51369431041E+03  0.11577333064E+04  0.99415375689E+03 0.  0.
   -9000010    2    1    2    0  502  0.21679018422E+03 -0.20279272163E+03  0.10427676029E+04  0.14653099016E+04  0.98572103658E+03 0.  0.
        -13    1    3    3    0    0  0.39461550021E+03  0.55343070495E+02 -0.12172762484E+03  0.41665558231E+03  0.10566000000E+00 0.  1.
          4    1    3    3  501    0 -0.61140568443E+03  0.14744965114E+03 -0.39196668558E+03  0.74107772412E+03  0.00000000000E+00 0.  1.
         13    1    4    4    0    0  0.27659415088E+02 -0.46134438996E+03  0.10475047055E+04  0.11449322289E+04  0.10566000000E+00 0. -1.
         -4    1    4    4    0  502  0.18913076913E+03  0.25855166832E+03 -0.47371026074E+01  0.32037767270E+03  0.00000000000E+00 0. -1.
<mgrwt>
<rscale>  2 0.10355028E+04</rscale>
<asrwt>0</asrwt>
<pdfrwt beam="1">  1       21 0.24247050E+00 0.10375281E+04</pdfrwt>
<pdfrwt beam="2">  1       21 0.16107461E+00 0.10375281E+04</pdfrwt>
<totfact> 0.69263062E+00</totfact>
</mgrwt>
</event>
<event>
 8    1  0.1168507E-005  0.1061901E+04  0.7818608E-02  0.8719085E-01
         21   -1    0    0  501  502  0.00000000000E+00  0.00000000000E+00  0.22093907869E+04  0.22093907869E+04  0.00000000000E+00 0.  1.
         21   -1    0    0  502  503 -0.00000000000E+00 -0.00000000000E+00 -0.63791905928E+03  0.63791905928E+03  0.00000000000E+00 0.  1.
   -9000010    2    1    2    0  503  0.35124302552E+03  0.82192781537E+02  0.14680229887E+03  0.10720003765E+04  0.99875250983E+03 0.  0.
    9000010    2    1    2  501    0 -0.35124302552E+03 -0.82192781537E+02  0.14246694287E+04  0.17753094697E+04  0.99594850050E+03 0.  0.
        -13    1    4    4    0    0 -0.86833266594E+02 -0.51466150727E+03  0.51092897388E+03  0.73038682269E+03  0.10566000000E+00 0.  1.
          4    1    4    4  501    0 -0.26440975893E+03  0.43246872573E+03  0.91374045483E+03  0.10449226470E+04  0.00000000000E+00 0.  1.
         13    1    3    3    0    0  0.56214627141E+03  0.31822034381E+03 -0.12121920251E+03  0.65724175453E+03  0.10566000000E+00 0. -1.
         -4    1    3    3    0  503 -0.21090324588E+03 -0.23602756227E+03  0.26802150138E+03  0.41475862195E+03  0.00000000000E+00 0. -1.
<mgrwt>
<rscale>  2 0.10612413E+04</rscale>
<asrwt>0</asrwt>
<pdfrwt beam="1">  1       21 0.33990627E+00 0.10619011E+04</pdfrwt>
<pdfrwt beam="2">  1       21 0.98141395E-01 0.10619011E+04</pdfrwt>
<totfact> 0.57716255E+00</totfact>
</mgrwt>
</event>
<event>
 8    1  0.1168507E-005  0.1310455E+04  0.7818608E-02  0.8548889E-01
         21   -1    0    0  501  502  0.00000000000E+00  0.00000000000E+00  0.11005986706E+04  0.11005986706E+04  0.00000000000E+00 0.  1.
         21   -1    0    0  502  503 -0.00000000000E+00 -0.00000000000E+00 -0.14225548509E+04  0.14225548509E+04  0.00000000000E+00 0.  1.
   -9000010    2    1    2    0  503  0.20750014266E+03 -0.64285006371E+03 -0.12580607023E+03  0.11981000942E+04  0.98148059315E+03 0.  0.
    9000010    2    1    2  501    0 -0.20750014266E+03  0.64285006371E+03 -0.19615011004E+03  0.13250534273E+04  0.11229333043E+04 0.  0.
        -13    1    4    4    0    0 -0.68912342623E+02  0.92498727313E+03  0.45347096706E+02  0.92865856845E+03  0.10566000000E+00 0.  1.
          4    1    4    4  501    0 -0.13858780004E+03 -0.28213720942E+03 -0.24149720674E+03  0.39639485885E+03  0.00000000000E+00 0.  1.
         13    1    3    3    0    0  0.60122742303E+03 -0.34124767335E+03 -0.23682308759E+02  0.69172628379E+03  0.10566000000E+00 0. -1.
         -4    1    3    3    0  503 -0.39372728037E+03 -0.30160239036E+03 -0.10212376147E+03  0.50637381038E+03  0.00000000000E+00 0. -1.
<mgrwt>
<rscale>  2 0.12796403E+04</rscale>
<asrwt>0</asrwt>
<pdfrwt beam="1">  1       21 0.16932287E+00 0.13104548E+04</pdfrwt>
<pdfrwt beam="2">  1       21 0.21885459E+00 0.13104548E+04</pdfrwt>
<totfact> 0.83290415E+00</totfact>
</mgrwt>
</event>
<event>
 8    1  0.1168507E-005  0.1214306E+04  0.7818608E-02  0.8596935E-01
         21   -1    0    0  501  502  0.00000000000E+00  0.00000000000E+00  0.19233999052E+04  0.19233999052E+04  0.00000000000E+00 0.  1.
         21   -1    0    0  502  503 -0.00000000000E+00 -0.00000000000E+00 -0.82062978658E+03  0.82062978658E+03  0.00000000000E+00 0.  1.
   -9000010    2    1    2    0  503 -0.63937745249E+03 -0.27345267167E+03  0.91614624857E+03  0.15211383583E+04  0.99546876693E+03 0.  0.
    9000010    2    1    2  501    0  0.63937745249E+03  0.27345267167E+03  0.18662387007E+03  0.12228913335E+04  0.98846085116E+03 0.  0.
        -13    1    4    4    0    0  0.24906952062E+03 -0.35945240495E+03  0.19606525632E+03  0.47925280742E+03  0.10566000000E+00 0.  1.
          4    1    4    4  501    0  0.39030793187E+03  0.63290507662E+03 -0.94413862443E+01  0.74363852608E+03  0.00000000000E+00 0.  1.
         13    1    3    3    0    0 -0.23413908459E+03  0.37914335041E+03  0.31512632138E+03  0.54577962648E+03  0.10566000000E+00 0. -1.
         -4    1    3    3    0  503 -0.40523836790E+03 -0.65259602208E+03  0.60101992719E+03  0.97535873182E+03  0.00000000000E+00 0. -1.
<mgrwt>
<rscale>  2 0.12128684E+04</rscale>
<asrwt>0</asrwt>
<pdfrwt beam="1">  1       21 0.29590768E+00 0.12143055E+04</pdfrwt>
<pdfrwt beam="2">  1       21 0.12625074E+00 0.12143055E+04</pdfrwt>
<totfact> 0.57346773E+00</totfact>
</mgrwt>
</event>
<event>
 8    1  0.1168507E-005  0.1197526E+04  0.7818608E-02  0.8625103E-01
         21   -1    0    0  503  502  0.00000000000E+00  0.00000000000E+00  0.15817510935E+04  0.15817510935E+04  0.00000000000E+00 0.  1.
         21   -1    0    0  501  503 -0.00000000000E+00 -0.00000000000E+00 -0.11472429810E+04  0.11472429810E+04  0.00000000000E+00 0.  1.
    9000010    2    1    2  501    0  0.22680499720E+03 -0.53514726026E+03 -0.49047483778E+03  0.12158310579E+04  0.94860766280E+03 0.  0.
   -9000010    2    1    2    0  502 -0.22680499720E+03  0.53514726026E+03  0.92498295026E+03  0.15131630166E+04  0.10470175546E+04 0.  0.
        -13    1    3    3    0    0 -0.32349721523E+02 -0.73803377057E+03 -0.49041309239E+03  0.88670477800E+03  0.10566000000E+00 0.  1.
          4    1    3    3  501    0  0.25915471872E+03  0.20288651031E+03 -0.61745391513E-01  0.32912627989E+03  0.00000000000E+00 0.  1.
         13    1    4    4    0    0 -0.19065754347E+03  0.42603186892E+02 -0.20304076156E+03  0.28176389484E+03  0.10566000000E+00 0. -1.
         -4    1    4    4    0  502 -0.36147453735E+02  0.49254407337E+03  0.11280237118E+04  0.12313991217E+04  0.00000000000E+00 0. -1.
<mgrwt>
<rscale>  2 0.11756818E+04</rscale>
<asrwt>0</asrwt>
<pdfrwt beam="1">  1       21 0.24334632E+00 0.11975261E+04</pdfrwt>
<pdfrwt beam="2">  1       21 0.17649892E+00 0.11975261E+04</pdfrwt>
<totfact> 0.48768681E+00</totfact>
</mgrwt>
</event>
<event>
 8    1  0.1168507E-005  0.1049177E+04  0.7818608E-02  0.8739255E-01
         21   -1    0    0  501  502  0.00000000000E+00  0.00000000000E+00  0.69618168003E+03  0.69618168003E+03  0.00000000000E+00 0. -1.
         21   -1    0    0  502  503 -0.00000000000E+00 -0.00000000000E+00 -0.15193540438E+04  0.15193540438E+04  0.00000000000E+00 0. -1.
   -9000010    2    1    2    0  503 -0.82123204071E+02 -0.22130996737E+03 -0.37367768142E+03  0.10741256628E+04  0.97897324153E+03 0.  0.
    9000010    2    1    2  501    0  0.82123204071E+02  0.22130996737E+03 -0.44949468232E+03  0.11414100610E+04  0.10222764477E+04 0.  0.
        -13    1    4    4    0    0  0.43573175761E+03 -0.18246433001E+03 -0.55591514928E+02  0.47565305003E+03  0.10566000000E+00 0.  1.
          4    1    4    4  501    0 -0.35360855354E+03  0.40377429738E+03 -0.39390316739E+03  0.66575701095E+03  0.00000000000E+00 0.  1.
         13    1    3    3    0    0 -0.49782012822E+03 -0.20204451965E+03 -0.36443382196E+02  0.53849326760E+03  0.10566000000E+00 0. -1.
         -4    1    3    3    0  503  0.41569692415E+03 -0.19265447723E+02 -0.33723429923E+03  0.53563239521E+03  0.00000000000E+00 0. -1.
<mgrwt>
<rscale>  2 0.10384776E+04</rscale>
<asrwt>0</asrwt>
<pdfrwt beam="1">  1       21 0.10710487E+00 0.10491766E+04</pdfrwt>
<pdfrwt beam="2">  1       21 0.23374677E+00 0.10491766E+04</pdfrwt>
<totfact> 0.26290277E+01</totfact>
</mgrwt>
</event>
<event>
 8    1  0.1168507E-005  0.1089535E+04  0.7818608E-02  0.8698454E-01
         21   -1    0    0  501  502  0.00000000000E+00  0.00000000000E+00  0.11488880344E+04  0.11488880344E+04  0.00000000000E+00 0.  1.
         21   -1    0    0  502  503 -0.00000000000E+00 -0.00000000000E+00 -0.10174767731E+04  0.10174767731E+04  0.00000000000E+00 0.  1.
   -9000010    2    1    2    0  503 -0.15893469360E+03 -0.38231950767E+03  0.38439652254E+02  0.10902124912E+04  0.10077982072E+04 0.  0.
    9000010    2    1    2  501    0  0.15893469360E+03  0.38231950767E+03  0.92971609058E+02  0.10761523163E+04  0.98895482459E+03 0.  0.
        -13    1    4    4    0    0 -0.14490649408E+03  0.59184279242E+03 -0.15843154925E+03  0.62958426754E+03  0.10566000000E+00 0.  1.
          4    1    4    4  501    0  0.30384118769E+03 -0.20952328476E+03  0.25140315831E+03  0.44656804879E+03  0.00000000000E+00 0.  1.
         13    1    3    3    0    0  0.22777901984E+03 -0.49065839805E+03 -0.24983449801E+03  0.59585756101E+03  0.10566000000E+00 0. -1.
         -4    1    3    3    0  503 -0.38671371344E+03  0.10833889038E+03  0.28827415027E+03  0.49435493023E+03  0.00000000000E+00 0. -1.
<mgrwt>
<rscale>  2 0.10851568E+04</rscale>
<asrwt>0</asrwt>
<pdfrwt beam="1">  1       21 0.17675200E+00 0.10895346E+04</pdfrwt>
<pdfrwt beam="2">  1       21 0.15653489E+00 0.10895346E+04</pdfrwt>
<totfact> 0.24044550E+01</totfact>
</mgrwt>
</event>
<event>
 8    1  0.1168507E-005  0.1140299E+04  0.7818608E-02  0.8655741E-01
         21   -1    0    0  503  502  0.00000000000E+00  0.00000000000E+00  0.10258938783E+04  0.10258938783E+04  0.00000000000E+00 0.  1.
         21   -1    0    0  501  503 -0.00000000000E+00 -0.00000000000E+00 -0.17183411821E+04  0.17183411821E+04  0.00000000000E+00 0.  1.
    9000010    2    1    2  501    0  0.52154446153E+03 -0.12195128013E+03 -0.10594683363E+04  0.15463256894E+04  0.99084269287E+03 0.  0.
   -9000010    2    1    2    0  502 -0.52154446153E+03  0.12195128013E+03  0.36702103254E+03  0.11979093710E+04  0.10066785400E+04 0.  0.
        -13    1    3    3    0    0  0.81282611793E+03 -0.15941258826E+03 -0.83997166203E+03  0.11796826164E+04  0.10566000000E+00 0.  1.
          4    1    3    3  501    0 -0.29128165639E+03  0.37461308131E+02 -0.21949667425E+03  0.36664307298E+03  0.00000000000E+00 0.  1.
         13    1    4    4    0    0  0.11686575055E+03  0.33549042897E+03  0.38582093304E+03  0.52447043303E+03  0.10566000000E+00 0. -1.
         -4    1    4    4    0  502 -0.63841021208E+03 -0.21353914884E+03 -0.18799900505E+02  0.67343893802E+03  0.00000000000E+00 0. -1.
<mgrwt>
<rscale>  2 0.11367942E+04</rscale>
<asrwt>0</asrwt>
<pdfrwt beam="1">  1       21 0.15782983E+00 0.11402993E+04</pdfrwt>
<pdfrwt beam="2">  1       21 0.26436018E+00 0.11402993E+04</pdfrwt>
<totfact> 0.50023361E+00</totfact>
</mgrwt>
</event>
<event>
 8    1  0.1168507E-005  0.1055627E+04  0.7818608E-02  0.8726917E-01
         21   -1    0    0  503  502  0.00000000000E+00  0.00000000000E+00  0.29234644235E+04  0.29234644235E+04  0.00000000000E+00 0. -1.
         21   -1    0    0  501  503 -0.00000000000E+00 -0.00000000000E+00 -0.37745141326E+03  0.37745141326E+03  0.00000000000E+00 0. -1.
    9000010    2    1    2  501    0 -0.30611172465E+03 -0.58460742233E+01  0.13659026812E+04  0.17262786044E+04  0.10102520085E+04 0.  0.
   -9000010    2    1    2    0  502  0.30611172465E+03  0.58460742233E+01  0.11801103291E+04  0.15746372325E+04  0.99653572969E+03 0.  0.
        -13    1    3    3    0    0 -0.24054212049E+03  0.45349945190E+03  0.38667865697E+03  0.64268394995E+03  0.10566000000E+00 0.  1.
          4    1    3    3  501    0 -0.65569604164E+02 -0.45934552612E+03  0.97922402426E+03  0.10835946544E+04  0.00000000000E+00 0.  1.
         13    1    4    4    0    0  0.42105820890E+03 -0.59060186965E+02  0.13173207962E+04  0.13842370506E+04  0.10566000000E+00 0. -1.
         -4    1    4    4    0  502 -0.11494648424E+03  0.64906261188E+02 -0.13721046711E+03  0.19040018190E+03  0.00000000000E+00 0. -1.
<mgrwt>
<rscale>  2 0.10523315E+04</rscale>
<asrwt>0</asrwt>
<pdfrwt beam="1">  1       21 0.44976374E+00 0.10556267E+04</pdfrwt>
<pdfrwt beam="2">  1       21 0.58069450E-01 0.10556267E+04</pdfrwt>
<totfact> 0.35466321E+00</totfact>
</mgrwt>
</event>
<event>
 8    1  0.1168507E-005  0.1440822E+04  0.7818608E-02  0.8444599E-01
         21   -1    0    0  503  502  0.00000000000E+00  0.00000000000E+00  0.10350988629E+04  0.10350988629E+04  0.00000000000E+00 0.  1.
         21   -1    0    0  501  503 -0.00000000000E+00 -0.00000000000E+00 -0.22431443204E+04  0.22431443204E+04  0.00000000000E+00 0.  1.
    9000010    2    1    2  501    0  0.97875765834E+03  0.34866442683E+03 -0.11393303358E+04  0.18357833725E+04  0.99623970034E+03 0.  0.
   -9000010    2    1    2    0  502 -0.97875765834E+03 -0.34866442683E+03 -0.68715121705E+02  0.14424598108E+04  0.99821595936E+03 0.  0.
        -13    1    3    3    0    0 -0.14839735933E+03  0.17782353051E+03 -0.11122818860E+02  0.23187650274E+03  0.10566000000E+00 0.  1.
          4    1    3    3  501    0  0.11271550177E+04  0.17084089632E+03 -0.11282075169E+04  0.16039068698E+04  0.00000000000E+00 0.  1.
         13    1    4    4    0    0  0.20601354869E+03 -0.10501282465E+03 -0.13975726224E+02  0.23165622735E+03  0.10566000000E+00 0. -1.
         -4    1    4    4    0  502 -0.11847712070E+04 -0.24365160219E+03 -0.54739395481E+02  0.12108035834E+04  0.00000000000E+00 0. -1.
<mgrwt>
<rscale>  2 0.14404799E+04</rscale>
<asrwt>0</asrwt>
<pdfrwt beam="1">  1       21 0.15924598E+00 0.14408222E+04</pdfrwt>
<pdfrwt beam="2">  1       21 0.34509912E+00 0.14408222E+04</pdfrwt>
<totfact> 0.12267152E+00</totfact>
</mgrwt>
</event>
<event>
 8    1  0.1168507E-005  0.1048131E+04  0.7818608E-02  0.8733838E-01
         21   -1    0    0  501  502  0.00000000000E+00  0.00000000000E+00  0.10503676936E+04  0.10503676936E+04  0.00000000000E+00 0.  1.
         21   -1    0    0  502  503 -0.00000000000E+00 -0.00000000000E+00 -0.10330992498E+04  0.10330992498E+04  0.00000000000E+00 0.  1.
   -9000010    2    1    2    0  503  0.23252322032E+03 -0.10457921995E+03  0.47589394573E+02  0.10492103963E+04  0.10166483384E+04 0.  0.
    9000010    2    1    2  501    0 -0.23252322032E+03  0.10457921995E+03 -0.30320950831E+02  0.10342565471E+04  0.10018799249E+04 0.  0.
        -13    1    4    4    0    0  0.59241180426E+02 -0.36566123013E+03  0.21567796491E+03  0.42864279813E+03  0.10566000000E+00 0.  1.
          4    1    4    4  501    0 -0.29176440074E+03  0.47024045008E+03 -0.24599891574E+03  0.60561374900E+03  0.00000000000E+00 0.  1.
         13    1    3    3    0    0  0.32716509043E+03  0.37912317196E+03  0.19090035256E+03  0.53592381145E+03  0.10566000000E+00 0. -1.
         -4    1    3    3    0  503 -0.94641870113E+02 -0.48370239191E+03 -0.14331095798E+03  0.51328658486E+03  0.00000000000E+00 0. -1.
<mgrwt>
<rscale>  2 0.10445324E+04</rscale>
<asrwt>0</asrwt>
<pdfrwt beam="1">  1       21 0.16159503E+00 0.10481306E+04</pdfrwt>
<pdfrwt beam="2">  1       21 0.15893835E+00 0.10481306E+04</pdfrwt>
<totfact> 0.31008033E+01</totfact>
</mgrwt>
</event>
<event>
 8    1  0.1168507E-005  0.1164950E+04  0.7818608E-02  0.8647232E-01
         21   -1    0    0  501  502  0.00000000000E+00  0.00000000000E+00  0.17127976347E+04  0.17127976347E+04  0.00000000000E+00 0.  1.
         21   -1    0    0  502  503 -0.00000000000E+00 -0.00000000000E+00 -0.77375634945E+03  0.77375634945E+03  0.00000000000E+00 0.  1.
   -9000010    2    1    2    0  503 -0.14212655811E+03 -0.57336950212E+03  0.71676597318E+03  0.13677947965E+04  0.10040700178E+04 0.  0.
    9000010    2    1    2  501    0  0.14212655811E+03  0.57336950212E+03  0.22227531211E+03  0.11187591877E+04  0.92372250222E+03 0.  0.
        -13    1    4    4    0    0 -0.43100888848E+02  0.75999371451E+03 -0.19632040995E+02  0.76146803013E+03  0.10566000000E+00 0.  1.
          4    1    4    4  501    0  0.18522744696E+03 -0.18662421239E+03  0.24190735311E+03  0.35729115753E+03  0.00000000000E+00 0.  1.
         13    1    3    3    0    0 -0.37749020719E+03  0.13760335454E+03  0.35467484626E+03  0.53593637443E+03  0.10566000000E+00 0. -1.
         -4    1    3    3    0  503  0.23536364907E+03 -0.71097285666E+03  0.36209112692E+03  0.83185842209E+03  0.00000000000E+00 0. -1.
<mgrwt>
<rscale>  2 0.11474357E+04</rscale>
<asrwt>0</asrwt>
<pdfrwt beam="1">  1       21 0.26350733E+00 0.11649503E+04</pdfrwt>
<pdfrwt beam="2">  1       21 0.11903944E+00 0.11649503E+04</pdfrwt>
<totfact> 0.11652753E+01</totfact>
</mgrwt>
</event>
<event>
 8    1  0.1168507E-005  0.1186101E+04  0.7818608E-02  0.8623620E-01
         21   -1    0    0  501  502  0.00000000000E+00  0.00000000000E+00  0.11025246275E+04  0.11025246275E+04  0.00000000000E+00 0.  1.
         21   -1    0    0  502  503 -0.00000000000E+00 -0.00000000000E+00 -0.12681557647E+04  0.12681557647E+04  0.00000000000E+00 0.  1.
   -9000010    2    1    2    0  503 -0.27729470786E+03 -0.54535722474E+03 -0.26026906391E+03  0.12143205973E+04  0.10161336870E+04 0.  0.
    9000010    2    1    2  501    0  0.27729470786E+03  0.54535722474E+03  0.94637926651E+02  0.11563597949E+04  0.97668049049E+03 0.  0.
        -13    1    4    4    0    0  0.18229395074E+03  0.82184528107E+03  0.15974845166E+03  0.85684323506E+03  0.10566000000E+00 0.  1.
          4    1    4    4  501    0  0.95000757126E+02 -0.27648805633E+03 -0.65110525009E+02  0.29951655984E+03  0.00000000000E+00 0.  1.
         13    1    3    3    0    0 -0.60820619099E+02 -0.82435677472E+03 -0.12417713965E+03  0.83587272531E+03  0.10566000000E+00 0. -1.
         -4    1    3    3    0  503 -0.21647408877E+03  0.27899954998E+03 -0.13609192427E+03  0.37844787203E+03  0.00000000000E+00 0. -1.
<mgrwt>
<rscale>  2 0.11776047E+04</rscale>
<asrwt>0</asrwt>
<pdfrwt beam="1">  1       21 0.16961917E+00 0.11861006E+04</pdfrwt>
<pdfrwt beam="2">  1       21 0.19510089E+00 0.11861006E+04</pdfrwt>
<totfact> 0.12949247E+01</totfact>
</mgrwt>
</event>
<event>
 8    1  0.1168507E-005  0.1140922E+04  0.7818608E-02  0.8657083E-01
         21   -1    0    0  503  502  0.00000000000E+00  0.00000000000E+00  0.13849877215E+04  0.13849877215E+04  0.00000000000E+00 0.  1.
         21   -1    0    0  501  503 -0.00000000000E+00 -0.00000000000E+00 -0.99557404611E+03  0.99557404611E+03  0.00000000000E+00 0.  1.
    9000010    2    1    2  501    0  0.14269131979E+03 -0.48194432777E+03 -0.13285782075E+03  0.11257827055E+04  0.99855112621E+03 0.  0.
   -9000010    2    1    2    0  502 -0.14269131979E+03  0.48194432777E+03  0.52227149613E+03  0.12547790621E+04  0.10242420765E+04 0.  0.
        -13    1    3    3    0    0 -0.82052359293E+02 -0.67499123324E+03 -0.34394934939E+03  0.76200191648E+03  0.10566000000E+00 0.  1.
          4    1    3    3  501    0  0.22474367908E+03  0.19304690547E+03  0.21109152864E+03  0.36378078902E+03  0.00000000000E+00 0.  1.
         13    1    4    4    0    0 -0.52049784589E+03  0.33801344482E+02  0.96828088408E+02  0.53050563459E+03  0.10566000000E+00 0. -1.
         -4    1    4    4    0  502  0.37780652610E+03  0.44814298329E+03  0.42544340773E+03  0.72427342752E+03  0.00000000000E+00 0. -1.
<mgrwt>
<rscale>  2 0.11351264E+04</rscale>
<asrwt>0</asrwt>
<pdfrwt beam="1">  1       21 0.21307503E+00 0.11409220E+04</pdfrwt>
<pdfrwt beam="2">  1       21 0.15316524E+00 0.11409220E+04</pdfrwt>
<totfact> 0.13138853E+01</totfact>
</mgrwt>
</event>
<event>
 8    1  0.1168507E-005  0.1053158E+04  0.7818608E-02  0.8729621E-01
         21   -1    0    0  501  502  0.00000000000E+00  0.00000000000E+00  0.14522395580E+04  0.14522395580E+04  0.00000000000E+00 0.  1.
         21   -1    0    0  502  503 -0.00000000000E+00 -0.00000000000E+00 -0.79046310622E+03  0.79046310622E+03  0.00000000000E+00 0.  1.
   -9000010    2    1    2    0  503 -0.25809554088E+03  0.32469709265E+02  0.57866363518E+03  0.12016628705E+04  0.10205265609E+04 0.  0.
    9000010    2    1    2  501    0  0.25809554088E+03 -0.32469709265E+02  0.83112816581E+02  0.10410397937E+04  0.10045837553E+04 0.  0.
        -13    1    4    4    0    0  0.43024106368E+03  0.98023746117E+02 -0.34592084301E+03  0.56069356022E+03  0.10566000000E+00 0.  1.
          4    1    4    4  501    0 -0.17214552280E+03 -0.13049345538E+03  0.42903365959E+03  0.48034623344E+03  0.00000000000E+00 0.  1.
         13    1    3    3    0    0 -0.24860936755E+03 -0.15504378076E+03 -0.22937406386E+03  0.37209899747E+03  0.10566000000E+00 0. -1.
         -4    1    3    3    0  503 -0.94861733345E+01  0.18751349003E+03  0.80803769904E+03  0.82956387307E+03  0.00000000000E+00 0. -1.
<mgrwt>
<rscale>  2 0.10492764E+04</rscale>
<asrwt>0</asrwt>
<pdfrwt beam="1">  1       21 0.22342147E+00 0.10531581E+04</pdfrwt>
<pdfrwt beam="2">  1       21 0.12160971E+00 0.10531581E+04</pdfrwt>
<totfact> 0.22123762E+01</totfact>
</mgrwt>
</event>
<event>
 8    1  0.1168507E-005  0.1119115E+04  0.7818608E-02  0.8678079E-01
         21   -1    0    0  501  502  0.00000000000E+00  0.00000000000E+00  0.18775119604E+04  0.18775119604E+04  0.00000000000E+00 0.  1.
         21   -1    0    0  502  503 -0.00000000000E+00 -0.00000000000E+00 -0.73471933177E+03  0.73471933177E+03  0.00000000000E+00 0.  1.
   -9000010    2    1    2    0  503  0.49310351189E+02  0.49225331800E+03  0.10492481572E+03  0.10859322409E+04  0.96098635533E+03 0.  0.
    9000010    2    1    2  501    0 -0.49310351189E+02 -0.49225331800E+03  0.10378678129E+04  0.15262990512E+04  0.10038298446E+04 0.  0.
        -13    1    4    4    0    0 -0.50241546803E+03 -0.43073359164E+03  0.60519511029E+03  0.89677971775E+03  0.10566000000E+00 0.  1.
          4    1    4    4  501    0  0.45310511684E+03 -0.61519726358E+02  0.43267270264E+03  0.62951933349E+03  0.00000000000E+00 0.  1.
         13    1    3    3    0    0 -0.49177264284E+02  0.14094105913E+02 -0.38847501373E+03  0.39182890986E+03  0.10566000000E+00 0. -1.
         -4    1    3    3    0  503  0.98487615474E+02  0.47815921209E+03  0.49339982945E+03  0.69410333108E+03  0.00000000000E+00 0. -1.
<mgrwt>
<rscale>  2 0.11094242E+04</rscale>
<asrwt>0</asrwt>
<pdfrwt beam="1">  1       21 0.28884799E+00 0.11191154E+04</pdfrwt>
<pdfrwt beam="2">  1       21 0.11303374E+00 0.11191154E+04</pdfrwt>
<totfact> 0.89480917E+00</totfact>
</mgrwt>
</event>
<event>
 8    1  0.1168507E-005  0.1329811E+04  0.7818608E-02  0.8514958E-01
         21   -1    0    0  503  502  0.00000000000E+00  0.00000000000E+00  0.54001457469E+03  0.54001457469E+03  0.00000000000E+00 0.  1.
         21   -1    0    0  501  503 -0.00000000000E+00 -0.00000000000E+00 -0.35072072945E+04  0.35072072945E+04  0.00000000000E+00 0.  1.
    9000010    2    1    2  501    0  0.85996943995E+03 -0.13460668248E+03 -0.95964664574E+03  0.16399142713E+04  0.10053510511E+04 0.  0.
   -9000010    2    1    2    0  502 -0.85996943995E+03  0.13460668248E+03 -0.20075460741E+04  0.24073075979E+04  0.10036046207E+04 0.  0.
        -13    1    3    3    0    0  0.87038179718E+03  0.24089963095E+03 -0.86939769840E+03  0.12535746783E+04  0.10566000000E+00 0.  1.
          4    1    3    3  501    0 -0.10412357225E+02 -0.37550631343E+03 -0.90248947345E+02  0.38633959298E+03  0.00000000000E+00 0.  1.
         13    1    4    4    0    0 -0.87216806121E+03  0.16317729327E+03 -0.21159923591E+04  0.22944994293E+04  0.10566000000E+00 0. -1.
         -4    1    4    4    0  502  0.12198621255E+02 -0.28570610790E+02  0.10844628503E+03  0.11280816858E+03  0.00000000000E+00 0. -1.
<mgrwt>
<rscale>  2 0.13294809E+04</rscale>
<asrwt>0</asrwt>
<pdfrwt beam="1">  1       21 0.83079166E-01 0.13298109E+04</pdfrwt>
<pdfrwt beam="2">  1       21 0.53957035E+00 0.13298109E+04</pdfrwt>
<totfact> 0.33728822E-01</totfact>
</mgrwt>
</event>
<event>
 8    1  0.1168507E-005  0.1195423E+04  0.7818608E-02  0.8617061E-01
         21   -1    0    0  501  502  0.00000000000E+00  0.00000000000E+00  0.19889840380E+04  0.19889840380E+04  0.00000000000E+00 0. -1.
         21   -1    0    0  502  503 -0.00000000000E+00 -0.00000000000E+00 -0.73570916943E+03  0.73570916943E+03  0.00000000000E+00 0. -1.
   -9000010    2    1    2    0  503  0.53522913101E+03 -0.27401101004E+03  0.32189471357E+03  0.12380036830E+04  0.10331914906E+04 0.  0.
    9000010    2    1    2  501    0 -0.53522913101E+03  0.27401101004E+03  0.93138015500E+03  0.14866895244E+04  0.99056776278E+03 0.  0.
        -13    1    4    4    0    0 -0.19577957446E+03  0.46069070988E+03  0.25227186907E+02  0.50120055274E+03  0.10566000000E+00 0.  1.
          4    1    4    4  501    0 -0.33944955655E+03 -0.18667969983E+03  0.90615296810E+03  0.98548897171E+03  0.00000000000E+00 0.  1.
         13    1    3    3    0    0  0.73013695407E+03 -0.97770064738E+02 -0.97509675926E+02  0.74307947443E+03  0.10566000000E+00 0. -1.
         -4    1    3    3    0  503 -0.19490782306E+03 -0.17624094530E+03  0.41940438949E+03  0.49492420856E+03  0.00000000000E+00 0. -1.
<mgrwt>
<rscale>  2 0.11861559E+04</rscale>
<asrwt>0</asrwt>
<pdfrwt beam="1">  1       21 0.30599754E+00 0.11954233E+04</pdfrwt>
<pdfrwt beam="2">  1       21 0.11318603E+00 0.11954233E+04</pdfrwt>
<totfact> 0.66312566E+00</totfact>
</mgrwt>
</event>
<event>
 8    1  0.1168507E-005  0.1325662E+04  0.7818608E-02  0.8518117E-01
         21   -1    0    0  501  502  0.00000000000E+00  0.00000000000E+00  0.70310689040E+03  0.70310689040E+03  0.00000000000E+00 0.  1.
         21   -1    0    0  502  503 -0.00000000000E+00 -0.00000000000E+00 -0.26415483651E+04  0.26415483651E+04  0.00000000000E+00 0. -1.
   -9000010    2    1    2    0  503  0.56698173122E+03 -0.67291873791E+03 -0.13651549627E+04  0.19003435936E+04  0.98659504875E+03 0.  0.
    9000010    2    1    2  501    0 -0.56698173122E+03  0.67291873791E+03 -0.57328651195E+03  0.14443116618E+04  0.99150937484E+03 0.  0.
        -13    1    4    4    0    0  0.88804074624E+02  0.64668159554E+03 -0.17195617935E+03  0.67502013930E+03  0.10566000000E+00 0.  1.
          4    1    4    4  501    0 -0.65578580585E+03  0.26237142363E+02 -0.40133033259E+03  0.76929152254E+03  0.00000000000E+00 0.  1.
         13    1    3    3    0    0 -0.17473191611E+03 -0.20185881875E+03 -0.82921795005E+03  0.87113755806E+03  0.10566000000E+00 0. -1.
         -4    1    3    3    0  503  0.74171364733E+03 -0.47105991915E+03 -0.53593701265E+03  0.10292060355E+04  0.00000000000E+00 0. -1.
<mgrwt>
<rscale>  2 0.13247428E+04</rscale>
<asrwt>0</asrwt>
<pdfrwt beam="1">  1       21 0.10817029E+00 0.13256616E+04</pdfrwt>
<pdfrwt beam="2">  1       21 0.40639205E+00 0.13256616E+04</pdfrwt>
<totfact> 0.14476024E+00</totfact>
</mgrwt>
</event>
<event>
 8    1  0.1168507E-005  0.1008930E+04  0.7818608E-02  0.8783984E-01
         21   -1    0    0  503  502  0.00000000000E+00  0.00000000000E+00  0.16804301474E+04  0.16804301474E+04  0.00000000000E+00 0.  1.
         21   -1    0    0  501  503 -0.00000000000E+00 -0.00000000000E+00 -0.69125177220E+03  0.69125177220E+03  0.00000000000E+00 0.  1.
    9000010    2    1    2  501    0 -0.15834969310E+02  0.56698909357E+02 -0.32068365818E+02  0.93610380980E+03  0.93370040702E+03 0.  0.
   -9000010    2    1    2    0  502  0.15834969310E+02 -0.56698909357E+02  0.10212467410E+04  0.14355781098E+04  0.10072110458E+04 0.  0.
        -13    1    3    3    0    0 -0.30343687312E+03 -0.15790427128E+03  0.29414775728E+03  0.45114366795E+03  0.10566000000E+00 0.  1.
          4    1    3    3  501    0  0.28760190381E+03  0.21460318063E+03 -0.32621612310E+03  0.48496014185E+03  0.00000000000E+00 0.  1.
         13    1    4    4    0    0 -0.44694934427E+03 -0.18988236979E+03  0.71693287416E+03  0.86591673267E+03  0.10566000000E+00 0. -1.
         -4    1    4    4    0  502  0.46278431358E+03  0.13318346043E+03  0.30431386687E+03  0.56966137713E+03  0.00000000000E+00 0. -1.
<mgrwt>
<rscale>  2 0.99006341E+03</rscale>
<asrwt>0</asrwt>
<pdfrwt beam="1">  1       21 0.25852771E+00 0.10089299E+04</pdfrwt>
<pdfrwt beam="2">  1       21 0.10634643E+00 0.10089299E+04</pdfrwt>
<totfact> 0.17826796E+01</totfact>
</mgrwt>
</event>
<event>
 8    1  0.1168507E-005  0.1125432E+04  0.7818608E-02  0.8669276E-01
         21   -1    0    0  501  502  0.00000000000E+00  0.00000000000E+00  0.94813957790E+03  0.94813957790E+03  0.00000000000E+00 0.  1.
         21   -1    0    0  502  503 -0.00000000000E+00 -0.00000000000E+00 -0.13143453759E+04  0.13143453759E+04  0.00000000000E+00 0.  1.
   -9000010    2    1    2    0  503 -0.16797708730E+03 -0.47732198919E+03 -0.12363795754E+03  0.11112085062E+04  0.98155255413E+03 0.  0.
    9000010    2    1    2  501    0  0.16797708730E+03  0.47732198919E+03 -0.24256784045E+03  0.11512764476E+04  0.10052590304E+04 0.  0.
        -13    1    4    4    0    0 -0.10136701268E+03  0.28376394833E+03 -0.59522481158E+03  0.66715053557E+03  0.10566000000E+00 0.  1.
          4    1    4    4  501    0  0.26934409997E+03  0.19355804086E+03  0.35265697113E+03  0.48412591199E+03  0.00000000000E+00 0.  1.
         13    1    3    3    0    0 -0.34330960530E+03  0.18743528758E+03  0.69124737656E+02  0.39720487489E+03  0.10566000000E+00 0. -1.
         -4    1    3    3    0  503  0.17533251800E+03 -0.66475727677E+03 -0.19276269520E+03  0.71400363132E+03  0.00000000000E+00 0. -1.
<mgrwt>
<rscale>  2 0.11201140E+04</rscale>
<asrwt>0</asrwt>
<pdfrwt beam="1">  1       21 0.14586763E+00 0.11254325E+04</pdfrwt>
<pdfrwt beam="2">  1       21 0.20220698E+00 0.11254325E+04</pdfrwt>
<totfact> 0.18579734E+01</totfact>
</mgrwt>
</event>
<event>
 8    1  0.1168507E-005  0.1212822E+04  0.7818608E-02  0.8599488E-01
         21   -1    0    0  503  502  0.00000000000E+00  0.00000000000E+00  0.21361616927E+04  0.21361616927E+04  0.00000000000E+00 0.  1.
         21   -1    0    0  501  503 -0.00000000000E+00 -0.00000000000E+00 -0.72496562796E+03  0.72496562796E+03  0.00000000000E+00 0.  1.
    9000010    2    1    2  501    0  0.22696602839E+03 -0.62816203274E+03  0.10543439178E+04  0.15968963454E+04  0.99616049090E+03 0.  0.
   -9000010    2    1    2    0  502 -0.22696602839E+03  0.62816203274E+03  0.35685214701E+03  0.12642309753E+04  0.10123415366E+04 0.  0.
        -13    1    3    3    0    0  0.36999207489E+03  0.13339977884E+03  0.53525483789E+03  0.66421938328E+03  0.10566000000E+00 0.  1.
          4    1    3    3  501    0 -0.14302604650E+03 -0.76156181158E+03  0.51908907988E+03  0.93267696213E+03  0.00000000000E+00 0.  1.
         13    1    4    4    0    0  0.16636762573E+03  0.66896722881E+03  0.49135594956E+03  0.84653766628E+03  0.10566000000E+00 0. -1.
         -4    1    4    4    0  502 -0.39333365412E+03 -0.40805196066E+02 -0.13450380254E+03  0.41769330900E+03  0.00000000000E+00 0. -1.
<mgrwt>
<rscale>  2 0.12094393E+04</rscale>
<asrwt>0</asrwt>
<pdfrwt beam="1">  1       21 0.32864026E+00 0.12128217E+04</pdfrwt>
<pdfrwt beam="2">  1       21 0.11153317E+00 0.12128217E+04</pdfrwt>
<totfact> 0.47673178E+00</totfact>
</mgrwt>
</event>
<event>
 8    1  0.1168507E-005  0.1180415E+04  0.7818608E-02  0.8628060E-01
         21   -1    0    0  503  502  0.00000000000E+00  0.00000000000E+00  0.71454057468E+03  0.71454057468E+03  0.00000000000E+00 0. -1.
         21   -1    0    0  501  503 -0.00000000000E+00 -0.00000000000E+00 -0.19419951971E+04  0.19419951971E+04  0.00000000000E+00 0. -1.
    9000010    2    1    2  501    0  0.44564111967E+03  0.29049366049E+03 -0.81269916667E+03  0.14053759705E+04  0.10156865208E+04 0.  0.
   -9000010    2    1    2    0  502 -0.44564111967E+03 -0.29049366049E+03 -0.41475545571E+03  0.12511598013E+04  0.10537533801E+04 0.  0.
        -13    1    3    3    0    0  0.60687569003E+03 -0.12538044619E+03 -0.71973337302E+03  0.94975496778E+03  0.10566000000E+00 0.  1.
          4    1    3    3  501    0 -0.16123457036E+03  0.41587410668E+03 -0.92965793656E+02  0.45562100267E+03  0.00000000000E+00 0.  1.
         13    1    4    4    0    0 -0.26360856099E+03 -0.18092604909E+03 -0.77195624431E+03  0.83554782206E+03  0.10566000000E+00 0. -1.
         -4    1    4    4    0  502 -0.18203255868E+03 -0.10956761140E+03  0.35720078860E+03  0.41561197921E+03  0.00000000000E+00 0. -1.
<mgrwt>
<rscale>  2 0.11718586E+04</rscale>
<asrwt>0</asrwt>
<pdfrwt beam="1">  1       21 0.10992932E+00 0.11804147E+04</pdfrwt>
<pdfrwt beam="2">  1       21 0.29876849E+00 0.11804147E+04</pdfrwt>
<totfact> 0.81058093E+00</totfact>
</mgrwt>
</event>
<event>
 8    1  0.1168507E-005  0.1140293E+04  0.7818608E-02  0.8668539E-01
         21   -1    0    0  501  502  0.00000000000E+00  0.00000000000E+00  0.15165100142E+04  0.15165100142E+04  0.00000000000E+00 0. -1.
         21   -1    0    0  502  503 -0.00000000000E+00 -0.00000000000E+00 -0.98303493086E+03  0.98303493086E+03  0.00000000000E+00 0. -1.
   -9000010    2    1    2    0  503  0.52874274056E+03 -0.16608043526E+03 -0.26220134178E+03  0.11700507697E+04  0.99655289042E+03 0.  0.
    9000010    2    1    2  501    0 -0.52874274056E+03  0.16608043526E+03  0.79567642514E+03  0.13294941754E+04  0.90956153840E+03 0.  0.
        -13    1    4    4    0    0  0.17335456101E+03 -0.15163451585E+03  0.12360607941E+02  0.23064610557E+03  0.10566000000E+00 0.  1.
          4    1    4    4  501    0 -0.70209730157E+03  0.31771495111E+03  0.78331581720E+03  0.10988480698E+04  0.00000000000E+00 0.  1.
         13    1    3    3    0    0 -0.93966013922E+02 -0.67915858520E+02 -0.48712153536E+03  0.50072904548E+03  0.10566000000E+00 0. -1.
         -4    1    3    3    0  503  0.62270875448E+03 -0.98164576736E+02  0.22492019359E+03  0.66932172423E+03  0.00000000000E+00 0. -1.
<mgrwt>
<rscale>  2 0.11210135E+04</rscale>
<asrwt>0</asrwt>
<pdfrwt beam="1">  1       21 0.23330923E+00 0.11402935E+04</pdfrwt>
<pdfrwt beam="2">  1       21 0.15123614E+00 0.11402935E+04</pdfrwt>
<totfact> 0.96308655E+00</totfact>
</mgrwt>
</event>
<event>
 8    1  0.1168507E-005  0.1636315E+04  0.7818608E-02  0.8339091E-01
         21   -1    0    0  503  502  0.00000000000E+00  0.00000000000E+00  0.13611191408E+04  0.13611191408E+04  0.00000000000E+00 0. -1.
         21   -1    0    0  501  503 -0.00000000000E+00 -0.00000000000E+00 -0.22945681046E+04  0.22945681046E+04  0.00000000000E+00 0.  1.
    9000010    2    1    2  501    0  0.12476501529E+04 -0.22225955532E+03 -0.11983575228E+04  0.20281982915E+04  0.10351315585E+04 0.  0.
   -9000010    2    1    2    0  502 -0.12476501529E+04  0.22225955532E+03  0.26490855903E+03  0.16274889539E+04  0.98616100945E+03 0.  0.
        -13    1    3    3    0    0  0.10802817196E+04 -0.24481613439E+03 -0.13869869480E+04  0.17750144615E+04  0.10566000000E+00 0.  1.
          4    1    3    3  501    0  0.16736843324E+03  0.22556579065E+02  0.18862942524E+03  0.25318382999E+03  0.00000000000E+00 0.  1.
         13    1    4    4    0    0 -0.45907281136E+03 -0.64716658045E+02  0.56985894202E+03  0.73462597076E+03  0.10566000000E+00 0. -1.
         -4    1    4    4    0  502 -0.78857734151E+03  0.28697621337E+03 -0.30495038299E+03  0.89286298314E+03  0.00000000000E+00 0. -1.
<mgrwt>
<rscale>  2 0.16286286E+04</rscale>
<asrwt>0</asrwt>
<pdfrwt beam="1">  1       21 0.20940295E+00 0.16363152E+04</pdfrwt>
<pdfrwt beam="2">  1       21 0.35301048E+00 0.16363152E+04</pdfrwt>
<totfact> 0.40681030E-01</totfact>
</mgrwt>
</event>
<event>
 8    1  0.1168507E-005  0.1187923E+04  0.7818608E-02  0.8627274E-01
         21   -1    0    0  501  502  0.00000000000E+00  0.00000000000E+00  0.16956632588E+04  0.16956632588E+04  0.00000000000E+00 0. -1.
         21   -1    0    0  502  503 -0.00000000000E+00 -0.00000000000E+00 -0.83907283826E+03  0.83907283826E+03  0.00000000000E+00 0. -1.
   -9000010    2    1    2    0  503  0.25573313889E+03  0.43578640263E+03  0.13644583760E+03  0.11957335435E+04  0.10751055825E+04 0.  0.
    9000010    2    1    2  501    0 -0.25573313889E+03 -0.43578640263E+03  0.72014458298E+03  0.13390025536E+04  0.10094604455E+04 0.  0.
        -13    1    4    4    0    0  0.16946237068E+03 -0.47828475947E+03  0.68014431715E+01  0.50746436033E+03  0.10566000000E+00 0.  1.
          4    1    4    4  501    0 -0.42519550957E+03  0.42498356834E+02  0.71334313980E+03  0.83153819323E+03  0.00000000000E+00 0.  1.
         13    1    3    3    0    0  0.29899973974E+03  0.52150623559E+02 -0.42017424171E+03  0.51833091405E+03  0.10566000000E+00 0. -1.
         -4    1    3    3    0  503 -0.43266600850E+02  0.38363577907E+03  0.55662007930E+03  0.67740262947E+03  0.00000000000E+00 0. -1.
<mgrwt>
<rscale>  2 0.11728731E+04</rscale>
<asrwt>0</asrwt>
<pdfrwt beam="1">  1       21 0.26087127E+00 0.11879231E+04</pdfrwt>
<pdfrwt beam="2">  1       21 0.12908813E+00 0.11879231E+04</pdfrwt>
<totfact> 0.96245750E+00</totfact>
</mgrwt>
</event>
<event>
 8    1  0.1168507E-005  0.1396735E+04  0.7818608E-02  0.8474565E-01
         21   -1    0    0  501  502  0.00000000000E+00  0.00000000000E+00  0.16442123987E+04  0.16442123987E+04  0.00000000000E+00 0. -1.
         21   -1    0    0  502  503 -0.00000000000E+00 -0.00000000000E+00 -0.11958467582E+04  0.11958467582E+04  0.00000000000E+00 0.  1.
   -9000010    2    1    2    0  503  0.55786478768E+03  0.76257800950E+03  0.14717863624E+02  0.13775547831E+04  0.10023483541E+04 0.  0.
    9000010    2    1    2  501    0 -0.55786478768E+03 -0.76257800950E+03  0.43364777691E+03  0.14625043738E+04  0.10286546102E+04 0.  0.
        -13    1    4    4    0    0 -0.29603520634E+02 -0.85545275223E+03  0.20977894323E+03  0.88129620215E+03  0.10566000000E+00 0.  1.
          4    1    4    4  501    0 -0.52826126704E+03  0.92874742727E+02  0.22386883368E+03  0.58120817164E+03  0.00000000000E+00 0.  1.
         13    1    3    3    0    0  0.74571781011E+03  0.20495487933E+03  0.11106252492E+03  0.78130432642E+03  0.10566000000E+00 0. -1.
         -4    1    3    3    0  503 -0.18785302243E+03  0.55762313017E+03 -0.96344661295E+02  0.59625045669E+03  0.00000000000E+00 0. -1.
<mgrwt>
<rscale>  2 0.13918952E+04</rscale>
<asrwt>0</asrwt>
<pdfrwt beam="1">  1       21 0.25295575E+00 0.13967350E+04</pdfrwt>
<pdfrwt beam="2">  1       21 0.18397642E+00 0.13967350E+04</pdfrwt>
<totfact> 0.34633741E+00</totfact>
</mgrwt>
</event>
<event>
 8    1  0.1168507E-005  0.1310752E+04  0.7818608E-02  0.8529956E-01
         21   -1    0    0  501  502  0.00000000000E+00  0.00000000000E+00  0.16145055363E+04  0.16145055363E+04  0.00000000000E+00 0.  1.
         21   -1    0    0  502  503 -0.00000000000E+00 -0.00000000000E+00 -0.11790831416E+04  0.11790831416E+04  0.00000000000E+00 0.  1.
   -9000010    2    1    2    0  503  0.24504948401E+02  0.82868410578E+03 -0.23873133377E+03  0.13323147831E+04  0.10152596672E+04 0.  0.
    9000010    2    1    2  501    0 -0.24504948401E+02 -0.82868410578E+03  0.67415372850E+03  0.14612738949E+04  0.99675488791E+03 0.  0.
        -13    1    4    4    0    0 -0.48011374937E+03 -0.28481999351E+03  0.45058965013E+03  0.71739994773E+03  0.10566000000E+00 0.  1.
          4    1    4    4  501    0  0.45560880096E+03 -0.54386411227E+03  0.22356407836E+03  0.74387394716E+03  0.00000000000E+00 0.  1.
         13    1    3    3    0    0  0.33923449889E+03 -0.53942096436E+02 -0.19330521360E+03  0.39415315777E+03  0.10566000000E+00 0. -1.
         -4    1    3    3    0  503 -0.31472955049E+03  0.88262620222E+03 -0.45426120167E+02  0.93816162530E+03  0.00000000000E+00 0. -1.
<mgrwt>
<rscale>  2 0.13071670E+04</rscale>
<asrwt>0</asrwt>
<pdfrwt beam="1">  1       21 0.24838547E+00 0.13107517E+04</pdfrwt>
<pdfrwt beam="2">  1       21 0.18139741E+00 0.13107517E+04</pdfrwt>
<totfact> 0.39896493E+00</totfact>
</mgrwt>
</event>
<event>
 8    1  0.1168507E-005  0.1023872E+04  0.7818608E-02  0.8752666E-01
         21   -1    0    0  501  502  0.00000000000E+00  0.00000000000E+00  0.14210163162E+04  0.14210163162E+04  0.00000000000E+00 0. -1.
         21   -1    0    0  502  503 -0.00000000000E+00 -0.00000000000E+00 -0.75417866180E+03  0.75417866180E+03  0.00000000000E+00 0. -1.
   -9000010    2    1    2    0  503  0.72436376722E+02 -0.20460432044E+03  0.49705751811E+03  0.11381479252E+04  0.10006021021E+04 0.  0.
    9000010    2    1    2  501    0 -0.72436376722E+02  0.20460432044E+03  0.16978013631E+03  0.10370470528E+04  0.99976564178E+03 0.  0.
        -13    1    4    4    0    0 -0.21085318433E+03  0.58226218576E+03  0.13089690732E+03  0.63294733573E+03  0.10566000000E+00 0.  1.
          4    1    4    4  501    0  0.13841680760E+03 -0.37765786532E+03  0.38883228991E+02  0.40409971710E+03  0.00000000000E+00 0.  1.
         13    1    3    3    0    0 -0.38817475820E+02 -0.43765996645E+03  0.68844829004E+03  0.81670931296E+03  0.10566000000E+00 0. -1.
         -4    1    3    3    0  503  0.11125385254E+03  0.23305564601E+03 -0.19139077193E+03  0.32143861221E+03  0.00000000000E+00 0. -1.
<mgrwt>
<rscale>  2 0.10236679E+04</rscale>
<asrwt>0</asrwt>
<pdfrwt beam="1">  1       21 0.21861789E+00 0.10238723E+04</pdfrwt>
<pdfrwt beam="2">  1       21 0.11602749E+00 0.10238723E+04</pdfrwt>
<totfact> 0.27585289E+01</totfact>
</mgrwt>
</event>
<event>
 8    1  0.1168507E-005  0.1154205E+04  0.7818608E-02  0.8642937E-01
         21   -1    0    0  501  502  0.00000000000E+00  0.00000000000E+00  0.74217221391E+03  0.74217221391E+03  0.00000000000E+00 0.  1.
         21   -1    0    0  502  503 -0.00000000000E+00 -0.00000000000E+00 -0.18276527735E+04  0.18276527735E+04  0.00000000000E+00 0. -1.
   -9000010    2    1    2    0  503  0.47594642955E+03 -0.31821939175E+03 -0.73655787808E+03  0.13691990321E+04  0.10021975338E+04 0.  0.
    9000010    2    1    2  501    0 -0.47594642955E+03  0.31821939175E+03 -0.34892268147E+03  0.12006259552E+04  0.99597543225E+03 0.  0.
        -13    1    4    4    0    0 -0.12154986333E+03  0.36933670299E+03  0.27846321672E+03  0.47825280311E+03  0.10566000000E+00 0.  1.
          4    1    4    4  501    0 -0.35439656622E+03 -0.51117311244E+02 -0.62738589819E+03  0.72237315212E+03  0.00000000000E+00 0.  1.
         13    1    3    3    0    0 -0.18130337313E+03 -0.17601024304E+03  0.12039411620E+03  0.27990225641E+03  0.10566000000E+00 0. -1.
         -4    1    3    3    0  503  0.65724980268E+03 -0.14220914871E+03 -0.85695199428E+03  0.10892967757E+04  0.00000000000E+00 0. -1.
<mgrwt>
<rscale>  2 0.11528527E+04</rscale>
<asrwt>0</asrwt>
<pdfrwt beam="1">  1       21 0.11418034E+00 0.11542047E+04</pdfrwt>
<pdfrwt beam="2">  1       21 0.28117735E+00 0.11542047E+04</pdfrwt>
<totfact> 0.97941256E+00</totfact>
</mgrwt>
</event>
<event>
 8    1  0.1168507E-005  0.1076359E+04  0.7818608E-02  0.8708104E-01
         21   -1    0    0  501  502  0.00000000000E+00  0.00000000000E+00  0.12110117797E+04  0.12110117797E+04  0.00000000000E+00 0.  1.
         21   -1    0    0  502  503 -0.00000000000E+00 -0.00000000000E+00 -0.94864464825E+03  0.94864464825E+03  0.00000000000E+00 0.  1.
   -9000010    2    1    2    0  503 -0.67669511185E+02  0.24396834724E+03  0.10138973158E+03  0.10713266704E+04  0.10360314860E+04 0.  0.
    9000010    2    1    2  501    0  0.67669511185E+02 -0.24396834724E+03  0.16097739991E+03  0.10883297576E+04  0.10461587933E+04 0.  0.
        -13    1    4    4    0    0  0.30041792518E+03 -0.44705364475E+03  0.42174106355E+03  0.68408583299E+03  0.10566000000E+00 0.  1.
          4    1    4    4  501    0 -0.23274841399E+03  0.20308529751E+03 -0.26076366364E+03  0.40424392457E+03  0.00000000000E+00 0.  1.
         13    1    3    3    0    0 -0.49300520213E+03  0.56105694271E+01  0.26156059817E+03  0.55812146124E+03  0.10566000000E+00 0. -1.
         -4    1    3    3    0  503  0.42533569094E+03  0.23835777782E+03 -0.16017086659E+03  0.51320520919E+03  0.00000000000E+00 0. -1.
<mgrwt>
<rscale>  2 0.10738900E+04</rscale>
<asrwt>0</asrwt>
<pdfrwt beam="1">  1       21 0.18630950E+00 0.10763586E+04</pdfrwt>
<pdfrwt beam="2">  1       21 0.14594533E+00 0.10763586E+04</pdfrwt>
<totfact> 0.25038044E+01</totfact>
</mgrwt>
</event>
<event>
 8    1  0.1168507E-005  0.1143542E+04  0.7818608E-02  0.8653572E-01
         21   -1    0    0  503  502  0.00000000000E+00  0.00000000000E+00  0.45361729803E+04  0.45361729803E+04  0.00000000000E+00 0.  1.
         21   -1    0    0  501  503 -0.00000000000E+00 -0.00000000000E+00 -0.29185191033E+03  0.29185191033E+03  0.00000000000E+00 0.  1.
    9000010    2    1    2  501    0 -0.53967836560E+03  0.12578226561E+03  0.24974906344E+04  0.27401779555E+04  0.98185632466E+03 0.  0.
   -9000010    2    1    2    0  502  0.53967836560E+03 -0.12578226561E+03  0.17468304356E+04  0.20878469351E+04  0.10003071215E+04 0.  0.
        -13    1    3    3    0    0 -0.66705331496E+03  0.93152575956E+02  0.25185144568E+04  0.26070198710E+04  0.10566000000E+00 0.  1.
          4    1    3    3  501    0  0.12737494936E+03  0.32629689655E+02 -0.21023822385E+02  0.13315808454E+03  0.00000000000E+00 0.  1.
         13    1    4    4    0    0  0.25352340892E+03  0.30468823502E+02 -0.51255434924E+02  0.26044116197E+03  0.10566000000E+00 0. -1.
         -4    1    4    4    0  502  0.28615495669E+03 -0.15625108911E+03  0.17980858705E+04  0.18274057732E+04  0.00000000000E+00 0. -1.
<mgrwt>
<rscale>  2 0.11394945E+04</rscale>
<asrwt>0</asrwt>
<pdfrwt beam="1">  1       21 0.69787271E+00 0.11435420E+04</pdfrwt>
<pdfrwt beam="2">  1       21 0.44900297E-01 0.11435420E+04</pdfrwt>
<totfact> 0.82534632E-02</totfact>
</mgrwt>
</event>
<event>
 8    1  0.1168507E-005  0.1158619E+04  0.7818608E-02  0.8638560E-01
         21   -1    0    0  501  502  0.00000000000E+00  0.00000000000E+00  0.89571000093E+03  0.89571000093E+03  0.00000000000E+00 0. -1.
         21   -1    0    0  502  503 -0.00000000000E+00 -0.00000000000E+00 -0.14981327466E+04  0.14981327466E+04  0.00000000000E+00 0. -1.
   -9000010    2    1    2    0  503 -0.48143264243E+03 -0.32569692019E+03 -0.27851005803E+03  0.11916233178E+04  0.10022686297E+04 0.  0.
    9000010    2    1    2  501    0  0.48143264243E+03  0.32569692019E+03 -0.32391268762E+03  0.12022194297E+04  0.10012773117E+04 0.  0.
        -13    1    4    4    0    0  0.73676720179E+03  0.11509810441E+03 -0.42223330559E+03  0.85694483999E+03  0.10566000000E+00 0.  1.
          4    1    4    4  501    0 -0.25533455936E+03  0.21059881578E+03  0.98320617970E+02  0.34527458975E+03  0.00000000000E+00 0.  1.
         13    1    3    3    0    0 -0.60740959432E+03 -0.37104829187E+03 -0.54294977199E+03  0.89521936766E+03  0.10566000000E+00 0. -1.
         -4    1    3    3    0  503  0.12597695189E+03  0.45351371689E+02  0.26443971396E+03  0.29640395011E+03  0.00000000000E+00 0. -1.
<mgrwt>
<rscale>  2 0.11584047E+04</rscale>
<asrwt>0</asrwt>
<pdfrwt beam="1">  1       21 0.13780154E+00 0.11586191E+04</pdfrwt>
<pdfrwt beam="2">  1       21 0.23048196E+00 0.11586191E+04</pdfrwt>
<totfact> 0.13349251E+01</totfact>
</mgrwt>
</event>
<event>
 8    1  0.1168507E-005  0.1054298E+04  0.7818608E-02  0.8728556E-01
         21   -1    0    0  501  502  0.00000000000E+00  0.00000000000E+00  0.10232171571E+04  0.10232171571E+04  0.00000000000E+00 0. -1.
         21   -1    0    0  502  503 -0.00000000000E+00 -0.00000000000E+00 -0.10709599614E+04  0.10709599614E+04  0.00000000000E+00 0. -1.
   -9000010    2    1    2    0  503 -0.32361383038E+03  0.40477757033E+02 -0.83958626038E+01  0.10543314512E+04  0.10025866339E+04 0.  0.
    9000010    2    1    2  501    0  0.32361383038E+03 -0.40477757033E+02 -0.39346941683E+02  0.10398456673E+04  0.98659336605E+03 0.  0.
        -13    1    4    4    0    0  0.47467188573E+03  0.90294707479E+02  0.35378333123E+03  0.59885656874E+03  0.10566000000E+00 0.  1.
          4    1    4    4  501    0 -0.15105805535E+03 -0.13077246451E+03 -0.39313027291E+03  0.44098909855E+03  0.00000000000E+00 0.  1.
         13    1    3    3    0    0  0.12260291122E+03 -0.67662105537E+02  0.40993917665E+03  0.43319715382E+03  0.10566000000E+00 0. -1.
         -4    1    3    3    0  503 -0.44621674159E+03  0.10813986257E+03 -0.41833503925E+03  0.62113429741E+03  0.00000000000E+00 0. -1.
<mgrwt>
<rscale>  2 0.10504780E+04</rscale>
<asrwt>0</asrwt>
<pdfrwt beam="1">  1       21 0.15741802E+00 0.10542980E+04</pdfrwt>
<pdfrwt beam="2">  1       21 0.16476307E+00 0.10542980E+04</pdfrwt>
<totfact> 0.29990981E+01</totfact>
</mgrwt>
</event>
<event>
 8    1  0.1168507E-005  0.1221854E+04  0.7818608E-02  0.8592815E-01
         21   -1    0    0  503  502  0.00000000000E+00  0.00000000000E+00  0.42450582139E+04  0.42450582139E+04  0.00000000000E+00 0.  1.
         21   -1    0    0  501  503 -0.00000000000E+00 -0.00000000000E+00 -0.39301846375E+03  0.39301846375E+03  0.00000000000E+00 0.  1.
    9000010    2    1    2  501    0 -0.62587824681E+03  0.23756280361E+03  0.27033366953E+04  0.29610416762E+04  0.10057727647E+04 0.  0.
   -9000010    2    1    2    0  502  0.62587824681E+03 -0.23756280361E+03  0.11487030548E+04  0.16770350015E+04  0.10221389448E+04 0.  0.
        -13    1    3    3    0    0  0.68592667526E+02 -0.28983557902E+03  0.40418487172E+03  0.50207075059E+03  0.10566000000E+00 0.  1.
          4    1    3    3  501    0 -0.69447091434E+03  0.52739838263E+03  0.22991518236E+04  0.24589709256E+04  0.00000000000E+00 0.  1.
         13    1    4    4    0    0  0.56266510411E+03  0.32831530737E+03  0.57888646670E+03  0.87148867630E+03  0.10566000000E+00 0. -1.
         -4    1    4    4    0  502  0.63213142704E+02 -0.56587811098E+03  0.56981658809E+03  0.80554632515E+03  0.00000000000E+00 0. -1.
<mgrwt>
<rscale>  2 0.12184253E+04</rscale>
<asrwt>0</asrwt>
<pdfrwt beam="1">  1       21 0.65308585E+00 0.12218542E+04</pdfrwt>
<pdfrwt beam="2">  1       21 0.60464382E-01 0.12218542E+04</pdfrwt>
<totfact> 0.98320468E-02</totfact>
</mgrwt>
</event>
<event>
 8    1  0.1168507E-005  0.1053199E+04  0.7818608E-02  0.8732648E-01
         21   -1    0    0  503  502  0.00000000000E+00  0.00000000000E+00  0.90675495184E+03  0.90675495184E+03  0.00000000000E+00 0.  1.
         21   -1    0    0  501  503 -0.00000000000E+00 -0.00000000000E+00 -0.11942445755E+04  0.11942445755E+04  0.00000000000E+00 0.  1.
    9000010    2    1    2  501    0  0.79905866934E+02 -0.26633478670E+03 -0.20565320994E+03  0.10446262637E+04  0.98571376266E+03 0.  0.
   -9000010    2    1    2    0  502 -0.79905866934E+02  0.26633478670E+03 -0.81836413684E+02  0.10563732636E+04  0.10158287785E+04 0.  0.
        -13    1    3    3    0    0 -0.20906082072E+03 -0.52254982518E+03 -0.31272104414E+03  0.64386272540E+03  0.10566000000E+00 0.  1.
          4    1    3    3  501    0  0.28896668766E+03  0.25621503848E+03  0.10706783420E+03  0.40076353831E+03  0.00000000000E+00 0.  1.
         13    1    4    4    0    0 -0.19912990017E+03  0.63389651640E+03 -0.17706896307E+02  0.66467364623E+03  0.10566000000E+00 0. -1.
         -4    1    4    4    0  502  0.11922403323E+03 -0.36756172970E+03 -0.64129517377E+02  0.39169961736E+03  0.00000000000E+00 0. -1.
<mgrwt>
<rscale>  2 0.10458685E+04</rscale>
<asrwt>0</asrwt>
<pdfrwt beam="1">  1       21 0.13950076E+00 0.10531986E+04</pdfrwt>
<pdfrwt beam="2">  1       21 0.18372994E+00 0.10531986E+04</pdfrwt>
<totfact> 0.30242563E+01</totfact>
</mgrwt>
</event>
<event>
 8    1  0.1168507E-005  0.1219480E+04  0.7818608E-02  0.8617491E-01
         21   -1    0    0  501  502  0.00000000000E+00  0.00000000000E+00  0.10783950827E+04  0.10783950827E+04  0.00000000000E+00 0. -1.
         21   -1    0    0  502  503 -0.00000000000E+00 -0.00000000000E+00 -0.12901702762E+04  0.12901702762E+04  0.00000000000E+00 0. -1.
   -9000010    2    1    2    0  503  0.68808299448E+03  0.17657115295E+03 -0.35406022035E+03  0.12698386357E+04  0.99120933290E+03 0.  0.
    9000010    2    1    2  501    0 -0.68808299448E+03 -0.17657115295E+03  0.14228502692E+03  0.10987267232E+04  0.82602651536E+03 0.  0.
        -13    1    4    4    0    0 -0.28107696682E+02 -0.38750247159E+03 -0.12751386999E+02  0.38872974820E+03  0.10566000000E+00 0.  1.
          4    1    4    4  501    0 -0.65997529780E+03  0.21093131864E+03  0.15503641392E+03  0.70999697501E+03  0.00000000000E+00 0.  1.
         13    1    3    3    0    0 -0.14955500851E+03  0.30627051866E+03 -0.23476887051E+03  0.41386563628E+03  0.10566000000E+00 0. -1.
         -4    1    3    3    0  503  0.83763800299E+03 -0.12969936571E+03 -0.11929134984E+03  0.85597299938E+03  0.00000000000E+00 0. -1.
<mgrwt>
<rscale>  2 0.11855922E+04</rscale>
<asrwt>0</asrwt>
<pdfrwt beam="1">  1       21 0.16590694E+00 0.12194800E+04</pdfrwt>
<pdfrwt beam="2">  1       21 0.19848774E+00 0.12194800E+04</pdfrwt>
<totfact> 0.13001631E+01</totfact>
</mgrwt>
</event>
<event>
 8    1  0.1168507E-005  0.1106759E+04  0.7818608E-02  0.8681254E-01
         21   -1    0    0  503  502  0.00000000000E+00  0.00000000000E+00  0.10837392026E+04  0.10837392026E+04  0.00000000000E+00 0. -1.
         21   -1    0    0  501  503 -0.00000000000E+00 -0.00000000000E+00 -0.11279467402E+04  0.11279467402E+04  0.00000000000E+00 0. -1.
    9000010    2    1    2  501    0 -0.23750649952E+03  0.36473076874E+03 -0.73098365077E+02  0.11045498066E+04  0.10125458179E+04 0.  0.
   -9000010    2    1    2    0  502  0.23750649952E+03 -0.36473076874E+03  0.28890827472E+02  0.11071361363E+04  0.10175843323E+04 0.  0.
        -13    1    3    3    0    0 -0.51864442620E+03 -0.92490522969E+02  0.10857221329E+03  0.53789820071E+03  0.10566000000E+00 0.  1.
          4    1    3    3  501    0  0.28113792668E+03  0.45722129171E+03 -0.18167057837E+03  0.56665160589E+03  0.00000000000E+00 0.  1.
         13    1    4    4    0    0  0.27465670126E+03 -0.62942763799E+03 -0.24050449285E+03  0.72763856224E+03  0.10566000000E+00 0. -1.
         -4    1    4    4    0  502 -0.37150201737E+02  0.26469686925E+03  0.26939532032E+03  0.37949757403E+03  0.00000000000E+00 0. -1.
<mgrwt>
<rscale>  2 0.11055996E+04</rscale>
<asrwt>0</asrwt>
<pdfrwt beam="1">  1       21 0.16672911E+00 0.11067591E+04</pdfrwt>
<pdfrwt beam="2">  1       21 0.17353027E+00 0.11067591E+04</pdfrwt>
<totfact> 0.20817100E+01</totfact>
</mgrwt>
</event>
<event>
 8    1  0.1168507E-005  0.1017085E+04  0.7818608E-02  0.8770542E-01
         21   -1    0    0  503  502  0.00000000000E+00  0.00000000000E+00  0.10609604235E+04  0.10609604235E+04  0.00000000000E+00 0.  1.
         21   -1    0    0  501  503 -0.00000000000E+00 -0.00000000000E+00 -0.94114180111E+03  0.94114180111E+03  0.00000000000E+00 0.  1.
    9000010    2    1    2  501    0 -0.11325470716E+03  0.18445249886E+03 -0.58711961560E+02  0.10187782592E+04  0.99378704659E+03 0.  0.
   -9000010    2    1    2    0  502  0.11325470716E+03 -0.18445249886E+03  0.17853058392E+03  0.98332396538E+03  0.94244548832E+03 0.  0.
        -13    1    3    3    0    0 -0.24264369961E+03  0.20072189302E+03 -0.48205927614E+03  0.57580066010E+03  0.10566000000E+00 0.  1.
          4    1    3    3  501    0  0.12938899245E+03 -0.16269394160E+02  0.42334731458E+03  0.44297759911E+03  0.00000000000E+00 0.  1.
         13    1    4    4    0    0  0.48621757401E+03 -0.30538699411E+03  0.87254154325E+02  0.58075988502E+03  0.10566000000E+00 0. -1.
         -4    1    4    4    0  502 -0.37296286685E+03  0.12093449525E+03  0.91276429591E+02  0.40256408035E+03  0.00000000000E+00 0. -1.
<mgrwt>
<rscale>  2 0.10043209E+04</rscale>
<asrwt>0</asrwt>
<pdfrwt beam="1">  1       21 0.16322468E+00 0.10170851E+04</pdfrwt>
<pdfrwt beam="2">  1       21 0.14479105E+00 0.10170851E+04</pdfrwt>
<totfact> 0.40352661E+01</totfact>
</mgrwt>
</event>
<event>
 8    1  0.1168507E-005  0.1034721E+04  0.7818608E-02  0.8750197E-01
         21   -1    0    0  501  502  0.00000000000E+00  0.00000000000E+00  0.14370264708E+04  0.14370264708E+04  0.00000000000E+00 0.  1.
         21   -1    0    0  502  503 -0.00000000000E+00 -0.00000000000E+00 -0.72180197428E+03  0.72180197428E+03  0.00000000000E+00 0.  1.
   -9000010    2    1    2    0  503  0.85535759143E+02  0.10463824711E+03  0.34081462249E+03  0.10894041038E+04  0.10258563084E+04 0.  0.
    9000010    2    1    2  501    0 -0.85535759143E+02 -0.10463824711E+03  0.37440987406E+03  0.10694243413E+04  0.99258256039E+03 0.  0.
        -13    1    4    4    0    0  0.23182439157E+03  0.28493487585E+03 -0.97542958453E+02  0.38005930051E+03  0.10566000000E+00 0.  1.
          4    1    4    4  501    0 -0.31736015071E+03 -0.38957312296E+03  0.47195283251E+03  0.68936504082E+03  0.00000000000E+00 0.  1.
         13    1    3    3    0    0  0.16333839486E+03 -0.48694708031E+02  0.68434248183E+03  0.70524836010E+03  0.10566000000E+00 0. -1.
         -4    1    3    3    0  503 -0.77802635718E+02  0.15333295514E+03 -0.34352785934E+03  0.38415574368E+03  0.00000000000E+00 0. -1.
<mgrwt>
<rscale>  2 0.10263754E+04</rscale>
<asrwt>0</asrwt>
<pdfrwt beam="1">  1       21 0.22108099E+00 0.10347206E+04</pdfrwt>
<pdfrwt beam="2">  1       21 0.11104646E+00 0.10347206E+04</pdfrwt>
<totfact> 0.29737349E+01</totfact>
</mgrwt>
</event>
<event>
 8    1  0.1168507E-005  0.1091468E+04  0.7818608E-02  0.8699225E-01
         21   -1    0    0  501  502  0.00000000000E+00  0.00000000000E+00  0.19991170213E+04  0.19991170213E+04  0.00000000000E+00 0.  1.
         21   -1    0    0  502  503 -0.00000000000E+00 -0.00000000000E+00 -0.92773546019E+03  0.92773546019E+03  0.00000000000E+00 0.  1.
   -9000010    2    1    2    0  503 -0.65449435498E+02 -0.42776233902E+03 -0.36412543235E+03  0.11235267951E+04  0.97080424472E+03 0.  0.
    9000010    2    1    2  501    0  0.65449435498E+02  0.42776233902E+03  0.14355069935E+04  0.18033256864E+04  0.10020174428E+04 0.  0.
        -13    1    4    4    0    0  0.15608783428E+03 -0.26673064299E+03  0.15958875333E+03  0.34781781045E+03  0.10566000000E+00 0.  1.
          4    1    4    4  501    0 -0.90638398777E+02  0.69449298201E+03  0.12759182401E+04  0.14555078759E+04  0.00000000000E+00 0.  1.
         13    1    3    3    0    0  0.96018841416E+02 -0.46606104300E+03  0.21421887201E+03  0.52184504405E+03  0.10566000000E+00 0. -1.
         -4    1    3    3    0  503 -0.16146827691E+03  0.38298703984E+02 -0.57834430436E+03  0.60168175106E+03  0.00000000000E+00 0. -1.
<mgrwt>
<rscale>  2 0.10842513E+04</rscale>
<asrwt>0</asrwt>
<pdfrwt beam="1">  1       21 0.30755646E+00 0.10914684E+04</pdfrwt>
<pdfrwt beam="2">  1       21 0.14272853E+00 0.10914684E+04</pdfrwt>
<totfact> 0.33994770E+00</totfact>
</mgrwt>
</event>
<event>
 8    1  0.1168507E-005  0.1021772E+04  0.7818608E-02  0.8759837E-01
         21   -1    0    0  501  502  0.00000000000E+00  0.00000000000E+00  0.82485935769E+03  0.82485935769E+03  0.00000000000E+00 0. -1.
         21   -1    0    0  502  503 -0.00000000000E+00 -0.00000000000E+00 -0.12478872818E+04  0.12478872818E+04  0.00000000000E+00 0. -1.
   -9000010    2    1    2    0  503 -0.14870023548E+03  0.11337374088E+03 -0.31169162997E+03  0.10682550860E+04  0.10045157497E+04 0.  0.
    9000010    2    1    2  501    0  0.14870023548E+03 -0.11337374088E+03 -0.11133629415E+03  0.10044915535E+04  0.98063354296E+03 0.  0.
        -13    1    4    4    0    0  0.99366828368E+02 -0.18693845514E+03  0.41759575126E+03  0.46819437761E+03  0.10566000000E+00 0.  1.
          4    1    4    4  501    0  0.49333407115E+02  0.73564714263E+02 -0.52893204541E+03  0.53629717593E+03  0.00000000000E+00 0.  1.
         13    1    3    3    0    0  0.39929721462E+03 -0.91695806760E+02 -0.24989611066E+03  0.47989005394E+03  0.10566000000E+00 0. -1.
         -4    1    3    3    0  503 -0.54799745011E+03  0.20506954764E+03 -0.61795519309E+02  0.58836503202E+03  0.00000000000E+00 0. -1.
<mgrwt>
<rscale>  2 0.10158531E+04</rscale>
<asrwt>0</asrwt>
<pdfrwt beam="1">  1       21 0.12690144E+00 0.10217716E+04</pdfrwt>
<pdfrwt beam="2">  1       21 0.19198266E+00 0.10217716E+04</pdfrwt>
<totfact> 0.34470528E+01</totfact>
</mgrwt>
</event>
<event>
 8    1  0.1168507E-005  0.1024604E+04  0.7818608E-02  0.8752877E-01
         21   -1    0    0  501  502  0.00000000000E+00  0.00000000000E+00  0.56577538160E+03  0.56577538160E+03  0.00000000000E+00 0. -1.
         21   -1    0    0  502  503 -0.00000000000E+00 -0.00000000000E+00 -0.18538029172E+04  0.18538029172E+04  0.00000000000E+00 0. -1.
   -9000010    2    1    2    0  503  0.13630446202E+03  0.17340669854E+03 -0.71822523713E+03  0.12512639101E+04  0.10005823764E+04 0.  0.
    9000010    2    1    2  501    0 -0.13630446202E+03 -0.17340669854E+03 -0.56980229847E+03  0.11683143887E+04  0.99580874775E+03 0.  0.
        -13    1    4    4    0    0  0.13489954510E+01 -0.49925029841E+02 -0.83967766872E+03  0.84116165325E+03  0.10566000000E+00 0.  1.
          4    1    4    4  501    0 -0.13765345748E+03 -0.12348166870E+03  0.26987537025E+03  0.32715273547E+03  0.00000000000E+00 0.  1.
         13    1    3    3    0    0  0.10127788240E+03 -0.41451850942E+03 -0.22138178305E+03  0.48072103048E+03  0.10566000000E+00 0. -1.
         -4    1    3    3    0  503  0.35026579620E+02  0.58792520796E+03 -0.49684345408E+03  0.77054287960E+03  0.00000000000E+00 0. -1.
<mgrwt>
<rscale>  2 0.10234370E+04</rscale>
<asrwt>0</asrwt>
<pdfrwt beam="1">  1       21 0.87042367E-01 0.10246043E+04</pdfrwt>
<pdfrwt beam="2">  1       21 0.28520045E+00 0.10246043E+04</pdfrwt>
<totfact> 0.19238498E+01</totfact>
</mgrwt>
</event>
<event>
 8    1  0.1168507E-005  0.1025628E+04  0.7818608E-02  0.8754524E-01
         21   -1    0    0  501  502  0.00000000000E+00  0.00000000000E+00  0.13604115695E+04  0.13604115695E+04  0.00000000000E+00 0.  1.
         21   -1    0    0  502  503 -0.00000000000E+00 -0.00000000000E+00 -0.92968058439E+03  0.92968058439E+03  0.00000000000E+00 0.  1.
   -9000010    2    1    2    0  503 -0.21038511798E+03 -0.10995660494E+03  0.70401786962E+03  0.12440073084E+04  0.99777786591E+03 0.  0.
    9000010    2    1    2  501    0  0.21038511798E+03  0.10995660494E+03 -0.27328688448E+03  0.10460848455E+04  0.98145577079E+03 0.  0.
        -13    1    4    4    0    0 -0.39405484431E+03 -0.57267090917E+01 -0.95365814566E+02  0.40547091791E+03  0.10566000000E+00 0.  1.
          4    1    4    4  501    0  0.60443996229E+03  0.11568331403E+03 -0.17792106991E+03  0.64061392764E+03  0.00000000000E+00 0.  1.
         13    1    3    3    0    0  0.30250126700E+03  0.14043846933E+03 -0.53302323580E+01  0.33355419761E+03  0.10566000000E+00 0. -1.
         -4    1    3    3    0  503 -0.51288638498E+03 -0.25039507427E+03  0.70934810198E+03  0.91045311076E+03  0.00000000000E+00 0. -1.
<mgrwt>
<rscale>  2 0.10216369E+04</rscale>
<asrwt>0</asrwt>
<pdfrwt beam="1">  1       21 0.20929409E+00 0.10256281E+04</pdfrwt>
<pdfrwt beam="2">  1       21 0.14302778E+00 0.10256281E+04</pdfrwt>
<totfact> 0.17773860E+01</totfact>
</mgrwt>
</event>
<event>
 8    1  0.1168507E-005  0.1074515E+04  0.7818608E-02  0.8719578E-01
         21   -1    0    0  501  502  0.00000000000E+00  0.00000000000E+00  0.16282168407E+04  0.16282168407E+04  0.00000000000E+00 0. -1.
         21   -1    0    0  502  503 -0.00000000000E+00 -0.00000000000E+00 -0.68139056696E+03  0.68139056696E+03  0.00000000000E+00 0. -1.
   -9000010    2    1    2    0  503 -0.24453097788E+03 -0.22559352003E+03  0.36317541006E+03  0.11342300607E+04  0.10217111219E+04 0.  0.
    9000010    2    1    2  501    0  0.24453097788E+03  0.22559352003E+03  0.58365086369E+03  0.11753773470E+04  0.96445618965E+03 0.  0.
        -13    1    4    4    0    0  0.46308766292E+03  0.40484248235E+03  0.63944321011E+03  0.88726278474E+03  0.10566000000E+00 0.  1.
          4    1    4    4  501    0 -0.21855668504E+03 -0.17924896232E+03 -0.55792346421E+02  0.28811456227E+03  0.00000000000E+00 0.  1.
         13    1    3    3    0    0  0.25208064236E+03 -0.44305513522E+03  0.60504830885E+02  0.51332577260E+03  0.10566000000E+00 0. -1.
         -4    1    3    3    0  503 -0.49661162024E+03  0.21746161519E+03  0.30267057918E+03  0.62090428806E+03  0.00000000000E+00 0. -1.
<mgrwt>
<rscale>  2 0.10606777E+04</rscale>
<asrwt>0</asrwt>
<pdfrwt beam="1">  1       21 0.25049490E+00 0.10745145E+04</pdfrwt>
<pdfrwt beam="2">  1       21 0.10482932E+00 0.10745145E+04</pdfrwt>
<totfact> 0.20868097E+01</totfact>
</mgrwt>
</event>
<event>
 8    1  0.1168507E-005  0.1521252E+04  0.7818608E-02  0.8402302E-01
         21   -1    0    0  503  502  0.00000000000E+00  0.00000000000E+00  0.18452229413E+04  0.18452229413E+04  0.00000000000E+00 0. -1.
         21   -1    0    0  501  503 -0.00000000000E+00 -0.00000000000E+00 -0.12531950724E+04  0.12531950724E+04  0.00000000000E+00 0.  1.
    9000010    2    1    2  501    0 -0.41294420648E+03 -0.10660153908E+04  0.64224083651E+02  0.14882053249E+04  0.95064116524E+03 0.  0.
   -9000010    2    1    2    0  502  0.41294420648E+03  0.10660153908E+04  0.52780378524E+03  0.16102126888E+04  0.10036415378E+04 0.  0.
        -13    1    3    3    0    0 -0.12784740918E+03 -0.10227149854E+04  0.34385745971E+03  0.10865214518E+04  0.10566000000E+00 0.  1.
          4    1    3    3  501    0 -0.28509679730E+03 -0.43300405417E+02 -0.27963337606E+03  0.40168387315E+03  0.00000000000E+00 0.  1.
         13    1    4    4    0    0  0.45714319934E+02  0.71242465245E+03  0.76637446462E+03  0.10473626476E+04  0.10566000000E+00 0. -1.
         -4    1    4    4    0  502  0.36722988655E+03  0.35359073835E+03 -0.23857067938E+03  0.56285004120E+03  0.00000000000E+00 0. -1.
<mgrwt>
<rscale>  2 0.15125698E+04</rscale>
<asrwt>0</asrwt>
<pdfrwt beam="1">  1       21 0.28388045E+00 0.15212521E+04</pdfrwt>
<pdfrwt beam="2">  1       21 0.19279924E+00 0.15212521E+04</pdfrwt>
<totfact> 0.17221571E+00</totfact>
</mgrwt>
</event>
<event>
 8    1  0.1168507E-005  0.1809865E+04  0.7818608E-02  0.8250946E-01
         21   -1    0    0  503  502  0.00000000000E+00  0.00000000000E+00  0.32601930759E+04  0.32601930759E+04  0.00000000000E+00 0.  1.
         21   -1    0    0  501  503 -0.00000000000E+00 -0.00000000000E+00 -0.13043837548E+04  0.13043837548E+04  0.00000000000E+00 0. -1.
    9000010    2    1    2  501    0 -0.14911797951E+04  0.16155181923E+03  0.20747097384E+04  0.27508100939E+04  0.10063893395E+04 0.  0.
   -9000010    2    1    2    0  502  0.14911797951E+04 -0.16155181923E+03 -0.11890041724E+03  0.18137667368E+04  0.10128653883E+04 0.  0.
        -13    1    3    3    0    0 -0.93982712161E+03  0.44698191199E+03  0.73455504099E+03  0.12738284687E+04  0.10566000000E+00 0.  1.
          4    1    3    3  501    0 -0.55135267347E+03 -0.28543009276E+03  0.13401546974E+04  0.14769816253E+04  0.00000000000E+00 0.  1.
         13    1    4    4    0    0  0.46023501065E+03  0.13206977254E+03  0.39900465361E+03  0.62326833276E+03  0.10566000000E+00 0. -1.
         -4    1    4    4    0  502  0.10309447844E+04 -0.29362159177E+03 -0.51790507085E+03  0.11904984041E+04  0.00000000000E+00 0. -1.
<mgrwt>
<rscale>  2 0.18089606E+04</rscale>
<asrwt>0</asrwt>
<pdfrwt beam="1">  1       21 0.50156816E+00 0.18098653E+04</pdfrwt>
<pdfrwt beam="2">  1       21 0.20067443E+00 0.18098653E+04</pdfrwt>
<totfact> 0.42777624E-02</totfact>
</mgrwt>
</event>
<event>
 8    1  0.1168507E-005  0.1168092E+04  0.7818608E-02  0.8631393E-01
         21   -1    0    0  503  502  0.00000000000E+00  0.00000000000E+00  0.84570283769E+03  0.84570283769E+03  0.00000000000E+00 0.  1.
         21   -1    0    0  501  503 -0.00000000000E+00 -0.00000000000E+00 -0.27389149868E+04  0.27389149868E+04  0.00000000000E+00 0.  1.
    9000010    2    1    2  501    0  0.45794200907E+03 -0.39519454817E+03 -0.20975357022E+04  0.24008530477E+04  0.99927459704E+03 0.  0.
   -9000010    2    1    2    0  502 -0.45794200907E+03  0.39519454817E+03  0.20432355300E+03  0.11837647768E+04  0.99682562065E+03 0.  0.
        -13    1    3    3    0    0  0.69465796640E+03 -0.53845961532E+03 -0.14337014375E+04  0.16816623533E+04  0.10566000000E+00 0.  1.
          4    1    3    3  501    0 -0.23671595733E+03  0.14326506715E+03 -0.66383426466E+03  0.71919069437E+03  0.00000000000E+00 0.  1.
         13    1    4    4    0    0  0.17411633919E+03  0.45630360628E+03  0.24704949531E+03  0.54732343726E+03  0.10566000000E+00 0. -1.
         -4    1    4    4    0  502 -0.63205834825E+03 -0.61109058104E+02 -0.42725942306E+02  0.63644133958E+03  0.00000000000E+00 0. -1.
<mgrwt>
<rscale>  2 0.11675682E+04</rscale>
<asrwt>0</asrwt>
<pdfrwt beam="1">  1       21 0.13010813E+00 0.11680922E+04</pdfrwt>
<pdfrwt beam="2">  1       21 0.42137154E+00 0.11680922E+04</pdfrwt>
<totfact> 0.70240898E-01</totfact>
</mgrwt>
</event>
<event>
 8    1  0.1168507E-005  0.1148727E+04  0.7818608E-02  0.8658421E-01
         21   -1    0    0  501  502  0.00000000000E+00  0.00000000000E+00  0.61390259537E+03  0.61390259537E+03  0.00000000000E+00 0.  1.
         21   -1    0    0  502  503 -0.00000000000E+00 -0.00000000000E+00 -0.20451253534E+04  0.20451253534E+04  0.00000000000E+00 0.  1.
   -9000010    2    1    2    0  503 -0.77547762022E+02  0.44985297685E+03 -0.62371689832E+03  0.12548773271E+04  0.98859141243E+03 0.  0.
    9000010    2    1    2  501    0  0.77547762022E+02 -0.44985297685E+03 -0.80750585969E+03  0.14041506216E+04  0.10541308736E+04 0.  0.
        -13    1    4    4    0    0 -0.22223113823E+03 -0.44297223029E+03  0.47716568609E+02  0.49788347802E+03  0.10566000000E+00 0.  1.
          4    1    4    4  501    0  0.29977890025E+03 -0.68807465607E+01 -0.85522242830E+03  0.90626714361E+03  0.00000000000E+00 0.  1.
         13    1    3    3    0    0  0.59762213386E+02 -0.12339570860E+03  0.19968782868E+03  0.24222564508E+03  0.10566000000E+00 0. -1.
         -4    1    3    3    0  503 -0.13730997541E+03  0.57324868545E+03 -0.82340472700E+03  0.10126516821E+04  0.00000000000E+00 0. -1.
<mgrwt>
<rscale>  2 0.11334677E+04</rscale>
<asrwt>0</asrwt>
<pdfrwt beam="1">  1       21 0.94446554E-01 0.11487268E+04</pdfrwt>
<pdfrwt beam="2">  1       21 0.31463467E+00 0.11487268E+04</pdfrwt>
<totfact> 0.94092719E+00</totfact>
</mgrwt>
</event>
<event>
 8    1  0.1168507E-005  0.1118954E+04  0.7818608E-02  0.8672042E-01
         21   -1    0    0  503  502  0.00000000000E+00  0.00000000000E+00  0.18295598425E+04  0.18295598425E+04  0.00000000000E+00 0. -1.
         21   -1    0    0  501  503 -0.00000000000E+00 -0.00000000000E+00 -0.76319129528E+03  0.76319129528E+03  0.00000000000E+00 0. -1.
    9000010    2    1    2  501    0  0.45999273171E+03  0.25490411667E+03  0.10439310000E+03  0.11238131678E+04  0.98766831212E+03 0.  0.
   -9000010    2    1    2    0  502 -0.45999273171E+03 -0.25490411667E+03  0.96197544718E+03  0.14689379700E+04  0.97765667633E+03 0.  0.
        -13    1    3    3    0    0  0.31728178091E+02  0.51537296027E+03  0.28649802820E+03  0.59050579742E+03  0.10566000000E+00 0.  1.
          4    1    3    3  501    0  0.42826455362E+03 -0.26046884360E+03 -0.18210492820E+03  0.53330737033E+03  0.00000000000E+00 0.  1.
         13    1    4    4    0    0  0.22336250695E+03  0.15052979276E+03  0.44761987397E+03  0.52241132334E+03  0.10566000000E+00 0. -1.
         -4    1    4    4    0  502 -0.68335523866E+03 -0.40543390943E+03  0.51435557321E+03  0.94652664665E+03  0.00000000000E+00 0. -1.
<mgrwt>
<rscale>  2 0.11167407E+04</rscale>
<asrwt>0</asrwt>
<pdfrwt beam="1">  1       21 0.28147074E+00 0.11189540E+04</pdfrwt>
<pdfrwt beam="2">  1       21 0.11741405E+00 0.11189540E+04</pdfrwt>
<totfact> 0.90914973E+00</totfact>
</mgrwt>
</event>
<event>
 8    1  0.1168507E-005  0.1320824E+04  0.7818608E-02  0.8520896E-01
         21   -1    0    0  503  502  0.00000000000E+00  0.00000000000E+00  0.12452563966E+04  0.12452563966E+04  0.00000000000E+00 0. -1.
         21   -1    0    0  501  503 -0.00000000000E+00 -0.00000000000E+00 -0.14003394833E+04  0.14003394833E+04  0.00000000000E+00 0.  1.
    9000010    2    1    2  501    0 -0.68461830882E+03  0.52292052685E+03 -0.56691975450E+02  0.13211122867E+04  0.99998779387E+03 0.  0.
   -9000010    2    1    2    0  502  0.68461830882E+03 -0.52292052685E+03 -0.98391111272E+02  0.13244835931E+04  0.10012131999E+04 0.  0.
        -13    1    3    3    0    0  0.41976167260E+02 -0.90351380767E+02  0.29188498703E+03  0.30841891551E+03  0.10566000000E+00 0.  1.
          4    1    3    3  501    0 -0.72659447608E+03  0.61327190762E+03 -0.34857696248E+03  0.10126933712E+04  0.00000000000E+00 0.  1.
         13    1    4    4    0    0  0.65362920279E+03 -0.41449692835E+03  0.35915430129E+03  0.85324712812E+03  0.10566000000E+00 0. -1.
         -4    1    4    4    0  502  0.30989106022E+02 -0.10842359850E+03 -0.45754541256E+03  0.47123646502E+03  0.00000000000E+00 0. -1.
<mgrwt>
<rscale>  2 0.13205918E+04</rscale>
<asrwt>0</asrwt>
<pdfrwt beam="1">  1       21 0.19157791E+00 0.13208240E+04</pdfrwt>
<pdfrwt beam="2">  1       21 0.21543684E+00 0.13208240E+04</pdfrwt>
<totfact> 0.57988746E+00</totfact>
</mgrwt>
</event>
<event>
 8    1  0.1168507E-005  0.1026228E+04  0.7818608E-02  0.8751074E-01
         21   -1    0    0  503  502  0.00000000000E+00  0.00000000000E+00  0.92734545561E+03  0.92734545561E+03  0.00000000000E+00 0. -1.
         21   -1    0    0  501  503 -0.00000000000E+00 -0.00000000000E+00 -0.12573076072E+04  0.12573076072E+04  0.00000000000E+00 0. -1.
    9000010    2    1    2  501    0 -0.76281440826E+02 -0.20547597975E+03 -0.50998730890E+03  0.11459630979E+04  0.10025493155E+04 0.  0.
   -9000010    2    1    2    0  502  0.76281440826E+02  0.20547597975E+03  0.18002515732E+03  0.10386899649E+04  0.99921396583E+03 0.  0.
        -13    1    3    3    0    0 -0.52047648769E+03 -0.24114669622E+03 -0.22040522866E+03  0.61451279834E+03  0.10566000000E+00 0.  1.
          4    1    3    3  501    0  0.44419504687E+03  0.35670716468E+02 -0.28958208024E+03  0.53145029953E+03  0.00000000000E+00 0.  1.
         13    1    4    4    0    0  0.34520951524E+03  0.50757958904E+03  0.15683514309E+03  0.63356445757E+03  0.10566000000E+00 0. -1.
         -4    1    4    4    0  502 -0.26892807441E+03 -0.30210360929E+03  0.23190014233E+02  0.40512550736E+03  0.00000000000E+00 0. -1.
<mgrwt>
<rscale>  2 0.10254127E+04</rscale>
<asrwt>0</asrwt>
<pdfrwt beam="1">  1       21 0.14266853E+00 0.10262282E+04</pdfrwt>
<pdfrwt beam="2">  1       21 0.19343194E+00 0.10262282E+04</pdfrwt>
<totfact> 0.23794358E+01</totfact>
</mgrwt>
</event>
<event>
 8    1  0.1168507E-005  0.1245912E+04  0.7818608E-02  0.8573598E-01
         21   -1    0    0  503  502  0.00000000000E+00  0.00000000000E+00  0.18917163822E+04  0.18917163822E+04  0.00000000000E+00 0.  1.
         21   -1    0    0  501  503 -0.00000000000E+00 -0.00000000000E+00 -0.86681922348E+03  0.86681922348E+03  0.00000000000E+00 0.  1.
    9000010    2    1    2  501    0 -0.14460961617E+03 -0.71794750352E+03  0.18450941635E+03  0.12594996808E+04  0.10079360904E+04 0.  0.
   -9000010    2    1    2    0  502  0.14460961617E+03  0.71794750352E+03  0.84038774242E+03  0.14990359249E+04  0.10022457720E+04 0.  0.
        -13    1    3    3    0    0 -0.30410522881E+03 -0.16185188060E+03 -0.33605126014E+03  0.48125511119E+03  0.10566000000E+00 0.  1.
          4    1    3    3  501    0  0.15949561264E+03 -0.55609562292E+03  0.52056067649E+03  0.77824456965E+03  0.00000000000E+00 0.  1.
         13    1    4    4    0    0 -0.40590088891E+03  0.50145266713E+03  0.50280457886E+03  0.81793811787E+03  0.10566000000E+00 0. -1.
         -4    1    4    4    0  502  0.55051050508E+03  0.21649483639E+03  0.33758316356E+03  0.68109780701E+03  0.00000000000E+00 0. -1.
<mgrwt>
<rscale>  2 0.12447603E+04</rscale>
<asrwt>0</asrwt>
<pdfrwt beam="1">  1       21 0.29103329E+00 0.12459116E+04</pdfrwt>
<pdfrwt beam="2">  1       21 0.13335680E+00 0.12459116E+04</pdfrwt>
<totfact> 0.52664108E+00</totfact>
</mgrwt>
</event>
<event>
 8    1  0.1168507E-005  0.1342251E+04  0.7818608E-02  0.8514341E-01
         21   -1    0    0  503  502  0.00000000000E+00  0.00000000000E+00  0.86794835796E+03  0.86794835796E+03  0.00000000000E+00 0.  1.
         21   -1    0    0  501  503 -0.00000000000E+00 -0.00000000000E+00 -0.20261347057E+04  0.20261347057E+04  0.00000000000E+00 0.  1.
    9000010    2    1    2  501    0  0.40647492375E+03 -0.72165790441E+03 -0.74019395237E+03  0.15328157851E+04  0.10562315793E+04 0.  0.
   -9000010    2    1    2    0  502 -0.40647492375E+03  0.72165790441E+03 -0.41799239537E+03  0.13612672786E+04  0.99615208003E+03 0.  0.
        -13    1    3    3    0    0 -0.35200647823E+03 -0.34089060546E+03 -0.32509121756E+03  0.58804700195E+03  0.10566000000E+00 0.  1.
          4    1    3    3  501    0  0.75848140198E+03 -0.38076729895E+03 -0.41510273481E+03  0.94476878312E+03  0.00000000000E+00 0.  1.
         13    1    4    4    0    0  0.17043250700E+03  0.55975547078E+03  0.68931410509E+02  0.58917312993E+03  0.10566000000E+00 0. -1.
         -4    1    4    4    0  502 -0.57690743075E+03  0.16190243364E+03 -0.48692380588E+03  0.77209414867E+03  0.00000000000E+00 0. -1.
<mgrwt>
<rscale>  2 0.13304083E+04</rscale>
<asrwt>0</asrwt>
<pdfrwt beam="1">  1       21 0.13353052E+00 0.13422508E+04</pdfrwt>
<pdfrwt beam="2">  1       21 0.31171303E+00 0.13422508E+04</pdfrwt>
<totfact> 0.36752683E+00</totfact>
</mgrwt>
</event>
<event>
 8    1  0.1168507E-005  0.1799766E+04  0.7818608E-02  0.8256515E-01
         21   -1    0    0  503  502  0.00000000000E+00  0.00000000000E+00  0.39697547821E+04  0.39697547821E+04  0.00000000000E+00 0. -1.
         21   -1    0    0  501  503 -0.00000000000E+00 -0.00000000000E+00 -0.81909903310E+03  0.81909903310E+03  0.00000000000E+00 0.  1.
    9000010    2    1    2  501    0 -0.43516272001E+03  0.14394981217E+04  0.18121539070E+04  0.25459217563E+04  0.96762305230E+03 0.  0.
   -9000010    2    1    2    0  502  0.43516272001E+03 -0.14394981217E+04  0.13385018420E+04  0.22429320589E+04  0.98875457235E+03 0.  0.
        -13    1    3    3    0    0 -0.24745434590E+03 -0.23098094877E+01  0.35252059994E+02  0.24996341217E+03  0.10566000000E+00 0.  1.
          4    1    3    3  501    0 -0.18770837410E+03  0.14418079312E+04  0.17769018470E+04  0.22959583441E+04  0.00000000000E+00 0.  1.
         13    1    4    4    0    0 -0.29311502157E+03 -0.69008889176E+03  0.64232032871E+03  0.98727630896E+03  0.10566000000E+00 0. -1.
         -4    1    4    4    0  502  0.72827774158E+03 -0.74940922996E+03  0.69618151330E+03  0.12556557499E+04  0.00000000000E+00 0. -1.
<mgrwt>
<rscale>  2 0.17968784E+04</rscale>
<asrwt>0</asrwt>
<pdfrwt beam="1">  1       21 0.61073149E+00 0.17997658E+04</pdfrwt>
<pdfrwt beam="2">  1       21 0.12601524E+00 0.17997658E+04</pdfrwt>
<totfact> 0.29882087E-02</totfact>
</mgrwt>
</event>
<event>
 8    1  0.1168507E-005  0.1158543E+04  0.7818608E-02  0.8645456E-01
         21   -1    0    0  501  502  0.00000000000E+00  0.00000000000E+00  0.14975056577E+04  0.14975056577E+04  0.00000000000E+00 0. -1.
         21   -1    0    0  502  503 -0.00000000000E+00 -0.00000000000E+00 -0.91212822807E+03  0.91212822807E+03  0.00000000000E+00 0. -1.
   -9000010    2    1    2    0  503  0.50413680225E+03  0.13278584951E+03  0.54922352375E+03  0.12505272834E+04  0.99518139563E+03 0.  0.
    9000010    2    1    2  501    0 -0.50413680225E+03 -0.13278584951E+03  0.36153905900E+02  0.11591066024E+04  0.10346182937E+04 0.  0.
        -13    1    4    4    0    0 -0.40043225334E+03 -0.57219899520E+03  0.91010015275E+02  0.70430143665E+03  0.10566000000E+00 0.  1.
          4    1    4    4  501    0 -0.10370454891E+03  0.43941314570E+03 -0.54856109375E+02  0.45480516577E+03  0.00000000000E+00 0.  1.
         13    1    3    3    0    0  0.79873028111E+03 -0.28406405163E+01  0.40592778096E+03  0.89596624140E+03  0.10566000000E+00 0. -1.
         -4    1    3    3    0  503 -0.29459347886E+03  0.13562649002E+03  0.14329574279E+03  0.35456104198E+03  0.00000000000E+00 0. -1.
<mgrwt>
<rscale>  2 0.11496717E+04</rscale>
<asrwt>0</asrwt>
<pdfrwt beam="1">  1       21 0.23038549E+00 0.11585426E+04</pdfrwt>
<pdfrwt beam="2">  1       21 0.14032742E+00 0.11585426E+04</pdfrwt>
<totfact> 0.12666842E+01</totfact>
</mgrwt>
</event>
<event>
 8    1  0.1168507E-005  0.1613327E+04  0.7818608E-02  0.8349180E-01
         21   -1    0    0  501  502  0.00000000000E+00  0.00000000000E+00  0.31045266508E+04  0.31045266508E+04  0.00000000000E+00 0. -1.
         21   -1    0    0  502  503 -0.00000000000E+00 -0.00000000000E+00 -0.83525784660E+03  0.83525784660E+03  0.00000000000E+00 0. -1.
   -9000010    2    1    2    0  503  0.57343659269E+03  0.11008799052E+04  0.12811541143E+04  0.20479086989E+04  0.10058867148E+04 0.  0.
    9000010    2    1    2  501    0 -0.57343659269E+03 -0.11008799052E+04  0.98811468994E+03  0.18918757985E+04  0.10305616454E+04 0.  0.
        -13    1    4    4    0    0 -0.15961198737E+03 -0.37666129545E+03  0.97534977826E+03  0.10576657880E+04  0.10566000000E+00 0.  1.
          4    1    4    4  501    0 -0.41382460531E+03 -0.72421860975E+03  0.12764911680E+02  0.83421001051E+03  0.00000000000E+00 0.  1.
         13    1    3    3    0    0  0.47510961791E+03  0.12947585261E+04  0.11323057776E+04  0.17844453410E+04  0.10566000000E+00 0. -1.
         -4    1    3    3    0  503  0.98326974778E+02 -0.19387862091E+03  0.14884833671E+03  0.26346335790E+03  0.00000000000E+00 0. -1.
<mgrwt>
<rscale>  2 0.16094002E+04</rscale>
<asrwt>0</asrwt>
<pdfrwt beam="1">  1       21 0.47761948E+00 0.16133268E+04</pdfrwt>
<pdfrwt beam="2">  1       21 0.12850121E+00 0.16133268E+04</pdfrwt>
<totfact> 0.27322281E-01</totfact>
</mgrwt>
</event>
<event>
 8    1  0.1168507E-005  0.1375767E+04  0.7818608E-02  0.8486125E-01
         21   -1    0    0  501  502  0.00000000000E+00  0.00000000000E+00  0.37288219027E+04  0.37288219027E+04  0.00000000000E+00 0.  1.
         21   -1    0    0  502  503 -0.00000000000E+00 -0.00000000000E+00 -0.63248446085E+03  0.63248446085E+03  0.00000000000E+00 0. -1.
   -9000010    2    1    2    0  503 -0.14069777039E+03  0.91034172962E+03  0.25327412215E+04  0.28822756593E+04  0.10218693427E+04 0.  0.
    9000010    2    1    2  501    0  0.14069777039E+03 -0.91034172962E+03  0.56359622040E+03  0.14790307043E+04  0.10106300992E+04 0.  0.
        -13    1    4    4    0    0  0.57916770808E+03 -0.50343571949E+03  0.35493260214E+03  0.84549389174E+03  0.10566000000E+00 0.  1.
          4    1    4    4  501    0 -0.43846993769E+03 -0.40690601013E+03  0.20866361826E+03  0.63353681260E+03  0.00000000000E+00 0.  1.
         13    1    3    3    0    0  0.46334163223E+02  0.10765485639E+04  0.23028702573E+04  0.25425017401E+04  0.10566000000E+00 0. -1.
         -4    1    3    3    0  503 -0.18703193362E+03 -0.16620683432E+03  0.22987096418E+03  0.33977391916E+03  0.00000000000E+00 0. -1.
<mgrwt>
<rscale>  2 0.13736804E+04</rscale>
<asrwt>0</asrwt>
<pdfrwt beam="1">  1       21 0.57366489E+00 0.13757670E+04</pdfrwt>
<pdfrwt beam="2">  1       21 0.97305304E-01 0.13757670E+04</pdfrwt>
<totfact> 0.12536894E-01</totfact>
</mgrwt>
</event>
<event>
 8    1  0.1168507E-005  0.1156619E+04  0.7818608E-02  0.8642307E-01
         21   -1    0    0  503  502  0.00000000000E+00  0.00000000000E+00  0.26793698713E+04  0.26793698713E+04  0.00000000000E+00 0.  1.
         21   -1    0    0  501  503 -0.00000000000E+00 -0.00000000000E+00 -0.50386204369E+03  0.50386204369E+03  0.00000000000E+00 0.  1.
    9000010    2    1    2  501    0 -0.43018123897E+03 -0.34044622649E+03  0.87273829340E+03  0.14489442110E+04  0.10182375294E+04 0.  0.
   -9000010    2    1    2    0  502  0.43018123897E+03  0.34044622649E+03  0.13027695342E+04  0.17342877039E+04  0.10047814934E+04 0.  0.
        -13    1    3    3    0    0  0.10114995119E+03 -0.24438492858E+03 -0.14148033620E+03  0.29995333410E+03  0.10566000000E+00 0.  1.
          4    1    3    3  501    0 -0.53133119016E+03 -0.96061297906E+02  0.10142186296E+04  0.11489908769E+04  0.00000000000E+00 0.  1.
         13    1    4    4    0    0  0.62165588478E+03 -0.12124853723E+03  0.84887310478E+03  0.10591236028E+04  0.10566000000E+00 0. -1.
         -4    1    4    4    0  502 -0.19147464581E+03  0.46169476372E+03  0.45389642938E+03  0.67516410112E+03  0.00000000000E+00 0. -1.
<mgrwt>
<rscale>  2 0.11536504E+04</rscale>
<asrwt>0</asrwt>
<pdfrwt beam="1">  1       21 0.41221074E+00 0.11566189E+04</pdfrwt>
<pdfrwt beam="2">  1       21 0.77517239E-01 0.11566189E+04</pdfrwt>
<totfact> 0.32036663E+00</totfact>
</mgrwt>
</event>
<event>
 8    1  0.1168507E-005  0.1186670E+04  0.7818608E-02  0.8642026E-01
         21   -1    0    0  501  502  0.00000000000E+00  0.00000000000E+00  0.89289232749E+03  0.89289232749E+03  0.00000000000E+00 0.  1.
         21   -1    0    0  502  503 -0.00000000000E+00 -0.00000000000E+00 -0.14439401950E+04  0.14439401950E+04  0.00000000000E+00 0.  1.
   -9000010    2    1    2    0  503 -0.35694740038E+03  0.61557122126E+02 -0.42591640536E+03  0.11435831474E+04  0.99758553754E+03 0.  0.
    9000010    2    1    2  501    0  0.35694740038E+03 -0.61557122126E+02 -0.12513146213E+03  0.11932493751E+04  0.11300378146E+04 0.  0.
        -13    1    4    4    0    0  0.44600108384E+03 -0.29314772024E+03  0.36314668346E+03  0.64554479127E+03  0.10566000000E+00 0.  1.
          4    1    4    4  501    0 -0.89053683451E+02  0.23159059812E+03 -0.48827814559E+03  0.54770458382E+03  0.00000000000E+00 0.  1.
         13    1    3    3    0    0 -0.21606516837E+03  0.93566151366E+02  0.31243969001E+03  0.39122544999E+03  0.10566000000E+00 0. -1.
         -4    1    3    3    0  503 -0.14088223202E+03 -0.32009029240E+02 -0.73835609538E+03  0.75235769740E+03  0.00000000000E+00 0. -1.
<mgrwt>
<rscale>  2 0.11540059E+04</rscale>
<asrwt>0</asrwt>
<pdfrwt beam="1">  1       21 0.13736805E+00 0.11866702E+04</pdfrwt>
<pdfrwt beam="2">  1       21 0.22214465E+00 0.11866702E+04</pdfrwt>
<totfact> 0.15467365E+01</totfact>
</mgrwt>
</event>
<event>
 8    1  0.1168507E-005  0.1114549E+04  0.7818608E-02  0.8675162E-01
         21   -1    0    0  503  502  0.00000000000E+00  0.00000000000E+00  0.11633546068E+04  0.11633546068E+04  0.00000000000E+00 0.  1.
         21   -1    0    0  501  503 -0.00000000000E+00 -0.00000000000E+00 -0.10806230971E+04  0.10806230971E+04  0.00000000000E+00 0.  1.
    9000010    2    1    2  501    0 -0.32700090715E+03  0.36764668164E+03  0.18997602682E+03  0.11306240186E+04  0.10000630504E+04 0.  0.
   -9000010    2    1    2    0  502  0.32700090715E+03 -0.36764668164E+03 -0.10724451707E+03  0.11133536853E+04  0.99295587332E+03 0.  0.
        -13    1    3    3    0    0 -0.43505463014E+02 -0.34057895724E+03  0.12346954063E+03  0.36487188170E+03  0.10566000000E+00 0.  1.
          4    1    3    3  501    0 -0.28349544413E+03  0.70822563888E+03  0.66506486187E+02  0.76575213687E+03  0.00000000000E+00 0.  1.
         13    1    4    4    0    0  0.51997654002E+03 -0.45906127822E+03  0.21553225702E+03  0.72633809229E+03  0.10566000000E+00 0. -1.
         -4    1    4    4    0  502 -0.19297563287E+03  0.91414596576E+02 -0.32277677409E+03  0.38701559302E+03  0.00000000000E+00 0. -1.
<mgrwt>
<rscale>  2 0.11129525E+04</rscale>
<asrwt>0</asrwt>
<pdfrwt beam="1">  1       21 0.17897763E+00 0.11145491E+04</pdfrwt>
<pdfrwt beam="2">  1       21 0.16624971E+00 0.11145491E+04</pdfrwt>
<totfact> 0.18915331E+01</totfact>
</mgrwt>
</event>
<event>
 8    1  0.1168507E-005  0.1151855E+04  0.7818608E-02  0.8643940E-01
         21   -1    0    0  501  502  0.00000000000E+00  0.00000000000E+00  0.11521558828E+04  0.11521558828E+04  0.00000000000E+00 0. -1.
         21   -1    0    0  502  503 -0.00000000000E+00 -0.00000000000E+00 -0.11565655490E+04  0.11565655490E+04  0.00000000000E+00 0. -1.
   -9000010    2    1    2    0  503  0.10962187643E+03 -0.55752992391E+03  0.81560288580E+02  0.11547394193E+04  0.10019553253E+04 0.  0.
    9000010    2    1    2  501    0 -0.10962187643E+03  0.55752992391E+03 -0.85969954785E+02  0.11539820125E+04  0.10007132857E+04 0.  0.
        -13    1    4    4    0    0 -0.36740140989E+03  0.70080854221E+03 -0.23241545870E+03  0.82470198583E+03  0.10566000000E+00 0.  1.
          4    1    4    4  501    0  0.25777953346E+03 -0.14327861830E+03  0.14644550392E+03  0.32928002665E+03  0.00000000000E+00 0.  1.
         13    1    3    3    0    0  0.51933222833E+02 -0.82446455830E+03  0.21085246875E+03  0.85258292398E+03  0.10566000000E+00 0. -1.
         -4    1    3    3    0  503  0.57688653596E+02  0.26693463439E+03 -0.12929218017E+03  0.30215649528E+03  0.00000000000E+00 0. -1.
<mgrwt>
<rscale>  2 0.11515853E+04</rscale>
<asrwt>0</asrwt>
<pdfrwt beam="1">  1       21 0.17725475E+00 0.11518555E+04</pdfrwt>
<pdfrwt beam="2">  1       21 0.17793316E+00 0.11518555E+04</pdfrwt>
<totfact> 0.15488383E+01</totfact>
</mgrwt>
</event>
<event>
 8    1  0.1168507E-005  0.1093938E+04  0.7818608E-02  0.8693456E-01
         21   -1    0    0  501  502  0.00000000000E+00  0.00000000000E+00  0.28167121927E+04  0.28167121927E+04  0.00000000000E+00 0.  1.
         21   -1    0    0  502  503 -0.00000000000E+00 -0.00000000000E+00 -0.42153095524E+03  0.42153095524E+03  0.00000000000E+00 0.  1.
   -9000010    2    1    2    0  503  0.42451890817E+03  0.76185055120E+02  0.11200237341E+04  0.15656162990E+04  0.10053261981E+04 0.  0.
    9000010    2    1    2  501    0 -0.42451890817E+03 -0.76185055120E+02  0.12751575033E+04  0.16726268489E+04  0.99279073905E+03 0.  0.
        -13    1    4    4    0    0 -0.38680766143E+03 -0.50883801555E+03  0.65176725846E+03  0.91287286266E+03  0.10566000000E+00 0.  1.
          4    1    4    4  501    0 -0.37711246739E+02  0.43265296043E+03  0.62339024486E+03  0.75975398629E+03  0.00000000000E+00 0.  1.
         13    1    3    3    0    0  0.46567906824E+03  0.74379230466E+02  0.12990039693E+04  0.13819553495E+04  0.10566000000E+00 0. -1.
         -4    1    3    3    0  503 -0.41160160069E+02  0.18058246534E+01 -0.17898023518E+03  0.18366094948E+03  0.00000000000E+00 0. -1.
<mgrwt>
<rscale>  2 0.10910498E+04</rscale>
<asrwt>0</asrwt>
<pdfrwt beam="1">  1       21 0.43334033E+00 0.10939384E+04</pdfrwt>
<pdfrwt beam="2">  1       21 0.64850918E-01 0.10939384E+04</pdfrwt>
<totfact> 0.35460936E+00</totfact>
</mgrwt>
</event>
<event>
 8    1  0.1168507E-005  0.1092433E+04  0.7818608E-02  0.8695319E-01
         21   -1    0    0  501  502  0.00000000000E+00  0.00000000000E+00  0.85559272889E+03  0.85559272889E+03  0.00000000000E+00 0.  1.
         21   -1    0    0  502  503 -0.00000000000E+00 -0.00000000000E+00 -0.15114293917E+04  0.15114293917E+04  0.00000000000E+00 0.  1.
   -9000010    2    1    2    0  503  0.42708981461E+03 -0.63073358036E+02 -0.68325764210E+03  0.12885068496E+04  0.10035063217E+04 0.  0.
    9000010    2    1    2  501    0 -0.42708981461E+03  0.63073358036E+02  0.27420979273E+02  0.10785152710E+04  0.98795714556E+03 0.  0.
        -13    1    4    4    0    0  0.17739430655E+03  0.18670163799E+02  0.34932017099E+03  0.39222685787E+03  0.10566000000E+00 0.  1.
          4    1    4    4  501    0 -0.60448412115E+03  0.44403194237E+02 -0.32189919171E+03  0.68628841314E+03  0.00000000000E+00 0.  1.
         13    1    3    3    0    0  0.15814703959E+03 -0.41115697549E+03  0.39632265747E+02  0.44230224087E+03  0.10566000000E+00 0. -1.
         -4    1    3    3    0  503  0.26894277502E+03  0.34808361746E+03 -0.72288990785E+03  0.84620460874E+03  0.00000000000E+00 0. -1.
<mgrwt>
<rscale>  2 0.10888485E+04</rscale>
<asrwt>0</asrwt>
<pdfrwt beam="1">  1       21 0.13162965E+00 0.10924326E+04</pdfrwt>
<pdfrwt beam="2">  1       21 0.23252760E+00 0.10924326E+04</pdfrwt>
<totfact> 0.14958381E+01</totfact>
</mgrwt>
</event>
<event>
 8    1  0.1168507E-005  0.1256584E+04  0.7818608E-02  0.8565595E-01
         21   -1    0    0  501  502  0.00000000000E+00  0.00000000000E+00  0.43937627607E+03  0.43937627607E+03  0.00000000000E+00 0. -1.
         21   -1    0    0  502  503 -0.00000000000E+00 -0.00000000000E+00 -0.36176707126E+04  0.36176707126E+04  0.00000000000E+00 0. -1.
   -9000010    2    1    2    0  503 -0.17849923653E+03 -0.73489828197E+03 -0.17797863898E+04  0.21786794160E+04  0.10035272502E+04 0.  0.
    9000010    2    1    2  501    0  0.17849923653E+03  0.73489828197E+03 -0.13985080468E+04  0.18783675727E+04  0.10002512280E+04 0.  0.
        -13    1    4    4    0    0 -0.35978713911E+03  0.56469627943E+03 -0.92272090665E+03  0.11400625229E+04  0.10566000000E+00 0.  1.
          4    1    4    4  501    0  0.53828637565E+03  0.17020200254E+03 -0.47578714011E+03  0.73830504980E+03  0.00000000000E+00 0.  1.
         13    1    3    3    0    0 -0.20890271458E+03 -0.76440053390E+03 -0.58953433881E+03  0.98767366482E+03  0.10566000000E+00 0. -1.
         -4    1    3    3    0  503  0.30403478045E+02  0.29502251930E+02 -0.11902520510E+04  0.11910057511E+04  0.00000000000E+00 0. -1.
<mgrwt>
<rscale>  2 0.12559302E+04</rscale>
<asrwt>0</asrwt>
<pdfrwt beam="1">  1       21 0.67596349E-01 0.12565844E+04</pdfrwt>
<pdfrwt beam="2">  1       21 0.55656474E+00 0.12565844E+04</pdfrwt>
<totfact> 0.42346713E-01</totfact>
</mgrwt>
</event>
<event>
 8    1  0.1168507E-005  0.1014456E+04  0.7818608E-02  0.8766552E-01
         21   -1    0    0  503  502  0.00000000000E+00  0.00000000000E+00  0.16169703105E+04  0.16169703105E+04  0.00000000000E+00 0.  1.
         21   -1    0    0  501  503 -0.00000000000E+00 -0.00000000000E+00 -0.62219290654E+03  0.62219290654E+03  0.00000000000E+00 0.  1.
    9000010    2    1    2  501    0  0.11582903539E+03  0.18239239591E+03  0.51295064648E+03  0.11160969094E+04  0.96740404900E+03 0.  0.
   -9000010    2    1    2    0  502 -0.11582903539E+03 -0.18239239591E+03  0.48182675746E+03  0.11230663076E+04  0.99117988048E+03 0.  0.
        -13    1    3    3    0    0 -0.17991130563E+03 -0.18710404652E+03  0.58252051935E+03  0.63773518701E+03  0.10566000000E+00 0.  1.
          4    1    3    3  501    0  0.29574034102E+03  0.36949644243E+03 -0.69569872872E+02  0.47836172243E+03  0.00000000000E+00 0.  1.
         13    1    4    4    0    0 -0.34327995223E+03 -0.47508448320E+03  0.47151366070E+03  0.75224433209E+03  0.10566000000E+00 0. -1.
         -4    1    4    4    0  502  0.22745091685E+03  0.29269208728E+03  0.10313096765E+02  0.37082197548E+03  0.00000000000E+00 0. -1.
<mgrwt>
<rscale>  2 0.10086011E+04</rscale>
<asrwt>0</asrwt>
<pdfrwt beam="1">  1       21 0.24876466E+00 0.10144560E+04</pdfrwt>
<pdfrwt beam="2">  1       21 0.95721986E-01 0.10144560E+04</pdfrwt>
<totfact> 0.27615418E+01</totfact>
</mgrwt>
</event>
<event>
 8    1  0.1168507E-005  0.1041346E+04  0.7818608E-02  0.8745428E-01
         21   -1    0    0  501  502  0.00000000000E+00  0.00000000000E+00  0.14621936018E+04  0.14621936018E+04  0.00000000000E+00 0.  1.
         21   -1    0    0  502  503 -0.00000000000E+00 -0.00000000000E+00 -0.73376930535E+03  0.73376930535E+03  0.00000000000E+00 0.  1.
   -9000010    2    1    2    0  503 -0.24934713479E+03  0.35571331494E+02  0.54837512492E+03  0.11769098436E+04  0.10104267361E+04 0.  0.
    9000010    2    1    2  501    0  0.24934713479E+03 -0.35571331494E+02  0.18004917153E+03  0.10190530635E+04  0.97088213955E+03 0.  0.
        -13    1    4    4    0    0  0.55707809280E+03  0.19123108823E+03  0.23245369403E+03  0.63319827986E+03  0.10566000000E+00 0.  1.
          4    1    4    4  501    0 -0.30773095801E+03 -0.22680241973E+03 -0.52404522497E+02  0.38585478368E+03  0.00000000000E+00 0.  1.
         13    1    3    3    0    0 -0.47267791996E+03 -0.30170669885E+03  0.94041125502E+02  0.56859044364E+03  0.10566000000E+00 0. -1.
         -4    1    3    3    0  503  0.22333078517E+03  0.33727803034E+03  0.45433399942E+03  0.60831939997E+03  0.00000000000E+00 0. -1.
<mgrwt>
<rscale>  2 0.10316296E+04</rscale>
<asrwt>0</asrwt>
<pdfrwt beam="1">  1       21 0.22495286E+00 0.10413460E+04</pdfrwt>
<pdfrwt beam="2">  1       21 0.11288759E+00 0.10413460E+04</pdfrwt>
<totfact> 0.26551062E+01</totfact>
</mgrwt>
</event>
<event>
 8    1  0.1168507E-005  0.1239472E+04  0.7818608E-02  0.8579373E-01
         21   -1    0    0  503  502  0.00000000000E+00  0.00000000000E+00  0.98979249354E+03  0.98979249354E+03  0.00000000000E+00 0.  1.
         21   -1    0    0  501  503 -0.00000000000E+00 -0.00000000000E+00 -0.15422789208E+04  0.15422789208E+04  0.00000000000E+00 0.  1.
    9000010    2    1    2  501    0  0.36725372809E+01  0.71981530452E+03 -0.21403905084E+03  0.12472220754E+04  0.99579246331E+03 0.  0.
   -9000010    2    1    2    0  502 -0.36725372809E+01 -0.71981530452E+03 -0.33844737642E+03  0.12848493389E+04  0.10090310386E+04 0.  0.
        -13    1    3    3    0    0  0.33564523965E+03  0.71938396078E+03 -0.37538796305E+03  0.87811567796E+03  0.10566000000E+00 0.  1.
          4    1    3    3  501    0 -0.33197270237E+03  0.43134374891E+00  0.16134891221E+03  0.36910639746E+03  0.00000000000E+00 0.  1.
         13    1    4    4    0    0  0.15694597743E+03 -0.75624931099E+03 -0.59844351309E+03  0.97707712579E+03  0.10566000000E+00 0. -1.
         -4    1    4    4    0  502 -0.16061851471E+03  0.36434006467E+02  0.25999613667E+03  0.30777221313E+03  0.00000000000E+00 0. -1.
<mgrwt>
<rscale>  2 0.12367750E+04</rscale>
<asrwt>0</asrwt>
<pdfrwt beam="1">  1       21 0.15227577E+00 0.12394721E+04</pdfrwt>
<pdfrwt beam="2">  1       21 0.23727368E+00 0.12394721E+04</pdfrwt>
<totfact> 0.86324916E+00</totfact>
</mgrwt>
</event>
<event>
 8    1  0.1168507E-005  0.1136742E+04  0.7818608E-02  0.8675747E-01
         21   -1    0    0  503  502  0.00000000000E+00  0.00000000000E+00  0.20305752436E+04  0.20305752436E+04  0.00000000000E+00 0. -1.
         21   -1    0    0  501  503 -0.00000000000E+00 -0.00000000000E+00 -0.61243153977E+03  0.61243153977E+03  0.00000000000E+00 0. -1.
    9000010    2    1    2  501    0 -0.23635964536E+03 -0.17597483617E+03  0.96226960817E+03  0.14182605456E+04  0.99933335346E+03 0.  0.
   -9000010    2    1    2    0  502  0.23635964536E+03  0.17597483617E+03  0.45587409563E+03  0.12247462378E+04  0.10978839333E+04 0.  0.
        -13    1    3    3    0    0  0.30586846963E+03  0.17446852842E+03  0.54726553615E+03  0.65076444767E+03  0.10566000000E+00 0.  1.
          4    1    3    3  501    0 -0.54222811499E+03 -0.35044336459E+03  0.41500407202E+03  0.76749609789E+03  0.00000000000E+00 0.  1.
         13    1    4    4    0    0 -0.25546953852E+03  0.47649128593E+03  0.33439258194E+03  0.63570987148E+03  0.10566000000E+00 0. -1.
         -4    1    4    4    0  502  0.49182918387E+03 -0.30051644975E+03  0.12148151369E+03  0.58903636632E+03  0.00000000000E+00 0. -1.
<mgrwt>
<rscale>  2 0.11122442E+04</rscale>
<asrwt>0</asrwt>
<pdfrwt beam="1">  1       21 0.31239619E+00 0.11367419E+04</pdfrwt>
<pdfrwt beam="2">  1       21 0.94220238E-01 0.11367419E+04</pdfrwt>
<totfact> 0.98404382E+00</totfact>
</mgrwt>
</event>
<event>
 8    1  0.1168507E-005  0.1090769E+04  0.7818608E-02  0.8694565E-01
         21   -1    0    0  501  502  0.00000000000E+00  0.00000000000E+00  0.12082551629E+04  0.12082551629E+04  0.00000000000E+00 0. -1.
         21   -1    0    0  502  503 -0.00000000000E+00 -0.00000000000E+00 -0.99009504286E+03  0.99009504286E+03  0.00000000000E+00 0. -1.
   -9000010    2    1    2    0  503  0.28370170938E+03  0.31884954988E+03  0.34973835324E+01  0.10866586815E+04  0.99933135793E+03 0.  0.
    9000010    2    1    2  501    0 -0.28370170938E+03 -0.31884954988E+03  0.21466273649E+03  0.11116915243E+04  0.10038058873E+04 0.  0.
        -13    1    4    4    0    0 -0.23632362062E+03 -0.46228146658E+02  0.59469269944E+03  0.64159591110E+03  0.10566000000E+00 0.  1.
          4    1    4    4  501    0 -0.47378088766E+02 -0.27262140323E+03 -0.38002996295E+03  0.47009561318E+03  0.00000000000E+00 0.  1.
         13    1    3    3    0    0  0.15848996577E+03  0.22914309386E+02  0.48333025277E+03  0.50916822292E+03  0.10566000000E+00 0. -1.
         -4    1    3    3    0  503  0.12521174362E+03  0.29593524050E+03 -0.47983286924E+03  0.57749045855E+03  0.00000000000E+00 0. -1.
<mgrwt>
<rscale>  2 0.10897389E+04</rscale>
<asrwt>0</asrwt>
<pdfrwt beam="1">  1       21 0.18588541E+00 0.10907694E+04</pdfrwt>
<pdfrwt beam="2">  1       21 0.15232231E+00 0.10907694E+04</pdfrwt>
<totfact> 0.22056315E+01</totfact>
</mgrwt>
</event>
<event>
 8    1  0.1168507E-005  0.1105050E+04  0.7818608E-02  0.8686692E-01
         21   -1    0    0  501  502  0.00000000000E+00  0.00000000000E+00  0.54578943625E+03  0.54578943625E+03  0.00000000000E+00 0. -1.
         21   -1    0    0  502  503 -0.00000000000E+00 -0.00000000000E+00 -0.22011594411E+04  0.22011594411E+04  0.00000000000E+00 0. -1.
   -9000010    2    1    2    0  503  0.10212089341E+03  0.43476797258E+03 -0.71975906429E+03  0.12990180715E+04  0.98485682853E+03 0.  0.
    9000010    2    1    2  501    0 -0.10212089341E+03 -0.43476797258E+03 -0.93561094059E+03  0.14479308058E+04  0.10107838144E+04 0.  0.
        -13    1    4    4    0    0 -0.36547904703E+03 -0.52640542072E+03 -0.21613306914E+03  0.67630696841E+03  0.10566000000E+00 0.  1.
          4    1    4    4  501    0  0.26335815362E+03  0.91637448144E+02 -0.71947787145E+03  0.77162383742E+03  0.00000000000E+00 0.  1.
         13    1    3    3    0    0 -0.22751957273E+03  0.63830246163E+03 -0.34667336052E+03  0.76116858747E+03  0.10566000000E+00 0. -1.
         -4    1    3    3    0  503  0.32964046614E+03 -0.20353448905E+03 -0.37308570377E+03  0.53784948406E+03  0.00000000000E+00 0. -1.
<mgrwt>
<rscale>  2 0.10990859E+04</rscale>
<asrwt>0</asrwt>
<pdfrwt beam="1">  1       21 0.83967606E-01 0.11050501E+04</pdfrwt>
<pdfrwt beam="2">  1       21 0.33863991E+00 0.11050501E+04</pdfrwt>
<totfact> 0.86941537E+00</totfact>
</mgrwt>
</event>
<event>
 8    1  0.1168507E-005  0.1346295E+04  0.7818608E-02  0.8507509E-01
         21   -1    0    0  501  502  0.00000000000E+00  0.00000000000E+00  0.12313789970E+04  0.12313789970E+04  0.00000000000E+00 0. -1.
         21   -1    0    0  502  503 -0.00000000000E+00 -0.00000000000E+00 -0.15757884148E+04  0.15757884148E+04  0.00000000000E+00 0. -1.
   -9000010    2    1    2    0  503 -0.89114955544E+03 -0.23338446985E+03 -0.57079881747E+03  0.14419708326E+04  0.95123748405E+03 0.  0.
    9000010    2    1    2  501    0  0.89114955544E+03  0.23338446985E+03  0.22638939973E+03  0.13651965792E+04  0.98178088120E+03 0.  0.
        -13    1    4    4    0    0  0.61130530712E+03 -0.19326352863E+03 -0.22949598115E+03  0.68096504062E+03  0.10566000000E+00 0.  1.
          4    1    4    4  501    0  0.27984424832E+03  0.42664799848E+03  0.45588538088E+03  0.68423153860E+03  0.00000000000E+00 0.  1.
         13    1    3    3    0    0 -0.61144586201E+03  0.31710969677E+03 -0.41861386199E+03  0.80601623964E+03  0.10566000000E+00 0. -1.
         -4    1    3    3    0  503 -0.27970369343E+03 -0.55049416662E+03 -0.15218495547E+03  0.63595459293E+03  0.00000000000E+00 0. -1.
<mgrwt>
<rscale>  2 0.13407332E+04</rscale>
<asrwt>0</asrwt>
<pdfrwt beam="1">  1       21 0.18944292E+00 0.13462947E+04</pdfrwt>
<pdfrwt beam="2">  1       21 0.24242899E+00 0.13462947E+04</pdfrwt>
<totfact> 0.37714421E+00</totfact>
</mgrwt>
</event>
<event>
 8    1  0.1168507E-005  0.1129616E+04  0.7818608E-02  0.8663823E-01
         21   -1    0    0  503  502  0.00000000000E+00  0.00000000000E+00  0.77911149923E+03  0.77911149923E+03  0.00000000000E+00 0.  1.
         21   -1    0    0  501  503 -0.00000000000E+00 -0.00000000000E+00 -0.19140805046E+04  0.19140805046E+04  0.00000000000E+00 0.  1.
    9000010    2    1    2  501    0 -0.53143420737E+03  0.34906656520E+01 -0.38662010243E+02  0.11190501879E+04  0.98404475029E+03 0.  0.
   -9000010    2    1    2    0  502  0.53143420737E+03 -0.34906656520E+01 -0.10963069952E+04  0.15741418159E+04  0.99679432558E+03 0.  0.
        -13    1    3    3    0    0 -0.50152187395E+03 -0.26039695201E+03  0.33778300917E+03  0.65835259179E+03  0.10566000000E+00 0.  1.
          4    1    3    3  501    0 -0.29912333418E+02  0.26388761767E+03 -0.37644501942E+03  0.46069759614E+03  0.00000000000E+00 0.  1.
         13    1    4    4    0    0 -0.20650300037E+02  0.42119850320E+03 -0.52422104787E+03  0.67278698871E+03  0.10566000000E+00 0. -1.
         -4    1    4    4    0  502  0.55208450740E+03 -0.42468916885E+03 -0.57208594728E+03  0.90135482721E+03  0.00000000000E+00 0. -1.
<mgrwt>
<rscale>  2 0.11267974E+04</rscale>
<asrwt>0</asrwt>
<pdfrwt beam="1">  1       21 0.11986331E+00 0.11296165E+04</pdfrwt>
<pdfrwt beam="2">  1       21 0.29447392E+00 0.11296165E+04</pdfrwt>
<totfact> 0.69237645E+00</totfact>
</mgrwt>
</event>
<event>
 8    1  0.1168507E-005  0.1080413E+04  0.7818608E-02  0.8711565E-01
         21   -1    0    0  503  502  0.00000000000E+00  0.00000000000E+00  0.60554863540E+03  0.60554863540E+03  0.00000000000E+00 0. -1.
         21   -1    0    0  501  503 -0.00000000000E+00 -0.00000000000E+00 -0.18569860863E+04  0.18569860863E+04  0.00000000000E+00 0. -1.
    9000010    2    1    2  501    0  0.17233677714E+03  0.36855691482E+03 -0.59126884990E+03  0.12316209287E+04  0.10008781619E+04 0.  0.
   -9000010    2    1    2    0  502 -0.17233677714E+03 -0.36855691482E+03 -0.66016860104E+03  0.12309137930E+04  0.95592469358E+03 0.  0.
        -13    1    3    3    0    0  0.61156457132E+01 -0.23851393318E+03  0.13212617680E+03  0.27273363417E+03  0.10566000000E+00 0.  1.
          4    1    3    3  501    0  0.16622113143E+03  0.60707084801E+03 -0.72339502670E+03  0.95888729457E+03  0.00000000000E+00 0.  1.
         13    1    4    4    0    0 -0.44836881002E+03 -0.21455141854E+03  0.21198070414E+01  0.49706277847E+03  0.10566000000E+00 0. -1.
         -4    1    4    4    0  502  0.27603203288E+03 -0.15400549628E+03 -0.66228840808E+03  0.73385101453E+03  0.00000000000E+00 0. -1.
<mgrwt>
<rscale>  2 0.10698830E+04</rscale>
<asrwt>0</asrwt>
<pdfrwt beam="1">  1       21 0.93161329E-01 0.10804125E+04</pdfrwt>
<pdfrwt beam="2">  1       21 0.28569017E+00 0.10804125E+04</pdfrwt>
<totfact> 0.15838977E+01</totfact>
</mgrwt>
</event>
<event>
 8    1  0.1168507E-005  0.1176142E+04  0.7818608E-02  0.8625418E-01
         21   -1    0    0  501  502  0.00000000000E+00  0.00000000000E+00  0.10017230961E+04  0.10017230961E+04  0.00000000000E+00 0. -1.
         21   -1    0    0  502  503 -0.00000000000E+00 -0.00000000000E+00 -0.13942734701E+04  0.13942734701E+04  0.00000000000E+00 0. -1.
   -9000010    2    1    2    0  503  0.60587450868E+03  0.14604548540E+03 -0.32987929058E+03  0.12181860629E+04  0.99334975382E+03 0.  0.
    9000010    2    1    2  501    0 -0.60587450868E+03 -0.14604548540E+03 -0.62671083438E+02  0.11778105033E+04  0.99744509273E+03 0.  0.
        -13    1    4    4    0    0 -0.54722184588E+03  0.18415057946E+03 -0.39979974431E+03  0.70228415278E+03  0.10566000000E+00 0.  1.
          4    1    4    4  501    0 -0.58652662795E+02 -0.33019606485E+03  0.33712866088E+03  0.47552635056E+03  0.00000000000E+00 0.  1.
         13    1    3    3    0    0  0.83464558890E+03 -0.29671297189E+02 -0.39280717215E+03  0.92293614655E+03  0.10566000000E+00 0. -1.
         -4    1    3    3    0  503 -0.22877108022E+03  0.17571678258E+03  0.62927881566E+02  0.29524991635E+03  0.00000000000E+00 0. -1.
<mgrwt>
<rscale>  2 0.11752732E+04</rscale>
<asrwt>0</asrwt>
<pdfrwt beam="1">  1       21 0.15411125E+00 0.11761420E+04</pdfrwt>
<pdfrwt beam="2">  1       21 0.21450361E+00 0.11761420E+04</pdfrwt>
<totfact> 0.12477609E+01</totfact>
</mgrwt>
</event>
<event>
 8    1  0.1168507E-005  0.1035966E+04  0.7818608E-02  0.8745461E-01
         21   -1    0    0  501  502  0.00000000000E+00  0.00000000000E+00  0.53830285020E+03  0.53830285020E+03  0.00000000000E+00 0. -1.
         21   -1    0    0  502  503 -0.00000000000E+00 -0.00000000000E+00 -0.19606915720E+04  0.19606915720E+04  0.00000000000E+00 0. -1.
   -9000010    2    1    2    0  503 -0.63665731050E+02 -0.23337614317E+03 -0.70210540065E+03  0.12514705518E+04  0.10073275529E+04 0.  0.
    9000010    2    1    2  501    0  0.63665731050E+02  0.23337614317E+03 -0.72028332113E+03  0.12475238704E+04  0.98943923256E+03 0.  0.
        -13    1    4    4    0    0 -0.43963230219E+03  0.67199120909E+01 -0.17990349947E+03  0.47506525723E+03  0.10566000000E+00 0.  1.
          4    1    4    4  501    0  0.50329803324E+03  0.22665623108E+03 -0.54037982166E+03  0.77245861314E+03  0.00000000000E+00 0.  1.
         13    1    3    3    0    0  0.15049670436E+03 -0.26915687553E+03 -0.90389518600E+03  0.95505036522E+03  0.10566000000E+00 0. -1.
         -4    1    3    3    0  503 -0.21416243541E+03  0.35780732356E+02  0.20178978534E+03  0.29642018659E+03  0.00000000000E+00 0. -1.
<mgrwt>
<rscale>  2 0.10315925E+04</rscale>
<asrwt>0</asrwt>
<pdfrwt beam="1">  1       21 0.82815822E-01 0.10359665E+04</pdfrwt>
<pdfrwt beam="2">  1       21 0.30164486E+00 0.10359665E+04</pdfrwt>
<totfact> 0.16629634E+01</totfact>
</mgrwt>
</event>
<event>
 8    1  0.1168507E-005  0.1531247E+04  0.7818608E-02  0.8392371E-01
         21   -1    0    0  503  502  0.00000000000E+00  0.00000000000E+00  0.14254852976E+04  0.14254852976E+04  0.00000000000E+00 0. -1.
         21   -1    0    0  501  503 -0.00000000000E+00 -0.00000000000E+00 -0.16707529895E+04  0.16707529895E+04  0.00000000000E+00 0.  1.
    9000010    2    1    2  501    0  0.11537753884E+04  0.29645737824E+02 -0.33237468808E+03  0.15625157818E+04  0.99945290954E+03 0.  0.
   -9000010    2    1    2    0  502 -0.11537753884E+04 -0.29645737824E+02  0.87106996118E+02  0.15337225053E+04  0.10063004411E+04 0.  0.
        -13    1    3    3    0    0 -0.17191338651E+03 -0.90631292859E+02 -0.63911785117E+02  0.20457998716E+03  0.10566000000E+00 0.  1.
          4    1    3    3  501    0  0.13256887749E+04  0.12027703068E+03 -0.26846290296E+03  0.13579357946E+04  0.00000000000E+00 0.  1.
         13    1    4    4    0    0 -0.13163678176E+02  0.33211074647E+03  0.53470590734E+02  0.33664513301E+03  0.10566000000E+00 0. -1.
         -4    1    4    4    0  502 -0.11406117102E+04 -0.36175648429E+03  0.33636405385E+02  0.11970773723E+04  0.00000000000E+00 0. -1.
<mgrwt>
<rscale>  2 0.15301228E+04</rscale>
<asrwt>0</asrwt>
<pdfrwt beam="1">  1       21 0.21930543E+00 0.15312469E+04</pdfrwt>
<pdfrwt beam="2">  1       21 0.25703892E+00 0.15312469E+04</pdfrwt>
<totfact> 0.16695669E+00</totfact>
</mgrwt>
</event>
<event>
 8    1  0.1168507E-005  0.1034495E+04  0.7818608E-02  0.8744265E-01
         21   -1    0    0  503  502  0.00000000000E+00  0.00000000000E+00  0.17566501135E+04  0.17566501135E+04  0.00000000000E+00 0. -1.
         21   -1    0    0  501  503 -0.00000000000E+00 -0.00000000000E+00 -0.60883368289E+03  0.60883368289E+03  0.00000000000E+00 0. -1.
    9000010    2    1    2  501    0 -0.28382942881E+02 -0.26182670055E+03  0.65955732741E+03  0.12215529557E+04  0.99388980413E+03 0.  0.
   -9000010    2    1    2    0  502  0.28382942881E+02  0.26182670055E+03  0.48825910317E+03  0.11439308407E+04  0.10004109175E+04 0.  0.
        -13    1    3    3    0    0  0.43793147142E+03 -0.10149610580E+03  0.56065758513E+03  0.71862533499E+03  0.10566000000E+00 0.  1.
          4    1    3    3  501    0 -0.46631441430E+03 -0.16033059475E+03  0.98899742277E+02  0.50292762066E+03  0.00000000000E+00 0.  1.
         13    1    4    4    0    0  0.17362343331E+03 -0.35700921173E+03  0.15459962547E+03  0.42603019754E+03  0.10566000000E+00 0. -1.
         -4    1    4    4    0  502 -0.14524049043E+03  0.61883591229E+03  0.33365947770E+03  0.71790064316E+03  0.00000000000E+00 0. -1.
<mgrwt>
<rscale>  2 0.10329156E+04</rscale>
<asrwt>0</asrwt>
<pdfrwt beam="1">  1       21 0.27025386E+00 0.10344954E+04</pdfrwt>
<pdfrwt beam="2">  1       21 0.93666721E-01 0.10344954E+04</pdfrwt>
<totfact> 0.20334964E+01</totfact>
</mgrwt>
</event>
<event>
 8    1  0.1168507E-005  0.1067537E+04  0.7818608E-02  0.8716174E-01
         21   -1    0    0  501  502  0.00000000000E+00  0.00000000000E+00  0.80684372253E+03  0.80684372253E+03  0.00000000000E+00 0. -1.
         21   -1    0    0  502  503 -0.00000000000E+00 -0.00000000000E+00 -0.16130660253E+04  0.16130660253E+04  0.00000000000E+00 0. -1.
   -9000010    2    1    2    0  503 -0.34111123622E+03 -0.76724436438E+02 -0.84409985784E+03  0.13517009612E+04  0.99616635349E+03 0.  0.
    9000010    2    1    2  501    0  0.34111123622E+03  0.76724436438E+02  0.37877555016E+02  0.10682087867E+04  0.10086584101E+04 0.  0.
        -13    1    4    4    0    0  0.47984906486E+02  0.25409150075E+03  0.45808616512E+03  0.52603040582E+03  0.10566000000E+00 0.  1.
          4    1    4    4  501    0  0.29312632974E+03 -0.17736706431E+03 -0.42020861010E+03  0.54217838088E+03  0.00000000000E+00 0.  1.
         13    1    3    3    0    0  0.16508448873E+03 -0.41327326084E+03 -0.30807895054E+03  0.54125809692E+03  0.10566000000E+00 0. -1.
         -4    1    3    3    0  503 -0.50619572495E+03  0.33654882441E+03 -0.53602090730E+03  0.81044286426E+03  0.00000000000E+00 0. -1.
<mgrwt>
<rscale>  2 0.10645759E+04</rscale>
<asrwt>0</asrwt>
<pdfrwt beam="1">  1       21 0.12412980E+00 0.10675370E+04</pdfrwt>
<pdfrwt beam="2">  1       21 0.24816400E+00 0.10675370E+04</pdfrwt>
<totfact> 0.13662294E+01</totfact>
</mgrwt>
</event>
<event>
 8    1  0.1168507E-005  0.1120126E+04  0.7818608E-02  0.8670451E-01
         21   -1    0    0  501  502  0.00000000000E+00  0.00000000000E+00  0.16999722493E+04  0.16999722493E+04  0.00000000000E+00 0. -1.
         21   -1    0    0  502  503 -0.00000000000E+00 -0.00000000000E+00 -0.81972797530E+03  0.81972797530E+03  0.00000000000E+00 0. -1.
   -9000010    2    1    2    0  503  0.32371275038E+03 -0.37555072888E+03  0.84794643636E+03  0.14048823749E+04  0.10044167630E+04 0.  0.
    9000010    2    1    2  501    0 -0.32371275038E+03  0.37555072888E+03  0.32297837641E+02  0.11148178497E+04  0.99797163934E+03 0.  0.
        -13    1    4    4    0    0 -0.48876931044E+03  0.42855082982E+03 -0.31823722368E+03  0.72375838114E+03  0.10566000000E+00 0.  1.
          4    1    4    4  501    0  0.16505656007E+03 -0.53000100941E+02  0.35053506132E+03  0.39105946854E+03  0.00000000000E+00 0.  1.
         13    1    3    3    0    0  0.37774752487E+03 -0.32521875551E+03  0.10648567518E+04  0.11757467178E+04  0.10566000000E+00 0. -1.
         -4    1    3    3    0  503 -0.54034774492E+02 -0.50331973365E+02 -0.21691031545E+03  0.22913565708E+03  0.00000000000E+00 0. -1.
<mgrwt>
<rscale>  2 0.11186789E+04</rscale>
<asrwt>0</asrwt>
<pdfrwt beam="1">  1       21 0.26153419E+00 0.11201256E+04</pdfrwt>
<pdfrwt beam="2">  1       21 0.12611200E+00 0.11201256E+04</pdfrwt>
<totfact> 0.10325498E+01</totfact>
</mgrwt>
</event>
<event>
 8    1  0.1168507E-005  0.1196551E+04  0.7818608E-02  0.8610148E-01
         21   -1    0    0  503  502  0.00000000000E+00  0.00000000000E+00  0.15034888117E+04  0.15034888117E+04  0.00000000000E+00 0.  1.
         21   -1    0    0  501  503 -0.00000000000E+00 -0.00000000000E+00 -0.10501640932E+04  0.10501640932E+04  0.00000000000E+00 0.  1.
    9000010    2    1    2  501    0 -0.39921174562E+03 -0.51326654605E+03 -0.17086209820E+03  0.12086885528E+04  0.10044508928E+04 0.  0.
   -9000010    2    1    2    0  502  0.39921174562E+03  0.51326654605E+03  0.62418681675E+03  0.13449643520E+04  0.99825215299E+03 0.  0.
        -13    1    3    3    0    0 -0.15285220400E+03 -0.33329955161E+03  0.41155046595E+03  0.55120430383E+03  0.10566000000E+00 0.  1.
          4    1    3    3  501    0 -0.24635954162E+03 -0.17996699444E+03 -0.58241256415E+03  0.65748424902E+03  0.00000000000E+00 0.  1.
         13    1    4    4    0    0  0.47518068773E+03 -0.32311659840E+02 -0.44798383106E+02  0.47838022080E+03  0.10566000000E+00 0. -1.
         -4    1    4    4    0  502 -0.75968942118E+02  0.54557820589E+03  0.66898519985E+03  0.86658413125E+03  0.00000000000E+00 0. -1.
<mgrwt>
<rscale>  2 0.11952491E+04</rscale>
<asrwt>0</asrwt>
<pdfrwt beam="1">  1       21 0.23130597E+00 0.11965509E+04</pdfrwt>
<pdfrwt beam="2">  1       21 0.16156371E+00 0.11965509E+04</pdfrwt>
<totfact> 0.79984883E+00</totfact>
</mgrwt>
</event>
<event>
 8    1  0.1168507E-005  0.1363866E+04  0.7818608E-02  0.8492955E-01
         21   -1    0    0  503  502  0.00000000000E+00  0.00000000000E+00  0.18048059801E+04  0.18048059801E+04  0.00000000000E+00 0.  1.
         21   -1    0    0  501  503 -0.00000000000E+00 -0.00000000000E+00 -0.10464372893E+04  0.10464372893E+04  0.00000000000E+00 0.  1.
    9000010    2    1    2  501    0 -0.65365498945E+03  0.63467839395E+03  0.19051537433E+03  0.13738845561E+04  0.10105350844E+04 0.  0.
   -9000010    2    1    2    0  502  0.65365498945E+03 -0.63467839395E+03  0.56785331650E+03  0.14773587132E+04  0.10149137252E+04 0.  0.
        -13    1    3    3    0    0 -0.25603683454E+03  0.14643199304E+03 -0.40913155919E+03  0.50436676449E+03  0.10566000000E+00 0.  1.
          4    1    3    3  501    0 -0.39761815491E+03  0.48824640091E+03  0.59964693352E+03  0.86951779165E+03  0.00000000000E+00 0.  1.
         13    1    4    4    0    0  0.49931482466E+03  0.41446597711E+02 -0.10406962070E+03  0.51172611005E+03  0.10566000000E+00 0. -1.
         -4    1    4    4    0  502  0.15434016479E+03 -0.67612499166E+03  0.67192293720E+03  0.96563260319E+03  0.00000000000E+00 0. -1.
<mgrwt>
<rscale>  2 0.13630518E+04</rscale>
<asrwt>0</asrwt>
<pdfrwt beam="1">  1       21 0.27766246E+00 0.13638663E+04</pdfrwt>
<pdfrwt beam="2">  1       21 0.16099035E+00 0.13638663E+04</pdfrwt>
<totfact> 0.36006484E+00</totfact>
</mgrwt>
</event>
<event>
 8    1  0.1168507E-005  0.1681824E+04  0.7818608E-02  0.8313845E-01
         21   -1    0    0  501  502  0.00000000000E+00  0.00000000000E+00  0.42115729953E+04  0.42115729953E+04  0.00000000000E+00 0. -1.
         21   -1    0    0  502  503 -0.00000000000E+00 -0.00000000000E+00 -0.79909211395E+03  0.79909211395E+03  0.00000000000E+00 0.  1.
   -9000010    2    1    2    0  503 -0.12612497797E+04 -0.46748545801E+03  0.68835757414E+03  0.18172418066E+04  0.10095731641E+04 0.  0.
    9000010    2    1    2  501    0  0.12612497797E+04  0.46748545801E+03  0.27241233072E+04  0.31934233026E+04  0.98377382388E+03 0.  0.
        -13    1    4    4    0    0  0.73291139035E+03  0.27339105104E+03  0.57240312333E+03  0.96930238814E+03  0.10566000000E+00 0.  1.
          4    1    4    4  501    0  0.52833838934E+03  0.19409440697E+03  0.21517201839E+04  0.22241209145E+04  0.00000000000E+00 0.  1.
         13    1    3    3    0    0 -0.13499187405E+04 -0.63226848823E+03  0.57049284779E+03  0.15960908958E+04  0.10566000000E+00 0. -1.
         -4    1    3    3    0  503  0.88668960769E+02  0.16478303022E+03  0.11786472635E+03  0.22115091085E+03  0.00000000000E+00 0. -1.
<mgrwt>
<rscale>  2 0.16779709E+04</rscale>
<asrwt>0</asrwt>
<pdfrwt beam="1">  1       21 0.64793429E+00 0.16818239E+04</pdfrwt>
<pdfrwt beam="2">  1       21 0.12293725E+00 0.16818239E+04</pdfrwt>
<totfact> 0.16403639E-02</totfact>
</mgrwt>
</event>
<event>
 8    1  0.1168507E-005  0.1023216E+04  0.7818608E-02  0.8753534E-01
         21   -1    0    0  501  502  0.00000000000E+00  0.00000000000E+00  0.80208692236E+03  0.80208692236E+03  0.00000000000E+00 0.  1.
         21   -1    0    0  502  503 -0.00000000000E+00 -0.00000000000E+00 -0.13043165605E+04  0.13043165605E+04  0.00000000000E+00 0.  1.
   -9000010    2    1    2    0  503  0.18009786332E+03 -0.11239812638E+03 -0.28760356697E+03  0.10628675067E+04  0.10009510208E+04 0.  0.
    9000010    2    1    2  501    0 -0.18009786332E+03  0.11239812638E+03 -0.21462607114E+03  0.10435359761E+04  0.99891661504E+03 0.  0.
        -13    1    4    4    0    0 -0.48465392866E+03  0.37847934623E+03 -0.98419982279E+02  0.62275400454E+03  0.10566000000E+00 0.  1.
          4    1    4    4  501    0  0.30455606534E+03 -0.26608121985E+03 -0.11620608886E+03  0.42078197155E+03  0.00000000000E+00 0.  1.
         13    1    3    3    0    0 -0.25172383830E+03  0.15024073408E+03  0.20451372308E+03  0.35743956558E+03  0.10566000000E+00 0. -1.
         -4    1    3    3    0  503  0.43182170162E+03 -0.26263886047E+03 -0.49211729005E+03  0.70542794117E+03  0.00000000000E+00 0. -1.
<mgrwt>
<rscale>  2 0.10227184E+04</rscale>
<asrwt>0</asrwt>
<pdfrwt beam="1">  1       21 0.12339799E+00 0.10232163E+04</pdfrwt>
<pdfrwt beam="2">  1       21 0.20066409E+00 0.10232163E+04</pdfrwt>
<totfact> 0.31889983E+01</totfact>
</mgrwt>
</event>
<event>
 8    1  0.1168507E-005  0.1082987E+04  0.7818608E-02  0.8701647E-01
         21   -1    0    0  501  502  0.00000000000E+00  0.00000000000E+00  0.61207447685E+03  0.61207447685E+03  0.00000000000E+00 0. -1.
         21   -1    0    0  502  503 -0.00000000000E+00 -0.00000000000E+00 -0.19083808759E+04  0.19083808759E+04  0.00000000000E+00 0. -1.
   -9000010    2    1    2    0  503 -0.40017383990E+03 -0.57280185159E+02 -0.59408426522E+03  0.12297277572E+04  0.99793492824E+03 0.  0.
    9000010    2    1    2  501    0  0.40017383990E+03  0.57280185159E+02 -0.70222213383E+03  0.12907275955E+04  0.10047097485E+04 0.  0.
        -13    1    4    4    0    0  0.84615963320E+02 -0.22799865409E+03 -0.81510416516E+03  0.85061040362E+03  0.10566000000E+00 0.  1.
          4    1    4    4  501    0  0.31555787658E+03  0.28527883925E+03  0.11288203134E+03  0.44011719188E+03  0.00000000000E+00 0.  1.
         13    1    3    3    0    0 -0.59792967635E+03 -0.29092196221E+03 -0.13588485676E+03  0.67869005549E+03  0.10566000000E+00 0. -1.
         -4    1    3    3    0  503  0.19775583645E+03  0.23364177705E+03 -0.45819940847E+03  0.55103770175E+03  0.00000000000E+00 0. -1.
<mgrwt>
<rscale>  2 0.10814135E+04</rscale>
<asrwt>0</asrwt>
<pdfrwt beam="1">  1       21 0.94165306E-01 0.10829874E+04</pdfrwt>
<pdfrwt beam="2">  1       21 0.29359705E+00 0.10829874E+04</pdfrwt>
<totfact> 0.13538174E+01</totfact>
</mgrwt>
</event>
<event>
 8    1  0.1168507E-005  0.1033091E+04  0.7818608E-02  0.8745550E-01
         21   -1    0    0  501  502  0.00000000000E+00  0.00000000000E+00  0.97322789113E+03  0.97322789113E+03  0.00000000000E+00 0. -1.
         21   -1    0    0  502  503 -0.00000000000E+00 -0.00000000000E+00 -0.11478224593E+04  0.11478224593E+04  0.00000000000E+00 0. -1.
   -9000010    2    1    2    0  503 -0.23818163631E+03  0.45006481288E+02 -0.32530854831E+03  0.10770237176E+04  0.99769652773E+03 0.  0.
    9000010    2    1    2  501    0  0.23818163631E+03 -0.45006481288E+02  0.15071398015E+03  0.10440266328E+04  0.10042513784E+04 0.  0.
        -13    1    4    4    0    0  0.60063908602E+03 -0.20766680953E+03  0.10460442251E+03  0.64407679030E+03  0.10566000000E+00 0.  1.
          4    1    4    4  501    0 -0.36245744971E+03  0.16266032824E+03  0.46109557646E+02  0.39994984253E+03  0.00000000000E+00 0.  1.
         13    1    3    3    0    0 -0.22306662279E+03 -0.23768163020E+03 -0.59983531705E+03  0.68268125379E+03  0.10566000000E+00 0. -1.
         -4    1    3    3    0  503 -0.15115013522E+02  0.28268811148E+03  0.27452676874E+03  0.39434246381E+03  0.00000000000E+00 0. -1.
<mgrwt>
<rscale>  2 0.10314946E+04</rscale>
<asrwt>0</asrwt>
<pdfrwt beam="1">  1       21 0.14972737E+00 0.10330909E+04</pdfrwt>
<pdfrwt beam="2">  1       21 0.17658807E+00 0.10330909E+04</pdfrwt>
<totfact> 0.28042713E+01</totfact>
</mgrwt>
</event>
<event>
 8    1  0.1168507E-005  0.1256908E+04  0.7818608E-02  0.8566068E-01
         21   -1    0    0  503  502  0.00000000000E+00  0.00000000000E+00  0.22294594926E+04  0.22294594926E+04  0.00000000000E+00 0. -1.
         21   -1    0    0  501  503 -0.00000000000E+00 -0.00000000000E+00 -0.11227481401E+04  0.11227481401E+04  0.00000000000E+00 0. -1.
    9000010    2    1    2  501    0  0.82688739998E+02  0.75373802862E+03 -0.47003772016E+03  0.13357862759E+04  0.99419870903E+03 0.  0.
   -9000010    2    1    2    0  502 -0.82688739998E+02 -0.75373802862E+03  0.15767490726E+04  0.20164213568E+04  0.10024265592E+04 0.  0.
        -13    1    3    3    0    0 -0.13400670485E+03  0.79221547700E+03 -0.66407314119E+03  0.10423801164E+04  0.10566000000E+00 0.  1.
          4    1    3    3  501    0  0.21669544485E+03 -0.38477448384E+02  0.19403542103E+03  0.29340615956E+03  0.00000000000E+00 0.  1.
         13    1    4    4    0    0  0.28714012255E+03 -0.16207834214E+03  0.11549618894E+04  0.12011060803E+04  0.10566000000E+00 0. -1.
         -4    1    4    4    0  502 -0.36982886255E+03 -0.59165968648E+03  0.42178718323E+03  0.81531527651E+03  0.00000000000E+00 0. -1.
<mgrwt>
<rscale>  2 0.12552666E+04</rscale>
<asrwt>0</asrwt>
<pdfrwt beam="1">  1       21 0.34299377E+00 0.12569079E+04</pdfrwt>
<pdfrwt beam="2">  1       21 0.17273048E+00 0.12569079E+04</pdfrwt>
<totfact> 0.10100386E+00</totfact>
</mgrwt>
</event>
<event>
 8    1  0.1168507E-005  0.1214948E+04  0.7818608E-02  0.8596220E-01
         21   -1    0    0  501  502  0.00000000000E+00  0.00000000000E+00  0.68359614497E+03  0.68359614497E+03  0.00000000000E+00 0. -1.
         21   -1    0    0  502  503 -0.00000000000E+00 -0.00000000000E+00 -0.21978654998E+04  0.21978654998E+04  0.00000000000E+00 0. -1.
   -9000010    2    1    2    0  503  0.85988706638E+02  0.68807594279E+03 -0.54897983314E+03  0.13332205969E+04  0.99762505080E+03 0.  0.
    9000010    2    1    2  501    0 -0.85988706638E+02 -0.68807594279E+03 -0.96528952170E+03  0.15482410479E+04  0.99218139523E+03 0.  0.
        -13    1    4    4    0    0  0.40154452591E+02 -0.69990850906E+03 -0.14204577196E+03  0.71530504934E+03  0.10566000000E+00 0.  1.
          4    1    4    4  501    0 -0.12614315923E+03  0.11832566272E+02 -0.82324374974E+03  0.83293599858E+03  0.00000000000E+00 0.  1.
         13    1    3    3    0    0  0.38009255526E+03  0.51701161006E+03 -0.70982454111E+03  0.95688152131E+03  0.10566000000E+00 0. -1.
         -4    1    3    3    0  503 -0.29410384862E+03  0.17106433273E+03  0.16084470797E+03  0.37633907555E+03  0.00000000000E+00 0. -1.
<mgrwt>
<rscale>  2 0.12138298E+04</rscale>
<asrwt>0</asrwt>
<pdfrwt beam="1">  1       21 0.10516864E+00 0.12149479E+04</pdfrwt>
<pdfrwt beam="2">  1       21 0.33813316E+00 0.12149479E+04</pdfrwt>
<totfact> 0.47896126E+00</totfact>
</mgrwt>
</event>
<event>
 8    1  0.1168507E-005  0.1139641E+04  0.7818608E-02  0.8664318E-01
         21   -1    0    0  501  502  0.00000000000E+00  0.00000000000E+00  0.25572269911E+04  0.25572269911E+04  0.00000000000E+00 0. -1.
         21   -1    0    0  502  503 -0.00000000000E+00 -0.00000000000E+00 -0.79806755373E+03  0.79806755373E+03  0.00000000000E+00 0. -1.
   -9000010    2    1    2    0  503 -0.30984890832E+03 -0.30564174153E+03 -0.18434096258E+03  0.11023017522E+04  0.99582344936E+03 0.  0.
    9000010    2    1    2  501    0  0.30984890832E+03  0.30564174153E+03  0.19435004000E+04  0.22529927927E+04  0.10532613631E+04 0.  0.
        -13    1    4    4    0    0 -0.14505833398E+03 -0.32235062158E+03  0.47220228844E+03  0.58985324943E+03  0.10566000000E+00 0.  1.
          4    1    4    4  501    0  0.45490724231E+03  0.62799236311E+03  0.14712981115E+04  0.16631395432E+04  0.00000000000E+00 0.  1.
         13    1    3    3    0    0 -0.30352986519E+03 -0.26732415055E+03 -0.57869974796E+03  0.70603540278E+03  0.10566000000E+00 0. -1.
         -4    1    3    3    0  503 -0.63190431298E+01 -0.38317590976E+02  0.39435878538E+03  0.39626634943E+03  0.00000000000E+00 0. -1.
<mgrwt>
<rscale>  2 0.11261894E+04</rscale>
<asrwt>0</asrwt>
<pdfrwt beam="1">  1       21 0.39341953E+00 0.11396415E+04</pdfrwt>
<pdfrwt beam="2">  1       21 0.12277962E+00 0.11396415E+04</pdfrwt>
<totfact> 0.13025041E+00</totfact>
</mgrwt>
</event>
<event>
 8    1  0.1168507E-005  0.1358876E+04  0.7818608E-02  0.8499851E-01
         21   -1    0    0  501  502  0.00000000000E+00  0.00000000000E+00  0.81155683144E+03  0.81155683144E+03  0.00000000000E+00 0. -1.
         21   -1    0    0  502  503 -0.00000000000E+00 -0.00000000000E+00 -0.28796321186E+04  0.28796321186E+04  0.00000000000E+00 0.  1.
   -9000010    2    1    2    0  503  0.87101634892E+03  0.18757222500E+03 -0.16685313820E+03  0.13690809959E+04  0.10260068147E+04 0.  0.
    9000010    2    1    2  501    0 -0.87101634892E+03 -0.18757222500E+03 -0.19012221490E+04  0.23221079542E+04  0.99180989681E+03 0.  0.
        -13    1    4    4    0    0 -0.46582847069E+03 -0.57257393572E+03 -0.13411317658E+04  0.15308401289E+04  0.10566000000E+00 0.  1.
          4    1    4    4  501    0 -0.40518787823E+03  0.38500171072E+03 -0.56009038317E+03  0.79126782523E+03  0.00000000000E+00 0.  1.
         13    1    3    3    0    0  0.74291067009E+02 -0.64464771368E+02  0.36534870657E+03  0.37835771162E+03  0.10566000000E+00 0. -1.
         -4    1    3    3    0  503  0.79672528192E+03  0.25203699637E+03 -0.53220184477E+03  0.99072328425E+03  0.00000000000E+00 0. -1.
<mgrwt>
<rscale>  2 0.13524219E+04</rscale>
<asrwt>0</asrwt>
<pdfrwt beam="1">  1       21 0.12485489E+00 0.13588756E+04</pdfrwt>
<pdfrwt beam="2">  1       21 0.44302034E+00 0.13588756E+04</pdfrwt>
<totfact> 0.53926882E-01</totfact>
</mgrwt>
</event>
<event>
 8    1  0.1168507E-005  0.1067648E+04  0.7818608E-02  0.8713750E-01
         21   -1    0    0  503  502  0.00000000000E+00  0.00000000000E+00  0.37853504280E+03  0.37853504280E+03  0.00000000000E+00 0. -1.
         21   -1    0    0  501  503 -0.00000000000E+00 -0.00000000000E+00 -0.30618115570E+04  0.30618115570E+04  0.00000000000E+00 0. -1.
    9000010    2    1    2  501    0  0.18113846141E+03  0.35005874687E+03 -0.11130194444E+04  0.15415101068E+04  0.99100396429E+03 0.  0.
   -9000010    2    1    2    0  502 -0.18113846141E+03 -0.35005874687E+03 -0.15702570698E+04  0.18988364930E+04  0.99223006075E+03 0.  0.
        -13    1    3    3    0    0  0.10789005164E+03  0.42966823175E+03 -0.20324200347E+02  0.44347281417E+03  0.10566000000E+00 0.  1.
          4    1    3    3  501    0  0.73248409769E+02 -0.79609484883E+02 -0.10926952440E+04  0.10980372926E+04  0.00000000000E+00 0.  1.
         13    1    4    4    0    0  0.36910773294E+02 -0.65803712518E+03 -0.12060879499E+04  0.13744174829E+04  0.10566000000E+00 0. -1.
         -4    1    4    4    0  502 -0.21804923470E+03  0.30797837831E+03 -0.36416911992E+03  0.52441901011E+03  0.00000000000E+00 0. -1.
<mgrwt>
<rscale>  2 0.10673633E+04</rscale>
<asrwt>0</asrwt>
<pdfrwt beam="1">  1       21 0.58236158E-01 0.10676482E+04</pdfrwt>
<pdfrwt beam="2">  1       21 0.47104795E+00 0.10676482E+04</pdfrwt>
<totfact> 0.24986414E+00</totfact>
</mgrwt>
</event>
<event>
 8    1  0.1168507E-005  0.1097533E+04  0.7818608E-02  0.8690521E-01
         21   -1    0    0  503  502  0.00000000000E+00  0.00000000000E+00  0.15398667407E+04  0.15398667407E+04  0.00000000000E+00 0.  1.
         21   -1    0    0  501  503 -0.00000000000E+00 -0.00000000000E+00 -0.81047363868E+03  0.81047363868E+03  0.00000000000E+00 0.  1.
    9000010    2    1    2  501    0 -0.43071955142E+03 -0.16443464606E+03  0.61674734854E+03  0.12589502285E+04  0.99600215920E+03 0.  0.
   -9000010    2    1    2    0  502  0.43071955142E+03  0.16443464606E+03  0.11264575350E+03  0.10913901509E+04  0.98279464329E+03 0.  0.
        -13    1    3    3    0    0  0.20084089936E+03  0.12334868210E+03  0.50322962484E+03  0.55569058901E+03  0.10566000000E+00 0.  1.
          4    1    3    3  501    0 -0.63156045078E+03 -0.28778332816E+03  0.11351772370E+03  0.70325963950E+03  0.00000000000E+00 0.  1.
         13    1    4    4    0    0 -0.31592254220E+03 -0.19076050045E+02  0.23330730502E+02  0.31735671177E+03  0.10566000000E+00 0. -1.
         -4    1    4    4    0  502  0.74664209362E+03  0.18351069610E+03  0.89315023000E+02  0.77403343912E+03  0.00000000000E+00 0. -1.
<mgrwt>
<rscale>  2 0.10945277E+04</rscale>
<asrwt>0</asrwt>
<pdfrwt beam="1">  1       21 0.23690258E+00 0.10975329E+04</pdfrwt>
<pdfrwt beam="2">  1       21 0.12468825E+00 0.10975329E+04</pdfrwt>
<totfact> 0.16204348E+01</totfact>
</mgrwt>
</event>
<event>
 8    1  0.1168507E-005  0.1372819E+04  0.7818608E-02  0.8486768E-01
         21   -1    0    0  503  502  0.00000000000E+00  0.00000000000E+00  0.96352126870E+03  0.96352126870E+03  0.00000000000E+00 0.  1.
         21   -1    0    0  501  503 -0.00000000000E+00 -0.00000000000E+00 -0.19913872428E+04  0.19913872428E+04  0.00000000000E+00 0.  1.
    9000010    2    1    2  501    0  0.58585449936E+01 -0.93081269146E+03 -0.71330298352E+03  0.15470723934E+04  0.10090516611E+04 0.  0.
   -9000010    2    1    2    0  502 -0.58585449936E+01  0.93081269146E+03 -0.31456299060E+03  0.14078361182E+04  0.10082688488E+04 0.  0.
        -13    1    3    3    0    0 -0.42227148327E+03 -0.35333369510E+03 -0.60845460260E+03  0.82059424825E+03  0.10566000000E+00 0.  1.
          4    1    3    3  501    0  0.42813002826E+03 -0.57747899636E+03 -0.10484838093E+03  0.72647814511E+03  0.00000000000E+00 0.  1.
         13    1    4    4    0    0 -0.47940881676E+03  0.52482045339E+03 -0.35397639762E+01  0.71083181061E+03  0.10566000000E+00 0. -1.
         -4    1    4    4    0  502  0.47355027177E+03  0.40599223807E+03 -0.31102322663E+03  0.69700430757E+03  0.00000000000E+00 0. -1.
<mgrwt>
<rscale>  2 0.13726751E+04</rscale>
<asrwt>0</asrwt>
<pdfrwt beam="1">  1       21 0.14823404E+00 0.13728189E+04</pdfrwt>
<pdfrwt beam="2">  1       21 0.30636726E+00 0.13728189E+04</pdfrwt>
<totfact> 0.29118327E+00</totfact>
</mgrwt>
</event>
<event>
 8    1  0.1168507E-005  0.1163553E+04  0.7818608E-02  0.8637414E-01
         21   -1    0    0  501  502  0.00000000000E+00  0.00000000000E+00  0.18432174998E+04  0.18432174998E+04  0.00000000000E+00 0. -1.
         21   -1    0    0  502  503 -0.00000000000E+00 -0.00000000000E+00 -0.11141150117E+04  0.11141150117E+04  0.00000000000E+00 0. -1.
   -9000010    2    1    2    0  503 -0.50300684014E+03 -0.31121210506E+03 -0.51050839312E+03  0.12571880611E+04  0.98490311506E+03 0.  0.
    9000010    2    1    2  501    0  0.50300684014E+03  0.31121210506E+03  0.12396108811E+04  0.17001444504E+04  0.10019915967E+04 0.  0.
        -13    1    4    4    0    0 -0.22733444942E+02  0.52715677541E+03  0.31413552374E+03  0.61407834502E+03  0.10566000000E+00 0.  1.
          4    1    4    4  501    0  0.52574028509E+03 -0.21594467035E+03  0.92547535740E+03  0.10860661053E+04  0.00000000000E+00 0.  1.
         13    1    3    3    0    0 -0.16079252749E+03 -0.61619337830E+03 -0.48059109977E+03  0.79781973697E+03  0.10566000000E+00 0. -1.
         -4    1    3    3    0  503 -0.34221431265E+03  0.30498127323E+03 -0.29917293350E+02  0.45936832417E+03  0.00000000000E+00 0. -1.
<mgrwt>
<rscale>  2 0.11598650E+04</rscale>
<asrwt>0</asrwt>
<pdfrwt beam="1">  1       21 0.28357192E+00 0.11635532E+04</pdfrwt>
<pdfrwt beam="2">  1       21 0.17140231E+00 0.11635532E+04</pdfrwt>
<totfact> 0.27772421E+00</totfact>
</mgrwt>
</event>
<event>
 8    1  0.1168507E-005  0.1121896E+04  0.7818608E-02  0.8669550E-01
         21   -1    0    0  501  502  0.00000000000E+00  0.00000000000E+00  0.11883100077E+04  0.11883100077E+04  0.00000000000E+00 0. -1.
         21   -1    0    0  502  503 -0.00000000000E+00 -0.00000000000E+00 -0.11658197423E+04  0.11658197423E+04  0.00000000000E+00 0. -1.
   -9000010    2    1    2    0  503  0.39228567092E+03 -0.32570192537E+03 -0.35773266082E+03  0.11775493521E+04  0.99933979613E+03 0.  0.
    9000010    2    1    2  501    0 -0.39228567092E+03  0.32570192537E+03  0.38022292626E+03  0.11765803980E+04  0.98984956808E+03 0.  0.
        -13    1    4    4    0    0 -0.20074642112E+03  0.55044969919E+03 -0.11775829073E+03  0.59762950323E+03  0.10566000000E+00 0.  1.
          4    1    4    4  501    0 -0.19153924980E+03 -0.22474777382E+03  0.49798121699E+03  0.57895089474E+03  0.00000000000E+00 0.  1.
         13    1    3    3    0    0  0.66060130260E+03 -0.12776372828E+03  0.20729453831E+02  0.67316221870E+03  0.10566000000E+00 0. -1.
         -4    1    3    3    0  503 -0.26831563168E+03 -0.19793819709E+03 -0.37846211466E+03  0.50438713336E+03  0.00000000000E+00 0. -1.
<mgrwt>
<rscale>  2 0.11197784E+04</rscale>
<asrwt>0</asrwt>
<pdfrwt beam="1">  1       21 0.18281693E+00 0.11218956E+04</pdfrwt>
<pdfrwt beam="2">  1       21 0.17935688E+00 0.11218956E+04</pdfrwt>
<totfact> 0.13666621E+01</totfact>
</mgrwt>
</event>
<event>
 8    1  0.1168507E-005  0.1101028E+04  0.7818608E-02  0.8685268E-01
         21   -1    0    0  501  502  0.00000000000E+00  0.00000000000E+00  0.14338307330E+04  0.14338307330E+04  0.00000000000E+00 0. -1.
         21   -1    0    0  502  503 -0.00000000000E+00 -0.00000000000E+00 -0.87260017932E+03  0.87260017932E+03  0.00000000000E+00 0. -1.
   -9000010    2    1    2    0  503  0.16865687770E+03  0.43286945524E+03  0.48682036071E+03  0.12038510516E+04  0.99821950653E+03 0.  0.
    9000010    2    1    2  501    0 -0.16865687770E+03 -0.43286945524E+03  0.74410192969E+02  0.11025798607E+04  0.99715814428E+03 0.  0.
        -13    1    4    4    0    0 -0.42514029960E+03  0.10878434261E+03 -0.14831260101E+03  0.46322235085E+03  0.10566000000E+00 0.  1.
          4    1    4    4  501    0  0.25648342190E+03 -0.54165379785E+03  0.22272279398E+03  0.63935750984E+03  0.00000000000E+00 0.  1.
         13    1    3    3    0    0 -0.38878054530E+03  0.36144841000E+03  0.16332235331E+03  0.55540027705E+03  0.10566000000E+00 0. -1.
         -4    1    3    3    0  503  0.55743742299E+03  0.71421045241E+02  0.32349800739E+03  0.64845077457E+03  0.00000000000E+00 0. -1.
<mgrwt>
<rscale>  2 0.11007877E+04</rscale>
<asrwt>0</asrwt>
<pdfrwt beam="1">  1       21 0.22058934E+00 0.11010283E+04</pdfrwt>
<pdfrwt beam="2">  1       21 0.13424618E+00 0.11010283E+04</pdfrwt>
<totfact> 0.17312636E+01</totfact>
</mgrwt>
</event>
<event>
 8    1  0.1168507E-005  0.1714070E+04  0.7818608E-02  0.8297119E-01
         21   -1    0    0  503  502  0.00000000000E+00  0.00000000000E+00  0.15611397531E+04  0.15611397531E+04  0.00000000000E+00 0.  1.
         21   -1    0    0  501  503 -0.00000000000E+00 -0.00000000000E+00 -0.19078655288E+04  0.19078655288E+04  0.00000000000E+00 0. -1.
    9000010    2    1    2  501    0  0.13569408293E+04 -0.32859335568E+03  0.66837665543E+02  0.17057497554E+04  0.97767732245E+03 0.  0.
   -9000010    2    1    2    0  502 -0.13569408293E+04  0.32859335568E+03 -0.41356344130E+03  0.17632555265E+04  0.99437081819E+03 0.  0.
        -13    1    3    3    0    0  0.80389895338E+03 -0.52542274743E+03 -0.30883088464E+03  0.10088107440E+04  0.10566000000E+00 0.  1.
          4    1    3    3  501    0  0.55304187594E+03  0.19682939175E+03  0.37566855018E+03  0.69693901139E+03  0.00000000000E+00 0.  1.
         13    1    4    4    0    0 -0.15137940582E+04  0.30989110850E+03 -0.43142229809E+03  0.16042849373E+04  0.10566000000E+00 0. -1.
         -4    1    4    4    0  502  0.15685322886E+03  0.18702247182E+02  0.17858856792E+02  0.15897058916E+03  0.00000000000E+00 0. -1.
<mgrwt>
<rscale>  2 0.17116572E+04</rscale>
<asrwt>0</asrwt>
<pdfrwt beam="1">  1       21 0.24017535E+00 0.17140698E+04</pdfrwt>
<pdfrwt beam="2">  1       21 0.29351777E+00 0.17140698E+04</pdfrwt>
<totfact> 0.61839227E-01</totfact>
</mgrwt>
</event>
<event>
 8    1  0.1168507E-005  0.1078483E+04  0.7818608E-02  0.8704396E-01
         21   -1    0    0  503  502  0.00000000000E+00  0.00000000000E+00  0.11547509442E+04  0.11547509442E+04  0.00000000000E+00 0.  1.
         21   -1    0    0  501  503 -0.00000000000E+00 -0.00000000000E+00 -0.11045934598E+04  0.11045934598E+04  0.00000000000E+00 0.  1.
    9000010    2    1    2  501    0  0.40123608038E+03  0.56551696449E+02  0.36224337544E+03  0.11376930026E+04  0.99946816788E+03 0.  0.
   -9000010    2    1    2    0  502 -0.40123608038E+03 -0.56551696449E+02 -0.31208589109E+03  0.11216514013E+04  0.99825636795E+03 0.  0.
        -13    1    3    3    0    0 -0.17075416329E+03  0.16712284331E+03 -0.21218414073E+03  0.31954522337E+03  0.10566000000E+00 0.  1.
          4    1    3    3  501    0  0.57199024367E+03 -0.11057114686E+03  0.57442751617E+03  0.81814777926E+03  0.00000000000E+00 0.  1.
         13    1    4    4    0    0 -0.43073763536E+03 -0.34980078887E+03  0.14888805807E+03  0.57451124220E+03  0.10566000000E+00 0. -1.
         -4    1    4    4    0  502  0.29501554978E+02  0.29324909242E+03 -0.46097394916E+03  0.54714015915E+03  0.00000000000E+00 0. -1.
<mgrwt>
<rscale>  2 0.10782019E+04</rscale>
<asrwt>0</asrwt>
<pdfrwt beam="1">  1       21 0.17765399E+00 0.10784828E+04</pdfrwt>
<pdfrwt beam="2">  1       21 0.16993746E+00 0.10784828E+04</pdfrwt>
<totfact> 0.18196769E+01</totfact>
</mgrwt>
</event>
<event>
 8    1  0.1168507E-005  0.1086049E+04  0.7818608E-02  0.8698876E-01
         21   -1    0    0  501  502  0.00000000000E+00  0.00000000000E+00  0.23165921466E+04  0.23165921466E+04  0.00000000000E+00 0.  1.
         21   -1    0    0  502  503 -0.00000000000E+00 -0.00000000000E+00 -0.51467245181E+03  0.51467245181E+03  0.00000000000E+00 0.  1.
   -9000010    2    1    2    0  503 -0.32980114412E+03  0.23159505123E+03  0.72549176660E+03  0.13060782673E+04  0.10085123075E+04 0.  0.
    9000010    2    1    2  501    0  0.32980114412E+03 -0.23159505123E+03  0.10764279282E+04  0.15251863311E+04  0.10025423670E+04 0.  0.
        -13    1    4    4    0    0 -0.21227037110E+03 -0.43025517077E+03  0.64790990614E+03  0.80620436618E+03  0.10566000000E+00 0.  1.
          4    1    4    4  501    0  0.54207151522E+03  0.19866011954E+03  0.42851802206E+03  0.71898196495E+03  0.00000000000E+00 0.  1.
         13    1    3    3    0    0 -0.51368216688E+03  0.52707157572E+03  0.45468949559E+03  0.86511060742E+03  0.10566000000E+00 0. -1.
         -4    1    3    3    0  503  0.18388102276E+03 -0.29547652449E+03  0.27080227101E+03  0.44096765986E+03  0.00000000000E+00 0. -1.
<mgrwt>
<rscale>  2 0.10846608E+04</rscale>
<asrwt>0</asrwt>
<pdfrwt beam="1">  1       21 0.35639879E+00 0.10860489E+04</pdfrwt>
<pdfrwt beam="2">  1       21 0.79180378E-01 0.10860489E+04</pdfrwt>
<totfact> 0.75732373E+00</totfact>
</mgrwt>
</event>
<event>
 8    1  0.1168507E-005  0.1130500E+04  0.7818608E-02  0.8662276E-01
         21   -1    0    0  503  502  0.00000000000E+00  0.00000000000E+00  0.32593090690E+04  0.32593090690E+04  0.00000000000E+00 0.  1.
         21   -1    0    0  501  503 -0.00000000000E+00 -0.00000000000E+00 -0.10575400306E+04  0.10575400306E+04  0.00000000000E+00 0. -1.
    9000010    2    1    2  501    0  0.17730534888E+02 -0.52692320642E+03 -0.61314611114E+03  0.12860710299E+04  0.10000340510E+04 0.  0.
   -9000010    2    1    2    0  502 -0.17730534888E+02  0.52692320642E+03  0.28149151496E+04  0.30307780697E+04  0.99192034496E+03 0.  0.
        -13    1    3    3    0    0  0.31938330125E+03  0.46797448601E+02  0.84610233427E+02  0.33369836242E+03  0.10566000000E+00 0.  1.
          4    1    3    3  501    0 -0.30165276637E+03 -0.57372065502E+03 -0.69775634457E+03  0.95237266752E+03  0.00000000000E+00 0.  1.
         13    1    4    4    0    0 -0.86451507962E+02 -0.31522654298E+02 -0.54345862347E+02  0.10686919519E+03  0.10566000000E+00 0. -1.
         -4    1    4    4    0  502  0.68720973075E+02  0.55844586071E+03  0.28692610120E+04  0.29239088745E+04  0.00000000000E+00 0. -1.
<mgrwt>
<rscale>  2 0.11287031E+04</rscale>
<asrwt>0</asrwt>
<pdfrwt beam="1">  1       21 0.50143216E+00 0.11305001E+04</pdfrwt>
<pdfrwt beam="2">  1       21 0.16269847E+00 0.11305001E+04</pdfrwt>
<totfact> 0.99669868E-02</totfact>
</mgrwt>
</event>
<event>
 8    1  0.1168507E-005  0.1031942E+04  0.7818608E-02  0.8750513E-01
         21   -1    0    0  501  502  0.00000000000E+00  0.00000000000E+00  0.97132250618E+03  0.97132250618E+03  0.00000000000E+00 0. -1.
         21   -1    0    0  502  503 -0.00000000000E+00 -0.00000000000E+00 -0.10800070421E+04  0.10800070421E+04  0.00000000000E+00 0. -1.
   -9000010    2    1    2    0  503 -0.14174743090E+02  0.20645345545E+03 -0.14436560506E+03  0.10187713203E+04  0.98703070999E+03 0.  0.
    9000010    2    1    2  501    0  0.14174743090E+02 -0.20645345545E+03  0.35681069186E+02  0.10325582280E+04  0.10109794275E+04 0.  0.
        -13    1    4    4    0    0  0.39589055371E+03 -0.42688130234E+03  0.87479578960E+02  0.58873564926E+03  0.10566000000E+00 0.  1.
          4    1    4    4  501    0 -0.38171581062E+03  0.22042784689E+03 -0.51798509773E+02  0.44382257872E+03  0.00000000000E+00 0.  1.
         13    1    3    3    0    0 -0.14647279773E+03  0.39886892071E+03  0.29770075277E+03  0.51882217160E+03  0.10566000000E+00 0. -1.
         -4    1    3    3    0  503  0.13229805463E+03 -0.19241546526E+03 -0.44206635783E+03  0.49994914867E+03  0.00000000000E+00 0. -1.
<mgrwt>
<rscale>  2 0.10260282E+04</rscale>
<asrwt>0</asrwt>
<pdfrwt beam="1">  1       21 0.14943423E+00 0.10319415E+04</pdfrwt>
<pdfrwt beam="2">  1       21 0.16615493E+00 0.10319415E+04</pdfrwt>
<totfact> 0.34488654E+01</totfact>
</mgrwt>
</event>
<event>
 8    1  0.1168507E-005  0.1184756E+04  0.7818608E-02  0.8626708E-01
         21   -1    0    0  501  502  0.00000000000E+00  0.00000000000E+00  0.61684994748E+03  0.61684994748E+03  0.00000000000E+00 0.  1.
         21   -1    0    0  502  503 -0.00000000000E+00 -0.00000000000E+00 -0.21957993993E+04  0.21957993993E+04  0.00000000000E+00 0.  1.
   -9000010    2    1    2    0  503 -0.47056783643E+03 -0.30003136377E+03 -0.86420036690E+03  0.14664547960E+04  0.10450810909E+04 0.  0.
    9000010    2    1    2  501    0  0.47056783643E+03  0.30003136377E+03 -0.71474908496E+03  0.13461945508E+04  0.99494753948E+03 0.  0.
        -13    1    4    4    0    0 -0.15786765999E+03  0.27397883210E+03  0.86251136728E+02  0.32775885688E+03  0.10566000000E+00 0.  1.
          4    1    4    4  501    0  0.62843549643E+03  0.26052531667E+02 -0.80100022169E+03  0.10184356940E+04  0.00000000000E+00 0.  1.
         13    1    3    3    0    0 -0.73846158154E+03 -0.13411190494E+03 -0.27696122923E+03  0.80001190248E+03  0.10566000000E+00 0. -1.
         -4    1    3    3    0  503  0.26789374511E+03 -0.16591945883E+03 -0.58723913767E+03  0.66644289350E+03  0.00000000000E+00 0. -1.
<mgrwt>
<rscale>  2 0.11736051E+04</rscale>
<asrwt>0</asrwt>
<pdfrwt beam="1">  1       21 0.94899991E-01 0.11847563E+04</pdfrwt>
<pdfrwt beam="2">  1       21 0.33781530E+00 0.11847563E+04</pdfrwt>
<totfact> 0.63403138E+00</totfact>
</mgrwt>
</event>
<event>
 8    1  0.1168507E-005  0.1087833E+04  0.7818608E-02  0.8696473E-01
         21   -1    0    0  501  502  0.00000000000E+00  0.00000000000E+00  0.82515993158E+03  0.82515993158E+03  0.00000000000E+00 0. -1.
         21   -1    0    0  502  503 -0.00000000000E+00 -0.00000000000E+00 -0.15951032924E+04  0.15951032924E+04  0.00000000000E+00 0. -1.
   -9000010    2    1    2    0  503  0.41558920800E+03 -0.20508381383E+03 -0.77179150488E+03  0.13338079211E+04  0.98417868445E+03 0.  0.
    9000010    2    1    2  501    0 -0.41558920800E+03  0.20508381383E+03  0.18481440186E+01  0.10864553029E+04  0.98265352442E+03 0.  0.
        -13    1    4    4    0    0 -0.45516391759E+03  0.44668769725E+03  0.29656312183E+03  0.70331627817E+03  0.10566000000E+00 0.  1.
          4    1    4    4  501    0  0.39574709588E+02 -0.24160388342E+03 -0.29471497781E+03  0.38313902473E+03  0.00000000000E+00 0.  1.
         13    1    3    3    0    0  0.34577223502E+03  0.35540981187E+03 -0.21427081408E+03  0.54017271850E+03  0.10566000000E+00 0. -1.
         -4    1    3    3    0  503  0.69816972981E+02 -0.56049362570E+03 -0.55752069080E+03  0.79363520262E+03  0.00000000000E+00 0. -1.
<mgrwt>
<rscale>  2 0.10874883E+04</rscale>
<asrwt>0</asrwt>
<pdfrwt beam="1">  1       21 0.12694768E+00 0.10878334E+04</pdfrwt>
<pdfrwt beam="2">  1       21 0.24540050E+00 0.10878334E+04</pdfrwt>
<totfact> 0.13363491E+01</totfact>
</mgrwt>
</event>
<event>
 8    1  0.1168507E-005  0.1059332E+04  0.7818608E-02  0.8733241E-01
         21   -1    0    0  501  502  0.00000000000E+00  0.00000000000E+00  0.61514918866E+03  0.61514918866E+03  0.00000000000E+00 0. -1.
         21   -1    0    0  502  503 -0.00000000000E+00 -0.00000000000E+00 -0.18062595032E+04  0.18062595032E+04  0.00000000000E+00 0. -1.
   -9000010    2    1    2    0  503 -0.24788590359E+02  0.33926658298E+03 -0.85938776962E+03  0.13640864616E+04  0.10032289109E+04 0.  0.
    9000010    2    1    2  501    0  0.24788590359E+02 -0.33926658298E+03 -0.33172254491E+03  0.10573222302E+04  0.94454971452E+03 0.  0.
        -13    1    4    4    0    0 -0.32741501721E+03  0.74683839797E+02  0.11376312553E+03  0.35457062670E+03  0.10566000000E+00 0.  1.
          4    1    4    4  501    0  0.35220360757E+03 -0.41395042278E+03 -0.44548567044E+03  0.70275160353E+03  0.00000000000E+00 0.  1.
         13    1    3    3    0    0 -0.12704820350E+03  0.25774320837E+03  0.16501807932E+03  0.33136654198E+03  0.10566000000E+00 0. -1.
         -4    1    3    3    0  503  0.10225961314E+03  0.81523374604E+02 -0.10244058489E+04  0.10327199196E+04  0.00000000000E+00 0. -1.
<mgrwt>
<rscale>  2 0.10452033E+04</rscale>
<asrwt>0</asrwt>
<pdfrwt beam="1">  1       21 0.94638338E-01 0.10593321E+04</pdfrwt>
<pdfrwt beam="2">  1       21 0.27788607E+00 0.10593321E+04</pdfrwt>
<totfact> 0.17371602E+01</totfact>
</mgrwt>
</event>
<event>
 8    1  0.1168507E-005  0.1152386E+04  0.7818608E-02  0.8655405E-01
         21   -1    0    0  501  502  0.00000000000E+00  0.00000000000E+00  0.11765023653E+04  0.11765023653E+04  0.00000000000E+00 0. -1.
         21   -1    0    0  502  503 -0.00000000000E+00 -0.00000000000E+00 -0.10712487872E+04  0.10712487872E+04  0.00000000000E+00 0. -1.
   -9000010    2    1    2    0  503 -0.49093758231E+03  0.21636269750E+03  0.49296444016E+02  0.11534394797E+04  0.10198823302E+04 0.  0.
    9000010    2    1    2  501    0  0.49093758231E+03 -0.21636269750E+03  0.55957134092E+02  0.10943116727E+04  0.95213145607E+03 0.  0.
        -13    1    4    4    0    0  0.59907449680E+03 -0.17878658794E+02  0.37226575763E+03  0.70554355261E+03  0.10566000000E+00 0.  1.
          4    1    4    4  501    0 -0.10813691450E+03 -0.19848403871E+03 -0.31630862354E+03  0.38876812012E+03  0.00000000000E+00 0.  1.
         13    1    3    3    0    0 -0.39761161442E+03  0.52533961000E+03 -0.25821404457E+03  0.70763776449E+03  0.10566000000E+00 0. -1.
         -4    1    3    3    0  503 -0.93325967890E+02 -0.30897691250E+03  0.30751048858E+03  0.44580171526E+03  0.00000000000E+00 0. -1.
<mgrwt>
<rscale>  2 0.11372121E+04</rscale>
<asrwt>0</asrwt>
<pdfrwt beam="1">  1       21 0.18100036E+00 0.11523856E+04</pdfrwt>
<pdfrwt beam="2">  1       21 0.16480751E+00 0.11523856E+04</pdfrwt>
<totfact> 0.18582488E+01</totfact>
</mgrwt>
</event>
<event>
 8    1  0.1168507E-005  0.1160003E+04  0.7818608E-02  0.8667542E-01
         21   -1    0    0  501  502  0.00000000000E+00  0.00000000000E+00  0.60813262018E+03  0.60813262018E+03  0.00000000000E+00 0. -1.
         21   -1    0    0  502  503 -0.00000000000E+00 -0.00000000000E+00 -0.19477655940E+04  0.19477655940E+04  0.00000000000E+00 0. -1.
   -9000010    2    1    2    0  503  0.11583470060E+03  0.18807856499E+03 -0.74268896988E+03  0.13773864617E+04  0.11387780005E+04 0.  0.
    9000010    2    1    2  501    0 -0.11583470060E+03 -0.18807856499E+03 -0.59694400397E+03  0.11785117525E+04  0.99184503954E+03 0.  0.
        -13    1    4    4    0    0 -0.20853776396E+03  0.25602379906E+03 -0.64267064031E+03  0.72253840573E+03  0.10566000000E+00 0.  1.
          4    1    4    4  501    0  0.92703063358E+02 -0.44410236405E+03  0.45726636333E+02  0.45597334679E+03  0.00000000000E+00 0.  1.
         13    1    3    3    0    0 -0.20373688447E+03  0.15899081236E+02 -0.94155651678E+03  0.96347817014E+03  0.10566000000E+00 0. -1.
         -4    1    3    3    0  503  0.31957158508E+03  0.17217948376E+03  0.19886754689E+03  0.41390829156E+03  0.00000000000E+00 0. -1.
<mgrwt>
<rscale>  2 0.11222331E+04</rscale>
<asrwt>0</asrwt>
<pdfrwt beam="1">  1       21 0.93558865E-01 0.11600028E+04</pdfrwt>
<pdfrwt beam="2">  1       21 0.29965624E+00 0.11600028E+04</pdfrwt>
<totfact> 0.12267530E+01</totfact>
</mgrwt>
</event>
<event>
 8    1  0.1168507E-005  0.1022601E+04  0.7818608E-02  0.8780755E-01
         21   -1    0    0  501  502  0.00000000000E+00  0.00000000000E+00  0.67175379764E+03  0.67175379764E+03  0.00000000000E+00 0.  1.
         21   -1    0    0  502  503 -0.00000000000E+00 -0.00000000000E+00 -0.14324011313E+04  0.14324011313E+04  0.00000000000E+00 0.  1.
   -9000010    2    1    2    0  503 -0.70562630196E+02  0.21569702195E+03 -0.57944985784E+03  0.11753619671E+04  0.99710045929E+03 0.  0.
    9000010    2    1    2  501    0  0.70562630196E+02 -0.21569702195E+03 -0.18119747586E+03  0.92879296186E+03  0.88222420659E+03 0.  0.
        -13    1    4    4    0    0 -0.16261474730E+03  0.18167653770E+03 -0.35981499677E+03  0.43464556072E+03  0.10566000000E+00 0.  1.
          4    1    4    4  501    0  0.23317737749E+03 -0.39737355964E+03  0.17861752091E+03  0.49414740114E+03  0.00000000000E+00 0.  1.
         13    1    3    3    0    0  0.13885690621E+03  0.58217421599E+03 -0.37583126410E+03  0.70672286535E+03  0.10566000000E+00 0. -1.
         -4    1    3    3    0  503 -0.20941953641E+03 -0.36647719404E+03 -0.20361859373E+03  0.46863910176E+03  0.00000000000E+00 0. -1.
<mgrwt>
<rscale>  2 0.99346604E+03</rscale>
<asrwt>0</asrwt>
<pdfrwt beam="1">  1       21 0.10334674E+00 0.10226014E+04</pdfrwt>
<pdfrwt beam="2">  1       21 0.22036940E+00 0.10226014E+04</pdfrwt>
<totfact> 0.36599817E+01</totfact>
</mgrwt>
</event>
<event>
 8    1  0.1168507E-005  0.1039365E+04  0.7818608E-02  0.8738662E-01
         21   -1    0    0  503  502  0.00000000000E+00  0.00000000000E+00  0.49224977183E+03  0.49224977183E+03  0.00000000000E+00 0. -1.
         21   -1    0    0  501  503 -0.00000000000E+00 -0.00000000000E+00 -0.21939067500E+04  0.21939067500E+04  0.00000000000E+00 0. -1.
    9000010    2    1    2  501    0 -0.28769872056E+03  0.86443752686E+01 -0.88310226142E+03  0.13638725756E+04  0.99871593527E+03 0.  0.
   -9000010    2    1    2    0  502  0.28769872056E+03 -0.86443752686E+01 -0.81855471678E+03  0.13222839462E+04  0.99777639332E+03 0.  0.
        -13    1    3    3    0    0 -0.29388162416E+03 -0.43190277840E+03 -0.21797947002E+03  0.56605784114E+03  0.10566000000E+00 0.  1.
          4    1    3    3  501    0  0.61829035980E+01  0.44054715367E+03 -0.66512279141E+03  0.79781473448E+03  0.00000000000E+00 0.  1.
         13    1    4    4    0    0  0.21110547952E+03 -0.76740945186E+02 -0.10475705646E+04  0.10713817224E+04  0.10566000000E+00 0. -1.
         -4    1    4    4    0  502  0.76593241040E+02  0.68096569918E+02  0.22901584777E+03  0.25090222386E+03  0.00000000000E+00 0. -1.
<mgrwt>
<rscale>  2 0.10391388E+04</rscale>
<asrwt>0</asrwt>
<pdfrwt beam="1">  1       21 0.75730736E-01 0.10393646E+04</pdfrwt>
<pdfrwt beam="2">  1       21 0.33752411E+00 0.10393646E+04</pdfrwt>
<totfact> 0.11557071E+01</totfact>
</mgrwt>
</event>
<event>
 8    1  0.1168507E-005  0.1292999E+04  0.7818608E-02  0.8545155E-01
         21   -1    0    0  503  502  0.00000000000E+00  0.00000000000E+00  0.23984887583E+04  0.23984887583E+04  0.00000000000E+00 0. -1.
         21   -1    0    0  501  503 -0.00000000000E+00 -0.00000000000E+00 -0.76537052652E+03  0.76537052652E+03  0.00000000000E+00 0. -1.
    9000010    2    1    2  501    0 -0.68116812412E+03  0.38152099180E+03  0.13535791431E+04  0.18719032635E+04  0.10306779568E+04 0.  0.
   -9000010    2    1    2    0  502  0.68116812412E+03 -0.38152099180E+03  0.27953908868E+03  0.12919560213E+04  0.99068661972E+03 0.  0.
        -13    1    3    3    0    0 -0.13311762105E+03  0.59263757629E+03  0.32861723077E+03  0.69060038618E+03  0.10566000000E+00 0.  1.
          4    1    3    3  501    0 -0.54805050307E+03 -0.21111658449E+03  0.10249619123E+04  0.11813028773E+04  0.00000000000E+00 0.  1.
         13    1    4    4    0    0  0.58720241172E+03  0.13422415554E+02  0.54957978775E+03  0.80437851030E+03  0.10566000000E+00 0. -1.
         -4    1    4    4    0  502  0.93965712403E+02 -0.39494340735E+03 -0.27004069907E+03  0.48757751104E+03  0.00000000000E+00 0. -1.
<mgrwt>
<rscale>  2 0.12850132E+04</rscale>
<asrwt>0</asrwt>
<pdfrwt beam="1">  1       21 0.36899827E+00 0.12929986E+04</pdfrwt>
<pdfrwt beam="2">  1       21 0.11774931E+00 0.12929986E+04</pdfrwt>
<totfact> 0.21044596E+00</totfact>
</mgrwt>
</event>
<event>
 8    1  0.1168507E-005  0.1085068E+04  0.7818608E-02  0.8711589E-01
         21   -1    0    0  503  502  0.00000000000E+00  0.00000000000E+00  0.97755636521E+03  0.97755636521E+03  0.00000000000E+00 0.  1.
         21   -1    0    0  501  503 -0.00000000000E+00 -0.00000000000E+00 -0.11440489628E+04  0.11440489628E+04  0.00000000000E+00 0.  1.
    9000010    2    1    2  501    0 -0.38964060949E+03 -0.16239391603E+03 -0.15478046090E+03  0.10960522888E+04  0.99959093648E+03 0.  0.
   -9000010    2    1    2    0  502  0.38964060949E+03  0.16239391603E+03 -0.11712136690E+02  0.10255530392E+04  0.93457491593E+03 0.  0.
        -13    1    3    3    0    0 -0.33284972385E+03 -0.33437168172E+03  0.33184654613E+03  0.57681496300E+03  0.10566000000E+00 0.  1.
          4    1    3    3  501    0 -0.56790885647E+02  0.17197776569E+03 -0.48662700703E+03  0.51923732585E+03  0.00000000000E+00 0.  1.
         13    1    4    4    0    0  0.13045706786E+03 -0.33543889240E+03  0.21611561842E+03  0.41981456475E+03  0.10566000000E+00 0. -1.
         -4    1    4    4    0  502  0.25918354163E+03  0.49783280843E+03 -0.22782775511E+03  0.60573847442E+03  0.00000000000E+00 0. -1.
<mgrwt>
<rscale>  2 0.10698560E+04</rscale>
<asrwt>0</asrwt>
<pdfrwt beam="1">  1       21 0.15039329E+00 0.10850685E+04</pdfrwt>
<pdfrwt beam="2">  1       21 0.17600753E+00 0.10850685E+04</pdfrwt>
<totfact> 0.27650999E+01</totfact>
</mgrwt>
</event>
<event>
 8    1  0.1168507E-005  0.1144099E+04  0.7818608E-02  0.8666182E-01
         21   -1    0    0  503  502  0.00000000000E+00  0.00000000000E+00  0.44387235651E+03  0.44387235651E+03  0.00000000000E+00 0.  1.
         21   -1    0    0  501  503 -0.00000000000E+00 -0.00000000000E+00 -0.27502911806E+04  0.27502911806E+04  0.00000000000E+00 0.  1.
    9000010    2    1    2  501    0 -0.24853408537E+03  0.26046018166E+03 -0.10876299117E+04  0.15225151795E+04  0.10027486969E+04 0.  0.
   -9000010    2    1    2    0  502  0.24853408537E+03 -0.26046018166E+03 -0.12187889124E+04  0.16716483576E+04  0.10859802580E+04 0.  0.
        -13    1    3    3    0    0 -0.44765445723E+03  0.44155672158E+03 -0.31284431885E+03  0.70230935523E+03  0.10566000000E+00 0.  1.
          4    1    3    3  501    0  0.19912037186E+03 -0.18109653991E+03 -0.77478559281E+03  0.82020582422E+03  0.00000000000E+00 0.  1.
         13    1    4    4    0    0  0.40195783517E+03  0.10232470225E+03 -0.12084160145E+04  0.12776187699E+04  0.10566000000E+00 0. -1.
         -4    1    4    4    0  502 -0.15342374980E+03 -0.36278488392E+03 -0.10372897920E+02  0.39402958774E+03  0.00000000000E+00 0. -1.
<mgrwt>
<rscale>  2 0.11238996E+04</rscale>
<asrwt>0</asrwt>
<pdfrwt beam="1">  1       21 0.68288057E-01 0.11440987E+04</pdfrwt>
<pdfrwt beam="2">  1       21 0.42312171E+00 0.11440987E+04</pdfrwt>
<totfact> 0.36582542E+00</totfact>
</mgrwt>
</event>
<event>
 8    1  0.1168507E-005  0.1090440E+04  0.7818608E-02  0.8699178E-01
         21   -1    0    0  503  502  0.00000000000E+00  0.00000000000E+00  0.23236228112E+04  0.23236228112E+04  0.00000000000E+00 0.  1.
         21   -1    0    0  501  503 -0.00000000000E+00 -0.00000000000E+00 -0.63110670548E+03  0.63110670548E+03  0.00000000000E+00 0.  1.
    9000010    2    1    2  501    0  0.38051806057E+03 -0.11670872310E+03  0.18146059141E+03  0.11054352227E+04  0.10152064642E+04 0.  0.
   -9000010    2    1    2    0  502 -0.38051806057E+03  0.11670872310E+03  0.15110555143E+04  0.18492942939E+04  0.98903270813E+03 0.  0.
        -13    1    3    3    0    0  0.56646050466E+03  0.24552334522E+03 -0.78505674607E+02  0.62235228649E+03  0.10566000000E+00 0.  1.
          4    1    3    3  501    0 -0.18594244409E+03 -0.36223206832E+03  0.25996626601E+03  0.48308293625E+03  0.00000000000E+00 0.  1.
         13    1    4    4    0    0  0.19353543734E+02  0.45856623144E+02 -0.14023229687E+03  0.14880355436E+03  0.10566000000E+00 0. -1.
         -4    1    4    4    0  502 -0.39987160431E+03  0.70852099957E+02  0.16512878112E+04  0.17004907396E+04  0.00000000000E+00 0. -1.
<mgrwt>
<rscale>  2 0.10843070E+04</rscale>
<asrwt>0</asrwt>
<pdfrwt beam="1">  1       21 0.35748043E+00 0.10904399E+04</pdfrwt>
<pdfrwt beam="2">  1       21 0.97093341E-01 0.10904399E+04</pdfrwt>
<totfact> 0.44392149E+00</totfact>
</mgrwt>
</event>
<event>
 8    1  0.1168507E-005  0.1094211E+04  0.7818608E-02  0.8712168E-01
         21   -1    0    0  501  502  0.00000000000E+00  0.00000000000E+00  0.12517951022E+04  0.12517951022E+04  0.00000000000E+00 0.  1.
         21   -1    0    0  502  503 -0.00000000000E+00 -0.00000000000E+00 -0.88045879324E+03  0.88045879324E+03  0.00000000000E+00 0.  1.
   -9000010    2    1    2    0  503  0.41983401646E+03 -0.91754059599E+02  0.84490750959E+02  0.10010696645E+04  0.90017908068E+03 0.  0.
    9000010    2    1    2  501    0 -0.41983401646E+03  0.91754059599E+02  0.28684555795E+03  0.11311842309E+04  0.10062892136E+04 0.  0.
        -13    1    4    4    0    0 -0.53917250345E+03 -0.24502620678E+03  0.44465885041E+03  0.74058513008E+03  0.10566000000E+00 0.  1.
          4    1    4    4  501    0  0.11933848698E+03  0.33678026638E+03 -0.15781329246E+03  0.39059910084E+03  0.00000000000E+00 0.  1.
         13    1    3    3    0    0  0.69120145866E+03 -0.13170759277E+03 -0.28975798729E+02  0.70423430371E+03  0.10566000000E+00 0. -1.
         -4    1    3    3    0  503 -0.27136744220E+03  0.39953533171E+02  0.11346654969E+03  0.29683536076E+03  0.00000000000E+00 0. -1.
<mgrwt>
<rscale>  2 0.10691872E+04</rscale>
<asrwt>0</asrwt>
<pdfrwt beam="1">  1       21 0.19258386E+00 0.10942109E+04</pdfrwt>
<pdfrwt beam="2">  1       21 0.13545520E+00 0.10942109E+04</pdfrwt>
<totfact> 0.27780987E+01</totfact>
</mgrwt>
</event>
<event>
 8    1  0.1168507E-005  0.1099349E+04  0.7818608E-02  0.8709804E-01
         21   -1    0    0  501  502  0.00000000000E+00  0.00000000000E+00  0.86354535401E+03  0.86354535401E+03  0.00000000000E+00 0.  1.
         21   -1    0    0  502  503 -0.00000000000E+00 -0.00000000000E+00 -0.12723203155E+04  0.12723203155E+04  0.00000000000E+00 0.  1.
   -9000010    2    1    2    0  503 -0.32744153988E+03 -0.32113596220E+03 -0.13369588613E+03  0.10026238184E+04  0.88149512927E+03 0.  0.
    9000010    2    1    2  501    0  0.32744153988E+03  0.32113596220E+03 -0.27507907531E+03  0.11332418511E+04  0.99911076821E+03 0.  0.
        -13    1    4    4    0    0 -0.17516755101E+03  0.52760105782E+03 -0.14533066670E+03  0.57460208927E+03  0.10566000000E+00 0.  1.
          4    1    4    4  501    0  0.50260909089E+03 -0.20646509562E+03 -0.12974840861E+03  0.55863976183E+03  0.00000000000E+00 0.  1.
         13    1    3    3    0    0  0.35568912447E+02 -0.19639032312E+03 -0.45833328823E+03  0.49990371154E+03  0.10566000000E+00 0. -1.
         -4    1    3    3    0  503 -0.36301045233E+03 -0.12474563908E+03  0.32463740210E+03  0.50272010683E+03  0.00000000000E+00 0. -1.
<mgrwt>
<rscale>  2 0.10719198E+04</rscale>
<asrwt>0</asrwt>
<pdfrwt beam="1">  1       21 0.13285313E+00 0.10993492E+04</pdfrwt>
<pdfrwt beam="2">  1       21 0.19574159E+00 0.10993492E+04</pdfrwt>
<totfact> 0.27733592E+01</totfact>
</mgrwt>
</event>
<event>
 8    1  0.1168507E-005  0.1137776E+04  0.7818608E-02  0.8666638E-01
         21   -1    0    0  501  502  0.00000000000E+00  0.00000000000E+00  0.14707950632E+04  0.14707950632E+04  0.00000000000E+00 0. -1.
         21   -1    0    0  502  503 -0.00000000000E+00 -0.00000000000E+00 -0.86021890418E+03  0.86021890418E+03  0.00000000000E+00 0. -1.
   -9000010    2    1    2    0  503 -0.38024309426E+03  0.68086999209E+02  0.48961943404E+03  0.11868262487E+04  0.10097567550E+04 0.  0.
    9000010    2    1    2  501    0  0.38024309426E+03 -0.68086999209E+02  0.12095672499E+03  0.11441877187E+04  0.10701936068E+04 0.  0.
        -13    1    4    4    0    0  0.32514592109E+03 -0.56974560211E+02 -0.45686352913E+03  0.56364019190E+03  0.10566000000E+00 0.  1.
          4    1    4    4  501    0  0.55097173170E+02 -0.11112438998E+02  0.57782025412E+03  0.58054752679E+03  0.00000000000E+00 0.  1.
         13    1    3    3    0    0  0.14168687528E+03  0.26682860468E+03 -0.15032872134E+03  0.33744838202E+03  0.10566000000E+00 0. -1.
         -4    1    3    3    0  503 -0.52192996954E+03 -0.19874160547E+03  0.63994815538E+03  0.84937786669E+03  0.00000000000E+00 0. -1.
<mgrwt>
<rscale>  2 0.11233409E+04</rscale>
<asrwt>0</asrwt>
<pdfrwt beam="1">  1       21 0.22627616E+00 0.11377763E+04</pdfrwt>
<pdfrwt beam="2">  1       21 0.13234137E+00 0.11377763E+04</pdfrwt>
<totfact> 0.16232560E+01</totfact>
</mgrwt>
</event>
<event>
 8    1  0.1168507E-005  0.1163582E+04  0.7818608E-02  0.8635526E-01
         21   -1    0    0  503  502  0.00000000000E+00  0.00000000000E+00  0.15719927707E+04  0.15719927707E+04  0.00000000000E+00 0. -1.
         21   -1    0    0  501  503 -0.00000000000E+00 -0.00000000000E+00 -0.10267513914E+04  0.10267513914E+04  0.00000000000E+00 0. -1.
    9000010    2    1    2  501    0  0.33287811303E+03  0.49108926928E+03 -0.25455019436E+03  0.11910995586E+04  0.10009724514E+04 0.  0.
   -9000010    2    1    2    0  502 -0.33287811303E+03 -0.49108926928E+03  0.79979157367E+03  0.14076446036E+04  0.99489711030E+03 0.  0.
        -13    1    3    3    0    0 -0.26182616653E+03 -0.13957887217E+03 -0.68773919821E+02  0.30457358100E+03  0.10566000000E+00 0.  1.
          4    1    3    3  501    0  0.59470427956E+03  0.63066814145E+03 -0.18577627454E+03  0.88652597760E+03  0.00000000000E+00 0.  1.
         13    1    4    4    0    0  0.30495086441E+03 -0.38306641416E+03  0.48132781302E+03  0.68659404463E+03  0.10566000000E+00 0. -1.
         -4    1    4    4    0  502 -0.63782897744E+03 -0.10802285512E+03  0.31846376064E+03  0.72105055893E+03  0.00000000000E+00 0. -1.
<mgrwt>
<rscale>  2 0.11622739E+04</rscale>
<asrwt>0</asrwt>
<pdfrwt beam="1">  1       21 0.24184504E+00 0.11635817E+04</pdfrwt>
<pdfrwt beam="2">  1       21 0.15796175E+00 0.11635817E+04</pdfrwt>
<totfact> 0.72342576E+00</totfact>
</mgrwt>
</event>
<event>
 8    1  0.1168507E-005  0.1184755E+04  0.7818608E-02  0.8626787E-01
         21   -1    0    0  503  502  0.00000000000E+00  0.00000000000E+00  0.94342475430E+03  0.94342475430E+03  0.00000000000E+00 0. -1.
         21   -1    0    0  501  503 -0.00000000000E+00 -0.00000000000E+00 -0.18517784193E+04  0.18517784193E+04  0.00000000000E+00 0. -1.
    9000010    2    1    2  501    0  0.28833106842E+03  0.48627896539E+03 -0.11123143571E+04  0.15930198863E+04  0.99038734446E+03 0.  0.
   -9000010    2    1    2    0  502 -0.28833106842E+03 -0.48627896539E+03  0.20396069205E+03  0.12021832873E+04  0.10411736912E+04 0.  0.
        -13    1    3    3    0    0  0.86864496907E+02 -0.19796361130E+03  0.56775052053E+02  0.22351386964E+03  0.10566000000E+00 0.  1.
          4    1    3    3  501    0  0.20146657151E+03  0.68424257669E+03 -0.11690894091E+04  0.13695060167E+04  0.00000000000E+00 0.  1.
         13    1    4    4    0    0 -0.43396222234E+03 -0.30084057075E+03 -0.32708968574E+03  0.62114083195E+03  0.10566000000E+00 0. -1.
         -4    1    4    4    0  502  0.14563115392E+03 -0.18543839464E+03  0.53105037778E+03  0.58104245537E+03  0.00000000000E+00 0. -1.
<mgrwt>
<rscale>  2 0.11735023E+04</rscale>
<asrwt>0</asrwt>
<pdfrwt beam="1">  1       21 0.14514227E+00 0.11847551E+04</pdfrwt>
<pdfrwt beam="2">  1       21 0.28488899E+00 0.11847551E+04</pdfrwt>
<totfact> 0.45801063E+00</totfact>
</mgrwt>
</event>
<event>
 8    1  0.1168507E-005  0.1089993E+04  0.7818608E-02  0.8696932E-01
         21   -1    0    0  503  502  0.00000000000E+00  0.00000000000E+00  0.38350016791E+03  0.38350016791E+03  0.00000000000E+00 0. -1.
         21   -1    0    0  501  503 -0.00000000000E+00 -0.00000000000E+00 -0.31420218247E+04  0.31420218247E+04  0.00000000000E+00 0. -1.
    9000010    2    1    2  501    0 -0.41597910113E+03 -0.14248072880E+03 -0.16652382305E+04  0.19902521706E+04  0.99736952416E+03 0.  0.
   -9000010    2    1    2    0  502  0.41597910113E+03  0.14248072880E+03 -0.10932834263E+04  0.15352698220E+04  0.98409623791E+03 0.  0.
        -13    1    3    3    0    0  0.98730976632E+02  0.18522038019E+03 -0.12123095796E+04  0.12303450422E+04  0.10566000000E+00 0.  1.
          4    1    3    3  501    0 -0.51471007777E+03 -0.32770110899E+03 -0.45292865089E+03  0.75990712839E+03  0.00000000000E+00 0.  1.
         13    1    4    4    0    0 -0.13084072730E+03  0.41555419771E+03 -0.27988334640E+03  0.51782167385E+03  0.10566000000E+00 0. -1.
         -4    1    4    4    0  502  0.54681982843E+03 -0.27307346891E+03 -0.81340007994E+03  0.10174481482E+04  0.00000000000E+00 0. -1.
<mgrwt>
<rscale>  2 0.10869475E+04</rscale>
<asrwt>0</asrwt>
<pdfrwt beam="1">  1       21 0.59000025E-01 0.10899933E+04</pdfrwt>
<pdfrwt beam="2">  1       21 0.48338798E+00 0.10899933E+04</pdfrwt>
<totfact> 0.19813084E+00</totfact>
</mgrwt>
</event>
<event>
 8    1  0.1168507E-005  0.1167766E+04  0.7818608E-02  0.8633315E-01
         21   -1    0    0  501  502  0.00000000000E+00  0.00000000000E+00  0.14733670085E+04  0.14733670085E+04  0.00000000000E+00 0.  1.
         21   -1    0    0  502  503 -0.00000000000E+00 -0.00000000000E+00 -0.94115801960E+03  0.94115801960E+03  0.00000000000E+00 0.  1.
   -9000010    2    1    2    0  503  0.59522263325E+03  0.12242852945E+03  0.45772548826E+03  0.12443864336E+04  0.98473663766E+03 0.  0.
    9000010    2    1    2  501    0 -0.59522263325E+03 -0.12242852945E+03  0.74483500675E+02  0.11701385945E+04  0.99719497121E+03 0.  0.
        -13    1    4    4    0    0 -0.59198371871E+03 -0.47839064752E+03  0.20948622444E+03  0.78942182909E+03  0.10566000000E+00 0.  1.
          4    1    4    4  501    0 -0.32389145397E+01  0.35596211807E+03 -0.13500272377E+03  0.38071676545E+03  0.00000000000E+00 0.  1.
         13    1    3    3    0    0  0.32642748554E+03 -0.34906362075E+03 -0.75152072243E+02  0.48378524137E+03  0.10566000000E+00 0. -1.
         -4    1    3    3    0  503  0.26879514772E+03  0.47149215019E+03  0.53287756050E+03  0.76060119222E+03  0.00000000000E+00 0. -1.
<mgrwt>
<rscale>  2 0.11651014E+04</rscale>
<asrwt>0</asrwt>
<pdfrwt beam="1">  1       21 0.22667185E+00 0.11677656E+04</pdfrwt>
<pdfrwt beam="2">  1       21 0.14479354E+00 0.11677656E+04</pdfrwt>
<totfact> 0.12261797E+01</totfact>
</mgrwt>
</event>
<event>
 8    1  0.1168507E-005  0.1047850E+04  0.7818608E-02  0.8737738E-01
         21   -1    0    0  501  502  0.00000000000E+00  0.00000000000E+00  0.63435072353E+03  0.63435072353E+03  0.00000000000E+00 0. -1.
         21   -1    0    0  502  503 -0.00000000000E+00 -0.00000000000E+00 -0.17310169976E+04  0.17310169976E+04  0.00000000000E+00 0. -1.
   -9000010    2    1    2    0  503 -0.67875223695E+02 -0.97828058839E+02 -0.75706764443E+03  0.12927259010E+04  0.10410626599E+04 0.  0.
    9000010    2    1    2  501    0  0.67875223695E+02  0.97828058839E+02 -0.33959862968E+03  0.10726418202E+04  0.10104730922E+04 0.  0.
        -13    1    4    4    0    0 -0.12331734448E+03 -0.42621124066E+03 -0.24502636390E+03  0.50685414005E+03  0.10566000000E+00 0.  1.
          4    1    4    4  501    0  0.19119256818E+03  0.52403929950E+03 -0.94572265778E+02  0.56578768014E+03  0.00000000000E+00 0.  1.
         13    1    3    3    0    0 -0.27830218540E+03  0.30296414941E+03 -0.86497488297E+00  0.41138806688E+03  0.10566000000E+00 0. -1.
         -4    1    3    3    0  503  0.21042696170E+03 -0.40079220825E+03 -0.75620266954E+03  0.88133783410E+03  0.00000000000E+00 0. -1.
<mgrwt>
<rscale>  2 0.10401692E+04</rscale>
<asrwt>0</asrwt>
<pdfrwt beam="1">  1       21 0.97592421E-01 0.10478496E+04</pdfrwt>
<pdfrwt beam="2">  1       21 0.26631030E+00 0.10478496E+04</pdfrwt>
<totfact> 0.19476077E+01</totfact>
</mgrwt>
</event>
<event>
 8    1  0.1168507E-005  0.1137947E+04  0.7818608E-02  0.8664599E-01
         21   -1    0    0  501  502  0.00000000000E+00  0.00000000000E+00  0.19183531819E+04  0.19183531819E+04  0.00000000000E+00 0.  1.
         21   -1    0    0  502  503 -0.00000000000E+00 -0.00000000000E+00 -0.65827580500E+03  0.65827580500E+03  0.00000000000E+00 0.  1.
   -9000010    2    1    2    0  503 -0.39202419883E+03 -0.21293082070E+03  0.78498641624E+03  0.13434886998E+04  0.99485461549E+03 0.  0.
    9000010    2    1    2  501    0  0.39202419883E+03  0.21293082070E+03  0.47509096064E+03  0.12331402871E+04  0.10468529218E+04 0.  0.
        -13    1    4    4    0    0  0.25809599993E+03  0.52406577519E+03  0.63130548609E+03  0.86011924164E+03  0.10566000000E+00 0.  1.
          4    1    4    4  501    0  0.13392819889E+03 -0.31113495449E+03 -0.15621452546E+03  0.37302104542E+03  0.00000000000E+00 0.  1.
         13    1    3    3    0    0 -0.13646073975E+03 -0.47204565414E+03  0.84221372740E+03  0.97507569289E+03  0.10566000000E+00 0. -1.
         -4    1    3    3    0  503 -0.25556345907E+03  0.25911483343E+03 -0.57227311168E+02  0.36841300691E+03  0.00000000000E+00 0. -1.
<mgrwt>
<rscale>  2 0.11258441E+04</rscale>
<asrwt>0</asrwt>
<pdfrwt beam="1">  1       21 0.29513126E+00 0.11379471E+04</pdfrwt>
<pdfrwt beam="2">  1       21 0.10127320E+00 0.11379471E+04</pdfrwt>
<totfact> 0.10804909E+01</totfact>
</mgrwt>
</event>
<event>
 8    1  0.1168507E-005  0.1135716E+04  0.7818608E-02  0.8659917E-01
         21   -1    0    0  501  502  0.00000000000E+00  0.00000000000E+00  0.23851933589E+04  0.23851933589E+04  0.00000000000E+00 0. -1.
         21   -1    0    0  502  503 -0.00000000000E+00 -0.00000000000E+00 -0.53367378650E+03  0.53367378650E+03  0.00000000000E+00 0. -1.
   -9000010    2    1    2    0  503  0.13077253340E+01  0.53554060774E+03  0.88193502194E+03  0.14379361288E+04  0.10015215798E+04 0.  0.
    9000010    2    1    2  501    0 -0.13077253340E+01 -0.53554060774E+03  0.96958455046E+03  0.14809310166E+04  0.98298373475E+03 0.  0.
        -13    1    4    4    0    0  0.26473174424E+03 -0.41000283030E+03  0.21783558831E+02  0.48852814848E+03  0.10566000000E+00 0.  1.
          4    1    4    4  501    0 -0.26603946957E+03 -0.12553777744E+03  0.94780099163E+03  0.99240286812E+03  0.00000000000E+00 0.  1.
         13    1    3    3    0    0  0.17349875544E+03  0.77254759914E+03  0.43462835671E+03  0.90323498088E+03  0.10566000000E+00 0. -1.
         -4    1    3    3    0  503 -0.17219103011E+03 -0.23700699140E+03  0.44730666524E+03  0.53470114792E+03  0.00000000000E+00 0. -1.
<mgrwt>
<rscale>  2 0.11316156E+04</rscale>
<asrwt>0</asrwt>
<pdfrwt beam="1">  1       21 0.36695282E+00 0.11357160E+04</pdfrwt>
<pdfrwt beam="2">  1       21 0.82103660E-01 0.11357160E+04</pdfrwt>
<totfact> 0.57819768E+00</totfact>
</mgrwt>
</event>
<event>
 8    1  0.1168507E-005  0.1034556E+04  0.7818608E-02  0.8746659E-01
         21   -1    0    0  503  502  0.00000000000E+00  0.00000000000E+00  0.41843322862E+03  0.41843322862E+03  0.00000000000E+00 0. -1.
         21   -1    0    0  501  503 -0.00000000000E+00 -0.00000000000E+00 -0.25494659451E+04  0.25494659451E+04  0.00000000000E+00 0. -1.
    9000010    2    1    2  501    0  0.25956444379E+03 -0.50578428102E+02 -0.90407671956E+03  0.13739216064E+04  0.10001869765E+04 0.  0.
   -9000010    2    1    2    0  502 -0.25956444379E+03  0.50578428102E+02 -0.12269559970E+04  0.15939775673E+04  0.98255360607E+03 0.  0.
        -13    1    3    3    0    0  0.60472555574E+03 -0.10822757803E+02 -0.81560315682E+03  0.10153908855E+04  0.10566000000E+00 0.  1.
          4    1    3    3  501    0 -0.34516111195E+03 -0.39755670300E+02 -0.88473562739E+02  0.35853072090E+03  0.00000000000E+00 0.  1.
         13    1    4    4    0    0 -0.71687623986E+02 -0.24833838234E+03  0.55024034707E+02  0.26427017073E+03  0.10566000000E+00 0. -1.
         -4    1    4    4    0  502 -0.18787681980E+03  0.29891681044E+03 -0.12819800317E+04  0.13297073966E+04  0.00000000000E+00 0. -1.
<mgrwt>
<rscale>  2 0.10302699E+04</rscale>
<asrwt>0</asrwt>
<pdfrwt beam="1">  1       21 0.64374345E-01 0.10345559E+04</pdfrwt>
<pdfrwt beam="2">  1       21 0.39222552E+00 0.10345559E+04</pdfrwt>
<totfact> 0.70307268E+00</totfact>
</mgrwt>
</event>
<event>
 8    1  0.1168507E-005  0.1130747E+04  0.7818608E-02  0.8663616E-01
         21   -1    0    0  501  502  0.00000000000E+00  0.00000000000E+00  0.19564764660E+04  0.19564764660E+04  0.00000000000E+00 0. -1.
         21   -1    0    0  502  503 -0.00000000000E+00 -0.00000000000E+00 -0.67453125952E+03  0.67453125952E+03  0.00000000000E+00 0. -1.
   -9000010    2    1    2    0  503 -0.38779193451E+03  0.29278014713E+03  0.36994888355E+03  0.11897270214E+04  0.10210217480E+04 0.  0.
    9000010    2    1    2  501    0  0.38779193451E+03 -0.29278014713E+03  0.91199632290E+03  0.14412807041E+04  0.10047138777E+04 0.  0.
        -13    1    4    4    0    0 -0.84112434760E+00 -0.29494025252E+02  0.96807340916E+03  0.96852296911E+03  0.10566000000E+00 0.  1.
          4    1    4    4  501    0  0.38863305886E+03 -0.26328612188E+03 -0.56077086257E+02  0.47275773501E+03  0.00000000000E+00 0.  1.
         13    1    3    3    0    0  0.12933755381E+03  0.40956159696E+03 -0.14237117317E+03  0.45248034945E+03  0.10566000000E+00 0. -1.
         -4    1    3    3    0  503 -0.51712948832E+03 -0.11678144982E+03  0.51232005672E+03  0.73724667191E+03  0.00000000000E+00 0. -1.
<mgrwt>
<rscale>  2 0.11270528E+04</rscale>
<asrwt>0</asrwt>
<pdfrwt beam="1">  1       21 0.30099638E+00 0.11307467E+04</pdfrwt>
<pdfrwt beam="2">  1       21 0.10377404E+00 0.11307467E+04</pdfrwt>
<totfact> 0.92182168E+00</totfact>
</mgrwt>
</event>
<event>
 8    1  0.1168507E-005  0.1042972E+04  0.7818608E-02  0.8739812E-01
         21   -1    0    0  503  502  0.00000000000E+00  0.00000000000E+00  0.10552462678E+04  0.10552462678E+04  0.00000000000E+00 0. -1.
         21   -1    0    0  501  503 -0.00000000000E+00 -0.00000000000E+00 -0.10118394777E+04  0.10118394777E+04  0.00000000000E+00 0. -1.
    9000010    2    1    2  501    0 -0.19019038289E+03 -0.16376951512E+03  0.53930335589E+02  0.10443655090E+04  0.10123230707E+04 0.  0.
   -9000010    2    1    2    0  502  0.19019038289E+03  0.16376951512E+03 -0.10523545534E+02  0.10227202365E+04  0.99138948011E+03 0.  0.
        -13    1    3    3    0    0 -0.30323241377E+03  0.22320830181E+03  0.37317269720E+03  0.53012235933E+03  0.10566000000E+00 0.  1.
          4    1    3    3  501    0  0.11304203088E+03 -0.38697781693E+03 -0.31924236161E+03  0.51424314967E+03  0.00000000000E+00 0.  1.
         13    1    4    4    0    0 -0.15555757193E+03  0.12993770949E+03 -0.43160642254E+03  0.47682919549E+03  0.10566000000E+00 0. -1.
         -4    1    4    4    0  502  0.34574795481E+03  0.33831805627E+02  0.42108287700E+03  0.54589104099E+03  0.00000000000E+00 0. -1.
<mgrwt>
<rscale>  2 0.10378581E+04</rscale>
<asrwt>0</asrwt>
<pdfrwt beam="1">  1       21 0.16234558E+00 0.10429721E+04</pdfrwt>
<pdfrwt beam="2">  1       21 0.15566761E+00 0.10429721E+04</pdfrwt>
<totfact> 0.32657057E+01</totfact>
</mgrwt>
</event>
<event>
 8    1  0.1168507E-005  0.1065475E+04  0.7818608E-02  0.8720912E-01
         21   -1    0    0  503  502  0.00000000000E+00  0.00000000000E+00  0.44028358672E+03  0.44028358672E+03  0.00000000000E+00 0. -1.
         21   -1    0    0  501  503 -0.00000000000E+00 -0.00000000000E+00 -0.27148045676E+04  0.27148045676E+04  0.00000000000E+00 0. -1.
    9000010    2    1    2  501    0  0.32598443456E+03  0.17750403974E+03 -0.15743788823E+04  0.19010273483E+04  0.99873048332E+03 0.  0.
   -9000010    2    1    2    0  502 -0.32598443456E+03 -0.17750403974E+03 -0.70014209864E+03  0.12540608061E+04  0.97195473727E+03 0.  0.
        -13    1    3    3    0    0  0.48446004039E+03  0.50385483230E+03 -0.95958185593E+03  0.11871682998E+04  0.10566000000E+00 0.  1.
          4    1    3    3  501    0 -0.15847560583E+03 -0.32635079256E+03 -0.61479702635E+03  0.71385904845E+03  0.00000000000E+00 0.  1.
         13    1    4    4    0    0  0.33307684887E+03 -0.28541420747E+01 -0.36565452071E+03  0.49462265724E+03  0.10566000000E+00 0. -1.
         -4    1    4    4    0  502 -0.65906128344E+03 -0.17464989767E+03 -0.33448757794E+03  0.75943814881E+03  0.00000000000E+00 0. -1.
<mgrwt>
<rscale>  2 0.10591544E+04</rscale>
<asrwt>0</asrwt>
<pdfrwt beam="1">  1       21 0.67735938E-01 0.10654746E+04</pdfrwt>
<pdfrwt beam="2">  1       21 0.41766223E+00 0.10654746E+04</pdfrwt>
<totfact> 0.41318727E+00</totfact>
</mgrwt>
</event>
<event>
 8    1  0.1168507E-005  0.1930911E+04  0.7818608E-02  0.8198141E-01
         21   -1    0    0  501  502  0.00000000000E+00  0.00000000000E+00  0.29098112127E+04  0.29098112127E+04  0.00000000000E+00 0.  1.
         21   -1    0    0  502  503 -0.00000000000E+00 -0.00000000000E+00 -0.14066089296E+04  0.14066089296E+04  0.00000000000E+00 0. -1.
   -9000010    2    1    2    0  503  0.13438893740E+04 -0.95533816408E+03  0.92993420254E+02  0.19331490743E+04  0.10048422314E+04 0.  0.
    9000010    2    1    2  501    0 -0.13438893740E+04  0.95533816408E+03  0.14102088629E+04  0.23832710680E+04  0.98619586757E+03 0.  0.
        -13    1    4    4    0    0 -0.42922803405E+02  0.43114754810E+03  0.61851063779E+02  0.43767126995E+03  0.10566000000E+00 0.  1.
          4    1    4    4  501    0 -0.13009665706E+04  0.52419061597E+03  0.13483577991E+04  0.19455997980E+04  0.00000000000E+00 0.  1.
         13    1    3    3    0    0  0.25710640853E+03 -0.95148978154E+01  0.38507661689E+03  0.46311796621E+03  0.10566000000E+00 0. -1.
         -4    1    3    3    0  503  0.10867829655E+04 -0.94582326626E+03 -0.29208319663E+03  0.14700311081E+04  0.00000000000E+00 0. -1.
<mgrwt>
<rscale>  2 0.19284972E+04</rscale>
<asrwt>0</asrwt>
<pdfrwt beam="1">  1       21 0.44766326E+00 0.19309111E+04</pdfrwt>
<pdfrwt beam="2">  1       21 0.21640137E+00 0.19309111E+04</pdfrwt>
<totfact> 0.75441855E-02</totfact>
</mgrwt>
</event>
<event>
 8    1  0.1168507E-005  0.1150207E+04  0.7818608E-02  0.8646019E-01
         21   -1    0    0  501  502  0.00000000000E+00  0.00000000000E+00  0.68470657742E+03  0.68470657742E+03  0.00000000000E+00 0. -1.
         21   -1    0    0  502  503 -0.00000000000E+00 -0.00000000000E+00 -0.20313597775E+04  0.20313597775E+04  0.00000000000E+00 0. -1.
   -9000010    2    1    2    0  503  0.24262444806E+03 -0.51532197733E+03 -0.98438734272E+03  0.15101589859E+04  0.99354836774E+03 0.  0.
    9000010    2    1    2  501    0 -0.24262444806E+03  0.51532197733E+03 -0.36226585737E+03  0.12059073690E+04  0.99927607206E+03 0.  0.
        -13    1    4    4    0    0 -0.51740062156E+02 -0.16814887310E+03  0.22442333819E+03  0.28516122360E+03  0.10566000000E+00 0.  1.
          4    1    4    4  501    0 -0.19088438590E+03  0.68347085043E+03 -0.58668919556E+03  0.92074614545E+03  0.00000000000E+00 0.  1.
         13    1    3    3    0    0 -0.11783495037E+03  0.26221789213E+03 -0.27091652105E+03  0.39501781102E+03  0.10566000000E+00 0. -1.
         -4    1    3    3    0  503  0.36045939843E+03 -0.77753986946E+03 -0.71347082167E+03  0.11151411749E+04  0.00000000000E+00 0. -1.
<mgrwt>
<rscale>  2 0.11489618E+04</rscale>
<asrwt>0</asrwt>
<pdfrwt beam="1">  1       21 0.10533947E+00 0.11502070E+04</pdfrwt>
<pdfrwt beam="2">  1       21 0.31251689E+00 0.11502070E+04</pdfrwt>
<totfact> 0.73150734E+00</totfact>
</mgrwt>
</event>
<event>
 8    1  0.1168507E-005  0.1110946E+04  0.7818608E-02  0.8680135E-01
         21   -1    0    0  501  502  0.00000000000E+00  0.00000000000E+00  0.21417205140E+04  0.21417205140E+04  0.00000000000E+00 0.  1.
         21   -1    0    0  502  503 -0.00000000000E+00 -0.00000000000E+00 -0.59431723289E+03  0.59431723289E+03  0.00000000000E+00 0.  1.
   -9000010    2    1    2    0  503 -0.21808183176E+03 -0.39777566077E+03  0.49139145059E+03  0.12147705115E+04  0.10141088089E+04 0.  0.
    9000010    2    1    2  501    0  0.21808183176E+03  0.39777566077E+03  0.10560118305E+04  0.15212672354E+04  0.99664830990E+03 0.  0.
        -13    1    4    4    0    0  0.37804098564E+03 -0.22870253892E+03  0.34785869216E+03  0.56233932728E+03  0.10566000000E+00 0.  1.
          4    1    4    4  501    0 -0.15995915387E+03  0.62647819968E+03  0.70815313838E+03  0.95892790813E+03  0.00000000000E+00 0.  1.
         13    1    3    3    0    0  0.74533645313E+02 -0.12547167072E+02  0.68832378065E+03  0.69246107028E+03  0.10566000000E+00 0. -1.
         -4    1    3    3    0  503 -0.29261547708E+03 -0.38522849369E+03 -0.19693233006E+03  0.52230944123E+03  0.00000000000E+00 0. -1.
<mgrwt>
<rscale>  2 0.11069460E+04</rscale>
<asrwt>0</asrwt>
<pdfrwt beam="1">  1       21 0.32949546E+00 0.11109464E+04</pdfrwt>
<pdfrwt beam="2">  1       21 0.91433421E-01 0.11109464E+04</pdfrwt>
<totfact> 0.81009480E+00</totfact>
</mgrwt>
</event>
<event>
 8    1  0.1168507E-005  0.1369299E+04  0.7818608E-02  0.8490134E-01
         21   -1    0    0  501  502  0.00000000000E+00  0.00000000000E+00  0.74046638318E+03  0.74046638318E+03  0.00000000000E+00 0. -1.
         21   -1    0    0  502  503 -0.00000000000E+00 -0.00000000000E+00 -0.25193089415E+04  0.25193089415E+04  0.00000000000E+00 0. -1.
   -9000010    2    1    2    0  503  0.78524406381E+03 -0.46922547469E+03 -0.86062854653E+03  0.16173002027E+04  0.10189198519E+04 0.  0.
    9000010    2    1    2  501    0 -0.78524406381E+03  0.46922547469E+03 -0.91821401184E+03  0.16424751221E+04  0.10088740106E+04 0.  0.
        -13    1    4    4    0    0  0.19412487856E+01  0.49525422679E+02 -0.72882942249E+03  0.73051274746E+03  0.10566000000E+00 0.  1.
          4    1    4    4  501    0 -0.78718531260E+03  0.41970005202E+03 -0.18938458934E+03  0.91196237461E+03  0.00000000000E+00 0.  1.
         13    1    3    3    0    0  0.93516652954E+03 -0.11665190993E+03 -0.78556942730E+03  0.12268917810E+04  0.10566000000E+00 0. -1.
         -4    1    3    3    0  503 -0.14992246573E+03 -0.35257356477E+03 -0.75059119222E+02  0.39040842163E+03  0.00000000000E+00 0. -1.
<mgrwt>
<rscale>  2 0.13674300E+04</rscale>
<asrwt>0</asrwt>
<pdfrwt beam="1">  1       21 0.11391791E+00 0.13692985E+04</pdfrwt>
<pdfrwt beam="2">  1       21 0.38758598E+00 0.13692985E+04</pdfrwt>
<totfact> 0.16850798E+00</totfact>
</mgrwt>
</event>
<event>
 8    1  0.1168507E-005  0.1058339E+04  0.7818608E-02  0.8722072E-01
         21   -1    0    0  501  502  0.00000000000E+00  0.00000000000E+00  0.69034963663E+03  0.69034963663E+03  0.00000000000E+00 0.  1.
         21   -1    0    0  502  503 -0.00000000000E+00 -0.00000000000E+00 -0.17009057480E+04  0.17009057480E+04  0.00000000000E+00 0.  1.
   -9000010    2    1    2    0  503 -0.22408249451E+03 -0.18286595256E+03 -0.76657852566E+03  0.13051589561E+04  0.10159450496E+04 0.  0.
    9000010    2    1    2  501    0  0.22408249451E+03  0.18286595256E+03 -0.24397758568E+03  0.10860964285E+04  0.10180508183E+04 0.  0.
        -13    1    4    4    0    0 -0.22687203277E+03 -0.15714920290E+02  0.28405078693E+03  0.36387187126E+03  0.10566000000E+00 0.  1.
          4    1    4    4  501    0  0.45095452728E+03  0.19858087285E+03 -0.52802837261E+03  0.72222455719E+03  0.00000000000E+00 0.  1.
         13    1    3    3    0    0  0.36862097259E+02 -0.48882793550E+03 -0.62293119489E+02  0.49415787826E+03  0.10566000000E+00 0. -1.
         -4    1    3    3    0  503 -0.26094459177E+03  0.30596198295E+03 -0.70428540617E+03  0.81100107788E+03  0.00000000000E+00 0. -1.
<mgrwt>
<rscale>  2 0.10578318E+04</rscale>
<asrwt>0</asrwt>
<pdfrwt beam="1">  1       21 0.10620764E+00 0.10583385E+04</pdfrwt>
<pdfrwt beam="2">  1       21 0.26167781E+00 0.10583385E+04</pdfrwt>
<totfact> 0.16786100E+01</totfact>
</mgrwt>
</event>
<event>
 8    1  0.1168507E-005  0.1064076E+04  0.7818608E-02  0.8722749E-01
         21   -1    0    0  501  502  0.00000000000E+00  0.00000000000E+00  0.12431523426E+04  0.12431523426E+04  0.00000000000E+00 0.  1.
         21   -1    0    0  502  503 -0.00000000000E+00 -0.00000000000E+00 -0.91537047361E+03  0.91537047361E+03  0.00000000000E+00 0.  1.
   -9000010    2    1    2    0  503 -0.27597428131E+03  0.26110574725E+03 -0.27618117433E+02  0.10366642724E+04  0.96414316265E+03 0.  0.
    9000010    2    1    2  501    0  0.27597428131E+03 -0.26110574725E+03  0.35539998645E+03  0.11218585438E+04  0.99394135985E+03 0.  0.
        -13    1    4    4    0    0  0.29492954972E+03  0.34681682700E+03  0.13362898564E+03  0.47447030229E+03  0.10566000000E+00 0.  1.
          4    1    4    4  501    0 -0.18955268412E+02 -0.60792257425E+03  0.22177100081E+03  0.64738824154E+03  0.00000000000E+00 0.  1.
         13    1    3    3    0    0  0.11560558467E+03  0.47258851264E+03  0.21258508054E+03  0.53093971515E+03  0.10566000000E+00 0. -1.
         -4    1    3    3    0  503 -0.39157986597E+03 -0.21148276539E+03 -0.24020319798E+03  0.50572455726E+03  0.00000000000E+00 0. -1.
<mgrwt>
<rscale>  2 0.10570619E+04</rscale>
<asrwt>0</asrwt>
<pdfrwt beam="1">  1       21 0.19125421E+00 0.10640759E+04</pdfrwt>
<pdfrwt beam="2">  1       21 0.14082623E+00 0.10640759E+04</pdfrwt>
<totfact> 0.25524801E+01</totfact>
</mgrwt>
</event>
<event>
 8    1  0.1168507E-005  0.1101268E+04  0.7818608E-02  0.8686313E-01
         21   -1    0    0  501  502  0.00000000000E+00  0.00000000000E+00  0.55519149992E+03  0.55519149992E+03  0.00000000000E+00 0.  1.
         21   -1    0    0  502  503 -0.00000000000E+00 -0.00000000000E+00 -0.22231942267E+04  0.22231942267E+04  0.00000000000E+00 0.  1.
   -9000010    2    1    2    0  503  0.40826530165E+03 -0.17459025447E+03 -0.10447331292E+04  0.15129783914E+04  0.10002369660E+04 0.  0.
    9000010    2    1    2  501    0 -0.40826530165E+03  0.17459025447E+03 -0.62326959757E+03  0.12654073352E+04  0.10077839150E+04 0.  0.
        -13    1    4    4    0    0 -0.59317152990E+03  0.39572212312E+03 -0.17793042731E+03  0.73492020705E+03  0.10566000000E+00 0.  1.
          4    1    4    4  501    0  0.18490622825E+03 -0.22113186865E+03 -0.44533917026E+03  0.53048712816E+03  0.00000000000E+00 0.  1.
         13    1    3    3    0    0  0.66685853815E+03 -0.26477165674E+03 -0.10070826959E+04  0.12365354454E+04  0.10566000000E+00 0. -1.
         -4    1    3    3    0  503 -0.25859323650E+03  0.90181402273E+02 -0.37650433301E+02  0.27644294603E+03  0.00000000000E+00 0. -1.
<mgrwt>
<rscale>  2 0.10995382E+04</rscale>
<asrwt>0</asrwt>
<pdfrwt beam="1">  1       21 0.85414079E-01 0.11012678E+04</pdfrwt>
<pdfrwt beam="2">  1       21 0.34202987E+00 0.11012678E+04</pdfrwt>
<totfact> 0.78916232E+00</totfact>
</mgrwt>
</event>
<event>
 8    1  0.1168507E-005  0.1339568E+04  0.7818608E-02  0.8509605E-01
         21   -1    0    0  503  502  0.00000000000E+00  0.00000000000E+00  0.91885856437E+03  0.91885856437E+03  0.00000000000E+00 0. -1.
         21   -1    0    0  501  503 -0.00000000000E+00 -0.00000000000E+00 -0.19417041659E+04  0.19417041659E+04  0.00000000000E+00 0. -1.
    9000010    2    1    2  501    0  0.75146040746E+03 -0.46566170067E+03 -0.48709727649E+03  0.14178328456E+04  0.99571715750E+03 0.  0.
   -9000010    2    1    2    0  502 -0.75146040746E+03  0.46566170067E+03 -0.53574832500E+03  0.14427298847E+04  0.10064341453E+04 0.  0.
        -13    1    3    3    0    0  0.89569513931E+03 -0.59171228030E+03 -0.56254015989E+03  0.12119590125E+04  0.10566000000E+00 0.  1.
          4    1    3    3  501    0 -0.14423473186E+03  0.12605057963E+03  0.75442883403E+02  0.20587383310E+03  0.00000000000E+00 0.  1.
         13    1    4    4    0    0 -0.51784981109E+02 -0.24515308912E+03 -0.34639349914E+03  0.42751630236E+03  0.10566000000E+00 0. -1.
         -4    1    4    4    0  502 -0.69967542635E+03  0.71081478979E+03 -0.18935482586E+03  0.10152135823E+04  0.00000000000E+00 0. -1.
<mgrwt>
<rscale>  2 0.13375555E+04</rscale>
<asrwt>0</asrwt>
<pdfrwt beam="1">  1       21 0.14136286E+00 0.13395683E+04</pdfrwt>
<pdfrwt beam="2">  1       21 0.29872371E+00 0.13395683E+04</pdfrwt>
<totfact> 0.38351168E+00</totfact>
</mgrwt>
</event>
<event>
 8    1  0.1168507E-005  0.1049249E+04  0.7818608E-02  0.8738662E-01
         21   -1    0    0  503  502  0.00000000000E+00  0.00000000000E+00  0.71962743759E+03  0.71962743759E+03  0.00000000000E+00 0. -1.
         21   -1    0    0  501  503 -0.00000000000E+00 -0.00000000000E+00 -0.15054754545E+04  0.15054754545E+04  0.00000000000E+00 0. -1.
    9000010    2    1    2  501    0 -0.12524980218E+03  0.29400901259E+03 -0.22031614147E+03  0.10331507281E+04  0.95746144169E+03 0.  0.
   -9000010    2    1    2    0  502  0.12524980218E+03 -0.29400901259E+03 -0.56553187546E+03  0.11919521640E+04  0.99939724172E+03 0.  0.
        -13    1    3    3    0    0 -0.37964797536E+03  0.53347530136E+03 -0.19341117643E+03  0.68274180822E+03  0.10566000000E+00 0.  1.
          4    1    3    3  501    0  0.25439817318E+03 -0.23946628877E+03 -0.26904965037E+02  0.35040891987E+03  0.00000000000E+00 0.  1.
         13    1    4    4    0    0  0.37398936799E+02  0.38389844429E+02  0.27691251745E+03  0.28205143877E+03  0.10566000000E+00 0. -1.
         -4    1    4    4    0  502  0.87850865377E+02 -0.33239885702E+03 -0.84244439291E+03  0.90990072527E+03  0.00000000000E+00 0. -1.
<mgrwt>
<rscale>  2 0.10391382E+04</rscale>
<asrwt>0</asrwt>
<pdfrwt beam="1">  1       21 0.11071191E+00 0.10492491E+04</pdfrwt>
<pdfrwt beam="2">  1       21 0.23161161E+00 0.10492491E+04</pdfrwt>
<totfact> 0.24935203E+01</totfact>
</mgrwt>
</event>
<event>
 8    1  0.1168507E-005  0.1299221E+04  0.7818608E-02  0.8548345E-01
         21   -1    0    0  501  502  0.00000000000E+00  0.00000000000E+00  0.67554915338E+03  0.67554915338E+03  0.00000000000E+00 0.  1.
         21   -1    0    0  502  503 -0.00000000000E+00 -0.00000000000E+00 -0.24055372945E+04  0.24055372945E+04  0.00000000000E+00 0. -1.
   -9000010    2    1    2    0  503 -0.47950742464E+03 -0.73647930587E+03 -0.10540909617E+04  0.16165683596E+04  0.85431631579E+03 0.  0.
    9000010    2    1    2  501    0  0.47950742464E+03  0.73647930587E+03 -0.67589717944E+03  0.14645180883E+04  0.95689450594E+03 0.  0.
        -13    1    4    4    0    0  0.24497332293E+03 -0.19453650883E+03 -0.30008815184E+03  0.43348505424E+03  0.10566000000E+00 0.  1.
          4    1    4    4  501    0  0.23453410171E+03  0.93101581470E+03 -0.37580902760E+03  0.10310330341E+04  0.00000000000E+00 0.  1.
         13    1    3    3    0    0  0.21971963729E+03 -0.12839583109E+03 -0.68022760285E+02  0.26341851782E+03  0.10566000000E+00 0. -1.
         -4    1    3    3    0  503 -0.69922706193E+03 -0.60808347478E+03 -0.98606820137E+03  0.13531498417E+04  0.00000000000E+00 0. -1.
<mgrwt>
<rscale>  2 0.12804211E+04</rscale>
<asrwt>0</asrwt>
<pdfrwt beam="1">  1       21 0.10393064E+00 0.12992214E+04</pdfrwt>
<pdfrwt beam="2">  1       21 0.37008267E+00 0.12992214E+04</pdfrwt>
<totfact> 0.29027328E+00</totfact>
</mgrwt>
</event>
<event>
 8    1  0.1168507E-005  0.1170608E+04  0.7818608E-02  0.8631059E-01
         21   -1    0    0  501  502  0.00000000000E+00  0.00000000000E+00  0.74576179988E+03  0.74576179988E+03  0.00000000000E+00 0.  1.
         21   -1    0    0  502  503 -0.00000000000E+00 -0.00000000000E+00 -0.20067706285E+04  0.20067706285E+04  0.00000000000E+00 0.  1.
   -9000010    2    1    2    0  503  0.16152576509E+03  0.57646728001E+03 -0.10515908410E+04  0.15735838374E+04  0.10059412004E+04 0.  0.
    9000010    2    1    2  501    0 -0.16152576509E+03 -0.57646728001E+03 -0.20941798769E+03  0.11789485911E+04  0.99381023798E+03 0.  0.
        -13    1    4    4    0    0 -0.33040607752E+02 -0.73601319377E+02  0.38295718409E+03  0.39136306927E+03  0.10566000000E+00 0.  1.
          4    1    4    4  501    0 -0.12848515733E+03 -0.50286596063E+03 -0.59237517178E+03  0.78758552181E+03  0.00000000000E+00 0.  1.
         13    1    3    3    0    0 -0.28360857673E+03  0.36424995849E+03 -0.59197067989E+02  0.46542041326E+03  0.10566000000E+00 0. -1.
         -4    1    3    3    0  503  0.44513434182E+03  0.21221732152E+03 -0.99239377300E+03  0.11081634241E+04  0.00000000000E+00 0. -1.
<mgrwt>
<rscale>  2 0.11679972E+04</rscale>
<asrwt>0</asrwt>
<pdfrwt beam="1">  1       21 0.11473259E+00 0.11706079E+04</pdfrwt>
<pdfrwt beam="2">  1       21 0.30873394E+00 0.11706079E+04</pdfrwt>
<totfact> 0.61414063E+00</totfact>
</mgrwt>
</event>
<event>
 8    1  0.1168507E-005  0.1086461E+04  0.7818608E-02  0.8699188E-01
         21   -1    0    0  503  502  0.00000000000E+00  0.00000000000E+00  0.14509492736E+04  0.14509492736E+04  0.00000000000E+00 0.  1.
         21   -1    0    0  501  503 -0.00000000000E+00 -0.00000000000E+00 -0.94864189376E+03  0.94864189376E+03  0.00000000000E+00 0.  1.
    9000010    2    1    2  501    0 -0.11582903876E+03  0.40837838819E+03 -0.21147268288E+03  0.11068509300E+04  0.10001045002E+04 0.  0.
   -9000010    2    1    2    0  502  0.11582903876E+03 -0.40837838819E+03  0.71378006269E+03  0.12927402374E+04  0.99070988148E+03 0.  0.
        -13    1    3    3    0    0  0.38157504144E+03  0.28830427701E+02  0.11706069640E+03  0.40016736951E+03  0.10566000000E+00 0.  1.
          4    1    3    3  501    0 -0.49740408020E+03  0.37954796049E+03 -0.32853337928E+03  0.70668356045E+03  0.00000000000E+00 0.  1.
         13    1    4    4    0    0 -0.20521749048E+03 -0.30895213241E+03 -0.12318202351E+03  0.39081896141E+03  0.10566000000E+00 0. -1.
         -4    1    4    4    0  502  0.32104652924E+03 -0.99426255782E+02  0.83696208621E+03  0.90192127596E+03  0.00000000000E+00 0. -1.
<mgrwt>
<rscale>  2 0.10842945E+04</rscale>
<asrwt>0</asrwt>
<pdfrwt beam="1">  1       21 0.22322296E+00 0.10864614E+04</pdfrwt>
<pdfrwt beam="2">  1       21 0.14594491E+00 0.10864614E+04</pdfrwt>
<totfact> 0.12929013E+01</totfact>
</mgrwt>
</event>
<event>
 8    1  0.1168507E-005  0.1155521E+04  0.7818608E-02  0.8645269E-01
         21   -1    0    0  503  502  0.00000000000E+00  0.00000000000E+00  0.18509637239E+04  0.18509637239E+04  0.00000000000E+00 0. -1.
         21   -1    0    0  501  503 -0.00000000000E+00 -0.00000000000E+00 -0.71035920831E+03  0.71035920831E+03  0.00000000000E+00 0. -1.
    9000010    2    1    2  501    0  0.47860288236E+03  0.15980229662E+03  0.49486892464E+03  0.12570294113E+04  0.10395336431E+04 0.  0.
   -9000010    2    1    2    0  502 -0.47860288236E+03 -0.15980229662E+03  0.64573559099E+03  0.13042935210E+04  0.10146968229E+04 0.  0.
        -13    1    3    3    0    0 -0.32436003428E+03 -0.60348290596E+01  0.63515697293E+02  0.33057541646E+03  0.10566000000E+00 0.  1.
          4    1    3    3  501    0  0.80296291663E+03  0.16583712568E+03  0.43135322735E+03  0.92645399480E+03  0.00000000000E+00 0.  1.
         13    1    4    4    0    0 -0.45975114933E+03 -0.22069166102E+03 -0.12972539769E+03  0.52621727312E+03  0.10566000000E+00 0. -1.
         -4    1    4    4    0  502 -0.18851733023E+02  0.60889364407E+02  0.77546098868E+03  0.77807624787E+03  0.00000000000E+00 0. -1.
<mgrwt>
<rscale>  2 0.11499068E+04</rscale>
<asrwt>0</asrwt>
<pdfrwt beam="1">  1       21 0.28476365E+00 0.11555205E+04</pdfrwt>
<pdfrwt beam="2">  1       21 0.10928603E+00 0.11555205E+04</pdfrwt>
<totfact> 0.10406177E+01</totfact>
</mgrwt>
</event>
<event>
 8    1  0.1168507E-005  0.1277984E+04  0.7818608E-02  0.8555077E-01
         21   -1    0    0  503  502  0.00000000000E+00  0.00000000000E+00  0.24038386651E+04  0.24038386651E+04  0.00000000000E+00 0. -1.
         21   -1    0    0  501  503 -0.00000000000E+00 -0.00000000000E+00 -0.76273730016E+03  0.76273730016E+03  0.00000000000E+00 0. -1.
    9000010    2    1    2  501    0  0.31198753337E+03 -0.75602561160E+03  0.26001808592E+03  0.13041670230E+04  0.98200370286E+03 0.  0.
   -9000010    2    1    2    0  502 -0.31198753337E+03  0.75602561160E+03  0.13810832790E+04  0.18624089423E+04  0.94459785006E+03 0.  0.
        -13    1    3    3    0    0 -0.21385431644E+03 -0.58643290676E+03  0.39071301873E+03  0.73640606799E+03  0.10566000000E+00 0.  1.
          4    1    3    3  501    0  0.52584184981E+03 -0.16959270483E+03 -0.13069493281E+03  0.56776095499E+03  0.00000000000E+00 0.  1.
         13    1    4    4    0    0  0.23090081082E+03 -0.47317650199E+02  0.10063427314E+03  0.25628385152E+03  0.10566000000E+00 0. -1.
         -4    1    4    4    0  502 -0.54288834418E+03  0.80334326180E+03  0.12804490058E+04  0.16061250907E+04  0.00000000000E+00 0. -1.
<mgrwt>
<rscale>  2 0.12707949E+04</rscale>
<asrwt>0</asrwt>
<pdfrwt beam="1">  1       21 0.36982133E+00 0.12779837E+04</pdfrwt>
<pdfrwt beam="2">  1       21 0.11734420E+00 0.12779837E+04</pdfrwt>
<totfact> 0.21027262E+00</totfact>
</mgrwt>
</event>
<event>
 8    1  0.1168507E-005  0.1067952E+04  0.7818608E-02  0.8716246E-01
         21   -1    0    0  503  502  0.00000000000E+00  0.00000000000E+00  0.63714669051E+03  0.63714669051E+03  0.00000000000E+00 0.  1.
         21   -1    0    0  501  503 -0.00000000000E+00 -0.00000000000E+00 -0.21300513822E+04  0.21300513822E+04  0.00000000000E+00 0.  1.
    9000010    2    1    2  501    0  0.77533815586E+02  0.32440361558E+03 -0.13216389445E+04  0.16991914572E+04  0.10145308818E+04 0.  0.
   -9000010    2    1    2    0  502 -0.77533815586E+02 -0.32440361558E+03 -0.17126574712E+03  0.10680066155E+04  0.10000284877E+04 0.  0.
        -13    1    3    3    0    0  0.16736557421E+02  0.68870045990E+03 -0.96584867142E+03  0.11863608655E+04  0.10566000000E+00 0.  1.
          4    1    3    3  501    0  0.60797258165E+02 -0.36429684432E+03 -0.35579027312E+03  0.51283059174E+03  0.00000000000E+00 0.  1.
         13    1    4    4    0    0 -0.17889624575E+03 -0.55226304861E+03  0.20581275222E+03  0.61591983386E+03  0.10566000000E+00 0. -1.
         -4    1    4    4    0  502  0.10136243016E+03  0.22785943303E+03 -0.37707849933E+03  0.45208678163E+03  0.00000000000E+00 0. -1.
<mgrwt>
<rscale>  2 0.10644937E+04</rscale>
<asrwt>0</asrwt>
<pdfrwt beam="1">  1       21 0.98022567E-01 0.10679523E+04</pdfrwt>
<pdfrwt beam="2">  1       21 0.32770021E+00 0.10679523E+04</pdfrwt>
<totfact> 0.70431033E+00</totfact>
</mgrwt>
</event>
<event>
 8    1  0.1168507E-005  0.1175467E+04  0.7818608E-02  0.8625571E-01
         21   -1    0    0  501  502  0.00000000000E+00  0.00000000000E+00  0.18575383093E+04  0.18575383093E+04  0.00000000000E+00 0. -1.
         21   -1    0    0  502  503 -0.00000000000E+00 -0.00000000000E+00 -0.77773270599E+03  0.77773270599E+03  0.00000000000E+00 0. -1.
   -9000010    2    1    2    0  503 -0.57738968764E+03 -0.19886601586E+03  0.81927744941E+03  0.14328079842E+04  0.10043886881E+04 0.  0.
    9000010    2    1    2  501    0  0.57738968764E+03  0.19886601586E+03  0.26052815388E+03  0.12024630311E+04  0.10025546761E+04 0.  0.
        -13    1    4    4    0    0  0.12984524852E+03 -0.39208449918E+03 -0.10544928722E+02  0.41316007763E+03  0.10566000000E+00 0.  1.
          4    1    4    4  501    0  0.44754443911E+03  0.59095051505E+03  0.27107308261E+03  0.78930295345E+03  0.00000000000E+00 0.  1.
         13    1    3    3    0    0  0.18458800315E+03 -0.15572931149E+03  0.58748513803E+03  0.63518749038E+03  0.10566000000E+00 0. -1.
         -4    1    3    3    0  503 -0.76197769078E+03 -0.43136704378E+02  0.23179231138E+03  0.79762049380E+03  0.00000000000E+00 0. -1.
<mgrwt>
<rscale>  2 0.11750753E+04</rscale>
<asrwt>0</asrwt>
<pdfrwt beam="1">  1       21 0.28577512E+00 0.11754672E+04</pdfrwt>
<pdfrwt beam="2">  1       21 0.11965119E+00 0.11754672E+04</pdfrwt>
<totfact> 0.79420722E+00</totfact>
</mgrwt>
</event>
<event>
 8    1  0.1168507E-005  0.1035181E+04  0.7818608E-02  0.8746302E-01
         21   -1    0    0  503  502  0.00000000000E+00  0.00000000000E+00  0.15559291718E+04  0.15559291718E+04  0.00000000000E+00 0.  1.
         21   -1    0    0  501  503 -0.00000000000E+00 -0.00000000000E+00 -0.67683177737E+03  0.67683177737E+03  0.00000000000E+00 0.  1.
    9000010    2    1    2  501    0 -0.60272787537E+02  0.25865918630E+03  0.44153195306E+03  0.11254114537E+04  0.10005314042E+04 0.  0.
   -9000010    2    1    2    0  502  0.60272787537E+02 -0.25865918630E+03  0.43756544140E+03  0.11073494956E+04  0.98194806697E+03 0.  0.
        -13    1    3    3    0    0  0.28780309436E+03 -0.27483555464E+03  0.18125114566E+03  0.43728388054E+03  0.10566000000E+00 0.  1.
          4    1    3    3  501    0 -0.34807588190E+03  0.53349474094E+03  0.26028080741E+03  0.68812757311E+03  0.00000000000E+00 0.  1.
         13    1    4    4    0    0 -0.43440114285E+03 -0.47021833687E+01  0.31854555594E+03  0.53870005180E+03  0.10566000000E+00 0. -1.
         -4    1    4    4    0  502  0.49467393039E+03 -0.25395700293E+03  0.11901988547E+03  0.56864944375E+03  0.00000000000E+00 0. -1.
<mgrwt>
<rscale>  2 0.10306644E+04</rscale>
<asrwt>0</asrwt>
<pdfrwt beam="1">  1       21 0.23937372E+00 0.10351814E+04</pdfrwt>
<pdfrwt beam="2">  1       21 0.10412797E+00 0.10351814E+04</pdfrwt>
<totfact> 0.25839436E+01</totfact>
</mgrwt>
</event>
<event>
 8    1  0.1168507E-005  0.1078217E+04  0.7818608E-02  0.8707456E-01
         21   -1    0    0  503  502  0.00000000000E+00  0.00000000000E+00  0.33978274526E+04  0.33978274526E+04  0.00000000000E+00 0.  1.
         21   -1    0    0  501  503 -0.00000000000E+00 -0.00000000000E+00 -0.36425217581E+03  0.36425217581E+03  0.00000000000E+00 0.  1.
    9000010    2    1    2  501    0  0.16092192909E+03  0.31685491532E+03  0.20158230878E+04  0.22793890186E+04  0.10028851738E+04 0.  0.
   -9000010    2    1    2    0  502 -0.16092192909E+03 -0.31685491532E+03  0.10177521889E+04  0.14826906098E+04  0.10179680849E+04 0.  0.
        -13    1    3    3    0    0  0.26008008351E+03  0.60837065628E+03  0.17559535424E+04  0.18764672551E+04  0.10566000000E+00 0.  1.
          4    1    3    3  501    0 -0.99158154424E+02 -0.29151574096E+03  0.25986954546E+03  0.40292176347E+03  0.00000000000E+00 0.  1.
         13    1    4    4    0    0 -0.11455603832E+03  0.30783726286E+03  0.53436364865E+02  0.33277969075E+03  0.10566000000E+00 0. -1.
         -4    1    4    4    0  502 -0.46365890768E+02 -0.62469217817E+03  0.96431582407E+03  0.11499109191E+04  0.00000000000E+00 0. -1.
<mgrwt>
<rscale>  2 0.10746422E+04</rscale>
<asrwt>0</asrwt>
<pdfrwt beam="1">  1       21 0.52274267E+00 0.10782170E+04</pdfrwt>
<pdfrwt beam="2">  1       21 0.56038798E-01 0.10782170E+04</pdfrwt>
<totfact> 0.11855017E+00</totfact>
</mgrwt>
</event>
<event>
 8    1  0.1168507E-005  0.1163009E+04  0.7818608E-02  0.8636584E-01
         21   -1    0    0  503  502  0.00000000000E+00  0.00000000000E+00  0.29115021490E+04  0.29115021490E+04  0.00000000000E+00 0.  1.
         21   -1    0    0  501  503 -0.00000000000E+00 -0.00000000000E+00 -0.64640088355E+03  0.64640088355E+03  0.00000000000E+00 0.  1.
    9000010    2    1    2  501    0  0.13310128425E+03  0.56328849393E+03  0.17756788355E+03  0.11682617812E+04  0.99914731491E+03 0.  0.
   -9000010    2    1    2    0  502 -0.13310128425E+03 -0.56328849393E+03  0.20875333819E+04  0.23896412513E+04  0.10087516098E+04 0.  0.
        -13    1    3    3    0    0  0.14963138219E+03 -0.24446671986E+03 -0.11522688141E+03  0.30891871588E+03  0.10566000000E+00 0.  1.
          4    1    3    3  501    0 -0.16530097938E+02  0.80775521379E+03  0.29279476496E+03  0.85934306533E+03  0.00000000000E+00 0.  1.
         13    1    4    4    0    0 -0.18065872585E+03  0.25679499549E+03  0.83181178420E+03  0.88909622675E+03  0.10566000000E+00 0. -1.
         -4    1    4    4    0  502  0.47557441599E+02 -0.82008348942E+03  0.12557215977E+04  0.15005450246E+04  0.00000000000E+00 0. -1.
<mgrwt>
<rscale>  2 0.11609232E+04</rscale>
<asrwt>0</asrwt>
<pdfrwt beam="1">  1       21 0.44792340E+00 0.11630089E+04</pdfrwt>
<pdfrwt beam="2">  1       21 0.99446292E-01 0.11630089E+04</pdfrwt>
<totfact> 0.96476142E-01</totfact>
</mgrwt>
</event>
<event>
 8    1  0.1168507E-005  0.1156475E+04  0.7818608E-02  0.8644034E-01
         21   -1    0    0  503  502  0.00000000000E+00  0.00000000000E+00  0.15347575835E+04  0.15347575835E+04  0.00000000000E+00 0. -1.
         21   -1    0    0  501  503 -0.00000000000E+00 -0.00000000000E+00 -0.87701491226E+03  0.87701491226E+03  0.00000000000E+00 0. -1.
    9000010    2    1    2  501    0  0.25560779492E+03  0.47794187737E+03  0.14164599684E+03  0.11453644937E+04  0.99901574160E+03 0.  0.
   -9000010    2    1    2    0  502 -0.25560779492E+03 -0.47794187737E+03  0.51609667442E+03  0.12664080021E+04  0.10216015209E+04 0.  0.
        -13    1    3    3    0    0  0.44465766448E+03  0.47808502826E+03 -0.25896438884E+03  0.70238757013E+03  0.10566000000E+00 0.  1.
          4    1    3    3  501    0 -0.18904986956E+03 -0.14315088108E+00  0.40061038568E+03  0.44297692354E+03  0.00000000000E+00 0.  1.
         13    1    4    4    0    0 -0.56204354775E+03 -0.37636690936E+03  0.22726206437E+02  0.67680240222E+03  0.10566000000E+00 0. -1.
         -4    1    4    4    0  502  0.30643575283E+03 -0.10157496802E+03  0.49337046798E+03  0.58960559989E+03  0.00000000000E+00 0. -1.
<mgrwt>
<rscale>  2 0.11514665E+04</rscale>
<asrwt>0</asrwt>
<pdfrwt beam="1">  1       21 0.23611655E+00 0.11564746E+04</pdfrwt>
<pdfrwt beam="2">  1       21 0.13492537E+00 0.11564746E+04</pdfrwt>
<totfact> 0.12910790E+01</totfact>
</mgrwt>
</event>
<event>
 8    1  0.1168507E-005  0.1107079E+04  0.7818608E-02  0.8681058E-01
         21   -1    0    0  501  502  0.00000000000E+00  0.00000000000E+00  0.83911690448E+03  0.83911690448E+03  0.00000000000E+00 0.  1.
         21   -1    0    0  502  503 -0.00000000000E+00 -0.00000000000E+00 -0.17528583531E+04  0.17528583531E+04  0.00000000000E+00 0.  1.
   -9000010    2    1    2    0  503 -0.17793154160E+03  0.44402172527E+03 -0.99279047089E+03  0.14870295900E+04  0.99840330348E+03 0.  0.
    9000010    2    1    2  501    0  0.17793154160E+03 -0.44402172527E+03  0.79049022262E+02  0.11049456676E+04  0.99289538946E+03 0.  0.
        -13    1    4    4    0    0  0.58922813675E+03 -0.31300965179E+03  0.89358921916E+02  0.67316407164E+03  0.10566000000E+00 0.  1.
          4    1    4    4  501    0 -0.41129659515E+03 -0.13101207348E+03 -0.10309899654E+02  0.43178159596E+03  0.00000000000E+00 0.  1.
         13    1    3    3    0    0 -0.49770023481E+03  0.28829662086E+03 -0.18464852668E+03  0.60408240737E+03  0.10566000000E+00 0. -1.
         -4    1    3    3    0  503  0.31976869321E+03  0.15572510440E+03 -0.80814194420E+03  0.88294718261E+03  0.00000000000E+00 0. -1.
<mgrwt>
<rscale>  2 0.11058358E+04</rscale>
<asrwt>0</asrwt>
<pdfrwt beam="1">  1       21 0.12909491E+00 0.11070791E+04</pdfrwt>
<pdfrwt beam="2">  1       21 0.26967052E+00 0.11070791E+04</pdfrwt>
<totfact> 0.84636902E+00</totfact>
</mgrwt>
</event>
<event>
 8    1  0.1168507E-005  0.1393478E+04  0.7818608E-02  0.8496756E-01
         21   -1    0    0  503  502  0.00000000000E+00  0.00000000000E+00  0.10926285249E+04  0.10926285249E+04  0.00000000000E+00 0.  1.
         21   -1    0    0  501  503 -0.00000000000E+00 -0.00000000000E+00 -0.20269297220E+04  0.20269297220E+04  0.00000000000E+00 0.  1.
    9000010    2    1    2  501    0 -0.64090820406E+03 -0.74297798980E+03  0.22542924365E+03  0.14115948675E+04  0.98944535307E+03 0.  0.
   -9000010    2    1    2    0  502  0.64090820406E+03  0.74297798980E+03 -0.11597304408E+04  0.17079633793E+04  0.78063089263E+03 0.  0.
        -13    1    3    3    0    0 -0.10311419917E+03 -0.83294346617E+03  0.21423700306E+03  0.86621294180E+03  0.10566000000E+00 0.  1.
          4    1    3    3  501    0 -0.53779400490E+03  0.89965476364E+02  0.11192240588E+02  0.54538192571E+03  0.00000000000E+00 0.  1.
         13    1    4    4    0    0 -0.78212203569E+01  0.53597706118E+03 -0.71901012548E+03  0.89683228829E+03  0.10566000000E+00 0. -1.
         -4    1    4    4    0  502  0.64872942442E+03  0.20700092862E+03 -0.44072031528E+03  0.81113109105E+03  0.00000000000E+00 0. -1.
<mgrwt>
<rscale>  2 0.13571798E+04</rscale>
<asrwt>0</asrwt>
<pdfrwt beam="1">  1       21 0.16809670E+00 0.13934783E+04</pdfrwt>
<pdfrwt beam="2">  1       21 0.31183534E+00 0.13934783E+04</pdfrwt>
<totfact> 0.17801991E+00</totfact>
</mgrwt>
</event>
<event>
 8    1  0.1168507E-005  0.1025981E+04  0.7818608E-02  0.8751431E-01
         21   -1    0    0  501  502  0.00000000000E+00  0.00000000000E+00  0.12927557423E+04  0.12927557423E+04  0.00000000000E+00 0.  1.
         21   -1    0    0  502  503 -0.00000000000E+00 -0.00000000000E+00 -0.81341863057E+03  0.81341863057E+03  0.00000000000E+00 0.  1.
   -9000010    2    1    2    0  503 -0.15877239640E+03  0.14752329032E+03  0.29398449710E+03  0.10635848294E+04  0.99890640692E+03 0.  0.
    9000010    2    1    2  501    0  0.15877239640E+03 -0.14752329032E+03  0.18535261460E+03  0.10425895434E+04  0.10028287836E+04 0.  0.
        -13    1    4    4    0    0  0.71652373740E+02 -0.44101043888E+03 -0.24876652745E+03  0.51137957155E+03  0.10566000000E+00 0.  1.
          4    1    4    4  501    0  0.87120022662E+02  0.29348714856E+03  0.43411914205E+03  0.53120997187E+03  0.00000000000E+00 0.  1.
         13    1    3    3    0    0  0.38147698611E+03  0.12701898570E+03 -0.75038724015E+02  0.40901018927E+03  0.10566000000E+00 0. -1.
         -4    1    3    3    0  503 -0.54024938251E+03  0.20504304620E+02  0.36902322112E+03  0.65457464016E+03  0.00000000000E+00 0. -1.
<mgrwt>
<rscale>  2 0.10250214E+04</rscale>
<asrwt>0</asrwt>
<pdfrwt beam="1">  1       21 0.19888550E+00 0.10259812E+04</pdfrwt>
<pdfrwt beam="2">  1       21 0.12514133E+00 0.10259812E+04</pdfrwt>
<totfact> 0.31619844E+01</totfact>
</mgrwt>
</event>
<event>
 8    1  0.1168507E-005  0.1042089E+04  0.7818608E-02  0.8739344E-01
         21   -1    0    0  501  502  0.00000000000E+00  0.00000000000E+00  0.53099537220E+03  0.53099537220E+03  0.00000000000E+00 0. -1.
         21   -1    0    0  502  503 -0.00000000000E+00 -0.00000000000E+00 -0.20176444252E+04  0.20176444252E+04  0.00000000000E+00 0. -1.
   -9000010    2    1    2    0  503  0.19625028146E+03  0.16617305344E+03 -0.78203551100E+03  0.13028923516E+04  0.10098620117E+04 0.  0.
    9000010    2    1    2  501    0 -0.19625028146E+03 -0.16617305344E+03 -0.70461354195E+03  0.12457474458E+04  0.99462495369E+03 0.  0.
        -13    1    4    4    0    0  0.27749863477E+03  0.25732829674E+03 -0.16811273327E+03  0.41410777203E+03  0.10566000000E+00 0.  1.
          4    1    4    4  501    0 -0.47374891624E+03 -0.42350135018E+03 -0.53650080868E+03  0.83163967375E+03  0.00000000000E+00 0.  1.
         13    1    3    3    0    0  0.78890003496E+02  0.27907384135E+03 -0.99408563821E+03  0.10355250402E+04  0.10566000000E+00 0. -1.
         -4    1    3    3    0  503  0.11736027797E+03 -0.11290078791E+03  0.21205012721E+03  0.26736731140E+03  0.00000000000E+00 0. -1.
<mgrwt>
<rscale>  2 0.10383792E+04</rscale>
<asrwt>0</asrwt>
<pdfrwt beam="1">  1       21 0.81691596E-01 0.10420887E+04</pdfrwt>
<pdfrwt beam="2">  1       21 0.31040684E+00 0.10420887E+04</pdfrwt>
<totfact> 0.14896793E+01</totfact>
</mgrwt>
</event>
<event>
 8    1  0.1168507E-005  0.1043272E+04  0.7818608E-02  0.8735165E-01
         21   -1    0    0  503  502  0.00000000000E+00  0.00000000000E+00  0.92522485173E+03  0.92522485173E+03  0.00000000000E+00 0.  1.
         21   -1    0    0  501  503 -0.00000000000E+00 -0.00000000000E+00 -0.12096478512E+04  0.12096478512E+04  0.00000000000E+00 0.  1.
    9000010    2    1    2  501    0 -0.28006939394E+03  0.90632540913E+02 -0.32198992069E+03  0.10918305167E+04  0.10008812344E+04 0.  0.
   -9000010    2    1    2    0  502  0.28006939394E+03 -0.90632540913E+02  0.37566921193E+02  0.10430421862E+04  0.99993630086E+03 0.  0.
        -13    1    3    3    0    0 -0.51957962396E+03  0.39260149993E+03 -0.26113211270E+03  0.70163303430E+03  0.10566000000E+00 0.  1.
          4    1    3    3  501    0  0.23951023002E+03 -0.30196895901E+03 -0.60857807987E+02  0.39019748242E+03  0.00000000000E+00 0.  1.
         13    1    4    4    0    0  0.40485898703E+03 -0.46265227021E+03 -0.10861868892E+03  0.62430437549E+03  0.10566000000E+00 0. -1.
         -4    1    4    4    0  502 -0.12478959309E+03  0.37201972930E+03  0.14618561012E+03  0.41873781073E+03  0.00000000000E+00 0. -1.
<mgrwt>
<rscale>  2 0.10430453E+04</rscale>
<asrwt>0</asrwt>
<pdfrwt beam="1">  1       21 0.14234228E+00 0.10432720E+04</pdfrwt>
<pdfrwt beam="2">  1       21 0.18609967E+00 0.10432720E+04</pdfrwt>
<totfact> 0.27305223E+01</totfact>
</mgrwt>
</event>
<event>
 8    1  0.1168507E-005  0.1479306E+04  0.7818608E-02  0.8426158E-01
         21   -1    0    0  501  502  0.00000000000E+00  0.00000000000E+00  0.16652835871E+04  0.16652835871E+04  0.00000000000E+00 0.  1.
         21   -1    0    0  502  503 -0.00000000000E+00 -0.00000000000E+00 -0.12963493790E+04  0.12963493790E+04  0.00000000000E+00 0.  1.
   -9000010    2    1    2    0  503 -0.10414595966E+04 -0.15383976214E+03  0.52378255744E+02  0.14488358468E+04  0.99402065650E+03 0.  0.
    9000010    2    1    2  501    0  0.10414595966E+04  0.15383976214E+03  0.31655595235E+03  0.15127971194E+04  0.10392510234E+04 0.  0.
        -13    1    4    4    0    0  0.87039396306E+03 -0.66510727974E+01 -0.24498114661E+03  0.90423761317E+03  0.10566000000E+00 0.  1.
          4    1    4    4  501    0  0.17106563353E+03  0.16049083494E+03  0.56153709896E+03  0.60855950620E+03  0.00000000000E+00 0.  1.
         13    1    3    3    0    0 -0.81575061508E+03 -0.51445491746E+02  0.48486593851E+03  0.95036345369E+03  0.10566000000E+00 0. -1.
         -4    1    3    3    0  503 -0.22570898151E+03 -0.10239427040E+03 -0.43248768276E+03  0.49847239311E+03  0.00000000000E+00 0. -1.
<mgrwt>
<rscale>  2 0.14713887E+04</rscale>
<asrwt>0</asrwt>
<pdfrwt beam="1">  1       21 0.25619747E+00 0.14793064E+04</pdfrwt>
<pdfrwt beam="2">  1       21 0.19943837E+00 0.14793064E+04</pdfrwt>
<totfact> 0.24318100E+00</totfact>
</mgrwt>
</event>
<event>
 8    1  0.1168507E-005  0.1034355E+04  0.7818608E-02  0.8745201E-01
         21   -1    0    0  503  502  0.00000000000E+00  0.00000000000E+00  0.13082061721E+04  0.13082061721E+04  0.00000000000E+00 0. -1.
         21   -1    0    0  501  503 -0.00000000000E+00 -0.00000000000E+00 -0.81121253002E+03  0.81121253002E+03  0.00000000000E+00 0. -1.
    9000010    2    1    2  501    0  0.20614958585E+03 -0.16497072340E+03  0.20716613439E+03  0.10452263042E+04  0.98988243164E+03 0.  0.
   -9000010    2    1    2    0  502 -0.20614958585E+03  0.16497072340E+03  0.28982750771E+03  0.10741923979E+04  0.10000881622E+04 0.  0.
        -13    1    3    3    0    0  0.53680275634E+02 -0.44396407413E+03 -0.23141606504E+03  0.50352664024E+03  0.10566000000E+00 0.  1.
          4    1    3    3  501    0  0.15246931022E+03  0.27899335073E+03  0.43858219943E+03  0.54169966398E+03  0.00000000000E+00 0.  1.
         13    1    4    4    0    0 -0.61258167645E+03  0.13145140841E+03  0.17265190945E+03  0.64988035522E+03  0.10566000000E+00 0. -1.
         -4    1    4    4    0  502  0.40643209060E+03  0.33519314991E+02  0.11717559826E+03  0.42431204269E+03  0.00000000000E+00 0. -1.
<mgrwt>
<rscale>  2 0.10318796E+04</rscale>
<asrwt>0</asrwt>
<pdfrwt beam="1">  1       21 0.20126249E+00 0.10343545E+04</pdfrwt>
<pdfrwt beam="2">  1       21 0.12480193E+00 0.10343545E+04</pdfrwt>
<totfact> 0.30476398E+01</totfact>
</mgrwt>
</event>
<event>
 8    1  0.1168507E-005  0.1402238E+04  0.7818608E-02  0.8473850E-01
         21   -1    0    0  501  502  0.00000000000E+00  0.00000000000E+00  0.84404447735E+03  0.84404447735E+03  0.00000000000E+00 0.  1.
         21   -1    0    0  502  503 -0.00000000000E+00 -0.00000000000E+00 -0.24283287441E+04  0.24283287441E+04  0.00000000000E+00 0.  1.
   -9000010    2    1    2    0  503 -0.64443242050E+03  0.68244985611E+03 -0.12009421999E+04  0.18186802771E+04  0.99212137972E+03 0.  0.
    9000010    2    1    2  501    0  0.64443242050E+03 -0.68244985611E+03 -0.38334206678E+03  0.14536929443E+04  0.10417490511E+04 0.  0.
        -13    1    4    4    0    0  0.79767977389E+03 -0.10477183609E+03 -0.22588875919E+03  0.83564101264E+03  0.10566000000E+00 0.  1.
          4    1    4    4  501    0 -0.15324735340E+03 -0.57767802003E+03 -0.15745330759E+03  0.61805193165E+03  0.00000000000E+00 0.  1.
         13    1    3    3    0    0 -0.32066347041E+03  0.91282262926E+03 -0.88099920912E+03  0.13085220026E+04  0.10566000000E+00 0. -1.
         -4    1    3    3    0  503 -0.32376895009E+03 -0.23037277315E+03 -0.31994299082E+03  0.51015827448E+03  0.00000000000E+00 0. -1.
<mgrwt>
<rscale>  2 0.13930316E+04</rscale>
<asrwt>0</asrwt>
<pdfrwt beam="1">  1       21 0.12985300E+00 0.14022382E+04</pdfrwt>
<pdfrwt beam="2">  1       21 0.37358903E+00 0.14022382E+04</pdfrwt>
<totfact> 0.14498193E+00</totfact>
</mgrwt>
</event>
<event>
 8    1  0.1168507E-005  0.1250023E+04  0.7818608E-02  0.8571370E-01
         21   -1    0    0  503  502  0.00000000000E+00  0.00000000000E+00  0.16213151717E+04  0.16213151717E+04  0.00000000000E+00 0.  1.
         21   -1    0    0  501  503 -0.00000000000E+00 -0.00000000000E+00 -0.10165219920E+04  0.10165219920E+04  0.00000000000E+00 0. -1.
    9000010    2    1    2  501    0  0.60728120167E+03 -0.42308724553E+03 -0.17447288313E+02  0.12415056330E+04  0.99661354280E+03 0.  0.
   -9000010    2    1    2    0  502 -0.60728120167E+03  0.42308724553E+03  0.62224046804E+03  0.13963315306E+04  0.10073555818E+04 0.  0.
        -13    1    3    3    0    0  0.44456693088E+03 -0.54453558746E+03  0.37714067322E+03  0.79774297904E+03  0.10566000000E+00 0.  1.
          4    1    3    3  501    0  0.16271427079E+03  0.12144834193E+03 -0.39458796153E+03  0.44376265397E+03  0.00000000000E+00 0.  1.
         13    1    4    4    0    0 -0.12619719957E+02 -0.21843524950E+03 -0.11962203017E+03  0.24936450594E+03  0.10566000000E+00 0. -1.
         -4    1    4    4    0  502 -0.59466148171E+03  0.64152249503E+03  0.74186249821E+03  0.11469670247E+04  0.00000000000E+00 0. -1.
<mgrwt>
<rscale>  2 0.12478577E+04</rscale>
<asrwt>0</asrwt>
<pdfrwt beam="1">  1       21 0.24943310E+00 0.12500234E+04</pdfrwt>
<pdfrwt beam="2">  1       21 0.15638800E+00 0.12500234E+04</pdfrwt>
<totfact> 0.64529629E+00</totfact>
</mgrwt>
</event>
<event>
 8    1  0.1168507E-005  0.1168061E+04  0.7818608E-02  0.8631864E-01
         21   -1    0    0  503  502  0.00000000000E+00  0.00000000000E+00  0.17290135397E+04  0.17290135397E+04  0.00000000000E+00 0. -1.
         21   -1    0    0  501  503 -0.00000000000E+00 -0.00000000000E+00 -0.86851917033E+03  0.86851917033E+03  0.00000000000E+00 0. -1.
    9000010    2    1    2  501    0  0.22043319452E+03  0.55820837375E+03  0.30991028422E+02  0.11684723033E+04  0.10020876698E+04 0.  0.
   -9000010    2    1    2    0  502 -0.22043319452E+03 -0.55820837375E+03  0.82950334097E+03  0.14290604068E+04  0.99697064743E+03 0.  0.
        -13    1    3    3    0    0 -0.32291189222E+03  0.53334300769E+03 -0.31574116338E+01  0.62348763773E+03  0.10566000000E+00 0.  1.
          4    1    3    3  501    0  0.54334508673E+03  0.24865366059E+02  0.34148440056E+02  0.54498466553E+03  0.00000000000E+00 0.  1.
         13    1    4    4    0    0 -0.38750650043E+03 -0.72566194205E+03  0.34925023432E+03  0.89371263802E+03  0.10566000000E+00 0. -1.
         -4    1    4    4    0  502  0.16707330591E+03  0.16745356831E+03  0.48025310665E+03  0.53534776877E+03  0.00000000000E+00 0. -1.
<mgrwt>
<rscale>  2 0.11669630E+04</rscale>
<asrwt>0</asrwt>
<pdfrwt beam="1">  1       21 0.26600208E+00 0.11680612E+04</pdfrwt>
<pdfrwt beam="2">  1       21 0.13361833E+00 0.11680612E+04</pdfrwt>
<totfact> 0.80300657E+00</totfact>
</mgrwt>
</event>
<event>
 8    1  0.1168507E-005  0.1165786E+04  0.7818608E-02  0.8637470E-01
         21   -1    0    0  501  502  0.00000000000E+00  0.00000000000E+00  0.23252227336E+04  0.23252227336E+04  0.00000000000E+00 0.  1.
         21   -1    0    0  502  503 -0.00000000000E+00 -0.00000000000E+00 -0.61362474493E+03  0.61362474493E+03  0.00000000000E+00 0.  1.
   -9000010    2    1    2    0  503 -0.59379515465E+03  0.10218235284E+03  0.48419300478E+03  0.12623385844E+04  0.99800897640E+03 0.  0.
    9000010    2    1    2  501    0  0.59379515465E+03 -0.10218235284E+03  0.12274049839E+04  0.16765088941E+04  0.97011605416E+03 0.  0.
        -13    1    4    4    0    0 -0.13304650688E+02  0.20832734145E+03  0.89290978382E+03  0.91698701634E+03  0.10566000000E+00 0.  1.
          4    1    4    4  501    0  0.60709980534E+03 -0.31050969429E+03  0.33449520005E+03  0.75952187773E+03  0.00000000000E+00 0.  1.
         13    1    3    3    0    0 -0.43554162252E+03 -0.42171937806E+03  0.34535657285E+03  0.69772122826E+03  0.10566000000E+00 0. -1.
         -4    1    3    3    0  503 -0.15825353213E+03  0.52390173090E+03  0.13883643193E+03  0.56461735619E+03  0.00000000000E+00 0. -1.
<mgrwt>
<rscale>  2 0.11597925E+04</rscale>
<asrwt>0</asrwt>
<pdfrwt beam="1">  1       21 0.35772657E+00 0.11657855E+04</pdfrwt>
<pdfrwt beam="2">  1       21 0.94403808E-01 0.11657855E+04</pdfrwt>
<totfact> 0.46766912E+00</totfact>
</mgrwt>
</event>
<event>
 8    1  0.1168507E-005  0.1443019E+04  0.7818608E-02  0.8444771E-01
         21   -1    0    0  503  502  0.00000000000E+00  0.00000000000E+00  0.13457222386E+04  0.13457222386E+04  0.00000000000E+00 0.  1.
         21   -1    0    0  501  503 -0.00000000000E+00 -0.00000000000E+00 -0.15524339561E+04  0.15524339561E+04  0.00000000000E+00 0. -1.
    9000010    2    1    2  501    0 -0.10222391218E+04  0.19018369205E+03 -0.25519459064E+03  0.14543231927E+04  0.98427080156E+03 0.  0.
   -9000010    2    1    2    0  502  0.10222391218E+04 -0.19018369205E+03  0.48482873224E+02  0.14438330020E+04  0.10005800767E+04 0.  0.
        -13    1    3    3    0    0 -0.46190280265E+03 -0.25318174519E+03  0.24619028433E+03  0.58143345488E+03  0.10566000000E+00 0.  1.
          4    1    3    3  501    0 -0.56033631914E+03  0.44336543724E+03 -0.50138487497E+03  0.87288973779E+03  0.00000000000E+00 0.  1.
         13    1    4    4    0    0  0.77282633586E+03  0.21669551618E+03 -0.29576454252E+03  0.85539123675E+03  0.10566000000E+00 0. -1.
         -4    1    4    4    0  502  0.24941278593E+03 -0.40687920823E+03  0.34424741574E+03  0.58844176528E+03  0.00000000000E+00 0. -1.
<mgrwt>
<rscale>  2 0.14401954E+04</rscale>
<asrwt>0</asrwt>
<pdfrwt beam="1">  1       21 0.20703419E+00 0.14430188E+04</pdfrwt>
<pdfrwt beam="2">  1       21 0.23883599E+00 0.14430188E+04</pdfrwt>
<totfact> 0.28622640E+00</totfact>
</mgrwt>
</event>
<event>
 8    1  0.1168507E-005  0.1034350E+04  0.7818608E-02  0.8747393E-01
         21   -1    0    0  503  502  0.00000000000E+00  0.00000000000E+00  0.70338152665E+03  0.70338152665E+03  0.00000000000E+00 0. -1.
         21   -1    0    0  501  503 -0.00000000000E+00 -0.00000000000E+00 -0.14926277808E+04  0.14926277808E+04  0.00000000000E+00 0. -1.
    9000010    2    1    2  501    0  0.24304676346E+03  0.15661648825E+03 -0.39099849399E+03  0.10876405348E+04  0.97287288837E+03 0.  0.
   -9000010    2    1    2    0  502 -0.24304676346E+03 -0.15661648825E+03 -0.39824776014E+03  0.11083687727E+04  0.99311610811E+03 0.  0.
        -13    1    3    3    0    0  0.18376803732E+03  0.14394853875E+02  0.31502941812E+03  0.36499513531E+03  0.10566000000E+00 0.  1.
          4    1    3    3  501    0  0.59278726142E+02  0.14222163437E+03 -0.70602791211E+03  0.72264539945E+03  0.00000000000E+00 0.  1.
         13    1    4    4    0    0 -0.50134154950E+03 -0.30149671385E+03 -0.52517426826E+03  0.78616260463E+03  0.10566000000E+00 0. -1.
         -4    1    4    4    0  502  0.25829478604E+03  0.14488022561E+03  0.12692650812E+03  0.32220616805E+03  0.00000000000E+00 0. -1.
<mgrwt>
<rscale>  2 0.10294604E+04</rscale>
<asrwt>0</asrwt>
<pdfrwt beam="1">  1       21 0.10821254E+00 0.10343501E+04</pdfrwt>
<pdfrwt beam="2">  1       21 0.22963504E+00 0.10343501E+04</pdfrwt>
<totfact> 0.27525245E+01</totfact>
</mgrwt>
</event>
<event>
 8    1  0.1168507E-005  0.1144297E+04  0.7818608E-02  0.8658446E-01
         21   -1    0    0  501  502  0.00000000000E+00  0.00000000000E+00  0.79994882077E+03  0.79994882077E+03  0.00000000000E+00 0. -1.
         21   -1    0    0  502  503 -0.00000000000E+00 -0.00000000000E+00 -0.16257949271E+04  0.16257949271E+04  0.00000000000E+00 0. -1.
   -9000010    2    1    2    0  503 -0.12581108690E+03  0.50604678147E+03 -0.63238602279E+03  0.13074124138E+04  0.10185790904E+04 0.  0.
    9000010    2    1    2  501    0  0.12581108690E+03 -0.50604678147E+03 -0.19346008351E+03  0.11183313340E+04  0.97021976589E+03 0.  0.
        -13    1    4    4    0    0  0.15022503390E+03  0.15094794374E+03  0.24764229426E+03  0.32661836997E+03  0.10566000000E+00 0.  1.
          4    1    4    4  501    0 -0.24413947006E+02 -0.65699472521E+03 -0.44110237777E+03  0.79171296405E+03  0.00000000000E+00 0.  1.
         13    1    3    3    0    0 -0.36920810492E+03  0.31011728036E+03  0.11642442083E+03  0.49602621831E+03  0.10566000000E+00 0. -1.
         -4    1    3    3    0  503  0.24339701802E+03  0.19592950111E+03 -0.74881044362E+03  0.81138619551E+03  0.00000000000E+00 0. -1.
<mgrwt>
<rscale>  2 0.11334367E+04</rscale>
<asrwt>0</asrwt>
<pdfrwt beam="1">  1       21 0.12306905E+00 0.11442968E+04</pdfrwt>
<pdfrwt beam="2">  1       21 0.25012229E+00 0.11442968E+04</pdfrwt>
<totfact> 0.13322319E+01</totfact>
</mgrwt>
</event>
<event>
 8    1  0.1168507E-005  0.1049511E+04  0.7818608E-02  0.8730863E-01
         21   -1    0    0  503  502  0.00000000000E+00  0.00000000000E+00  0.65259835212E+03  0.65259835212E+03  0.00000000000E+00 0.  1.
         21   -1    0    0  501  503 -0.00000000000E+00 -0.00000000000E+00 -0.17324663690E+04  0.17324663690E+04  0.00000000000E+00 0.  1.
    9000010    2    1    2  501    0 -0.24305604876E+03 -0.18967099428E+03 -0.32561187949E+03  0.10926346259E+04  0.99638145339E+03 0.  0.
   -9000010    2    1    2    0  502  0.24305604876E+03  0.18967099428E+03 -0.75425613742E+03  0.12924300953E+04  0.10032058121E+04 0.  0.
        -13    1    3    3    0    0 -0.48979671040E+03  0.22888324505E+03 -0.74609255705E+02  0.54576085384E+03  0.10566000000E+00 0.  1.
          4    1    3    3  501    0  0.24674066165E+03 -0.41855423933E+03 -0.25100262379E+03  0.54687377202E+03  0.00000000000E+00 0.  1.
         13    1    4    4    0    0  0.62930765190E+03  0.12816405461E+03 -0.35626410440E+03  0.73442376656E+03  0.10566000000E+00 0. -1.
         -4    1    4    4    0  502 -0.38625160314E+03  0.61506939671E+02 -0.39799203301E+03  0.55800632873E+03  0.00000000000E+00 0. -1.
<mgrwt>
<rscale>  2 0.10478768E+04</rscale>
<asrwt>0</asrwt>
<pdfrwt beam="1">  1       21 0.10039975E+00 0.10495109E+04</pdfrwt>
<pdfrwt beam="2">  1       21 0.26653329E+00 0.10495109E+04</pdfrwt>
<totfact> 0.18014375E+01</totfact>
</mgrwt>
</event>
<event>
 8    1  0.1168507E-005  0.1028520E+04  0.7818608E-02  0.8751465E-01
         21   -1    0    0  501  502  0.00000000000E+00  0.00000000000E+00  0.83067371753E+03  0.83067371753E+03  0.00000000000E+00 0.  1.
         21   -1    0    0  502  503 -0.00000000000E+00 -0.00000000000E+00 -0.13672351056E+04  0.13672351056E+04  0.00000000000E+00 0.  1.
   -9000010    2    1    2    0  503  0.20733815365E+03  0.16905992375E+03 -0.58325457232E+03  0.11823871447E+04  0.99311786617E+03 0.  0.
    9000010    2    1    2  501    0 -0.20733815365E+03 -0.16905992375E+03  0.46693184195E+02  0.10155216784E+04  0.97853648791E+03 0.  0.
        -13    1    4    4    0    0  0.94227427960E+02  0.13337508393E+03  0.41851901958E+03  0.44925037797E+03  0.10566000000E+00 0.  1.
          4    1    4    4  501    0 -0.30156558161E+03 -0.30243500768E+03 -0.37182583539E+03  0.56627130047E+03  0.00000000000E+00 0.  1.
         13    1    3    3    0    0 -0.32507265162E+03 -0.15239123714E+02  0.56081232702E+02  0.33022655185E+03  0.10566000000E+00 0. -1.
         -4    1    3    3    0  503  0.53241080527E+03  0.18429904746E+03 -0.63933580502E+03  0.85216059287E+03  0.00000000000E+00 0. -1.
<mgrwt>
<rscale>  2 0.10249837E+04</rscale>
<asrwt>0</asrwt>
<pdfrwt beam="1">  1       21 0.12779596E+00 0.10285200E+04</pdfrwt>
<pdfrwt beam="2">  1       21 0.21034386E+00 0.10285200E+04</pdfrwt>
<totfact> 0.24269418E+01</totfact>
</mgrwt>
</event>
<event>
 8    1  0.1168507E-005  0.1106694E+04  0.7818608E-02  0.8681688E-01
         21   -1    0    0  501  502  0.00000000000E+00  0.00000000000E+00  0.10821495280E+04  0.10821495280E+04  0.00000000000E+00 0.  1.
         21   -1    0    0  502  503 -0.00000000000E+00 -0.00000000000E+00 -0.11416757937E+04  0.11416757937E+04  0.00000000000E+00 0.  1.
   -9000010    2    1    2    0  503  0.17708533033E+03 -0.44144510155E+03  0.10385171472E+03  0.11051371704E+04  0.99212398159E+03 0.  0.
    9000010    2    1    2  501    0 -0.17708533033E+03  0.44144510155E+03 -0.16337798042E+03  0.11186881514E+04  0.99926864440E+03 0.  0.
        -13    1    4    4    0    0 -0.17144981196E+03  0.43164373671E+03 -0.55681474240E+03  0.72508897521E+03  0.10566000000E+00 0.  1.
          4    1    4    4  501    0 -0.56355183723E+01  0.98013648408E+01  0.39343676197E+03  0.39359917618E+03  0.00000000000E+00 0.  1.
         13    1    3    3    0    0 -0.30861841870E+03 -0.52186165705E+03  0.27272148401E+02  0.60690089693E+03  0.10566000000E+00 0. -1.
         -4    1    3    3    0  503  0.48570374903E+03  0.80416555497E+02  0.76579566324E+02  0.49823627347E+03  0.00000000000E+00 0. -1.
<mgrwt>
<rscale>  2 0.11050784E+04</rscale>
<asrwt>0</asrwt>
<pdfrwt beam="1">  1       21 0.16648454E+00 0.11066936E+04</pdfrwt>
<pdfrwt beam="2">  1       21 0.17564243E+00 0.11066936E+04</pdfrwt>
<totfact> 0.20090057E+01</totfact>
</mgrwt>
</event>
<event>
 8    1  0.1168507E-005  0.1198973E+04  0.7818608E-02  0.8629525E-01
         21   -1    0    0  501  502  0.00000000000E+00  0.00000000000E+00  0.14351753341E+04  0.14351753341E+04  0.00000000000E+00 0.  1.
         21   -1    0    0  502  503 -0.00000000000E+00 -0.00000000000E+00 -0.93567386984E+03  0.93567386984E+03  0.00000000000E+00 0.  1.
   -9000010    2    1    2    0  503  0.25495293499E+03 -0.59219673717E+03  0.66925752788E+02  0.12008390780E+04  0.10108597629E+04 0.  0.
    9000010    2    1    2  501    0 -0.25495293499E+03  0.59219673717E+03  0.43257571147E+03  0.11700101259E+04  0.87527365668E+03 0.  0.
        -13    1    4    4    0    0 -0.23850851192E+03  0.81958527610E+03  0.38836197455E+03  0.93778002191E+03  0.10566000000E+00 0.  1.
          4    1    4    4  501    0 -0.16444423069E+02 -0.22738853893E+03  0.44213736916E+02  0.23223010403E+03  0.00000000000E+00 0.  1.
         13    1    3    3    0    0  0.80628279336E+02 -0.61536391508E+03 -0.37506154707E+03  0.72515159978E+03  0.10566000000E+00 0. -1.
         -4    1    3    3    0  503  0.17432465565E+03  0.23167177913E+02  0.44198729986E+03  0.47568747822E+03  0.00000000000E+00 0. -1.
<mgrwt>
<rscale>  2 0.11699709E+04</rscale>
<asrwt>0</asrwt>
<pdfrwt beam="1">  1       21 0.22079621E+00 0.11989727E+04</pdfrwt>
<pdfrwt beam="2">  1       21 0.14394983E+00 0.11989727E+04</pdfrwt>
<totfact> 0.13728921E+01</totfact>
</mgrwt>
</event>
<event>
 8    1  0.1168507E-005  0.9918436E+03  0.7818608E-02  0.8782521E-01
         21   -1    0    0  503  502  0.00000000000E+00  0.00000000000E+00  0.94417365731E+03  0.94417365731E+03  0.00000000000E+00 0. -1.
         21   -1    0    0  501  503 -0.00000000000E+00 -0.00000000000E+00 -0.10411069178E+04  0.10411069178E+04  0.00000000000E+00 0. -1.
    9000010    2    1    2  501    0 -0.26996849669E+02  0.21428204271E+03 -0.34766137129E+02  0.99149062904E+03  0.96705706112E+03 0.  0.
   -9000010    2    1    2    0  502  0.26996849669E+02 -0.21428204271E+03 -0.62167123368E+02  0.99378994608E+03  0.96804342980E+03 0.  0.
        -13    1    3    3    0    0  0.40360214281E+03  0.92853478735E+02  0.22787981960E+03  0.47270041415E+03  0.10566000000E+00 0.  1.
          4    1    3    3  501    0 -0.43059899248E+03  0.12142856398E+03 -0.26264595673E+03  0.51879021489E+03  0.00000000000E+00 0.  1.
         13    1    4    4    0    0  0.53675659441E+01  0.15539515015E+03  0.38381248887E+03  0.41411170139E+03  0.10566000000E+00 0. -1.
         -4    1    4    4    0  502  0.21629283725E+02 -0.36967719286E+03 -0.44597961224E+03  0.57967824469E+03  0.00000000000E+00 0. -1.
<mgrwt>
<rscale>  2 0.99160283E+03</rscale>
<asrwt>0</asrwt>
<pdfrwt beam="1">  1       21 0.14525749E+00 0.99184359E+03</pdfrwt>
<pdfrwt beam="2">  1       21 0.16017029E+00 0.99184359E+03</pdfrwt>
<totfact> 0.42692266E+01</totfact>
</mgrwt>
</event>
<event>
 8    1  0.1168507E-005  0.1416392E+04  0.7818608E-02  0.8463264E-01
         21   -1    0    0  501  502  0.00000000000E+00  0.00000000000E+00  0.10862206080E+04  0.10862206080E+04  0.00000000000E+00 0.  1.
         21   -1    0    0  502  503 -0.00000000000E+00 -0.00000000000E+00 -0.19498336781E+04  0.19498336781E+04  0.00000000000E+00 0.  1.
   -9000010    2    1    2    0  503  0.49296241174E+03 -0.86455335937E+03 -0.83628326483E+03  0.16448515808E+04  0.10078207050E+04 0.  0.
    9000010    2    1    2  501    0 -0.49296241174E+03  0.86455335937E+03 -0.27329805282E+02  0.13912027053E+04  0.97171683035E+03 0.  0.
        -13    1    4    4    0    0 -0.47007168845E+03  0.97634784802E+03 -0.27546943357E+03  0.11180813622E+04  0.10566000000E+00 0.  1.
          4    1    4    4  501    0 -0.22890723298E+02 -0.11179448865E+03  0.24813962829E+03  0.27312134305E+03  0.00000000000E+00 0.  1.
         13    1    3    3    0    0  0.58511576849E+03 -0.10539101566E+04 -0.69853861771E+03  0.13932132975E+04  0.10566000000E+00 0. -1.
         -4    1    3    3    0  503 -0.92153356747E+02  0.18935679725E+03 -0.13774464712E+03  0.25163828333E+03  0.00000000000E+00 0. -1.
<mgrwt>
<rscale>  2 0.14099844E+04</rscale>
<asrwt>0</asrwt>
<pdfrwt beam="1">  1       21 0.16711086E+00 0.14163923E+04</pdfrwt>
<pdfrwt beam="2">  1       21 0.29997441E+00 0.14163923E+04</pdfrwt>
<totfact> 0.21922724E+00</totfact>
</mgrwt>
</event>
<event>
 8    1  0.1168507E-005  0.1230630E+04  0.7818608E-02  0.8586709E-01
         21   -1    0    0  503  502  0.00000000000E+00  0.00000000000E+00  0.10308582048E+04  0.10308582048E+04  0.00000000000E+00 0.  1.
         21   -1    0    0  501  503 -0.00000000000E+00 -0.00000000000E+00 -0.14949143072E+04  0.14949143072E+04  0.00000000000E+00 0.  1.
    9000010    2    1    2  501    0  0.43621951578E+03 -0.58180677166E+03 -0.44804745380E+03  0.12950378978E+04  0.97344237140E+03 0.  0.
   -9000010    2    1    2    0  502 -0.43621951578E+03  0.58180677166E+03 -0.16008648549E+02  0.12307346142E+04  0.99280654116E+03 0.  0.
        -13    1    3    3    0    0 -0.19259950932E+03 -0.27604784973E+03  0.15604571367E+03  0.37100843960E+03  0.10566000000E+00 0.  1.
          4    1    3    3  501    0  0.62881902510E+03 -0.30575892193E+03 -0.60409316747E+03  0.92402945822E+03  0.00000000000E+00 0.  1.
         13    1    4    4    0    0 -0.51544031946E+03  0.66320092048E+02 -0.33600618823E+03  0.61885155508E+03  0.10566000000E+00 0. -1.
         -4    1    4    4    0  502  0.79220803677E+02  0.51548667961E+03  0.31999753968E+03  0.61188305908E+03  0.00000000000E+00 0. -1.
<mgrwt>
<rscale>  2 0.12267199E+04</rscale>
<asrwt>0</asrwt>
<pdfrwt beam="1">  1       21 0.15859357E+00 0.12306305E+04</pdfrwt>
<pdfrwt beam="2">  1       21 0.22998681E+00 0.12306305E+04</pdfrwt>
<totfact> 0.86204571E+00</totfact>
</mgrwt>
</event>
<event>
 8    1  0.1168507E-005  0.1023787E+04  0.7818608E-02  0.8755078E-01
         21   -1    0    0  503  502  0.00000000000E+00  0.00000000000E+00  0.46854344275E+03  0.46854344275E+03  0.00000000000E+00 0.  1.
         21   -1    0    0  501  503 -0.00000000000E+00 -0.00000000000E+00 -0.22963103838E+04  0.22963103838E+04  0.00000000000E+00 0.  1.
    9000010    2    1    2  501    0  0.16686151855E+03  0.21444440004E+03 -0.11818005901E+04  0.15635833105E+04  0.98707191596E+03 0.  0.
   -9000010    2    1    2    0  502 -0.16686151855E+03 -0.21444440004E+03 -0.64596635095E+03  0.12012705160E+04  0.97567881952E+03 0.  0.
        -13    1    3    3    0    0  0.21131849956E+03  0.59685755350E+03 -0.65387218522E+03  0.91018860309E+03  0.10566000000E+00 0.  1.
          4    1    3    3  501    0 -0.44456981005E+02 -0.38241315346E+03 -0.52792840483E+03  0.65339470745E+03  0.00000000000E+00 0.  1.
         13    1    4    4    0    0 -0.36013525951E+03 -0.51660370991E+03 -0.28113118931E+03  0.68964596352E+03  0.10566000000E+00 0. -1.
         -4    1    4    4    0  502  0.19327374096E+03  0.30215930987E+03 -0.36483516164E+03  0.51162455243E+03  0.00000000000E+00 0. -1.
<mgrwt>
<rscale>  2 0.10210310E+04</rscale>
<asrwt>0</asrwt>
<pdfrwt beam="1">  1       21 0.72083606E-01 0.10237872E+04</pdfrwt>
<pdfrwt beam="2">  1       21 0.35327852E+00 0.10237872E+04</pdfrwt>
<totfact> 0.10120421E+01</totfact>
</mgrwt>
</event>
<event>
 8    1  0.1168507E-005  0.1002658E+04  0.7818608E-02  0.8784123E-01
         21   -1    0    0  501  502  0.00000000000E+00  0.00000000000E+00  0.58381439761E+03  0.58381439761E+03  0.00000000000E+00 0. -1.
         21   -1    0    0  502  503 -0.00000000000E+00 -0.00000000000E+00 -0.16434281222E+04  0.16434281222E+04  0.00000000000E+00 0. -1.
   -9000010    2    1    2    0  503 -0.17646555300E+03  0.21918059866E+02 -0.61190631812E+03  0.11746289072E+04  0.98676402181E+03 0.  0.
    9000010    2    1    2  501    0  0.17646555300E+03 -0.21918059866E+02 -0.44770740651E+03  0.10526136126E+04  0.93591292486E+03 0.  0.
        -13    1    4    4    0    0 -0.25795658051E+03  0.27318879739E+03 -0.21661245429E+02  0.37635480223E+03  0.10566000000E+00 0.  1.
          4    1    4    4  501    0  0.43442213351E+03 -0.29510685726E+03 -0.42604616108E+03  0.67625881041E+03  0.00000000000E+00 0.  1.
         13    1    3    3    0    0 -0.29739062591E+03  0.35574965568E+03 -0.67005024298E+03  0.81484129816E+03  0.10566000000E+00 0. -1.
         -4    1    3    3    0  503  0.12092507291E+03 -0.33383159582E+03  0.58143924863E+02  0.35978760905E+03  0.00000000000E+00 0. -1.
<mgrwt>
<rscale>  2 0.98991694E+03</rscale>
<asrwt>0</asrwt>
<pdfrwt beam="1">  1       21 0.89817599E-01 0.10026583E+04</pdfrwt>
<pdfrwt beam="2">  1       21 0.25283510E+00 0.10026583E+04</pdfrwt>
<totfact> 0.30436255E+01</totfact>
</mgrwt>
</event>
<event>
 8    1  0.1168507E-005  0.1154116E+04  0.7818608E-02  0.8642461E-01
         21   -1    0    0  503  502  0.00000000000E+00  0.00000000000E+00  0.98963947256E+03  0.98963947256E+03  0.00000000000E+00 0.  1.
         21   -1    0    0  501  503 -0.00000000000E+00 -0.00000000000E+00 -0.13573283994E+04  0.13573283994E+04  0.00000000000E+00 0.  1.
    9000010    2    1    2  501    0 -0.45475022991E+03  0.32351896573E+03 -0.30524493199E+03  0.11937995675E+04  0.10102082192E+04 0.  0.
   -9000010    2    1    2    0  502  0.45475022991E+03 -0.32351896573E+03 -0.62443994860E+02  0.11531683045E+04  0.10071919346E+04 0.  0.
        -13    1    3    3    0    0  0.92772813562E+02 -0.25329565860E+03  0.11622670688E+03  0.29372460598E+03  0.10566000000E+00 0.  1.
          4    1    3    3  501    0 -0.54752304347E+03  0.57681462433E+03 -0.42147163886E+03  0.90007496151E+03  0.00000000000E+00 0.  1.
         13    1    4    4    0    0  0.43096621659E+03 -0.34765689179E+03  0.40404145953E+03  0.68545365010E+03  0.10566000000E+00 0. -1.
         -4    1    4    4    0  502  0.23784013315E+02  0.24137926059E+02 -0.46648545439E+03  0.46771465438E+03  0.00000000000E+00 0. -1.
<mgrwt>
<rscale>  2 0.11534553E+04</rscale>
<asrwt>0</asrwt>
<pdfrwt beam="1">  1       21 0.15225223E+00 0.11541157E+04</pdfrwt>
<pdfrwt beam="2">  1       21 0.20881975E+00 0.11541157E+04</pdfrwt>
<totfact> 0.14389348E+01</totfact>
</mgrwt>
</event>
<event>
 8    1  0.1168507E-005  0.1397673E+04  0.7818608E-02  0.8476676E-01
         21   -1    0    0  501  502  0.00000000000E+00  0.00000000000E+00  0.16600093960E+04  0.16600093960E+04  0.00000000000E+00 0. -1.
         21   -1    0    0  502  503 -0.00000000000E+00 -0.00000000000E+00 -0.12720393023E+04  0.12720393023E+04  0.00000000000E+00 0. -1.
   -9000010    2    1    2    0  503 -0.69479529759E+03  0.51911244400E+03  0.65668404222E+03  0.15442550582E+04  0.10960253274E+04 0.  0.
    9000010    2    1    2  501    0  0.69479529759E+03 -0.51911244400E+03 -0.26871394854E+03  0.13877936402E+04  0.10495455047E+04 0.  0.
        -13    1    4    4    0    0  0.12967729668E+03 -0.73417576062E+02 -0.58350966415E+03  0.60223739594E+03  0.10566000000E+00 0.  1.
          4    1    4    4  501    0  0.56511800091E+03 -0.44569486794E+03  0.31479571560E+03  0.78555624421E+03  0.00000000000E+00 0.  1.
         13    1    3    3    0    0 -0.68197418556E+03  0.52252664046E+03  0.93260222273E+03  0.12680180585E+04  0.10566000000E+00 0. -1.
         -4    1    3    3    0  503 -0.12821112029E+02 -0.34141964570E+01 -0.27591818050E+03  0.27623699966E+03  0.00000000000E+00 0. -1.
<mgrwt>
<rscale>  2 0.13885483E+04</rscale>
<asrwt>0</asrwt>
<pdfrwt beam="1">  1       21 0.25538606E+00 0.13976730E+04</pdfrwt>
<pdfrwt beam="2">  1       21 0.19569835E+00 0.13976730E+04</pdfrwt>
<totfact> 0.26778534E+00</totfact>
</mgrwt>
</event>
<event>
 8    1  0.1168507E-005  0.1054371E+04  0.7818608E-02  0.8725858E-01
         21   -1    0    0  501  502  0.00000000000E+00  0.00000000000E+00  0.29825948779E+04  0.29825948779E+04  0.00000000000E+00 0.  1.
         21   -1    0    0  502  503 -0.00000000000E+00 -0.00000000000E+00 -0.37317345860E+03  0.37317345860E+03  0.00000000000E+00 0.  1.
   -9000010    2    1    2    0  503  0.27109993019E+03  0.25605195422E+03  0.11958601713E+04  0.15942957953E+04  0.98622500395E+03 0.  0.
    9000010    2    1    2  501    0 -0.27109993019E+03 -0.25605195422E+03  0.14135612480E+04  0.17614725411E+04  0.98263540332E+03 0.  0.
        -13    1    4    4    0    0 -0.36349108636E+03 -0.26219951245E+03  0.15404868883E+04  0.16043610000E+04  0.10566000000E+00 0.  1.
          4    1    4    4  501    0  0.92391156162E+02  0.61475582273E+01 -0.12692564025E+03  0.15711154115E+03  0.00000000000E+00 0.  1.
         13    1    3    3    0    0 -0.17896929469E+03  0.31460624689E+03  0.10606708827E+04  0.11207273672E+04  0.10566000000E+00 0. -1.
         -4    1    3    3    0  503  0.45006922488E+03 -0.58554292664E+02  0.13518928854E+03  0.47356842812E+03  0.00000000000E+00 0. -1.
<mgrwt>
<rscale>  2 0.10535305E+04</rscale>
<asrwt>0</asrwt>
<pdfrwt beam="1">  1       21 0.45886074E+00 0.10543707E+04</pdfrwt>
<pdfrwt beam="2">  1       21 0.57411303E-01 0.10543707E+04</pdfrwt>
<totfact> 0.31469808E+00</totfact>
</mgrwt>
</event>
<event>
 8    1  0.1168507E-005  0.1057499E+04  0.7818608E-02  0.8727731E-01
         21   -1    0    0  503  502  0.00000000000E+00  0.00000000000E+00  0.10402259525E+04  0.10402259525E+04  0.00000000000E+00 0. -1.
         21   -1    0    0  501  503 -0.00000000000E+00 -0.00000000000E+00 -0.10518544432E+04  0.10518544432E+04  0.00000000000E+00 0. -1.
    9000010    2    1    2  501    0 -0.20912479279E+03  0.19197012264E+03 -0.41111356799E+02  0.10341701384E+04  0.99359550352E+03 0.  0.
   -9000010    2    1    2    0  502  0.20912479279E+03 -0.19197012264E+03  0.29482866092E+02  0.10579102573E+04  0.10186850182E+04 0.  0.
        -13    1    3    3    0    0 -0.13813187952E+03 -0.37877519647E+03  0.14685687539E+03  0.42908975589E+03  0.10566000000E+00 0.  1.
          4    1    3    3  501    0 -0.70992913270E+02  0.57074531911E+03 -0.18796823219E+03  0.60508038254E+03  0.00000000000E+00 0.  1.
         13    1    4    4    0    0 -0.27051639122E+03 -0.85160596608E+02 -0.34025843443E+03  0.44295288519E+03  0.10566000000E+00 0. -1.
         -4    1    4    4    0  502  0.47964118402E+03 -0.10680952603E+03  0.36974130052E+03  0.61495737216E+03  0.00000000000E+00 0. -1.
<mgrwt>
<rscale>  2 0.10514103E+04</rscale>
<asrwt>0</asrwt>
<pdfrwt beam="1">  1       21 0.16003476E+00 0.10574993E+04</pdfrwt>
<pdfrwt beam="2">  1       21 0.16182376E+00 0.10574993E+04</pdfrwt>
<totfact> 0.30139027E+01</totfact>
</mgrwt>
</event>
<event>
 8    1  0.1168507E-005  0.1038889E+04  0.7818608E-02  0.8739572E-01
         21   -1    0    0  503  502  0.00000000000E+00  0.00000000000E+00  0.86142230251E+03  0.86142230251E+03  0.00000000000E+00 0. -1.
         21   -1    0    0  501  503 -0.00000000000E+00 -0.00000000000E+00 -0.13426505365E+04  0.13426505365E+04  0.00000000000E+00 0. -1.
    9000010    2    1    2  501    0 -0.29366973734E+03  0.26912747318E+02 -0.53162039533E+03  0.11670089987E+04  0.99615437946E+03 0.  0.
   -9000010    2    1    2    0  502  0.29366973734E+03 -0.26912747318E+02  0.50392161382E+02  0.10370638403E+04  0.99297322635E+03 0.  0.
        -13    1    3    3    0    0  0.10796869968E+03 -0.38271186334E+03 -0.19705628250E+02  0.39813808333E+03  0.10566000000E+00 0.  1.
          4    1    3    3  501    0 -0.40163843702E+03  0.40962461066E+03 -0.51191476708E+03  0.76887091537E+03  0.00000000000E+00 0.  1.
         13    1    4    4    0    0 -0.33393803431E+02 -0.46080373910E+03  0.14774123548E+03  0.48505949728E+03  0.10566000000E+00 0. -1.
         -4    1    4    4    0  502  0.32706354077E+03  0.43389099178E+03 -0.97349074098E+02  0.55200434298E+03  0.00000000000E+00 0. -1.
<mgrwt>
<rscale>  2 0.10381254E+04</rscale>
<asrwt>0</asrwt>
<pdfrwt beam="1">  1       21 0.13252651E+00 0.10388887E+04</pdfrwt>
<pdfrwt beam="2">  1       21 0.20656162E+00 0.10388887E+04</pdfrwt>
<totfact> 0.23309876E+01</totfact>
</mgrwt>
</event>
<event>
 8    1  0.1168507E-005  0.1044782E+04  0.7818608E-02  0.8738240E-01
         21   -1    0    0  501  502  0.00000000000E+00  0.00000000000E+00  0.64041339237E+03  0.64041339237E+03  0.00000000000E+00 0. -1.
         21   -1    0    0  502  503 -0.00000000000E+00 -0.00000000000E+00 -0.18646681265E+04  0.18646681265E+04  0.00000000000E+00 0. -1.
   -9000010    2    1    2    0  503  0.18573245758E+03 -0.68616711202E+02 -0.10210801196E+04  0.14608811841E+04  0.10258481489E+04 0.  0.
    9000010    2    1    2  501    0 -0.18573245758E+03  0.68616711202E+02 -0.20317461459E+03  0.10442003348E+04  0.10049226917E+04 0.  0.
        -13    1    4    4    0    0 -0.39825615680E+03 -0.11469117507E+03 -0.49077181526E+03  0.64235427755E+03  0.10566000000E+00 0.  1.
          4    1    4    4  501    0  0.21252369922E+03  0.18330788627E+03  0.28759720067E+03  0.40184605725E+03  0.00000000000E+00 0.  1.
         13    1    3    3    0    0 -0.41829719340E+03  0.50142198733E+02 -0.50438280492E+03  0.65718247630E+03  0.10566000000E+00 0. -1.
         -4    1    3    3    0  503  0.60402965098E+03 -0.11875890994E+03 -0.51669731464E+03  0.80369870779E+03  0.00000000000E+00 0. -1.
<mgrwt>
<rscale>  2 0.10396090E+04</rscale>
<asrwt>0</asrwt>
<pdfrwt beam="1">  1       21 0.98525138E-01 0.10447819E+04</pdfrwt>
<pdfrwt beam="2">  1       21 0.28687202E+00 0.10447819E+04</pdfrwt>
<totfact> 0.13561875E+01</totfact>
</mgrwt>
</event>
<event>
 8    1  0.1168507E-005  0.1057920E+04  0.7818608E-02  0.8722971E-01
         21   -1    0    0  503  502  0.00000000000E+00  0.00000000000E+00  0.91432251364E+03  0.91432251364E+03  0.00000000000E+00 0.  1.
         21   -1    0    0  501  503 -0.00000000000E+00 -0.00000000000E+00 -0.12194827772E+04  0.12194827772E+04  0.00000000000E+00 0.  1.
    9000010    2    1    2  501    0  0.21446451990E+03  0.27444303725E+03 -0.17541712193E+03  0.10723649012E+04  0.99894009016E+03 0.  0.
   -9000010    2    1    2    0  502 -0.21446451990E+03 -0.27444303725E+03 -0.12974314164E+03  0.10614403896E+04  0.99423760084E+03 0.  0.
        -13    1    3    3    0    0 -0.35013092958E+03 -0.57370854338E+02 -0.21745468888E+03  0.41613655891E+03  0.10566000000E+00 0.  1.
          4    1    3    3  501    0  0.56459544948E+03  0.33181389159E+03  0.42037566957E+02  0.65622834232E+03  0.00000000000E+00 0.  1.
         13    1    4    4    0    0 -0.52120568183E+03 -0.31876817931E+03 -0.32809009591E+03  0.69347792835E+03  0.10566000000E+00 0. -1.
         -4    1    4    4    0  502  0.30674116193E+03  0.44325142059E+02  0.19834695426E+03  0.36796246127E+03  0.00000000000E+00 0. -1.
<mgrwt>
<rscale>  2 0.10568087E+04</rscale>
<asrwt>0</asrwt>
<pdfrwt beam="1">  1       21 0.14066500E+00 0.10579203E+04</pdfrwt>
<pdfrwt beam="2">  1       21 0.18761274E+00 0.10579203E+04</pdfrwt>
<totfact> 0.27421879E+01</totfact>
</mgrwt>
</event>
<event>
 8    1  0.1168507E-005  0.1025693E+04  0.7818608E-02  0.8752554E-01
         21   -1    0    0  501  502  0.00000000000E+00  0.00000000000E+00  0.19314240587E+04  0.19314240587E+04  0.00000000000E+00 0.  1.
         21   -1    0    0  502  503 -0.00000000000E+00 -0.00000000000E+00 -0.54087454255E+03  0.54087454255E+03  0.00000000000E+00 0.  1.
   -9000010    2    1    2    0  503 -0.19507740142E+03 -0.81647697518E+02  0.71627597067E+03  0.12448250205E+04  0.99589985758E+03 0.  0.
    9000010    2    1    2  501    0  0.19507740142E+03  0.81647697518E+02  0.67427354548E+03  0.12274735808E+04  0.10036558366E+04 0.  0.
        -13    1    4    4    0    0 -0.36159994214E+03  0.22305652805E+03  0.15220910287E+03  0.45130516839E+03  0.10566000000E+00 0.  1.
          4    1    4    4  501    0  0.55667734356E+03 -0.14140883053E+03  0.52206444261E+03  0.77616841241E+03  0.00000000000E+00 0.  1.
         13    1    3    3    0    0 -0.21339238228E+03  0.20934484343E+03 -0.14737279577E+03  0.33328715005E+03  0.10566000000E+00 0. -1.
         -4    1    3    3    0  503  0.18314980865E+02 -0.29099254095E+03  0.86364876644E+03  0.91153787040E+03  0.00000000000E+00 0. -1.
<mgrwt>
<rscale>  2 0.10237909E+04</rscale>
<asrwt>0</asrwt>
<pdfrwt beam="1">  1       21 0.29714216E+00 0.10256932E+04</pdfrwt>
<pdfrwt beam="2">  1       21 0.83211469E-01 0.10256932E+04</pdfrwt>
<totfact> 0.17726856E+01</totfact>
</mgrwt>
</event>
<event>
 8    1  0.1168507E-005  0.1181165E+04  0.7818608E-02  0.8620941E-01
         21   -1    0    0  501  502  0.00000000000E+00  0.00000000000E+00  0.17285435836E+04  0.17285435836E+04  0.00000000000E+00 0. -1.
         21   -1    0    0  502  503 -0.00000000000E+00 -0.00000000000E+00 -0.83545737970E+03  0.83545737970E+03  0.00000000000E+00 0. -1.
   -9000010    2    1    2    0  503  0.55683848549E+03 -0.27876770784E+03  0.20963720384E+03  0.11996242405E+04  0.10036782489E+04 0.  0.
    9000010    2    1    2  501    0 -0.55683848549E+03  0.27876770784E+03  0.68344900002E+03  0.13643767227E+04  0.10033148918E+04 0.  0.
        -13    1    4    4    0    0  0.29100513839E+03  0.64427925885E+02  0.10566200933E+03  0.31622684829E+03  0.10566000000E+00 0.  1.
          4    1    4    4  501    0 -0.84784362388E+03  0.21433978195E+03  0.57778699069E+03  0.10481498744E+04  0.00000000000E+00 0.  1.
         13    1    3    3    0    0  0.24436967642E+03 -0.40618995951E+03  0.54606872454E+03  0.72311678521E+03  0.10566000000E+00 0. -1.
         -4    1    3    3    0  503  0.31246880907E+03  0.12742225167E+03 -0.33643152070E+03  0.47650745533E+03  0.00000000000E+00 0. -1.
<mgrwt>
<rscale>  2 0.11810877E+04</rscale>
<asrwt>0</asrwt>
<pdfrwt beam="1">  1       21 0.26592978E+00 0.11811649E+04</pdfrwt>
<pdfrwt beam="2">  1       21 0.12853190E+00 0.11811649E+04</pdfrwt>
<totfact> 0.89736431E+00</totfact>
</mgrwt>
</event>
<event>
 8    1  0.1168507E-005  0.1203116E+04  0.7818608E-02  0.8606707E-01
         21   -1    0    0  501  502  0.00000000000E+00  0.00000000000E+00  0.80954521617E+03  0.80954521617E+03  0.00000000000E+00 0. -1.
         21   -1    0    0  502  503 -0.00000000000E+00 -0.00000000000E+00 -0.17738584609E+04  0.17738584609E+04  0.00000000000E+00 0. -1.
   -9000010    2    1    2    0  503  0.48290885345E+03  0.44870490730E+03 -0.41376764847E+03  0.12722785746E+04  0.10064551903E+04 0.  0.
    9000010    2    1    2  501    0 -0.48290885345E+03 -0.44870490730E+03 -0.55054559623E+03  0.13111251024E+04  0.99066216544E+03 0.  0.
        -13    1    4    4    0    0 -0.78801894541E+03 -0.37212518769E+03 -0.45053188067E+03  0.98103516772E+03  0.10566000000E+00 0.  1.
          4    1    4    4  501    0  0.30511009196E+03 -0.76579719619E+02 -0.10001371556E+03  0.33008993468E+03  0.00000000000E+00 0.  1.
         13    1    3    3    0    0 -0.36493007931E+02 -0.10138715822E+03 -0.49939747187E+03  0.51089034200E+03  0.10566000000E+00 0. -1.
         -4    1    3    3    0  503  0.51940186138E+03  0.55009206553E+03  0.85629823398E+02  0.76138823265E+03  0.00000000000E+00 0. -1.
<mgrwt>
<rscale>  2 0.11998078E+04</rscale>
<asrwt>0</asrwt>
<pdfrwt beam="1">  1       21 0.12454542E+00 0.12031164E+04</pdfrwt>
<pdfrwt beam="2">  1       21 0.27290130E+00 0.12031164E+04</pdfrwt>
<totfact> 0.87131052E+00</totfact>
</mgrwt>
</event>
<event>
 8    1  0.1168507E-005  0.1815694E+04  0.7818608E-02  0.8248690E-01
         21   -1    0    0  503  502  0.00000000000E+00  0.00000000000E+00  0.32899291694E+04  0.32899291694E+04  0.00000000000E+00 0. -1.
         21   -1    0    0  501  503 -0.00000000000E+00 -0.00000000000E+00 -0.10008253998E+04  0.10008253998E+04  0.00000000000E+00 0.  1.
    9000010    2    1    2  501    0 -0.84781415115E+03 -0.12537861218E+04  0.12591428467E+04  0.22095669009E+04  0.10029839018E+04 0.  0.
   -9000010    2    1    2    0  502  0.84781415115E+03  0.12537861218E+04  0.10299609229E+04  0.20811876683E+04  0.98982530465E+03 0.  0.
        -13    1    3    3    0    0 -0.98121504231E+03 -0.13079462399E+04  0.12621525637E+04  0.20655593506E+04  0.10566000000E+00 0.  1.
          4    1    3    3  501    0  0.13340089116E+03  0.54160118079E+02 -0.30097170049E+01  0.14400755032E+03  0.00000000000E+00 0.  1.
         13    1    4    4    0    0  0.21829474719E+02  0.11140809800E+03 -0.18706284782E+03  0.21881684228E+03  0.10566000000E+00 0. -1.
         -4    1    4    4    0  502  0.82598467644E+03  0.11423780238E+04  0.12170237707E+04  0.18623708260E+04  0.00000000000E+00 0. -1.
<mgrwt>
<rscale>  2 0.18138825E+04</rscale>
<asrwt>0</asrwt>
<pdfrwt beam="1">  1       21 0.50614294E+00 0.18156941E+04</pdfrwt>
<pdfrwt beam="2">  1       21 0.15397314E+00 0.18156941E+04</pdfrwt>
<totfact> 0.97138858E-02</totfact>
</mgrwt>
</event>
<event>
 8    1  0.1168507E-005  0.1010358E+04  0.7818608E-02  0.8766087E-01
         21   -1    0    0  503  502  0.00000000000E+00  0.00000000000E+00  0.43929315698E+03  0.43929315698E+03  0.00000000000E+00 0. -1.
         21   -1    0    0  501  503 -0.00000000000E+00 -0.00000000000E+00 -0.23177691288E+04  0.23177691288E+04  0.00000000000E+00 0. -1.
    9000010    2    1    2  501    0  0.14275776356E+03 -0.31480895467E+01 -0.10087966456E+04  0.14277583752E+04  0.10002167847E+04 0.  0.
   -9000010    2    1    2    0  502 -0.14275776356E+03  0.31480895467E+01 -0.86967932618E+03  0.13293039105E+04  0.99514675627E+03 0.  0.
        -13    1    3    3    0    0 -0.10154939363E+03 -0.20524027282E+03  0.11771819244E+03  0.25747511128E+03  0.10566000000E+00 0.  1.
          4    1    3    3  501    0  0.24430715719E+03  0.20209218327E+03 -0.11265148380E+04  0.11702832640E+04  0.00000000000E+00 0.  1.
         13    1    4    4    0    0 -0.18523590649E+03  0.36518746327E+03 -0.26071819572E+02  0.41030960911E+03  0.10566000000E+00 0. -1.
         -4    1    4    4    0  502  0.42478142936E+02 -0.36203937373E+03 -0.84360750661E+03  0.91899430138E+03  0.00000000000E+00 0. -1.
<mgrwt>
<rscale>  2 0.10091009E+04</rscale>
<asrwt>0</asrwt>
<pdfrwt beam="1">  1       21 0.67583563E-01 0.10103580E+04</pdfrwt>
<pdfrwt beam="2">  1       21 0.35657986E+00 0.10103580E+04</pdfrwt>
<totfact> 0.11215201E+01</totfact>
</mgrwt>
</event>
<event>
 8    1  0.1168507E-005  0.1298324E+04  0.7818608E-02  0.8536903E-01
         21   -1    0    0  501  502  0.00000000000E+00  0.00000000000E+00  0.89435838446E+03  0.89435838446E+03  0.00000000000E+00 0.  1.
         21   -1    0    0  502  503 -0.00000000000E+00 -0.00000000000E+00 -0.19676914354E+04  0.19676914354E+04  0.00000000000E+00 0. -1.
   -9000010    2    1    2    0  503 -0.22720152876E+03  0.78982853992E+03 -0.84495722706E+03  0.15490631886E+04  0.10050842699E+04 0.  0.
    9000010    2    1    2  501    0  0.22720152876E+03 -0.78982853992E+03 -0.22837582389E+03  0.13129866313E+04  0.99816267200E+03 0.  0.
        -13    1    4    4    0    0 -0.17040705195E+03 -0.66285488494E+03 -0.47042460994E+03  0.83049050967E+03  0.10566000000E+00 0.  1.
          4    1    4    4  501    0  0.39760858071E+03 -0.12697365497E+03  0.24204878606E+03  0.48249612158E+03  0.00000000000E+00 0.  1.
         13    1    3    3    0    0 -0.42900771283E+03  0.55103478989E+03 -0.56201724553E+02  0.70060374131E+03  0.10566000000E+00 0. -1.
         -4    1    3    3    0  503  0.20180618407E+03  0.23879375003E+03 -0.78875550250E+03  0.84845944730E+03  0.00000000000E+00 0. -1.
<mgrwt>
<rscale>  2 0.12969838E+04</rscale>
<asrwt>0</asrwt>
<pdfrwt beam="1">  1       21 0.13759360E+00 0.12983236E+04</pdfrwt>
<pdfrwt beam="2">  1       21 0.30272176E+00 0.12983236E+04</pdfrwt>
<totfact> 0.39259773E+00</totfact>
</mgrwt>
</event>
<event>
 8    1  0.1168507E-005  0.1137625E+04  0.7818608E-02  0.8655413E-01
         21   -1    0    0  501  502  0.00000000000E+00  0.00000000000E+00  0.24331916184E+04  0.24331916184E+04  0.00000000000E+00 0.  1.
         21   -1    0    0  502  503 -0.00000000000E+00 -0.00000000000E+00 -0.74906424490E+03  0.74906424490E+03  0.00000000000E+00 0.  1.
   -9000010    2    1    2    0  503 -0.21809400043E+03  0.50552576158E+03 -0.15790850923E+02  0.11377345137E+04  0.99552457731E+03 0.  0.
    9000010    2    1    2  501    0  0.21809400043E+03 -0.50552576158E+03  0.16999182244E+04  0.20445213496E+04  0.99359161159E+03 0.  0.
        -13    1    4    4    0    0  0.47052481904E+02 -0.73973994782E+03  0.15498348010E+04  0.17179688728E+04  0.10566000000E+00 0.  1.
          4    1    4    4  501    0  0.17104151853E+03  0.23421418624E+03  0.15008342340E+03  0.32655247676E+03  0.00000000000E+00 0.  1.
         13    1    3    3    0    0  0.75227931036E+01 -0.25991873343E+02  0.41590238244E+03  0.41678168480E+03  0.10566000000E+00 0. -1.
         -4    1    3    3    0  503 -0.22561679354E+03  0.53151763492E+03 -0.43169323336E+03  0.72095282889E+03  0.00000000000E+00 0. -1.
<mgrwt>
<rscale>  2 0.11372019E+04</rscale>
<asrwt>0</asrwt>
<pdfrwt beam="1">  1       21 0.37433717E+00 0.11376249E+04</pdfrwt>
<pdfrwt beam="2">  1       21 0.11524065E+00 0.11376249E+04</pdfrwt>
<totfact> 0.21156336E+00</totfact>
</mgrwt>
</event>
<event>
 8    1  0.1168507E-005  0.1029443E+04  0.7818608E-02  0.8747533E-01
         21   -1    0    0  503  502  0.00000000000E+00  0.00000000000E+00  0.96155956905E+03  0.96155956905E+03  0.00000000000E+00 0. -1.
         21   -1    0    0  501  503 -0.00000000000E+00 -0.00000000000E+00 -0.11893355510E+04  0.11893355510E+04  0.00000000000E+00 0. -1.
    9000010    2    1    2  501    0  0.21449874179E+03  0.12997879012E+02 -0.40612010751E+03  0.11066553203E+04  0.10067640245E+04 0.  0.
   -9000010    2    1    2    0  502 -0.21449874179E+03 -0.12997879012E+02  0.17834412553E+03  0.10442397998E+04  0.10062064784E+04 0.  0.
        -13    1    3    3    0    0 -0.39758528571E+03  0.10643951488E+02 -0.56408144760E+02  0.40170790766E+03  0.10566000000E+00 0.  1.
          4    1    3    3  501    0  0.61208402750E+03  0.23539275237E+01 -0.34971196275E+03  0.70494741264E+03  0.00000000000E+00 0.  1.
         13    1    4    4    0    0 -0.46158843315E+03 -0.33264572240E+03 -0.64900513851E+02  0.57265098106E+03  0.10566000000E+00 0. -1.
         -4    1    4    4    0  502  0.24708969136E+03  0.31964784339E+03  0.24324463938E+03  0.47158881872E+03  0.00000000000E+00 0. -1.
<mgrwt>
<rscale>  2 0.10293064E+04</rscale>
<asrwt>0</asrwt>
<pdfrwt beam="1">  1       21 0.14793224E+00 0.10294428E+04</pdfrwt>
<pdfrwt beam="2">  1       21 0.18297470E+00 0.10294428E+04</pdfrwt>
<totfact> 0.25831725E+01</totfact>
</mgrwt>
</event>
<event>
 8    1  0.1168507E-005  0.1127401E+04  0.7818608E-02  0.8670460E-01
         21   -1    0    0  501  502  0.00000000000E+00  0.00000000000E+00  0.10319216431E+04  0.10319216431E+04  0.00000000000E+00 0. -1.
         21   -1    0    0  502  503 -0.00000000000E+00 -0.00000000000E+00 -0.12255812932E+04  0.12255812932E+04  0.00000000000E+00 0. -1.
   -9000010    2    1    2    0  503 -0.51886098001E+03 -0.10421222894E+03  0.84996729701E+02  0.10961747677E+04  0.95618919263E+03 0.  0.
    9000010    2    1    2  501    0  0.51886098001E+03  0.10421222894E+03 -0.27865637976E+03  0.11613281685E+04  0.99546814707E+03 0.  0.
        -13    1    4    4    0    0  0.41995915659E+03 -0.41984778977E+03 -0.15919213305E+03  0.61480078576E+03  0.10566000000E+00 0.  1.
          4    1    4    4  501    0  0.98901823422E+02  0.52406001871E+03 -0.11946424672E+03  0.54652738279E+03  0.00000000000E+00 0.  1.
         13    1    3    3    0    0 -0.33736469186E+03  0.39982771123E+03  0.17768687876E+03  0.55249413755E+03  0.10566000000E+00 0. -1.
         -4    1    3    3    0  503 -0.18149628815E+03 -0.50403994017E+03 -0.92690149061E+02  0.54368063018E+03  0.00000000000E+00 0. -1.
<mgrwt>
<rscale>  2 0.11186687E+04</rscale>
<asrwt>0</asrwt>
<pdfrwt beam="1">  1       21 0.15875718E+00 0.11274013E+04</pdfrwt>
<pdfrwt beam="2">  1       21 0.18855097E+00 0.11274013E+04</pdfrwt>
<totfact> 0.18296468E+01</totfact>
</mgrwt>
</event>
<event>
 8    1  0.1168507E-005  0.1146982E+04  0.7818608E-02  0.8656788E-01
         21   -1    0    0  501  502  0.00000000000E+00  0.00000000000E+00  0.76001289480E+03  0.76001289480E+03  0.00000000000E+00 0.  1.
         21   -1    0    0  502  503 -0.00000000000E+00 -0.00000000000E+00 -0.18552757175E+04  0.18552757175E+04  0.00000000000E+00 0. -1.
   -9000010    2    1    2    0  503 -0.86859075436E+02  0.46548943032E+03 -0.95827194176E+03  0.14601543299E+04  0.99475657531E+03 0.  0.
    9000010    2    1    2  501    0  0.86859075436E+02 -0.46548943032E+03 -0.13699088097E+03  0.11551342824E+04  0.10446740162E+04 0.  0.
        -13    1    4    4    0    0  0.17519698751E+03 -0.69839183683E+03 -0.37394119628E+03  0.81134282003E+03  0.10566000000E+00 0.  1.
          4    1    4    4  501    0 -0.88337912077E+02  0.23290240651E+03  0.23695031531E+03  0.34379146236E+03  0.00000000000E+00 0.  1.
         13    1    3    3    0    0 -0.33927545273E+03 -0.11907812014E+03 -0.67173603723E+03  0.76191649569E+03  0.10566000000E+00 0. -1.
         -4    1    3    3    0  503  0.25241637730E+03  0.58456755046E+03 -0.28653590452E+03  0.69823783424E+03  0.00000000000E+00 0. -1.
<mgrwt>
<rscale>  2 0.11354929E+04</rscale>
<asrwt>0</asrwt>
<pdfrwt beam="1">  1       21 0.11692506E+00 0.11469824E+04</pdfrwt>
<pdfrwt beam="2">  1       21 0.28542703E+00 0.11469824E+04</pdfrwt>
<totfact> 0.85678265E+00</totfact>
</mgrwt>
</event>
<event>
 8    1  0.1168507E-005  0.1084248E+04  0.7818608E-02  0.8701404E-01
         21   -1    0    0  501  502  0.00000000000E+00  0.00000000000E+00  0.61199497200E+03  0.61199497200E+03  0.00000000000E+00 0.  1.
         21   -1    0    0  502  503 -0.00000000000E+00 -0.00000000000E+00 -0.19331124984E+04  0.19331124984E+04  0.00000000000E+00 0.  1.
   -9000010    2    1    2    0  503 -0.22643637804E+03  0.33786784198E+03 -0.81645548941E+03  0.13491656005E+04  0.99409262115E+03 0.  0.
    9000010    2    1    2  501    0  0.22643637804E+03 -0.33786784198E+03 -0.50466203694E+03  0.11959418699E+04  0.10050696854E+04 0.  0.
        -13    1    4    4    0    0 -0.27200537108E+03 -0.29859077102E+03  0.95253804122E+02  0.41498996229E+03  0.10566000000E+00 0.  1.
          4    1    4    4  501    0  0.49844174913E+03 -0.39277070966E+02 -0.59991584106E+03  0.78095190757E+03  0.00000000000E+00 0.  1.
         13    1    3    3    0    0  0.16694868046E+03  0.49306259605E+03 -0.11974527916E+03  0.53415496682E+03  0.10566000000E+00 0. -1.
         -4    1    3    3    0  503 -0.39338505850E+03 -0.15519475407E+03 -0.69671021026E+03  0.81501063368E+03  0.00000000000E+00 0. -1.
<mgrwt>
<rscale>  2 0.10816969E+04</rscale>
<asrwt>0</asrwt>
<pdfrwt beam="1">  1       21 0.94153074E-01 0.10842478E+04</pdfrwt>
<pdfrwt beam="2">  1       21 0.29740192E+00 0.10842478E+04</pdfrwt>
<totfact> 0.12723209E+01</totfact>
</mgrwt>
</event>
<event>
 8    1  0.1168507E-005  0.1069180E+04  0.7818608E-02  0.8713796E-01
         21   -1    0    0  501  502  0.00000000000E+00  0.00000000000E+00  0.54564529301E+03  0.54564529301E+03  0.00000000000E+00 0.  1.
         21   -1    0    0  502  503 -0.00000000000E+00 -0.00000000000E+00 -0.21404038910E+04  0.21404038910E+04  0.00000000000E+00 0.  1.
   -9000010    2    1    2    0  503  0.95196773142E+02 -0.38069656259E+03 -0.10248748528E+04  0.14810520747E+04  0.99456245941E+03 0.  0.
    9000010    2    1    2  501    0 -0.95196773142E+02  0.38069656259E+03 -0.56988374520E+03  0.12049971093E+04  0.98653852033E+03 0.  0.
        -13    1    4    4    0    0 -0.22861582333E+03  0.43084400726E+03 -0.79844741047E+03  0.93563349220E+03  0.10566000000E+00 0.  1.
          4    1    4    4  501    0  0.13341905019E+03 -0.50147444672E+02  0.22856366527E+03  0.26936361715E+03  0.00000000000E+00 0.  1.
         13    1    3    3    0    0  0.24068577541E+03 -0.48424535038E+03 -0.11446984518E+04  0.12660006946E+04  0.10566000000E+00 0. -1.
         -4    1    3    3    0  503 -0.14548900227E+03  0.10354878779E+03  0.11982359899E+03  0.21505138016E+03  0.00000000000E+00 0. -1.
<mgrwt>
<rscale>  2 0.10673106E+04</rscale>
<asrwt>0</asrwt>
<pdfrwt beam="1">  1       21 0.83945431E-01 0.10691804E+04</pdfrwt>
<pdfrwt beam="2">  1       21 0.32929290E+00 0.10691804E+04</pdfrwt>
<totfact> 0.10197578E+01</totfact>
</mgrwt>
</event>
<event>
 8    1  0.1168507E-005  0.1135239E+04  0.7818608E-02  0.8688730E-01
         21   -1    0    0  503  502  0.00000000000E+00  0.00000000000E+00  0.10997264087E+04  0.10997264087E+04  0.00000000000E+00 0.  1.
         21   -1    0    0  501  503 -0.00000000000E+00 -0.00000000000E+00 -0.10356971848E+04  0.10356971848E+04  0.00000000000E+00 0.  1.
    9000010    2    1    2  501    0 -0.50322279591E+03 -0.15322846534E+03  0.13595882352E+03  0.99790801280E+03  0.83703252948E+03 0.  0.
   -9000010    2    1    2    0  502  0.50322279591E+03  0.15322846534E+03 -0.71929599617E+02  0.11375155808E+04  0.10060097834E+04 0.  0.
        -13    1    3    3    0    0 -0.48333821965E+03 -0.36222759639E+03 -0.16942583729E+03  0.62731952916E+03  0.10566000000E+00 0.  1.
          4    1    3    3  501    0 -0.19884576261E+02  0.20899913105E+03  0.30538466081E+03  0.37058848364E+03  0.00000000000E+00 0.  1.
         13    1    4    4    0    0 -0.19042268606E+03  0.30226115623E+03  0.15952238464E+03  0.39124162393E+03  0.10566000000E+00 0. -1.
         -4    1    4    4    0  502  0.69364548197E+03 -0.14903269089E+03 -0.23145198426E+03  0.74627395682E+03  0.00000000000E+00 0. -1.
<mgrwt>
<rscale>  2 0.10966574E+04</rscale>
<asrwt>0</asrwt>
<pdfrwt beam="1">  1       21 0.16918868E+00 0.11352391E+04</pdfrwt>
<pdfrwt beam="2">  1       21 0.15933803E+00 0.11352391E+04</pdfrwt>
<totfact> 0.26030418E+01</totfact>
</mgrwt>
</event>
<event>
 8    1  0.1168507E-005  0.1697928E+04  0.7818608E-02  0.8306615E-01
         21   -1    0    0  503  502  0.00000000000E+00  0.00000000000E+00  0.86598489753E+03  0.86598489753E+03  0.00000000000E+00 0. -1.
         21   -1    0    0  501  503 -0.00000000000E+00 -0.00000000000E+00 -0.34803735225E+04  0.34803735225E+04  0.00000000000E+00 0.  1.
    9000010    2    1    2  501    0 -0.26343812550E+03 -0.13223025424E+04 -0.18122643434E+04  0.24684970535E+04  0.99563647634E+03 0.  0.
   -9000010    2    1    2    0  502  0.26343812550E+03  0.13223025424E+04 -0.80212428152E+03  0.18778613665E+04  0.10320253336E+04 0.  0.
        -13    1    3    3    0    0  0.56537042573E+02 -0.37519852809E+03  0.21386963578E+02  0.38003655882E+03  0.10566000000E+00 0.  1.
          4    1    3    3  501    0 -0.31997516808E+03 -0.94710401432E+03 -0.18336513070E+04  0.20884604947E+04  0.00000000000E+00 0.  1.
         13    1    4    4    0    0  0.18604578150E+03  0.10710956747E+04 -0.58005231514E+02  0.10886797487E+04  0.10566000000E+00 0. -1.
         -4    1    4    4    0  502  0.77392344006E+02  0.25120686769E+03 -0.74411905001E+03  0.78918161780E+03  0.00000000000E+00 0. -1.
<mgrwt>
<rscale>  2 0.16924344E+04</rscale>
<asrwt>0</asrwt>
<pdfrwt beam="1">  1       21 0.13322845E+00 0.16979281E+04</pdfrwt>
<pdfrwt beam="2">  1       21 0.53544207E+00 0.16979281E+04</pdfrwt>
<totfact> 0.95031243E-02</totfact>
</mgrwt>
</event>
<event>
 8    1  0.1168507E-005  0.1179154E+04  0.7818608E-02  0.8622485E-01
         21   -1    0    0  501  502  0.00000000000E+00  0.00000000000E+00  0.11160996172E+04  0.11160996172E+04  0.00000000000E+00 0. -1.
         21   -1    0    0  502  503 -0.00000000000E+00 -0.00000000000E+00 -0.13835032830E+04  0.13835032830E+04  0.00000000000E+00 0. -1.
   -9000010    2    1    2    0  503 -0.51478741634E+03  0.31637773052E+03 -0.52850590637E+03  0.12921774187E+04  0.10125724843E+04 0.  0.
    9000010    2    1    2  501    0  0.51478741634E+03 -0.31637773052E+03  0.26110224054E+03  0.12074254815E+04  0.10122257460E+04 0.  0.
        -13    1    4    4    0    0  0.48907708910E+03  0.76738133311E+02  0.53400416927E+03  0.72817965102E+03  0.10566000000E+00 0.  1.
          4    1    4    4  501    0  0.25710327236E+02 -0.39311586383E+03 -0.27290192873E+03  0.47924583048E+03  0.00000000000E+00 0.  1.
         13    1    3    3    0    0 -0.28005882703E+03 -0.13559014840E+03  0.22409478281E+03  0.38345288861E+03  0.10566000000E+00 0. -1.
         -4    1    3    3    0  503 -0.23472858931E+03  0.45196787892E+03 -0.75260068918E+03  0.90872453008E+03  0.00000000000E+00 0. -1.
<mgrwt>
<rscale>  2 0.11790795E+04</rscale>
<asrwt>0</asrwt>
<pdfrwt beam="1">  1       21 0.17170763E+00 0.11791539E+04</pdfrwt>
<pdfrwt beam="2">  1       21 0.21284666E+00 0.11791539E+04</pdfrwt>
<totfact> 0.90690777E+00</totfact>
</mgrwt>
</event>
<event>
 8    1  0.1168507E-005  0.1281706E+04  0.7818608E-02  0.8549958E-01
         21   -1    0    0  503  502  0.00000000000E+00  0.00000000000E+00  0.13969263678E+04  0.13969263678E+04  0.00000000000E+00 0. -1.
         21   -1    0    0  501  503 -0.00000000000E+00 -0.00000000000E+00 -0.13158415009E+04  0.13158415009E+04  0.00000000000E+00 0.  1.
    9000010    2    1    2  501    0  0.28337167932E+03  0.74031923406E+03 -0.42212023923E+03  0.13358196398E+04  0.98886628867E+03 0.  0.
   -9000010    2    1    2    0  502 -0.28337167932E+03 -0.74031923406E+03  0.50320510617E+03  0.13769482289E+04  0.10071737532E+04 0.  0.
        -13    1    3    3    0    0 -0.26433134713E+03  0.19860727865E+03  0.16283602484E+03  0.36855324495E+03  0.10566000000E+00 0.  1.
          4    1    3    3  501    0  0.54770302646E+03  0.54171195541E+03 -0.58495626407E+03  0.96726639490E+03  0.00000000000E+00 0.  1.
         13    1    4    4    0    0 -0.23884431775E+03 -0.98791059308E+03  0.48088925017E+03  0.11243969184E+04  0.10566000000E+00 0. -1.
         -4    1    4    4    0  502 -0.44527361577E+02  0.24759135903E+03  0.22315856008E+02  0.25255131047E+03  0.00000000000E+00 0. -1.
<mgrwt>
<rscale>  2 0.12781073E+04</rscale>
<asrwt>0</asrwt>
<pdfrwt beam="1">  1       21 0.21491175E+00 0.12817063E+04</pdfrwt>
<pdfrwt beam="2">  1       21 0.20243715E+00 0.12817063E+04</pdfrwt>
<totfact> 0.48422576E+00</totfact>
</mgrwt>
</event>
<event>
 8    1  0.1168507E-005  0.1482036E+04  0.7818608E-02  0.8423405E-01
         21   -1    0    0  503  502  0.00000000000E+00  0.00000000000E+00  0.21657520656E+04  0.21657520656E+04  0.00000000000E+00 0.  1.
         21   -1    0    0  501  503 -0.00000000000E+00 -0.00000000000E+00 -0.10043591483E+04  0.10043591483E+04  0.00000000000E+00 0. -1.
    9000010    2    1    2  501    0  0.13688643645E+03 -0.10546609170E+04  0.45921831047E+03  0.15515518661E+04  0.10321744959E+04 0.  0.
   -9000010    2    1    2    0  502 -0.13688643645E+03  0.10546609170E+04  0.70217460687E+03  0.16185593479E+04  0.99781643481E+03 0.  0.
        -13    1    3    3    0    0 -0.22884542034E+03 -0.66419758356E+03  0.67540578123E+03  0.97452636542E+03  0.10566000000E+00 0.  1.
          4    1    3    3  501    0  0.36573185679E+03 -0.39046333348E+03 -0.21618747077E+03  0.57702550063E+03  0.00000000000E+00 0.  1.
         13    1    4    4    0    0 -0.23032146236E+03  0.84018547666E+03 -0.76085255764E+01  0.87121611098E+03  0.10566000000E+00 0. -1.
         -4    1    4    4    0  502  0.93435025907E+02  0.21447544038E+03  0.70978313245E+03  0.74734323687E+03  0.00000000000E+00 0. -1.
<mgrwt>
<rscale>  2 0.14760703E+04</rscale>
<asrwt>0</asrwt>
<pdfrwt beam="1">  1       21 0.33319263E+00 0.14820363E+04</pdfrwt>
<pdfrwt beam="2">  1       21 0.15451679E+00 0.14820363E+04</pdfrwt>
<totfact> 0.16242272E+00</totfact>
</mgrwt>
</event>
<event>
 8    1  0.1168507E-005  0.1066115E+04  0.7818608E-02  0.8718771E-01
         21   -1    0    0  503  502  0.00000000000E+00  0.00000000000E+00  0.89468737700E+03  0.89468737700E+03  0.00000000000E+00 0.  1.
         21   -1    0    0  501  503 -0.00000000000E+00 -0.00000000000E+00 -0.12539235785E+04  0.12539235785E+04  0.00000000000E+00 0.  1.
    9000010    2    1    2  501    0  0.25941313275E+02 -0.30492586902E+03 -0.11145828585E+03  0.10540815927E+04  0.10025030261E+04 0.  0.
   -9000010    2    1    2    0  502 -0.25941313275E+02  0.30492586902E+03 -0.24777791569E+03  0.10945293628E+04  0.10212482036E+04 0.  0.
        -13    1    3    3    0    0 -0.13933309400E+03 -0.61632130179E+03  0.10478922256E+03  0.64050484030E+03  0.10566000000E+00 0.  1.
          4    1    3    3  501    0  0.16527440727E+03  0.31139543276E+03 -0.21624750842E+03  0.41357675242E+03  0.00000000000E+00 0.  1.
         13    1    4    4    0    0 -0.39790799422E+03  0.12430275300E+03 -0.46742299125E+03  0.62631159192E+03  0.10566000000E+00 0. -1.
         -4    1    4    4    0  502  0.37196668094E+03  0.18062311603E+03  0.21964507556E+03  0.46821777091E+03  0.00000000000E+00 0. -1.
<mgrwt>
<rscale>  2 0.10616005E+04</rscale>
<asrwt>0</asrwt>
<pdfrwt beam="1">  1       21 0.13764421E+00 0.10661147E+04</pdfrwt>
<pdfrwt beam="2">  1       21 0.19291132E+00 0.10661147E+04</pdfrwt>
<totfact> 0.26495672E+01</totfact>
</mgrwt>
</event>
<event>
 8    1  0.1168507E-005  0.1038058E+04  0.7818608E-02  0.8741389E-01
         21   -1    0    0  501  502  0.00000000000E+00  0.00000000000E+00  0.21147027091E+04  0.21147027091E+04  0.00000000000E+00 0. -1.
         21   -1    0    0  502  503 -0.00000000000E+00 -0.00000000000E+00 -0.55768171686E+03  0.55768171686E+03  0.00000000000E+00 0. -1.
   -9000010    2    1    2    0  503 -0.20113275182E+03 -0.17793481950E+03  0.36807143590E+03  0.10940420364E+04  0.99465381496E+03 0.  0.
    9000010    2    1    2  501    0  0.20113275182E+03  0.17793481950E+03  0.11889495563E+04  0.15783423896E+04  0.10027205330E+04 0.  0.
        -13    1    4    4    0    0  0.27409716770E+03  0.38186663196E+03  0.11654923347E+03  0.48428825810E+03  0.10566000000E+00 0.  1.
          4    1    4    4  501    0 -0.72964415880E+02 -0.20393181246E+03  0.10724003229E+04  0.10940541315E+04  0.00000000000E+00 0.  1.
         13    1    3    3    0    0 -0.36605632985E+03 -0.51840330016E+03  0.32584595013E+03  0.71338265511E+03  0.10566000000E+00 0. -1.
         -4    1    3    3    0  503  0.16492357802E+03  0.34046848066E+03  0.42225485771E+02  0.38065938128E+03  0.00000000000E+00 0. -1.
<mgrwt>
<rscale>  2 0.10361046E+04</rscale>
<asrwt>0</asrwt>
<pdfrwt beam="1">  1       21 0.32533887E+00 0.10380576E+04</pdfrwt>
<pdfrwt beam="2">  1       21 0.85797189E-01 0.10380576E+04</pdfrwt>
<totfact> 0.10363043E+01</totfact>
</mgrwt>
</event>
<event>
 8    1  0.1168507E-005  0.1070711E+04  0.7818608E-02  0.8711623E-01
         21   -1    0    0  503  502  0.00000000000E+00  0.00000000000E+00  0.12442232886E+04  0.12442232886E+04  0.00000000000E+00 0. -1.
         21   -1    0    0  501  503 -0.00000000000E+00 -0.00000000000E+00 -0.95558787796E+03  0.95558787796E+03  0.00000000000E+00 0. -1.
    9000010    2    1    2  501    0 -0.35979926221E+03 -0.92289189254E+02  0.36129448338E+03  0.11266371880E+04  0.10004023421E+04 0.  0.
   -9000010    2    1    2    0  502  0.35979926221E+03  0.92289189254E+02 -0.72659072745E+02  0.10731739786E+04  0.10042162337E+04 0.  0.
        -13    1    3    3    0    0  0.30255747290E+03 -0.18685873116E+03 -0.20674346618E+02  0.35620871633E+03  0.10566000000E+00 0.  1.
          4    1    3    3  501    0 -0.66235673511E+03  0.94569541906E+02  0.38196883000E+03  0.77042847162E+03  0.00000000000E+00 0.  1.
         13    1    4    4    0    0  0.53898602783E+03 -0.19629153269E+03  0.23019592964E+03  0.61808290802E+03  0.10566000000E+00 0. -1.
         -4    1    4    4    0  502 -0.17918676562E+03  0.28858072194E+03 -0.30285500239E+03  0.45509107058E+03  0.00000000000E+00 0. -1.
<mgrwt>
<rscale>  2 0.10698163E+04</rscale>
<asrwt>0</asrwt>
<pdfrwt beam="1">  1       21 0.19141897E+00 0.10707115E+04</pdfrwt>
<pdfrwt beam="2">  1       21 0.14701352E+00 0.10707115E+04</pdfrwt>
<totfact> 0.22316899E+01</totfact>
</mgrwt>
</event>
<event>
 8    1  0.1168507E-005  0.1143976E+04  0.7818608E-02  0.8652508E-01
         21   -1    0    0  501  502  0.00000000000E+00  0.00000000000E+00  0.15851579763E+04  0.15851579763E+04  0.00000000000E+00 0.  1.
         21   -1    0    0  502  503 -0.00000000000E+00 -0.00000000000E+00 -0.88278397916E+03  0.88278397916E+03  0.00000000000E+00 0. -1.
   -9000010    2    1    2    0  503  0.33774914650E+03  0.42907674774E+03  0.11386001308E+02  0.11314744428E+04  0.99092049740E+03 0.  0.
    9000010    2    1    2  501    0 -0.33774914650E+03 -0.42907674774E+03  0.69098799583E+03  0.13364675127E+04  0.10052361219E+04 0.  0.
        -13    1    4    4    0    0 -0.11572257669E+01 -0.70277220221E+03  0.35254499074E+03  0.78624302161E+03  0.10566000000E+00 0.  1.
          4    1    4    4  501    0 -0.33659192074E+03  0.27369545447E+03  0.33844300509E+03  0.55022449109E+03  0.00000000000E+00 0.  1.
         13    1    3    3    0    0 -0.14752501527E+03  0.54662273047E+03  0.19597639545E+03  0.59913837996E+03  0.10566000000E+00 0. -1.
         -4    1    3    3    0  503  0.48527416178E+03 -0.11754598273E+03 -0.18459039415E+03  0.53233606280E+03  0.00000000000E+00 0. -1.
<mgrwt>
<rscale>  2 0.11408233E+04</rscale>
<asrwt>0</asrwt>
<pdfrwt beam="1">  1       21 0.24387046E+00 0.11439760E+04</pdfrwt>
<pdfrwt beam="2">  1       21 0.13581292E+00 0.11439760E+04</pdfrwt>
<totfact> 0.11135167E+01</totfact>
</mgrwt>
</event>
<event>
 8    1  0.1168507E-005  0.1047765E+04  0.7818608E-02  0.8733106E-01
         21   -1    0    0  503  502  0.00000000000E+00  0.00000000000E+00  0.14471384393E+04  0.14471384393E+04  0.00000000000E+00 0. -1.
         21   -1    0    0  501  503 -0.00000000000E+00 -0.00000000000E+00 -0.81272502559E+03  0.81272502559E+03  0.00000000000E+00 0. -1.
    9000010    2    1    2  501    0 -0.62731741739E+02 -0.27172892651E+03  0.61484547602E+01  0.10381724562E+04  0.99999618215E+03 0.  0.
   -9000010    2    1    2    0  502  0.62731741739E+02  0.27172892651E+03  0.62826495898E+03  0.12216910088E+04  0.10099703863E+04 0.  0.
        -13    1    3    3    0    0  0.18587700238E+03 -0.46061115889E+03  0.32367562321E+03  0.59285649185E+03  0.10566000000E+00 0.  1.
          4    1    3    3  501    0 -0.24860874412E+03  0.18888223238E+03 -0.31752716845E+03  0.44531596430E+03  0.00000000000E+00 0.  1.
         13    1    4    4    0    0  0.19706014518E+03 -0.34159258548E+03  0.11513558067E+03  0.41082162598E+03  0.10566000000E+00 0. -1.
         -4    1    4    4    0  502 -0.13432840344E+03  0.61332151199E+03  0.51312937831E+03  0.81086938278E+03  0.00000000000E+00 0. -1.
<mgrwt>
<rscale>  2 0.10453542E+04</rscale>
<asrwt>0</asrwt>
<pdfrwt beam="1">  1       21 0.22263668E+00 0.10477653E+04</pdfrwt>
<pdfrwt beam="2">  1       21 0.12503462E+00 0.10477653E+04</pdfrwt>
<totfact> 0.20755108E+01</totfact>
</mgrwt>
</event>
<event>
 8    1  0.1168507E-005  0.1189903E+04  0.7818608E-02  0.8616234E-01
         21   -1    0    0  501  502  0.00000000000E+00  0.00000000000E+00  0.17816457379E+04  0.17816457379E+04  0.00000000000E+00 0.  1.
         21   -1    0    0  502  503 -0.00000000000E+00 -0.00000000000E+00 -0.79064929841E+03  0.79064929841E+03  0.00000000000E+00 0.  1.
   -9000010    2    1    2    0  503  0.25724752744E+03 -0.57370397279E+03  0.41367225423E+03  0.12497324280E+04  0.99769427624E+03 0.  0.
    9000010    2    1    2  501    0 -0.25724752744E+03  0.57370397279E+03  0.57732418525E+03  0.13225626083E+04  0.10102257665E+04 0.  0.
        -13    1    4    4    0    0 -0.25777407715E+03 -0.83924649284E+02 -0.17550880574E+03  0.32294608476E+03  0.10566000000E+00 0.  1.
          4    1    4    4  501    0  0.52654970553E+00  0.65762862207E+03  0.75283299099E+03  0.99961652355E+03  0.00000000000E+00 0.  1.
         13    1    3    3    0    0  0.19812424259E+03  0.23358470182E+02  0.59126861609E+03  0.62401716416E+03  0.10566000000E+00 0. -1.
         -4    1    3    3    0  503  0.59123284853E+02 -0.59706244297E+03 -0.17759636187E+03  0.62571526381E+03  0.00000000000E+00 0. -1.
<mgrwt>
<rscale>  2 0.11872387E+04</rscale>
<asrwt>0</asrwt>
<pdfrwt beam="1">  1       21 0.27409935E+00 0.11899028E+04</pdfrwt>
<pdfrwt beam="2">  1       21 0.12163835E+00 0.11899028E+04</pdfrwt>
<totfact> 0.91591061E+00</totfact>
</mgrwt>
</event>
<event>
 8    1  0.1168507E-005  0.1236020E+04  0.7818608E-02  0.8580964E-01
         21   -1    0    0  503  502  0.00000000000E+00  0.00000000000E+00  0.66645101897E+03  0.66645101897E+03  0.00000000000E+00 0.  1.
         21   -1    0    0  501  503 -0.00000000000E+00 -0.00000000000E+00 -0.24037333054E+04  0.24037333054E+04  0.00000000000E+00 0.  1.
    9000010    2    1    2  501    0 -0.30819855216E+02 -0.72019945828E+03 -0.12163743785E+04  0.17341606881E+04  0.10040465827E+04 0.  0.
   -9000010    2    1    2    0  502  0.30819855216E+02  0.72019945828E+03 -0.52090790793E+03  0.13360236363E+04  0.99698394421E+03 0.  0.
        -13    1    3    3    0    0  0.35757975063E+03  0.59488723861E+02 -0.40820292416E+03  0.54592291103E+03  0.10566000000E+00 0.  1.
          4    1    3    3  501    0 -0.38839960585E+03 -0.77968818214E+03 -0.80817145437E+03  0.11882377771E+04  0.00000000000E+00 0.  1.
         13    1    4    4    0    0  0.42884749282E+03  0.58622900924E+03 -0.85958260128E+02  0.73141196122E+03  0.10566000000E+00 0. -1.
         -4    1    4    4    0  502 -0.39802763760E+03  0.13397044904E+03 -0.43494964780E+03  0.60461167507E+03  0.00000000000E+00 0. -1.
<mgrwt>
<rscale>  2 0.12345854E+04</rscale>
<asrwt>0</asrwt>
<pdfrwt beam="1">  1       21 0.10253093E+00 0.12360205E+04</pdfrwt>
<pdfrwt beam="2">  1       21 0.36980512E+00 0.12360205E+04</pdfrwt>
<totfact> 0.30592462E+00</totfact>
</mgrwt>
</event>
<event>
 8    1  0.1168507E-005  0.1359835E+04  0.7818608E-02  0.8514641E-01
         21   -1    0    0  503  502  0.00000000000E+00  0.00000000000E+00  0.74548483907E+03  0.74548483907E+03  0.00000000000E+00 0. -1.
         21   -1    0    0  501  503 -0.00000000000E+00 -0.00000000000E+00 -0.24689314384E+04  0.24689314384E+04  0.00000000000E+00 0. -1.
    9000010    2    1    2  501    0 -0.74377193785E+03  0.12342852613E+03 -0.13481273807E+04  0.19148367787E+04  0.11316895149E+04 0.  0.
   -9000010    2    1    2    0  502  0.74377193785E+03 -0.12342852613E+03 -0.37531921867E+03  0.12995794987E+04  0.98975303032E+03 0.  0.
        -13    1    3    3    0    0 -0.93944965411E+03  0.72649764366E+01 -0.55822690319E+03  0.10928109256E+04  0.10566000000E+00 0.  1.
          4    1    3    3  501    0  0.19567771627E+03  0.11616354969E+03 -0.78990047747E+03  0.82202585314E+03  0.00000000000E+00 0.  1.
         13    1    4    4    0    0 -0.79235532668E+02 -0.37415274003E+03 -0.87190257847E+02  0.39226355265E+03  0.10566000000E+00 0. -1.
         -4    1    4    4    0  502  0.82300747051E+03  0.25072421390E+03 -0.28812896082E+03  0.90731594609E+03  0.00000000000E+00 0. -1.
<mgrwt>
<rscale>  2 0.13299571E+04</rscale>
<asrwt>0</asrwt>
<pdfrwt beam="1">  1       21 0.11468997E+00 0.13598355E+04</pdfrwt>
<pdfrwt beam="2">  1       21 0.37983561E+00 0.13598355E+04</pdfrwt>
<totfact> 0.18772861E+00</totfact>
</mgrwt>
</event>
<event>
 8    1  0.1168507E-005  0.1074838E+04  0.7818608E-02  0.8712328E-01
         21   -1    0    0  503  502  0.00000000000E+00  0.00000000000E+00  0.14539914452E+04  0.14539914452E+04  0.00000000000E+00 0. -1.
         21   -1    0    0  501  503 -0.00000000000E+00 -0.00000000000E+00 -0.77978683795E+03  0.77978683795E+03  0.00000000000E+00 0. -1.
    9000010    2    1    2  501    0  0.39245970695E+03 -0.27236476781E+01  0.40081755601E+03  0.11471401968E+04  0.10006217458E+04 0.  0.
   -9000010    2    1    2    0  502 -0.39245970695E+03  0.27236476781E+01  0.27338705124E+03  0.10866380863E+04  0.97570990107E+03 0.  0.
        -13    1    3    3    0    0  0.18448005733E+02  0.27303397191E+03 -0.23425004707E+03  0.36022350624E+03  0.10566000000E+00 0.  1.
          4    1    3    3  501    0  0.37401170121E+03 -0.27575761959E+03  0.63506760308E+03  0.78691669056E+03  0.00000000000E+00 0.  1.
         13    1    4    4    0    0  0.16311626580E+03  0.35682403054E+03  0.85553254958E+02  0.40155905610E+03  0.10566000000E+00 0. -1.
         -4    1    4    4    0  502 -0.55557597275E+03 -0.35410038286E+03  0.18783379628E+03  0.68507903023E+03  0.00000000000E+00 0. -1.
<mgrwt>
<rscale>  2 0.10690022E+04</rscale>
<asrwt>0</asrwt>
<pdfrwt beam="1">  1       21 0.22369099E+00 0.10748376E+04</pdfrwt>
<pdfrwt beam="2">  1       21 0.11996721E+00 0.10748376E+04</pdfrwt>
<totfact> 0.22767829E+01</totfact>
</mgrwt>
</event>
<event>
 8    1  0.1168507E-005  0.1361037E+04  0.7818608E-02  0.8497646E-01
         21   -1    0    0  503  502  0.00000000000E+00  0.00000000000E+00  0.10120881869E+04  0.10120881869E+04  0.00000000000E+00 0.  1.
         21   -1    0    0  501  503 -0.00000000000E+00 -0.00000000000E+00 -0.29173537885E+04  0.29173537885E+04  0.00000000000E+00 0.  1.
    9000010    2    1    2  501    0  0.22776893873E+03  0.86883169412E+03 -0.21717151786E+04  0.25629608642E+04  0.10225822080E+04 0.  0.
   -9000010    2    1    2    0  502 -0.22776893873E+03 -0.86883169412E+03  0.26644957705E+03  0.13664811113E+04  0.99475024412E+03 0.  0.
        -13    1    3    3    0    0 -0.34649424688E+01  0.41457376649E+02  0.11388361395E+03  0.12124441676E+03  0.10566000000E+00 0.  1.
          4    1    3    3  501    0  0.23123388120E+03  0.82737431747E+03 -0.22855987926E+04  0.24417164474E+04  0.00000000000E+00 0.  1.
         13    1    4    4    0    0  0.16172379637E+03  0.14848161683E+03  0.16061349498E+03  0.27202588624E+03  0.10566000000E+00 0. -1.
         -4    1    4    4    0  502 -0.38949273510E+03 -0.10173133109E+04  0.10583608207E+03  0.10944552250E+04  0.00000000000E+00 0. -1.
<mgrwt>
<rscale>  2 0.13558107E+04</rscale>
<asrwt>0</asrwt>
<pdfrwt beam="1">  1       21 0.15570588E+00 0.13610369E+04</pdfrwt>
<pdfrwt beam="2">  1       21 0.44882366E+00 0.13610369E+04</pdfrwt>
<totfact> 0.25350825E-01</totfact>
</mgrwt>
</event>
<event>
 8    1  0.1168507E-005  0.1025176E+04  0.7818608E-02  0.8753225E-01
         21   -1    0    0  501  502  0.00000000000E+00  0.00000000000E+00  0.16913988097E+04  0.16913988097E+04  0.00000000000E+00 0.  1.
         21   -1    0    0  502  503 -0.00000000000E+00 -0.00000000000E+00 -0.70296561073E+03  0.70296561073E+03  0.00000000000E+00 0.  1.
   -9000010    2    1    2    0  503  0.22674321097E+03 -0.12159615666E+03  0.71974515314E+02  0.10192711711E+04  0.98363371252E+03 0.  0.
    9000010    2    1    2  501    0 -0.22674321097E+03  0.12159615666E+03  0.91645868363E+03  0.13750932493E+04  0.99236425588E+03 0.  0.
        -13    1    4    4    0    0  0.44184103984E+02  0.11716073935E+03 -0.19463648595E+03  0.23143518902E+03  0.10566000000E+00 0.  1.
          4    1    4    4  501    0 -0.27092731495E+03  0.44354173041E+01  0.11110951696E+04  0.11436580602E+04  0.00000000000E+00 0.  1.
         13    1    3    3    0    0  0.94512118356E+02  0.35065127138E+03 -0.24250623910E+03  0.43668998363E+03  0.10566000000E+00 0. -1.
         -4    1    3    3    0  503  0.13223109261E+03 -0.47224742804E+03  0.31448075441E+03  0.58258118751E+03  0.00000000000E+00 0. -1.
<mgrwt>
<rscale>  2 0.10230568E+04</rscale>
<asrwt>0</asrwt>
<pdfrwt beam="1">  1       21 0.26021520E+00 0.10251756E+04</pdfrwt>
<pdfrwt beam="2">  1       21 0.10814856E+00 0.10251756E+04</pdfrwt>
<totfact> 0.16507882E+01</totfact>
</mgrwt>
</event>
<event>
 8    1  0.1168507E-005  0.1291634E+04  0.7818608E-02  0.8542894E-01
         21   -1    0    0  503  502  0.00000000000E+00  0.00000000000E+00  0.11085398745E+04  0.11085398745E+04  0.00000000000E+00 0. -1.
         21   -1    0    0  501  503 -0.00000000000E+00 -0.00000000000E+00 -0.16628384622E+04  0.16628384622E+04  0.00000000000E+00 0. -1.
    9000010    2    1    2  501    0  0.42489876746E+03 -0.70042570104E+03 -0.72590976399E+03  0.14816419978E+04  0.99859045612E+03 0.  0.
   -9000010    2    1    2    0  502 -0.42489876746E+03  0.70042570104E+03  0.17161117620E+03  0.12897363388E+04  0.98124120515E+03 0.  0.
        -13    1    3    3    0    0 -0.12383136039E+03  0.89813556200E+02  0.12477870781E+03  0.19740926467E+03  0.10566000000E+00 0.  1.
          4    1    3    3  501    0  0.54873012785E+03 -0.79023925724E+03 -0.85068847180E+03  0.12842327332E+04  0.00000000000E+00 0.  1.
         13    1    4    4    0    0 -0.52862225842E+03  0.41596485945E+03 -0.29418912260E+03  0.73417675489E+03  0.10566000000E+00 0. -1.
         -4    1    4    4    0  502  0.10372349096E+03  0.28446084159E+03  0.46580029880E+03  0.55555958396E+03  0.00000000000E+00 0. -1.
<mgrwt>
<rscale>  2 0.12882794E+04</rscale>
<asrwt>0</asrwt>
<pdfrwt beam="1">  1       21 0.17054460E+00 0.12916339E+04</pdfrwt>
<pdfrwt beam="2">  1       21 0.25582130E+00 0.12916339E+04</pdfrwt>
<totfact> 0.43483276E+00</totfact>
</mgrwt>
</event>
<event>
 8    1  0.1168507E-005  0.1114791E+04  0.7818608E-02  0.8685625E-01
         21   -1    0    0  501  502  0.00000000000E+00  0.00000000000E+00  0.15466026568E+04  0.15466026568E+04  0.00000000000E+00 0. -1.
         21   -1    0    0  502  503 -0.00000000000E+00 -0.00000000000E+00 -0.10892438432E+04  0.10892438432E+04  0.00000000000E+00 0. -1.
   -9000010    2    1    2    0  503  0.50252922315E+03 -0.46171419054E+02 -0.48796582188E+03  0.12169099015E+04  0.99402798998E+03 0.  0.
    9000010    2    1    2  501    0 -0.50252922315E+03  0.46171419054E+02  0.94532463544E+03  0.14189365986E+04  0.93009407287E+03 0.  0.
        -13    1    4    4    0    0 -0.81337738007E+02  0.30025047611E+03 -0.43908066544E+02  0.31415618010E+03  0.10566000000E+00 0.  1.
          4    1    4    4  501    0 -0.42119148514E+03 -0.25407905705E+03  0.98923270199E+03  0.11047804185E+04  0.00000000000E+00 0.  1.
         13    1    3    3    0    0  0.56218105689E+03 -0.39017917315E+03 -0.94396237261E+02  0.69079518575E+03  0.10566000000E+00 0. -1.
         -4    1    3    3    0  503 -0.59651833735E+02  0.34400775409E+03 -0.39356958462E+03  0.52611471570E+03  0.00000000000E+00 0. -1.
<mgrwt>
<rscale>  2 0.11003602E+04</rscale>
<asrwt>0</asrwt>
<pdfrwt beam="1">  1       21 0.23793887E+00 0.11147910E+04</pdfrwt>
<pdfrwt beam="2">  1       21 0.16757598E+00 0.11147910E+04</pdfrwt>
<totfact> 0.64620517E+00</totfact>
</mgrwt>
</event>
<event>
 8    1  0.1168507E-005  0.1120268E+04  0.7818608E-02  0.8669646E-01
         21   -1    0    0  501  502  0.00000000000E+00  0.00000000000E+00  0.16437054237E+04  0.16437054237E+04  0.00000000000E+00 0.  1.
         21   -1    0    0  502  503 -0.00000000000E+00 -0.00000000000E+00 -0.78621630823E+03  0.78621630823E+03  0.00000000000E+00 0.  1.
   -9000010    2    1    2    0  503 -0.42232083169E+03 -0.26194050992E+03  0.64209873540E+03  0.12891350222E+04  0.10013044511E+04 0.  0.
    9000010    2    1    2  501    0  0.42232083169E+03  0.26194050992E+03  0.21539038011E+03  0.11407867098E+04  0.10040087578E+04 0.  0.
        -13    1    4    4    0    0 -0.14802678246E+03 -0.27000813776E+03 -0.59935414894E+02  0.31370143115E+03  0.10566000000E+00 0.  1.
          4    1    4    4  501    0  0.57034761415E+03  0.53194864768E+03  0.27532579501E+03  0.82708527863E+03  0.00000000000E+00 0.  1.
         13    1    3    3    0    0 -0.49989601508E+03 -0.26553060439E+03 -0.72200023334E+02  0.57062718328E+03  0.10566000000E+00 0. -1.
         -4    1    3    3    0  503  0.77575183397E+02  0.35900944690E+01  0.71429875873E+03  0.71850783892E+03  0.00000000000E+00 0. -1.
<mgrwt>
<rscale>  2 0.11196622E+04</rscale>
<asrwt>0</asrwt>
<pdfrwt beam="1">  1       21 0.25287776E+00 0.11202684E+04</pdfrwt>
<pdfrwt beam="2">  1       21 0.12095636E+00 0.11202684E+04</pdfrwt>
<totfact> 0.13426742E+01</totfact>
</mgrwt>
</event>
<event>
 8    1  0.1168507E-005  0.1027597E+04  0.7818608E-02  0.8750203E-01
         21   -1    0    0  501  502  0.00000000000E+00  0.00000000000E+00  0.21188568082E+04  0.21188568082E+04  0.00000000000E+00 0.  1.
         21   -1    0    0  502  503 -0.00000000000E+00 -0.00000000000E+00 -0.75501037536E+03  0.75501037536E+03  0.00000000000E+00 0.  1.
   -9000010    2    1    2    0  503 -0.14807898849E+03  0.98301641617E+02 -0.15865200835E+03  0.10397722617E+04  0.10121093304E+04 0.  0.
    9000010    2    1    2  501    0  0.14807898849E+03 -0.98301641617E+02  0.15224984411E+04  0.18340949219E+04  0.10071306169E+04 0.  0.
        -13    1    4    4    0    0  0.41776200780E+03 -0.30559919843E+02  0.14974218674E+04  0.15549055483E+04  0.10566000000E+00 0.  1.
          4    1    4    4  501    0 -0.26968301931E+03 -0.67741721775E+02  0.25076573728E+02  0.27918937359E+03  0.00000000000E+00 0.  1.
         13    1    3    3    0    0  0.14181081215E+03 -0.40493679648E+03  0.27431536088E+02  0.42992629126E+03  0.10566000000E+00 0. -1.
         -4    1    3    3    0  503 -0.28988980064E+03  0.50323843810E+03 -0.18608354444E+03  0.60984597039E+03  0.00000000000E+00 0. -1.
<mgrwt>
<rscale>  2 0.10263691E+04</rscale>
<asrwt>0</asrwt>
<pdfrwt beam="1">  1       21 0.32597797E+00 0.10275971E+04</pdfrwt>
<pdfrwt beam="2">  1       21 0.11615544E+00 0.10275971E+04</pdfrwt>
<totfact> 0.46386450E+00</totfact>
</mgrwt>
</event>
<event>
 8    1  0.1168507E-005  0.1067472E+04  0.7818608E-02  0.8721287E-01
         21   -1    0    0  501  502  0.00000000000E+00  0.00000000000E+00  0.29454752641E+04  0.29454752641E+04  0.00000000000E+00 0. -1.
         21   -1    0    0  502  503 -0.00000000000E+00 -0.00000000000E+00 -0.37452063793E+03  0.37452063793E+03  0.00000000000E+00 0. -1.
   -9000010    2    1    2    0  503 -0.74029296198E+02 -0.38129539264E+03  0.12826722090E+04  0.16687553566E+04  0.99429871330E+03 0.  0.
    9000010    2    1    2  501    0  0.74029296198E+02  0.38129539264E+03  0.12882824171E+04  0.16512405454E+04  0.95710879179E+03 0.  0.
        -13    1    4    4    0    0 -0.23013056073E+03  0.21724887345E+02 -0.46520969624E+02  0.23578858643E+03  0.10566000000E+00 0.  1.
          4    1    4    4  501    0  0.30415985693E+03  0.35957050530E+03  0.13348033867E+04  0.14154519590E+04  0.00000000000E+00 0.  1.
         13    1    3    3    0    0  0.21938035056E+03 -0.47230560985E+02 -0.77769442267E+02  0.23750065562E+03  0.10566000000E+00 0. -1.
         -4    1    3    3    0  503 -0.29340964676E+03 -0.33406483166E+03  0.13604416513E+04  0.14312547010E+04  0.00000000000E+00 0. -1.
<mgrwt>
<rscale>  2 0.10587271E+04</rscale>
<asrwt>0</asrwt>
<pdfrwt beam="1">  1       21 0.45315003E+00 0.10674720E+04</pdfrwt>
<pdfrwt beam="2">  1       21 0.57618562E-01 0.10674720E+04</pdfrwt>
<totfact> 0.34111511E+00</totfact>
</mgrwt>
</event>
<event>
 8    1  0.1168507E-005  0.1241745E+04  0.7818608E-02  0.8577831E-01
         21   -1    0    0  501  502  0.00000000000E+00  0.00000000000E+00  0.88503048301E+03  0.88503048301E+03  0.00000000000E+00 0.  1.
         21   -1    0    0  502  503 -0.00000000000E+00 -0.00000000000E+00 -0.17547723563E+04  0.17547723563E+04  0.00000000000E+00 0.  1.
   -9000010    2    1    2    0  503 -0.73161971039E+03  0.72808348288E+02 -0.60477259164E+03  0.13811881879E+04  0.10006810014E+04 0.  0.
    9000010    2    1    2  501    0  0.73161971039E+03 -0.72808348288E+02 -0.26496928163E+03  0.12586146514E+04  0.98657674014E+03 0.  0.
        -13    1    4    4    0    0 -0.20088518224E+02 -0.27472946006E+03  0.21035826986E+03  0.34659838091E+03  0.10566000000E+00 0.  1.
          4    1    4    4  501    0  0.75170822861E+03  0.20192111177E+03 -0.47532755149E+03  0.91201627044E+03  0.00000000000E+00 0.  1.
         13    1    3    3    0    0 -0.40640142228E+03  0.48532469420E+03 -0.78916274486E+02  0.63791062412E+03  0.10566000000E+00 0. -1.
         -4    1    3    3    0  503 -0.32521828811E+03 -0.41251634591E+03 -0.52585631715E+03  0.74327756380E+03  0.00000000000E+00 0. -1.
<mgrwt>
<rscale>  2 0.12389009E+04</rscale>
<asrwt>0</asrwt>
<pdfrwt beam="1">  1       21 0.13615854E+00 0.12417451E+04</pdfrwt>
<pdfrwt beam="2">  1       21 0.26996498E+00 0.12417451E+04</pdfrwt>
<totfact> 0.70080431E+00</totfact>
</mgrwt>
</event>
<event>
 8    1  0.1168507E-005  0.1082895E+04  0.7818608E-02  0.8708122E-01
         21   -1    0    0  503  502  0.00000000000E+00  0.00000000000E+00  0.10997029890E+04  0.10997029890E+04  0.00000000000E+00 0. -1.
         21   -1    0    0  501  503 -0.00000000000E+00 -0.00000000000E+00 -0.11858138203E+04  0.11858138203E+04  0.00000000000E+00 0. -1.
    9000010    2    1    2  501    0  0.31588574883E+03 -0.34408711308E+02 -0.45584307102E+03  0.11749276277E+04  0.10352266704E+04 0.  0.
   -9000010    2    1    2    0  502 -0.31588574883E+03  0.34408711308E+02  0.36973223970E+03  0.11105891817E+04  0.99786704308E+03 0.  0.
        -13    1    3    3    0    0  0.28475960959E+03 -0.33001619332E+03  0.18112226108E+03  0.47202119415E+03  0.10566000000E+00 0.  1.
          4    1    3    3  501    0  0.31126139247E+02  0.29560748201E+03 -0.63696533211E+03  0.70290643351E+03  0.00000000000E+00 0.  1.
         13    1    4    4    0    0 -0.23382210346E+03 -0.46524208547E+03  0.78827363806E+02  0.52662770398E+03  0.10566000000E+00 0. -1.
         -4    1    4    4    0  502 -0.82063645375E+02  0.49965079678E+03  0.29090487590E+03  0.58396147769E+03  0.00000000000E+00 0. -1.
<mgrwt>
<rscale>  2 0.10738685E+04</rscale>
<asrwt>0</asrwt>
<pdfrwt beam="1">  1       21 0.16918508E+00 0.10828952E+04</pdfrwt>
<pdfrwt beam="2">  1       21 0.18243290E+00 0.10828952E+04</pdfrwt>
<totfact> 0.16860829E+01</totfact>
</mgrwt>
</event>
<event>
 8    1  0.1168507E-005  0.1160648E+04  0.7818608E-02  0.8640073E-01
         21   -1    0    0  503  502  0.00000000000E+00  0.00000000000E+00  0.15077145550E+04  0.15077145550E+04  0.00000000000E+00 0.  1.
         21   -1    0    0  501  503 -0.00000000000E+00 -0.00000000000E+00 -0.11195944520E+04  0.11195944520E+04  0.00000000000E+00 0.  1.
    9000010    2    1    2  501    0  0.55925990646E+03  0.50003246796E+02 -0.41156287486E+03  0.12314574462E+04  0.10157910583E+04 0.  0.
   -9000010    2    1    2    0  502 -0.55925990646E+03 -0.50003246796E+02  0.79968297786E+03  0.13958515608E+04  0.99681329594E+03 0.  0.
        -13    1    3    3    0    0  0.25091745518E+03 -0.42393674093E+03 -0.44663634619E+03  0.66495561245E+03  0.10566000000E+00 0.  1.
          4    1    3    3  501    0  0.30834245128E+03  0.47393998772E+03  0.35073471333E+02  0.56650183372E+03  0.00000000000E+00 0.  1.
         13    1    4    4    0    0 -0.22153120205E+03 -0.15847069286E+02 -0.22515284515E+03  0.31626099654E+03  0.10566000000E+00 0. -1.
         -4    1    4    4    0  502 -0.33772870441E+03 -0.34156177510E+02  0.10248358230E+04  0.10795905642E+04  0.00000000000E+00 0. -1.
<mgrwt>
<rscale>  2 0.11564824E+04</rscale>
<asrwt>0</asrwt>
<pdfrwt beam="1">  1       21 0.23195609E+00 0.11606479E+04</pdfrwt>
<pdfrwt beam="2">  1       21 0.17224530E+00 0.11606479E+04</pdfrwt>
<totfact> 0.64713144E+00</totfact>
</mgrwt>
</event>
<event>
 8    1  0.1168507E-005  0.1196312E+04  0.7818608E-02  0.8611407E-01
         21   -1    0    0  501  502  0.00000000000E+00  0.00000000000E+00  0.18962299891E+04  0.18962299891E+04  0.00000000000E+00 0. -1.
         21   -1    0    0  502  503 -0.00000000000E+00 -0.00000000000E+00 -0.75546030724E+03  0.75546030724E+03  0.00000000000E+00 0. -1.
   -9000010    2    1    2    0  503 -0.61750188144E+03  0.32398384787E+03  0.70556328390E+03  0.13888779560E+04  0.97205366204E+03 0.  0.
    9000010    2    1    2  501    0  0.61750188144E+03 -0.32398384787E+03  0.43520639796E+03  0.12628123403E+04  0.95865337362E+03 0.  0.
        -13    1    4    4    0    0  0.70579665174E+03 -0.21627838407E+03  0.66536369055E+03  0.99379781891E+03  0.10566000000E+00 0.  1.
          4    1    4    4  501    0 -0.88294770298E+02 -0.10770546380E+03 -0.23015729258E+03  0.26901452140E+03  0.00000000000E+00 0.  1.
         13    1    3    3    0    0 -0.27738290125E+03  0.18092101559E+03 -0.21654624041E+03  0.39568418365E+03  0.10566000000E+00 0. -1.
         -4    1    3    3    0  503 -0.34011898018E+03  0.14306283228E+03  0.92210952431E+03  0.99319377237E+03  0.00000000000E+00 0. -1.
<mgrwt>
<rscale>  2 0.11935871E+04</rscale>
<asrwt>0</asrwt>
<pdfrwt beam="1">  1       21 0.29172769E+00 0.11963120E+04</pdfrwt>
<pdfrwt beam="2">  1       21 0.11622466E+00 0.11963120E+04</pdfrwt>
<totfact> 0.77796471E+00</totfact>
</mgrwt>
</event>
<event>
 8    1  0.1168507E-005  0.1220857E+04  0.7818608E-02  0.8591802E-01
         21   -1    0    0  503  502  0.00000000000E+00  0.00000000000E+00  0.71294074423E+03  0.71294074423E+03  0.00000000000E+00 0.  1.
         21   -1    0    0  501  503 -0.00000000000E+00 -0.00000000000E+00 -0.22132999077E+04  0.22132999077E+04  0.00000000000E+00 0. -1.
    9000010    2    1    2  501    0  0.45110529012E+03  0.55511328543E+03 -0.39446539361E+03  0.12789721774E+04  0.98413420904E+03 0.  0.
   -9000010    2    1    2    0  502 -0.45110529012E+03 -0.55511328543E+03 -0.11058937698E+04  0.16472684745E+04  0.98936628933E+03 0.  0.
        -13    1    3    3    0    0  0.47947607901E+03 -0.80918594949E+02 -0.41893960502E+03  0.64183762212E+03  0.10566000000E+00 0.  1.
          4    1    3    3  501    0 -0.28370788891E+02  0.63603188038E+03  0.24474211413E+02  0.63713455529E+03  0.00000000000E+00 0.  1.
         13    1    4    4    0    0 -0.26502806380E+02 -0.16982015630E+03  0.17414941710E+03  0.24468206897E+03  0.10566000000E+00 0. -1.
         -4    1    4    4    0  502 -0.42460248374E+03 -0.38529312912E+03 -0.12800431869E+04  0.14025864055E+04  0.00000000000E+00 0. -1.
<mgrwt>
<rscale>  2 0.12197968E+04</rscale>
<asrwt>0</asrwt>
<pdfrwt beam="1">  1       21 0.10968319E+00 0.12208572E+04</pdfrwt>
<pdfrwt beam="2">  1       21 0.34050767E+00 0.12208572E+04</pdfrwt>
<totfact> 0.41116095E+00</totfact>
</mgrwt>
</event>
<event>
 8    1  0.1168507E-005  0.1028964E+04  0.7818608E-02  0.8748084E-01
         21   -1    0    0  503  502  0.00000000000E+00  0.00000000000E+00  0.50920989151E+03  0.50920989151E+03  0.00000000000E+00 0. -1.
         21   -1    0    0  501  503 -0.00000000000E+00 -0.00000000000E+00 -0.20820721148E+04  0.20820721148E+04  0.00000000000E+00 0. -1.
    9000010    2    1    2  501    0  0.69614525563E+02  0.24445995079E+03 -0.84939259981E+03  0.13334365705E+04  0.99598114900E+03 0.  0.
   -9000010    2    1    2    0  502 -0.69614525563E+02 -0.24445995079E+03 -0.72346962344E+03  0.12578454358E+04  0.99707572159E+03 0.  0.
        -13    1    3    3    0    0 -0.13064448595E+03  0.57962949877E+03 -0.69298680833E+03  0.91283572741E+03  0.10566000000E+00 0.  1.
          4    1    3    3  501    0  0.20025901151E+03 -0.33516954798E+03 -0.15640579148E+03  0.42060084307E+03  0.00000000000E+00 0.  1.
         13    1    4    4    0    0 -0.92868737449E+02 -0.25697914792E+03 -0.97110024138E+03  0.10088104752E+04  0.10566000000E+00 0. -1.
         -4    1    4    4    0  502  0.23254211886E+02  0.12519197133E+02  0.24763061794E+03  0.24903496061E+03  0.00000000000E+00 0. -1.
<mgrwt>
<rscale>  2 0.10286987E+04</rscale>
<asrwt>0</asrwt>
<pdfrwt beam="1">  1       21 0.78339982E-01 0.10289640E+04</pdfrwt>
<pdfrwt beam="2">  1       21 0.32031879E+00 0.10289640E+04</pdfrwt>
<totfact> 0.14099483E+01</totfact>
</mgrwt>
</event>
<event>
 8    1  0.1168507E-005  0.1201243E+04  0.7818608E-02  0.8605997E-01
         21   -1    0    0  503  502  0.00000000000E+00  0.00000000000E+00  0.92445933739E+03  0.92445933739E+03  0.00000000000E+00 0. -1.
         21   -1    0    0  501  503 -0.00000000000E+00 -0.00000000000E+00 -0.19907791135E+04  0.19907791135E+04  0.00000000000E+00 0. -1.
    9000010    2    1    2  501    0 -0.18007790450E+03  0.64877006160E+03 -0.12128508507E+04  0.17070415235E+04  0.99481301379E+03 0.  0.
   -9000010    2    1    2    0  502  0.18007790450E+03 -0.64877006160E+03  0.14653107459E+03  0.12081969274E+04  0.99244033321E+03 0.  0.
        -13    1    3    3    0    0  0.31455224128E+03  0.53243405655E+03 -0.95368740443E+03  0.11366392627E+04  0.10566000000E+00 0.  1.
          4    1    3    3  501    0 -0.49463014578E+03  0.11633600505E+03 -0.25916344622E+03  0.57040226073E+03  0.00000000000E+00 0.  1.
         13    1    4    4    0    0  0.44977137635E+03 -0.63879810430E+03 -0.16243387439E+03  0.79796120442E+03  0.10566000000E+00 0. -1.
         -4    1    4    4    0  502 -0.26969347185E+03 -0.99719572978E+01  0.30896494898E+03  0.41023572295E+03  0.00000000000E+00 0. -1.
<mgrwt>
<rscale>  2 0.12007512E+04</rscale>
<asrwt>0</asrwt>
<pdfrwt beam="1">  1       21 0.14222451E+00 0.12012425E+04</pdfrwt>
<pdfrwt beam="2">  1       21 0.30627371E+00 0.12012425E+04</pdfrwt>
<totfact> 0.34226011E+00</totfact>
</mgrwt>
</event>
<event>
 8    1  0.1168507E-005  0.1382401E+04  0.7818608E-02  0.8481672E-01
         21   -1    0    0  503  502  0.00000000000E+00  0.00000000000E+00  0.20214983984E+04  0.20214983984E+04  0.00000000000E+00 0. -1.
         21   -1    0    0  501  503 -0.00000000000E+00 -0.00000000000E+00 -0.13815004339E+04  0.13815004339E+04  0.00000000000E+00 0. -1.
    9000010    2    1    2  501    0 -0.53055832924E+02 -0.90076136323E+03 -0.64175898942E+03  0.15178110236E+04  0.10381280017E+04 0.  0.
   -9000010    2    1    2    0  502  0.53055832924E+02  0.90076136323E+03  0.12817569539E+04  0.18851878087E+04  0.10473042682E+04 0.  0.
        -13    1    3    3    0    0 -0.23928030103E+03 -0.85188267561E+03 -0.85505004394E+03  0.12304754139E+04  0.10566000000E+00 0.  1.
          4    1    3    3  501    0  0.18622446811E+03 -0.48878687627E+02  0.21329105452E+03  0.28733560964E+03  0.00000000000E+00 0.  1.
         13    1    4    4    0    0 -0.49156143715E+03  0.51931408394E+03  0.60836339616E+03  0.93884279686E+03  0.10566000000E+00 0. -1.
         -4    1    4    4    0  502  0.54461727007E+03  0.38144727930E+03  0.67339355775E+03  0.94634501180E+03  0.00000000000E+00 0. -1.
<mgrwt>
<rscale>  2 0.13806629E+04</rscale>
<asrwt>0</asrwt>
<pdfrwt beam="1">  1       21 0.31099975E+00 0.13824009E+04</pdfrwt>
<pdfrwt beam="2">  1       21 0.21253853E+00 0.13824009E+04</pdfrwt>
<totfact> 0.79546663E-01</totfact>
</mgrwt>
</event>
<event>
 8    1  0.1168507E-005  0.1118323E+04  0.7818608E-02  0.8672623E-01
         21   -1    0    0  501  502  0.00000000000E+00  0.00000000000E+00  0.48361472297E+03  0.48361472297E+03  0.00000000000E+00 0.  1.
         21   -1    0    0  502  503 -0.00000000000E+00 -0.00000000000E+00 -0.25899396144E+04  0.25899396144E+04  0.00000000000E+00 0.  1.
   -9000010    2    1    2    0  503  0.33613863288E+03  0.37529997692E+03 -0.11997518245E+04  0.16339291613E+04  0.98817043593E+03 0.  0.
    9000010    2    1    2  501    0 -0.33613863288E+03 -0.37529997692E+03 -0.90657306688E+03  0.14396251761E+04  0.99840205769E+03 0.  0.
        -13    1    4    4    0    0  0.15343438356E+03  0.19165863294E+03 -0.56560816296E+03  0.61659366426E+03  0.10566000000E+00 0.  1.
          4    1    4    4  501    0 -0.48957301645E+03 -0.56695860986E+03 -0.34096490392E+03  0.82303151181E+03  0.00000000000E+00 0.  1.
         13    1    3    3    0    0  0.24390674165E+03 -0.20618406686E+03 -0.93564359015E+03  0.98865125651E+03  0.10566000000E+00 0. -1.
         -4    1    3    3    0  503  0.92231891229E+02  0.58148404378E+03 -0.26410823439E+03  0.64527790478E+03  0.00000000000E+00 0. -1.
<mgrwt>
<rscale>  2 0.11160346E+04</rscale>
<asrwt>0</asrwt>
<pdfrwt beam="1">  1       21 0.74402266E-01 0.11183228E+04</pdfrwt>
<pdfrwt beam="2">  1       21 0.39845225E+00 0.11183228E+04</pdfrwt>
<totfact> 0.44368611E+00</totfact>
</mgrwt>
</event>
<event>
 8    1  0.1168507E-005  0.1046099E+04  0.7818608E-02  0.8739951E-01
         21   -1    0    0  503  502  0.00000000000E+00  0.00000000000E+00  0.44171244841E+03  0.44171244841E+03  0.00000000000E+00 0.  1.
         21   -1    0    0  501  503 -0.00000000000E+00 -0.00000000000E+00 -0.24076256549E+04  0.24076256549E+04  0.00000000000E+00 0.  1.
    9000010    2    1    2  501    0 -0.13297038103E+03  0.15089890016E+03 -0.10499601450E+04  0.14589089082E+04  0.99274734761E+03 0.  0.
   -9000010    2    1    2    0  502  0.13297038103E+03 -0.15089890016E+03 -0.91595306151E+03  0.13904291951E+04  0.10265825516E+04 0.  0.
        -13    1    3    3    0    0  0.12453535835E+03  0.29237332478E+03  0.48825205467E+02  0.32152002796E+03  0.10566000000E+00 0.  1.
          4    1    3    3  501    0 -0.25750573938E+03 -0.14147442462E+03 -0.10987853504E+04  0.11373888803E+04  0.00000000000E+00 0.  1.
         13    1    4    4    0    0 -0.33536852914E+03 -0.38093785441E+03 -0.32780646935E+03  0.60418771236E+03  0.10566000000E+00 0. -1.
         -4    1    4    4    0  502  0.46833891017E+03  0.23003895425E+03 -0.58814659216E+03  0.78624148270E+03  0.00000000000E+00 0. -1.
<mgrwt>
<rscale>  2 0.10377028E+04</rscale>
<asrwt>0</asrwt>
<pdfrwt beam="1">  1       21 0.67955760E-01 0.10460991E+04</pdfrwt>
<pdfrwt beam="2">  1       21 0.37040396E+00 0.10460991E+04</pdfrwt>
<totfact> 0.87846300E+00</totfact>
</mgrwt>
</event>
<event>
 8    1  0.1168507E-005  0.1091686E+04  0.7818608E-02  0.8693254E-01
         21   -1    0    0  503  502  0.00000000000E+00  0.00000000000E+00  0.90074601405E+03  0.90074601405E+03  0.00000000000E+00 0. -1.
         21   -1    0    0  501  503 -0.00000000000E+00 -0.00000000000E+00 -0.13475284869E+04  0.13475284869E+04  0.00000000000E+00 0. -1.
    9000010    2    1    2  501    0 -0.21107227409E+03 -0.37440690604E+03 -0.66345267791E+02  0.10937000321E+04  0.10035168306E+04 0.  0.
   -9000010    2    1    2    0  502  0.21107227409E+03  0.37440690604E+03 -0.38043720510E+03  0.11545744689E+04  0.10017872534E+04 0.  0.
        -13    1    3    3    0    0 -0.28632479544E+03  0.89759427526E+02 -0.41229261134E+03  0.50992533948E+03  0.10566000000E+00 0.  1.
          4    1    3    3  501    0  0.75252521346E+02 -0.46416633357E+03  0.34594734355E+03  0.58377469258E+03  0.00000000000E+00 0.  1.
         13    1    4    4    0    0  0.12401035897E+03  0.72158737022E+03 -0.25571161215E+03  0.77553551933E+03  0.10566000000E+00 0. -1.
         -4    1    4    4    0  502  0.87061915120E+02 -0.34718046418E+03 -0.12472559295E+03  0.37903894959E+03  0.00000000000E+00 0. -1.
<mgrwt>
<rscale>  2 0.10912882E+04</rscale>
<asrwt>0</asrwt>
<pdfrwt beam="1">  1       21 0.13857631E+00 0.10916859E+04</pdfrwt>
<pdfrwt beam="2">  1       21 0.20731207E+00 0.10916859E+04</pdfrwt>
<totfact> 0.19934752E+01</totfact>
</mgrwt>
</event>
<event>
 8    1  0.1168507E-005  0.1040559E+04  0.7818608E-02  0.8754633E-01
         21   -1    0    0  503  502  0.00000000000E+00  0.00000000000E+00  0.80373031819E+03  0.80373031819E+03  0.00000000000E+00 0.  1.
         21   -1    0    0  501  503 -0.00000000000E+00 -0.00000000000E+00 -0.12919910411E+04  0.12919910411E+04  0.00000000000E+00 0.  1.
    9000010    2    1    2  501    0 -0.14534597336E+03 -0.38032700095E+03 -0.41743359395E+03  0.10527549663E+04  0.87650906107E+03 0.  0.
   -9000010    2    1    2    0  502  0.14534597336E+03  0.38032700095E+03 -0.70827128976E+02  0.10429663930E+04  0.95759507886E+03 0.  0.
        -13    1    3    3    0    0 -0.18050732026E+03 -0.54990177470E+03  0.23277594000E+02  0.57923804436E+03  0.10566000000E+00 0.  1.
          4    1    3    3  501    0  0.35161346900E+02  0.16957477375E+03 -0.44071118795E+03  0.47351692197E+03  0.00000000000E+00 0.  1.
         13    1    4    4    0    0 -0.14985337311E+03  0.31328394421E+03  0.37048981797E+03  0.50780466670E+03  0.10566000000E+00 0. -1.
         -4    1    4    4    0  502  0.29519934648E+03  0.67043056739E+02 -0.44131694695E+03  0.53516172629E+03  0.00000000000E+00 0. -1.
<mgrwt>
<rscale>  2 0.10215174E+04</rscale>
<asrwt>0</asrwt>
<pdfrwt beam="1">  1       21 0.12365082E+00 0.10405587E+04</pdfrwt>
<pdfrwt beam="2">  1       21 0.19876785E+00 0.10405587E+04</pdfrwt>
<totfact> 0.32679208E+01</totfact>
</mgrwt>
</event>
<event>
 8    1  0.1168507E-005  0.1273531E+04  0.7818608E-02  0.8558164E-01
         21   -1    0    0  501  502  0.00000000000E+00  0.00000000000E+00  0.13502049384E+04  0.13502049384E+04  0.00000000000E+00 0. -1.
         21   -1    0    0  502  503 -0.00000000000E+00 -0.00000000000E+00 -0.17851393680E+04  0.17851393680E+04  0.00000000000E+00 0. -1.
   -9000010    2    1    2    0  503 -0.35158564920E+03  0.65845474504E+03 -0.11325383932E+04  0.16832658769E+04  0.99677764841E+03 0.  0.
    9000010    2    1    2  501    0  0.35158564920E+03 -0.65845474504E+03  0.69760396357E+03  0.14520784295E+04  0.10318456064E+04 0.  0.
        -13    1    4    4    0    0  0.43444780708E+03 -0.77324188462E+03  0.16649339019E+03  0.90242338697E+03  0.10566000000E+00 0.  1.
          4    1    4    4  501    0 -0.82862157877E+02  0.11478713958E+03  0.53111057339E+03  0.54965504253E+03  0.00000000000E+00 0.  1.
         13    1    3    3    0    0 -0.13514730867E+03  0.84714320130E+03 -0.51077634906E+03  0.99840316930E+03  0.10566000000E+00 0. -1.
         -4    1    3    3    0  503 -0.21643834053E+03 -0.18868845626E+03 -0.62176204409E+03  0.68486270759E+03  0.00000000000E+00 0. -1.
<mgrwt>
<rscale>  2 0.12664104E+04</rscale>
<asrwt>0</asrwt>
<pdfrwt beam="1">  1       21 0.20772384E+00 0.12735307E+04</pdfrwt>
<pdfrwt beam="2">  1       21 0.27463683E+00 0.12735307E+04</pdfrwt>
<totfact> 0.16061917E+00</totfact>
</mgrwt>
</event>
<event>
 8    1  0.1168507E-005  0.1130443E+04  0.7818608E-02  0.8664211E-01
         21   -1    0    0  501  502  0.00000000000E+00  0.00000000000E+00  0.19169119882E+04  0.19169119882E+04  0.00000000000E+00 0.  1.
         21   -1    0    0  502  503 -0.00000000000E+00 -0.00000000000E+00 -0.86737824849E+03  0.86737824849E+03  0.00000000000E+00 0.  1.
   -9000010    2    1    2    0  503  0.14826850438E+03  0.48461066988E+03  0.12074505949E+04  0.16428705403E+04  0.99209657907E+03 0.  0.
    9000010    2    1    2  501    0 -0.14826850438E+03 -0.48461066988E+03 -0.15791685528E+03  0.11414196963E+04  0.10104801528E+04 0.  0.
        -13    1    4    4    0    0 -0.23335989583E+03  0.16762548800E+03  0.23851980269E+03  0.37342583286E+03  0.10566000000E+00 0.  1.
          4    1    4    4  501    0  0.85091391451E+02 -0.65223615789E+03 -0.39643665797E+03  0.76799386347E+03  0.00000000000E+00 0.  1.
         13    1    3    3    0    0  0.13697505943E+03  0.58221444924E+02 -0.15519365992E+03  0.21502787447E+03  0.10566000000E+00 0. -1.
         -4    1    3    3    0  503  0.11293444949E+02  0.42638922496E+03  0.13626442549E+04  0.14278426658E+04  0.00000000000E+00 0. -1.
<mgrwt>
<rscale>  2 0.11263199E+04</rscale>
<asrwt>0</asrwt>
<pdfrwt beam="1">  1       21 0.29490954E+00 0.11304429E+04</pdfrwt>
<pdfrwt beam="2">  1       21 0.13344281E+00 0.11304429E+04</pdfrwt>
<totfact> 0.50560001E+00</totfact>
</mgrwt>
</event>
<event>
 8    1  0.1168507E-005  0.1980724E+04  0.7818608E-02  0.8176746E-01
         21   -1    0    0  503  502  0.00000000000E+00  0.00000000000E+00  0.23870580981E+04  0.23870580981E+04  0.00000000000E+00 0.  1.
         21   -1    0    0  501  503 -0.00000000000E+00 -0.00000000000E+00 -0.21983256861E+04  0.21983256861E+04  0.00000000000E+00 0. -1.
    9000010    2    1    2  501    0  0.17040638155E+04 -0.28275389976E+02 -0.10611364535E+04  0.22470601221E+04  0.10092748062E+04 0.  0.
   -9000010    2    1    2    0  502 -0.17040638155E+04  0.28275389976E+02  0.12498688656E+04  0.23383236621E+04  0.10004760778E+04 0.  0.
        -13    1    3    3    0    0  0.12372480722E+04 -0.17814402973E+03 -0.21388076503E+03  0.12681731271E+04  0.10566000000E+00 0.  1.
          4    1    3    3  501    0  0.46681574334E+03  0.14986863975E+03 -0.84725568849E+03  0.97888699506E+03  0.00000000000E+00 0.  1.
         13    1    4    4    0    0 -0.64324993136E+03 -0.23743238256E+03  0.10067051532E+04  0.12180311519E+04  0.10566000000E+00 0. -1.
         -4    1    4    4    0  502 -0.10608138842E+04  0.26570777253E+03  0.24316371241E+03  0.11202925101E+04  0.00000000000E+00 0. -1.
<mgrwt>
<rscale>  2 0.19796061E+04</rscale>
<asrwt>0</asrwt>
<pdfrwt beam="1">  1       21 0.36723971E+00 0.19807243E+04</pdfrwt>
<pdfrwt beam="2">  1       21 0.33820395E+00 0.19807243E+04</pdfrwt>
<totfact> 0.35671945E-02</totfact>
</mgrwt>
</event>
<event>
 8    1  0.1168507E-005  0.1273803E+04  0.7818608E-02  0.8554651E-01
         21   -1    0    0  503  502  0.00000000000E+00  0.00000000000E+00  0.99069236394E+03  0.99069236394E+03  0.00000000000E+00 0. -1.
         21   -1    0    0  501  503 -0.00000000000E+00 -0.00000000000E+00 -0.18325533215E+04  0.18325533215E+04  0.00000000000E+00 0.  1.
    9000010    2    1    2  501    0 -0.69386963317E+03  0.37859790793E+03  0.54940457192E+02  0.12654180103E+04  0.98664727402E+03 0.  0.
   -9000010    2    1    2    0  502  0.69386963317E+03 -0.37859790793E+03 -0.89680141474E+03  0.15578276751E+04  0.99889080688E+03 0.  0.
        -13    1    3    3    0    0 -0.32442932270E+03  0.69967001324E+03 -0.12513731215E+02  0.77132944809E+03  0.10566000000E+00 0.  1.
          4    1    3    3  501    0 -0.36944031047E+03 -0.32107210531E+03  0.67454188407E+02  0.49408856225E+03  0.00000000000E+00 0.  1.
         13    1    4    4    0    0  0.37967834536E+02 -0.16007188060E+03  0.20145160764E+03  0.26009099331E+03  0.10566000000E+00 0. -1.
         -4    1    4    4    0  502  0.65590179864E+03 -0.21852602733E+03 -0.10982530224E+04  0.12977366818E+04  0.00000000000E+00 0. -1.
<mgrwt>
<rscale>  2 0.12714017E+04</rscale>
<asrwt>0</asrwt>
<pdfrwt beam="1">  1       21 0.15241421E+00 0.12738031E+04</pdfrwt>
<pdfrwt beam="2">  1       21 0.28193128E+00 0.12738031E+04</pdfrwt>
<totfact> 0.40602866E+00</totfact>
</mgrwt>
</event>
<event>
 8    1  0.1168507E-005  0.1498052E+04  0.7818608E-02  0.8414417E-01
         21   -1    0    0  503  502  0.00000000000E+00  0.00000000000E+00  0.99548573472E+03  0.99548573472E+03  0.00000000000E+00 0.  1.
         21   -1    0    0  501  503 -0.00000000000E+00 -0.00000000000E+00 -0.24742091671E+04  0.24742091671E+04  0.00000000000E+00 0. -1.
    9000010    2    1    2  501    0 -0.97332864855E+03  0.54330945499E+03 -0.12948017121E+04  0.19603945107E+04  0.96129149693E+03 0.  0.
   -9000010    2    1    2    0  502  0.97332864855E+03 -0.54330945499E+03 -0.18392172028E+03  0.15093003911E+04  0.10008030023E+04 0.  0.
        -13    1    3    3    0    0  0.12317247366E+03  0.12885391744E+03  0.41287912689E+02  0.18297402331E+03  0.10566000000E+00 0.  1.
          4    1    3    3  501    0 -0.10965011222E+04  0.41445553755E+03 -0.13360896248E+04  0.17774204874E+04  0.00000000000E+00 0.  1.
         13    1    4    4    0    0 -0.51605914978E+01 -0.47431692598E+03  0.10677494454E+03  0.48621402481E+03  0.10566000000E+00 0. -1.
         -4    1    4    4    0  502  0.97848924005E+03 -0.68992529009E+02 -0.29069666481E+03  0.10230863663E+04  0.00000000000E+00 0. -1.
<mgrwt>
<rscale>  2 0.14914835E+04</rscale>
<asrwt>0</asrwt>
<pdfrwt beam="1">  1       21 0.15315165E+00 0.14980522E+04</pdfrwt>
<pdfrwt beam="2">  1       21 0.38064757E+00 0.14980522E+04</pdfrwt>
<totfact> 0.77370048E-01</totfact>
</mgrwt>
</event>
<event>
 8    1  0.1168507E-005  0.1114145E+04  0.7818608E-02  0.8676150E-01
         21   -1    0    0  503  502  0.00000000000E+00  0.00000000000E+00  0.47928760172E+03  0.47928760172E+03  0.00000000000E+00 0.  1.
         21   -1    0    0  501  503 -0.00000000000E+00 -0.00000000000E+00 -0.26001630641E+04  0.26001630641E+04  0.00000000000E+00 0.  1.
    9000010    2    1    2  501    0  0.52293143992E+03 -0.74466402155E+02 -0.12276417809E+04  0.16514504364E+04  0.97014517768E+03 0.  0.
   -9000010    2    1    2    0  502 -0.52293143992E+03  0.74466402155E+02 -0.89323368147E+03  0.14280002294E+04  0.98097691593E+03 0.  0.
        -13    1    3    3    0    0 -0.17342347693E+03  0.30336115150E+02 -0.81808587335E+03  0.83681568435E+03  0.10566000000E+00 0.  1.
          4    1    3    3  501    0  0.69635491685E+03 -0.10480251730E+03 -0.40955590758E+03  0.81463475207E+03  0.00000000000E+00 0.  1.
         13    1    4    4    0    0 -0.47472520291E+03 -0.25167052789E+03 -0.70806605684E+02  0.54195540357E+03  0.10566000000E+00 0. -1.
         -4    1    4    4    0  502 -0.48206237006E+02  0.32613693004E+03 -0.82242707579E+03  0.88604482585E+03  0.00000000000E+00 0. -1.
<mgrwt>
<rscale>  2 0.11117557E+04</rscale>
<asrwt>0</asrwt>
<pdfrwt beam="1">  1       21 0.73736553E-01 0.11141446E+04</pdfrwt>
<pdfrwt beam="2">  1       21 0.40002509E+00 0.11141446E+04</pdfrwt>
<totfact> 0.44247035E+00</totfact>
</mgrwt>
</event>
<event>
 8    1  0.1168507E-005  0.1081274E+04  0.7818608E-02  0.8737786E-01
         21   -1    0    0  503  502  0.00000000000E+00  0.00000000000E+00  0.13088819223E+04  0.13088819223E+04  0.00000000000E+00 0. -1.
         21   -1    0    0  501  503 -0.00000000000E+00 -0.00000000000E+00 -0.78218835083E+03  0.78218835083E+03  0.00000000000E+00 0. -1.
    9000010    2    1    2  501    0  0.38504390657E+03  0.26183529100E+02  0.15027356931E+03  0.10916667352E+04  0.10100543193E+04 0.  0.
   -9000010    2    1    2    0  502 -0.38504390657E+03 -0.26183529100E+02  0.37642000212E+03  0.99940353791E+03  0.84152898132E+03 0.  0.
        -13    1    3    3    0    0  0.41463092598E+03  0.99633499735E+02  0.54334300358E+03  0.69070056446E+03  0.10566000000E+00 0.  1.
          4    1    3    3  501    0 -0.29587019412E+02 -0.73449970635E+02 -0.39306943427E+03  0.40096617072E+03  0.00000000000E+00 0.  1.
         13    1    4    4    0    0 -0.52796320188E+03 -0.28003876598E+03  0.37971884002E+03  0.70806303506E+03  0.10566000000E+00 0. -1.
         -4    1    4    4    0  502  0.14291929532E+03  0.25385523688E+03 -0.32988379033E+01  0.29134050284E+03  0.00000000000E+00 0. -1.
<mgrwt>
<rscale>  2 0.10401161E+04</rscale>
<asrwt>0</asrwt>
<pdfrwt beam="1">  1       21 0.20136645E+00 0.10812743E+04</pdfrwt>
<pdfrwt beam="2">  1       21 0.12033667E+00 0.10812743E+04</pdfrwt>
<totfact> 0.33375383E+01</totfact>
</mgrwt>
</event>
<event>
 8    1  0.1168507E-005  0.1063028E+04  0.7818608E-02  0.8731296E-01
         21   -1    0    0  501  502  0.00000000000E+00  0.00000000000E+00  0.86397006439E+03  0.86397006439E+03  0.00000000000E+00 0.  1.
         21   -1    0    0  502  503 -0.00000000000E+00 -0.00000000000E+00 -0.13025865281E+04  0.13025865281E+04  0.00000000000E+00 0.  1.
   -9000010    2    1    2    0  503  0.29614588409E+03 -0.13991830527E+03 -0.46208279829E+03  0.11032697078E+04  0.94678615264E+03 0.  0.
    9000010    2    1    2  501    0 -0.29614588409E+03  0.13991830527E+03  0.23466334562E+02  0.10632868847E+04  0.10113104437E+04 0.  0.
        -13    1    4    4    0    0 -0.11359890949E+03  0.47411522319E+03 -0.29243110003E+03  0.56851201969E+03  0.10566000000E+00 0.  1.
          4    1    4    4  501    0 -0.18254697460E+03 -0.33419691792E+03  0.31589743459E+03  0.49477486503E+03  0.00000000000E+00 0.  1.
         13    1    3    3    0    0  0.42888897676E+03  0.62209402316E+02  0.13919864016E+03  0.45518351981E+03  0.10566000000E+00 0. -1.
         -4    1    3    3    0  503 -0.13274309267E+03 -0.20212770759E+03 -0.60128143845E+03  0.64808618798E+03  0.00000000000E+00 0. -1.
<mgrwt>
<rscale>  2 0.10473892E+04</rscale>
<asrwt>0</asrwt>
<pdfrwt beam="1">  1       21 0.13291847E+00 0.10630279E+04</pdfrwt>
<pdfrwt beam="2">  1       21 0.20039793E+00 0.10630279E+04</pdfrwt>
<totfact> 0.25657933E+01</totfact>
</mgrwt>
</event>
<event>
 8    1  0.1168507E-005  0.1100623E+04  0.7818608E-02  0.8695885E-01
         21   -1    0    0  501  502  0.00000000000E+00  0.00000000000E+00  0.13221693581E+04  0.13221693581E+04  0.00000000000E+00 0. -1.
         21   -1    0    0  502  503 -0.00000000000E+00 -0.00000000000E+00 -0.10737484809E+04  0.10737484809E+04  0.00000000000E+00 0. -1.
   -9000010    2    1    2    0  503 -0.28523662532E+03  0.28087170594E+03 -0.39218720676E+03  0.11224387110E+04  0.97252712416E+03 0.  0.
    9000010    2    1    2  501    0  0.28523662532E+03 -0.28087170594E+03  0.64060808389E+03  0.12734791280E+04  0.10252421786E+04 0.  0.
        -13    1    4    4    0    0 -0.21647561777E+03  0.25859647133E+03  0.77049159607E+02  0.34593411545E+03  0.10566000000E+00 0.  1.
          4    1    4    4  501    0  0.50171224309E+03 -0.53946817727E+03  0.56355892429E+03  0.92754501254E+03  0.00000000000E+00 0.  1.
         13    1    3    3    0    0 -0.53106967540E+03  0.16932570641E+03 -0.57152672571E+03  0.79834140839E+03  0.10566000000E+00 0. -1.
         -4    1    3    3    0  503  0.24583305008E+03  0.11154599953E+03  0.17933951895E+03  0.32409730264E+03  0.00000000000E+00 0. -1.
<mgrwt>
<rscale>  2 0.10881809E+04</rscale>
<asrwt>0</asrwt>
<pdfrwt beam="1">  1       21 0.20341067E+00 0.11006227E+04</pdfrwt>
<pdfrwt beam="2">  1       21 0.16519207E+00 0.11006227E+04</pdfrwt>
<totfact> 0.12373636E+01</totfact>
</mgrwt>
</event>
<event>
 8    1  0.1168507E-005  0.1112675E+04  0.7818608E-02  0.8685964E-01
         21   -1    0    0  503  502  0.00000000000E+00  0.00000000000E+00  0.85741854140E+03  0.85741854140E+03  0.00000000000E+00 0. -1.
         21   -1    0    0  501  503 -0.00000000000E+00 -0.00000000000E+00 -0.13799954340E+04  0.13799954340E+04  0.00000000000E+00 0. -1.
    9000010    2    1    2  501    0  0.22684445121E+03  0.23591642686E+03 -0.28222647251E+03  0.11479103888E+04  0.10634526381E+04 0.  0.
   -9000010    2    1    2    0  502 -0.22684445121E+03 -0.23591642686E+03 -0.24035042012E+03  0.10895035866E+04  0.10110068127E+04 0.  0.
        -13    1    3    3    0    0 -0.10042247561E+03  0.60028180295E+03 -0.64826019661E+02  0.61206645109E+03  0.10566000000E+00 0.  1.
          4    1    3    3  501    0  0.32726692682E+03 -0.36436537609E+03 -0.21740045284E+03  0.53584393771E+03  0.00000000000E+00 0.  1.
         13    1    4    4    0    0  0.39123193180E+03  0.31365158383E+01 -0.22388035723E+02  0.39188454613E+03  0.10566000000E+00 0. -1.
         -4    1    4    4    0  502 -0.61807638301E+03 -0.23905294270E+03 -0.21796238440E+03  0.69761904049E+03  0.00000000000E+00 0. -1.
<mgrwt>
<rscale>  2 0.10999555E+04</rscale>
<asrwt>0</asrwt>
<pdfrwt beam="1">  1       21 0.13191055E+00 0.11126754E+04</pdfrwt>
<pdfrwt beam="2">  1       21 0.21230699E+00 0.11126754E+04</pdfrwt>
<totfact> 0.21005217E+01</totfact>
</mgrwt>
</event>
<event>
 8    1  0.1168507E-005  0.1150068E+04  0.7818608E-02  0.8645196E-01
         21   -1    0    0  501  502  0.00000000000E+00  0.00000000000E+00  0.12210063450E+04  0.12210063450E+04  0.00000000000E+00 0. -1.
         21   -1    0    0  502  503 -0.00000000000E+00 -0.00000000000E+00 -0.13158472636E+04  0.13158472636E+04  0.00000000000E+00 0. -1.
   -9000010    2    1    2    0  503 -0.44400568498E+03 -0.35922088240E+03 -0.58101074739E+03  0.12884993199E+04  0.99823660427E+03 0.  0.
    9000010    2    1    2  501    0  0.44400568498E+03  0.35922088240E+03  0.48616982876E+03  0.12483542888E+04  0.99792115786E+03 0.  0.
        -13    1    4    4    0    0  0.38695945364E+03 -0.16307511943E+03  0.57856427812E+03  0.71489002541E+03  0.10566000000E+00 0.  1.
          4    1    4    4  501    0  0.57046231336E+02  0.52229600183E+03 -0.92394449363E+02  0.53346426339E+03  0.00000000000E+00 0.  1.
         13    1    3    3    0    0 -0.51655335276E+03 -0.33578348562E+03  0.81633499894E+02  0.62148367229E+03  0.10566000000E+00 0. -1.
         -4    1    3    3    0  503  0.72547667781E+02 -0.23437396781E+02 -0.66264424728E+03  0.66701564759E+03  0.00000000000E+00 0. -1.
<mgrwt>
<rscale>  2 0.11499998E+04</rscale>
<asrwt>0</asrwt>
<pdfrwt beam="1">  1       21 0.18784713E+00 0.11500683E+04</pdfrwt>
<pdfrwt beam="2">  1       21 0.20243804E+00 0.11500683E+04</pdfrwt>
<totfact> 0.80970212E+00</totfact>
</mgrwt>
</event>
<event>
 8    1  0.1168507E-005  0.1021727E+04  0.7818608E-02  0.8756522E-01
         21   -1    0    0  501  502  0.00000000000E+00  0.00000000000E+00  0.32658906399E+03  0.32658906399E+03  0.00000000000E+00 0. -1.
         21   -1    0    0  502  503 -0.00000000000E+00 -0.00000000000E+00 -0.31709179152E+04  0.31709179152E+04  0.00000000000E+00 0. -1.
   -9000010    2    1    2    0  503  0.25569546320E+03 -0.59156909480E+02 -0.13646468726E+04  0.16993457023E+04  0.97807720508E+03 0.  0.
    9000010    2    1    2  501    0 -0.25569546320E+03  0.59156909480E+02 -0.14796819787E+04  0.17981612770E+04  0.98744392760E+03 0.  0.
        -13    1    4    4    0    0 -0.34404126797E+03  0.32275256721E+03 -0.24305249705E+03  0.53066763722E+03  0.10566000000E+00 0.  1.
          4    1    4    4  501    0  0.88345804768E+02 -0.26359565773E+03 -0.12366294816E+04  0.12674936398E+04  0.00000000000E+00 0.  1.
         13    1    3    3    0    0 -0.30172507734E+03  0.21899506724E+03 -0.36685236136E+03  0.52304639179E+03  0.10566000000E+00 0. -1.
         -4    1    3    3    0  503  0.55742054054E+03 -0.27815197672E+03 -0.99779451122E+03  0.11762993105E+04  0.00000000000E+00 0. -1.
<mgrwt>
<rscale>  2 0.10194566E+04</rscale>
<asrwt>0</asrwt>
<pdfrwt beam="1">  1       21 0.50244469E-01 0.10217266E+04</pdfrwt>
<pdfrwt beam="2">  1       21 0.48783355E+00 0.10217266E+04</pdfrwt>
<totfact> 0.26884254E+00</totfact>
</mgrwt>
</event>
<event>
 8    1  0.1168507E-005  0.1477012E+04  0.7818608E-02  0.8438677E-01
         21   -1    0    0  503  502  0.00000000000E+00  0.00000000000E+00  0.11852233874E+04  0.11852233874E+04  0.00000000000E+00 0.  1.
         21   -1    0    0  501  503 -0.00000000000E+00 -0.00000000000E+00 -0.18552402784E+04  0.18552402784E+04  0.00000000000E+00 0.  1.
    9000010    2    1    2  501    0  0.17560614563E+03 -0.98615056515E+03  0.96321233792E+02  0.13764806898E+04  0.93919691954E+03 0.  0.
   -9000010    2    1    2    0  502 -0.17560614563E+03  0.98615056515E+03 -0.76633812483E+03  0.16639829760E+04  0.10854652308E+04 0.  0.
        -13    1    3    3    0    0  0.54050312026E+03 -0.38426222264E+03  0.11135967675E+03  0.67245971443E+03  0.10566000000E+00 0.  1.
          4    1    3    3  501    0 -0.36489697463E+03 -0.60188834251E+03 -0.15038442962E+02  0.70402097534E+03  0.00000000000E+00 0.  1.
         13    1    4    4    0    0  0.41174635900E+03  0.59754450869E+03 -0.59689322248E+03  0.93961483291E+03  0.10566000000E+00 0. -1.
         -4    1    4    4    0  502 -0.58735250463E+03  0.38860605646E+03 -0.16944490235E+03  0.72436814311E+03  0.00000000000E+00 0. -1.
<mgrwt>
<rscale>  2 0.14503210E+04</rscale>
<asrwt>0</asrwt>
<pdfrwt beam="1">  1       21 0.18234206E+00 0.14770123E+04</pdfrwt>
<pdfrwt beam="2">  1       21 0.28542158E+00 0.14770123E+04</pdfrwt>
<totfact> 0.20549779E+00</totfact>
</mgrwt>
</event>
<event>
 8    1  0.1168507E-005  0.1155439E+04  0.7818608E-02  0.8647912E-01
         21   -1    0    0  501  502  0.00000000000E+00  0.00000000000E+00  0.22508077710E+04  0.22508077710E+04  0.00000000000E+00 0. -1.
         21   -1    0    0  502  503 -0.00000000000E+00 -0.00000000000E+00 -0.64983426072E+03  0.64983426072E+03  0.00000000000E+00 0. -1.
   -9000010    2    1    2    0  503 -0.26153254703E+03 -0.52679017685E+03  0.29842833273E+03  0.11594748519E+04  0.95363268555E+03 0.  0.
    9000010    2    1    2  501    0  0.26153254703E+03  0.52679017685E+03  0.13025451776E+04  0.17411671798E+04  0.99455117756E+03 0.  0.
        -13    1    4    4    0    0  0.48675029189E+03  0.69929164257E+03  0.11056279051E+04  0.13958322692E+04  0.10566000000E+00 0.  1.
          4    1    4    4  501    0 -0.22521774486E+03 -0.17250146572E+03  0.19691727245E+03  0.34533491058E+03  0.00000000000E+00 0.  1.
         13    1    3    3    0    0  0.25109139921E+03 -0.45024937007E+03  0.37233110339E+03  0.63592597661E+03  0.10566000000E+00 0. -1.
         -4    1    3    3    0  503 -0.51262394624E+03 -0.76540806782E+02 -0.73902770661E+02  0.52354887534E+03  0.00000000000E+00 0. -1.
<mgrwt>
<rscale>  2 0.11465808E+04</rscale>
<asrwt>0</asrwt>
<pdfrwt beam="1">  1       21 0.34627811E+00 0.11554390E+04</pdfrwt>
<pdfrwt beam="2">  1       21 0.99974503E-01 0.11554390E+04</pdfrwt>
<totfact> 0.48607658E+00</totfact>
</mgrwt>
</event>
<event>
 8    1  0.1168507E-005  0.1394608E+04  0.7818608E-02  0.8473033E-01
         21   -1    0    0  503  502  0.00000000000E+00  0.00000000000E+00  0.93303282316E+03  0.93303282316E+03  0.00000000000E+00 0.  1.
         21   -1    0    0  501  503 -0.00000000000E+00 -0.00000000000E+00 -0.21043533800E+04  0.21043533800E+04  0.00000000000E+00 0.  1.
    9000010    2    1    2  501    0  0.21246161530E+03  0.92635340092E+03 -0.73886320279E+03  0.15772658858E+04  0.10191066091E+04 0.  0.
   -9000010    2    1    2    0  502 -0.21246161530E+03 -0.92635340092E+03 -0.43245735406E+03  0.14601203173E+04  0.10206181542E+04 0.  0.
        -13    1    3    3    0    0  0.32975479526E+03  0.60061601399E+03  0.78438621933E+02  0.68965966232E+03  0.10566000000E+00 0.  1.
          4    1    3    3  501    0 -0.11729317996E+03  0.32573738693E+03 -0.81730182473E+03  0.88760622351E+03  0.00000000000E+00 0.  1.
         13    1    4    4    0    0 -0.10067139588E+03 -0.36987508188E+03  0.33259675098E+03  0.50750656751E+03  0.10566000000E+00 0. -1.
         -4    1    4    4    0  502 -0.11179021942E+03 -0.55647831904E+03 -0.76505410504E+03  0.95261374982E+03  0.00000000000E+00 0. -1.
<mgrwt>
<rscale>  2 0.13943316E+04</rscale>
<asrwt>0</asrwt>
<pdfrwt beam="1">  1       21 0.14354351E+00 0.13946082E+04</pdfrwt>
<pdfrwt beam="2">  1       21 0.32374667E+00 0.13946082E+04</pdfrwt>
<totfact> 0.24137692E+00</totfact>
</mgrwt>
</event>
<event>
 8    1  0.1168507E-005  0.1146700E+04  0.7818608E-02  0.8649666E-01
         21   -1    0    0  503  502  0.00000000000E+00  0.00000000000E+00  0.87076572045E+03  0.87076572045E+03  0.00000000000E+00 0. -1.
         21   -1    0    0  501  503 -0.00000000000E+00 -0.00000000000E+00 -0.15625754376E+04  0.15625754376E+04  0.00000000000E+00 0. -1.
    9000010    2    1    2  501    0 -0.48962290188E+03 -0.26251076684E+03 -0.59207167952E+03  0.12823116389E+04  0.99253804799E+03 0.  0.
   -9000010    2    1    2    0  502  0.48962290188E+03  0.26251076684E+03 -0.99738037668E+02  0.11510295192E+04  0.10031344821E+04 0.  0.
        -13    1    3    3    0    0  0.27145728585E+02 -0.45620437943E+03  0.20923928901E+02  0.45749005274E+03  0.10566000000E+00 0.  1.
          4    1    3    3  501    0 -0.51676863046E+03  0.19369361259E+03 -0.61299560842E+03  0.82482158612E+03  0.00000000000E+00 0.  1.
         13    1    4    4    0    0 -0.22975045185E+03  0.27972767939E+02 -0.28980250165E+03  0.37088171564E+03  0.10566000000E+00 0. -1.
         -4    1    4    4    0  502  0.71937335372E+03  0.23453799890E+03  0.19006446398E+03  0.78014780359E+03  0.00000000000E+00 0. -1.
<mgrwt>
<rscale>  2 0.11443786E+04</rscale>
<asrwt>0</asrwt>
<pdfrwt beam="1">  1       21 0.13396396E+00 0.11467002E+04</pdfrwt>
<pdfrwt beam="2">  1       21 0.24039622E+00 0.11467002E+04</pdfrwt>
<totfact> 0.12286871E+01</totfact>
</mgrwt>
</event>
<event>
 8    1  0.1168507E-005  0.1045873E+04  0.7818608E-02  0.8734098E-01
         21   -1    0    0  503  502  0.00000000000E+00  0.00000000000E+00  0.46195794949E+03  0.46195794949E+03  0.00000000000E+00 0. -1.
         21   -1    0    0  501  503 -0.00000000000E+00 -0.00000000000E+00 -0.28738097879E+04  0.28738097879E+04  0.00000000000E+00 0. -1.
    9000010    2    1    2  501    0  0.31601342087E+02 -0.31210453473E+03 -0.19127743333E+04  0.21769193326E+04  0.99089063215E+03 0.  0.
   -9000010    2    1    2    0  502 -0.31601342087E+02  0.31210453473E+03 -0.49907750514E+03  0.11588484049E+04  0.99771909069E+03 0.  0.
        -13    1    3    3    0    0  0.17531985648E+03  0.14359145066E+03 -0.15763194786E+04  0.15925258763E+04  0.10566000000E+00 0.  1.
          4    1    3    3  501    0 -0.14371851439E+03 -0.45569598540E+03 -0.33645485466E+03  0.58439345625E+03  0.00000000000E+00 0.  1.
         13    1    4    4    0    0  0.12213848078E+03  0.31463849410E+03  0.23343348828E+03  0.41037348242E+03  0.10566000000E+00 0. -1.
         -4    1    4    4    0  502 -0.15373982286E+03 -0.25339593721E+01 -0.73251099341E+03  0.74847492246E+03  0.00000000000E+00 0. -1.
<mgrwt>
<rscale>  2 0.10442416E+04</rscale>
<asrwt>0</asrwt>
<pdfrwt beam="1">  1       21 0.71070455E-01 0.10458734E+04</pdfrwt>
<pdfrwt beam="2">  1       21 0.44212457E+00 0.10458734E+04</pdfrwt>
<totfact> 0.25079648E+00</totfact>
</mgrwt>
</event>
<event>
 8    1  0.1168507E-005  0.1068669E+04  0.7818608E-02  0.8714535E-01
         21   -1    0    0  501  502  0.00000000000E+00  0.00000000000E+00  0.10467493326E+04  0.10467493326E+04  0.00000000000E+00 0.  1.
         21   -1    0    0  502  503 -0.00000000000E+00 -0.00000000000E+00 -0.11227780167E+04  0.11227780167E+04  0.00000000000E+00 0.  1.
   -9000010    2    1    2    0  503 -0.34066611687E+03  0.13063712105E+03  0.16837334017E+03  0.10818517532E+04  0.10044571537E+04 0.  0.
    9000010    2    1    2  501    0  0.34066611687E+03 -0.13063712105E+03 -0.24440202429E+03  0.10876755960E+04  0.99508109827E+03 0.  0.
        -13    1    4    4    0    0 -0.35085578709E+03 -0.50424446519E+02 -0.15098356290E+03  0.38527711529E+03  0.10566000000E+00 0.  1.
          4    1    4    4  501    0  0.69152190396E+03 -0.80212674534E+02 -0.93418461391E+02  0.70239848073E+03  0.00000000000E+00 0.  1.
         13    1    3    3    0    0  0.26784045530E+03 -0.23337862006E+03  0.10463948275E+02  0.35540623964E+03  0.10566000000E+00 0. -1.
         -4    1    3    3    0  503 -0.60850657217E+03  0.36401574112E+03  0.15790939189E+03  0.72644551358E+03  0.00000000000E+00 0. -1.
<mgrwt>
<rscale>  2 0.10664603E+04</rscale>
<asrwt>0</asrwt>
<pdfrwt beam="1">  1       21 0.16103836E+00 0.10686691E+04</pdfrwt>
<pdfrwt beam="2">  1       21 0.17273508E+00 0.10686691E+04</pdfrwt>
<totfact> 0.23834726E+01</totfact>
</mgrwt>
</event>
<event>
 8    1  0.1168507E-005  0.1280655E+04  0.7818608E-02  0.8548342E-01
         21   -1    0    0  501  502  0.00000000000E+00  0.00000000000E+00  0.10961723862E+04  0.10961723862E+04  0.00000000000E+00 0. -1.
         21   -1    0    0  502  503 -0.00000000000E+00 -0.00000000000E+00 -0.15488867482E+04  0.15488867482E+04  0.00000000000E+00 0. -1.
   -9000010    2    1    2    0  503 -0.40008078520E+03 -0.69572708572E+03 -0.47269573968E+03  0.13642481294E+04  0.99681035494E+03 0.  0.
    9000010    2    1    2  501    0  0.40008078520E+03  0.69572708572E+03  0.19981377661E+02  0.12808110050E+04  0.99798635391E+03 0.  0.
        -13    1    4    4    0    0  0.35087687417E+03  0.22012202384E+03  0.46841546400E+03  0.62528501045E+03  0.10566000000E+00 0.  1.
          4    1    4    4  501    0  0.49203911031E+02  0.47560506188E+03 -0.44843408634E+03  0.65552599456E+03  0.00000000000E+00 0.  1.
         13    1    3    3    0    0 -0.47280182682E+03  0.25534725588E+02  0.41764943840E+02  0.47532926625E+03  0.10566000000E+00 0. -1.
         -4    1    3    3    0  503  0.72721041617E+02 -0.72126181131E+03 -0.51446068352E+03  0.88891886313E+03  0.00000000000E+00 0. -1.
<mgrwt>
<rscale>  2 0.12804260E+04</rscale>
<asrwt>0</asrwt>
<pdfrwt beam="1">  1       21 0.16864191E+00 0.12806551E+04</pdfrwt>
<pdfrwt beam="2">  1       21 0.23829027E+00 0.12806551E+04</pdfrwt>
<totfact> 0.60746979E+00</totfact>
</mgrwt>
</event>
<event>
 8    1  0.1168507E-005  0.1139676E+04  0.7818608E-02  0.8669551E-01
         21   -1    0    0  503  502  0.00000000000E+00  0.00000000000E+00  0.11321758702E+04  0.11321758702E+04  0.00000000000E+00 0. -1.
         21   -1    0    0  501  503 -0.00000000000E+00 -0.00000000000E+00 -0.11274326238E+04  0.11274326238E+04  0.00000000000E+00 0. -1.
    9000010    2    1    2  501    0 -0.21269624574E+03  0.26764085932E+03 -0.25142781466E+03  0.10914967215E+04  0.10056231026E+04 0.  0.
   -9000010    2    1    2    0  502  0.21269624574E+03 -0.26764085932E+03  0.25617106110E+03  0.11681117725E+04  0.10871937169E+04 0.  0.
        -13    1    3    3    0    0  0.19076118408E+03 -0.83845448033E+02 -0.46951023729E+03  0.51367281668E+03  0.10566000000E+00 0.  1.
          4    1    3    3  501    0 -0.40345742982E+03  0.35148630735E+03  0.21808242263E+03  0.57782390483E+03  0.00000000000E+00 0.  1.
         13    1    4    4    0    0  0.16167645813E+03 -0.69109814323E+03  0.20348105787E+03  0.73834983089E+03  0.10566000000E+00 0. -1.
         -4    1    4    4    0  502  0.51019787614E+02  0.42345728392E+03  0.52690003225E+02  0.42976194162E+03  0.00000000000E+00 0. -1.
<mgrwt>
<rscale>  2 0.11197779E+04</rscale>
<asrwt>0</asrwt>
<pdfrwt beam="1">  1       21 0.17418090E+00 0.11396761E+04</pdfrwt>
<pdfrwt beam="2">  1       21 0.17345117E+00 0.11396761E+04</pdfrwt>
<totfact> 0.17930129E+01</totfact>
</mgrwt>
</event>
<event>
 8    1  0.1168507E-005  0.1173458E+04  0.7818608E-02  0.8640239E-01
         21   -1    0    0  501  502  0.00000000000E+00  0.00000000000E+00  0.13327758511E+04  0.13327758511E+04  0.00000000000E+00 0. -1.
         21   -1    0    0  502  503 -0.00000000000E+00 -0.00000000000E+00 -0.10041282331E+04  0.10041282331E+04  0.00000000000E+00 0. -1.
   -9000010    2    1    2    0  503 -0.13770810436E+03  0.60251973767E+03  0.36856745874E+03  0.12299776007E+04  0.99750156409E+03 0.  0.
    9000010    2    1    2  501    0  0.13770810436E+03 -0.60251973767E+03 -0.39919840803E+02  0.11069264835E+04  0.91744160022E+03 0.  0.
        -13    1    4    4    0    0 -0.14561144698E+03  0.18677610135E+03 -0.11817966314E+03  0.26467801094E+03  0.10566000000E+00 0.  1.
          4    1    4    4  501    0  0.28331955134E+03 -0.78929583903E+03  0.78259822342E+02  0.84224847252E+03  0.00000000000E+00 0.  1.
         13    1    3    3    0    0 -0.45510058176E+03  0.53505614517E+02  0.38063953924E+03  0.59570618622E+03  0.10566000000E+00 0. -1.
         -4    1    3    3    0  503  0.31739247740E+03  0.54901412315E+03 -0.12072080506E+02  0.63427141451E+03  0.00000000000E+00 0. -1.
<mgrwt>
<rscale>  2 0.11562710E+04</rscale>
<asrwt>0</asrwt>
<pdfrwt beam="1">  1       21 0.20504244E+00 0.11734577E+04</pdfrwt>
<pdfrwt beam="2">  1       21 0.15448127E+00 0.11734577E+04</pdfrwt>
<totfact> 0.14647859E+01</totfact>
</mgrwt>
</event>
<event>
 8    1  0.1168507E-005  0.1148777E+04  0.7818608E-02  0.8647128E-01
         21   -1    0    0  501  502  0.00000000000E+00  0.00000000000E+00  0.10963877425E+04  0.10963877425E+04  0.00000000000E+00 0.  1.
         21   -1    0    0  502  503 -0.00000000000E+00 -0.00000000000E+00 -0.17279692882E+04  0.17279692882E+04  0.00000000000E+00 0.  1.
   -9000010    2    1    2    0  503 -0.50746490469E+02  0.55991242274E+03 -0.10969512561E+04  0.15848979908E+04  0.99625421222E+03 0.  0.
    9000010    2    1    2  501    0  0.50746490469E+02 -0.55991242274E+03  0.46536971043E+03  0.12394590399E+04  0.10018046800E+04 0.  0.
        -13    1    4    4    0    0  0.33135160976E+03 -0.50580294417E+03  0.65891220023E+03  0.89431303602E+03  0.10566000000E+00 0.  1.
          4    1    4    4  501    0 -0.28060511929E+03 -0.54109478574E+02 -0.19354248980E+03  0.34514600389E+03  0.00000000000E+00 0.  1.
         13    1    3    3    0    0  0.16461246293E+03 -0.21351796187E+03 -0.55272150742E+03  0.61497012848E+03  0.10566000000E+00 0. -1.
         -4    1    3    3    0  503 -0.21535895340E+03  0.77343038462E+03 -0.54422974870E+03  0.96992786228E+03  0.00000000000E+00 0. -1.
<mgrwt>
<rscale>  2 0.11475663E+04</rscale>
<asrwt>0</asrwt>
<pdfrwt beam="1">  1       21 0.16867504E+00 0.11487775E+04</pdfrwt>
<pdfrwt beam="2">  1       21 0.26584143E+00 0.11487775E+04</pdfrwt>
<totfact> 0.39339216E+00</totfact>
</mgrwt>
</event>
<event>
 8    1  0.1168507E-005  0.1153642E+04  0.7818608E-02  0.8645424E-01
         21   -1    0    0  503  502  0.00000000000E+00  0.00000000000E+00  0.10151374925E+04  0.10151374925E+04  0.00000000000E+00 0.  1.
         21   -1    0    0  501  503 -0.00000000000E+00 -0.00000000000E+00 -0.13893766665E+04  0.13893766665E+04  0.00000000000E+00 0.  1.
    9000010    2    1    2  501    0  0.12277244828E+03  0.53196988557E+03 -0.50440693195E+03  0.12590930199E+04  0.10162794136E+04 0.  0.
   -9000010    2    1    2    0  502 -0.12277244828E+03 -0.53196988557E+03  0.13016775801E+03  0.11454211392E+04  0.99848931270E+03 0.  0.
        -13    1    3    3    0    0  0.23655775565E+03 -0.26092233890E+03 -0.17001439108E+03  0.39108176003E+03  0.10566000000E+00 0.  1.
          4    1    3    3  501    0 -0.11378530737E+03  0.79289222447E+03 -0.33439254087E+03  0.86801125983E+03  0.00000000000E+00 0.  1.
         13    1    4    4    0    0  0.22256388759E+03 -0.24652318539E+02 -0.31555814955E+03  0.38693588329E+03  0.10566000000E+00 0. -1.
         -4    1    4    4    0  502 -0.34533633586E+03 -0.50731756704E+03  0.44572590756E+03  0.75848525586E+03  0.00000000000E+00 0. -1.
<mgrwt>
<rscale>  2 0.11497114E+04</rscale>
<asrwt>0</asrwt>
<pdfrwt beam="1">  1       21 0.15617500E+00 0.11536416E+04</pdfrwt>
<pdfrwt beam="2">  1       21 0.21375026E+00 0.11536416E+04</pdfrwt>
<totfact> 0.12184231E+01</totfact>
</mgrwt>
</event>
<event>
 8    1  0.1168507E-005  0.1072890E+04  0.7818608E-02  0.8714277E-01
         21   -1    0    0  501  502  0.00000000000E+00  0.00000000000E+00  0.80190950650E+03  0.80190950650E+03  0.00000000000E+00 0.  1.
         21   -1    0    0  502  503 -0.00000000000E+00 -0.00000000000E+00 -0.17722176159E+04  0.17722176159E+04  0.00000000000E+00 0.  1.
   -9000010    2    1    2    0  503  0.21933323495E+03 -0.23501711201E+03 -0.10769299134E+04  0.15201547502E+04  0.10235977311E+04 0.  0.
    9000010    2    1    2  501    0 -0.21933323495E+03  0.23501711201E+03  0.10662180399E+03  0.10539723723E+04  0.99807286385E+03 0.  0.
        -13    1    4    4    0    0 -0.33782498964E+03 -0.39281322282E+02 -0.36295064551E+03  0.49739514286E+03  0.10566000000E+00 0.  1.
          4    1    4    4  501    0  0.11849175469E+03  0.27429843429E+03  0.46957244949E+03  0.55657722942E+03  0.00000000000E+00 0.  1.
         13    1    3    3    0    0  0.12770035534E+02 -0.50218222231E+03 -0.13595774121E+03  0.52041769452E+03  0.10566000000E+00 0. -1.
         -4    1    3    3    0  503  0.20656319942E+03  0.26716511030E+03 -0.94097217221E+03  0.99973705563E+03  0.00000000000E+00 0. -1.
<mgrwt>
<rscale>  2 0.10667563E+04</rscale>
<asrwt>0</asrwt>
<pdfrwt beam="1">  1       21 0.12337070E+00 0.10728898E+04</pdfrwt>
<pdfrwt beam="2">  1       21 0.27264886E+00 0.10728898E+04</pdfrwt>
<totfact> 0.92443468E+00</totfact>
</mgrwt>
</event>
<event>
 8    1  0.1168507E-005  0.1160493E+04  0.7818608E-02  0.8646040E-01
         21   -1    0    0  503  502  0.00000000000E+00  0.00000000000E+00  0.23169212950E+04  0.23169212950E+04  0.00000000000E+00 0. -1.
         21   -1    0    0  501  503 -0.00000000000E+00 -0.00000000000E+00 -0.89823011991E+03  0.89823011991E+03  0.00000000000E+00 0.  1.
    9000010    2    1    2  501    0 -0.61360453482E+03  0.27994485243E+02 -0.27009749993E+03  0.11915107050E+04  0.98460696945E+03 0.  0.
   -9000010    2    1    2    0  502  0.61360453482E+03 -0.27994485243E+02  0.16887886750E+04  0.20236407099E+04  0.93049466284E+03 0.  0.
        -13    1    3    3    0    0 -0.20214590459E+03  0.28633682495E+03  0.28650335529E+03  0.45269849549E+03  0.10566000000E+00 0.  1.
          4    1    3    3  501    0 -0.41145863023E+03 -0.25834233971E+03 -0.55660085523E+03  0.73881220951E+03  0.00000000000E+00 0.  1.
         13    1    4    4    0    0 -0.21801481169E+03 -0.77652912833E+02  0.15606568610E+03  0.27913606455E+03  0.10566000000E+00 0. -1.
         -4    1    4    4    0  502  0.83161934651E+03  0.49658427590E+02  0.15327229889E+04  0.17445046453E+04  0.00000000000E+00 0. -1.
<mgrwt>
<rscale>  2 0.11489362E+04</rscale>
<asrwt>0</asrwt>
<pdfrwt beam="1">  1       21 0.35644943E+00 0.11604935E+04</pdfrwt>
<pdfrwt beam="2">  1       21 0.13818925E+00 0.11604935E+04</pdfrwt>
<totfact> 0.16714502E+00</totfact>
</mgrwt>
</event>
<event>
 8    1  0.1168507E-005  0.1213522E+04  0.7818608E-02  0.8601788E-01
         21   -1    0    0  503  502  0.00000000000E+00  0.00000000000E+00  0.15769429645E+04  0.15769429645E+04  0.00000000000E+00 0. -1.
         21   -1    0    0  501  503 -0.00000000000E+00 -0.00000000000E+00 -0.92097367049E+03  0.92097367049E+03  0.00000000000E+00 0. -1.
    9000010    2    1    2  501    0 -0.60324792189E+03 -0.15959109810E+03  0.20946809268E+03  0.12314674195E+04  0.10407966899E+04 0.  0.
   -9000010    2    1    2    0  502  0.60324792189E+03  0.15959109810E+03  0.44650120135E+03  0.12664492155E+04  0.10075479734E+04 0.  0.
        -13    1    3    3    0    0 -0.89261686799E+03 -0.45053759612E+02  0.21868546217E+03  0.92011850150E+03  0.10566000000E+00 0.  1.
          4    1    3    3  501    0  0.28936894609E+03 -0.11453733849E+03 -0.92173694883E+01  0.31134891805E+03  0.00000000000E+00 0.  1.
         13    1    4    4    0    0  0.94718142295E+02 -0.19184701024E+03  0.59364682327E+03  0.63102564430E+03  0.10566000000E+00 0. -1.
         -4    1    4    4    0  502  0.50852977960E+03  0.35143810834E+03 -0.14714562192E+03  0.63542357116E+03  0.00000000000E+00 0. -1.
<mgrwt>
<rscale>  2 0.12063604E+04</rscale>
<asrwt>0</asrwt>
<pdfrwt beam="1">  1       21 0.24260661E+00 0.12135218E+04</pdfrwt>
<pdfrwt beam="2">  1       21 0.14168826E+00 0.12135218E+04</pdfrwt>
<totfact> 0.98835083E+00</totfact>
</mgrwt>
</event>
<event>
 8    1  0.1168507E-005  0.1089126E+04  0.7818608E-02  0.8697194E-01
         21   -1    0    0  501  502  0.00000000000E+00  0.00000000000E+00  0.88503861871E+03  0.88503861871E+03  0.00000000000E+00 0. -1.
         21   -1    0    0  502  503 -0.00000000000E+00 -0.00000000000E+00 -0.14637428840E+04  0.14637428840E+04  0.00000000000E+00 0. -1.
   -9000010    2    1    2    0  503 -0.26366120998E+03  0.33891878682E+03 -0.64804615916E+03  0.12673436915E+04  0.10009061046E+04 0.  0.
    9000010    2    1    2  501    0  0.26366120998E+03 -0.33891878682E+03  0.69341893888E+02  0.10814378112E+04  0.99010921801E+03 0.  0.
        -13    1    4    4    0    0  0.50181211885E+02 -0.61443118685E+03 -0.19212914102E+03  0.64572242906E+03  0.10566000000E+00 0.  1.
          4    1    4    4  501    0  0.21347999809E+03  0.27551240003E+03  0.26147103491E+03  0.43571538216E+03  0.00000000000E+00 0.  1.
         13    1    3    3    0    0 -0.44526990770E+03 -0.16795900351E+03 -0.76291207820E+02  0.48197082601E+03  0.10566000000E+00 0. -1.
         -4    1    3    3    0  503  0.18160869773E+03  0.50687779033E+03 -0.57175495134E+03  0.78537286546E+03  0.00000000000E+00 0. -1.
<mgrwt>
<rscale>  2 0.10866394E+04</rscale>
<asrwt>0</asrwt>
<pdfrwt beam="1">  1       21 0.13615979E+00 0.10891264E+04</pdfrwt>
<pdfrwt beam="2">  1       21 0.22519121E+00 0.10891264E+04</pdfrwt>
<totfact> 0.15374801E+01</totfact>
</mgrwt>
</event>
<event>
 8    1  0.1168507E-005  0.1090404E+04  0.7818608E-02  0.8755834E-01
         21   -1    0    0  503  502  0.00000000000E+00  0.00000000000E+00  0.10093339441E+04  0.10093339441E+04  0.00000000000E+00 0.  1.
         21   -1    0    0  501  503 -0.00000000000E+00 -0.00000000000E+00 -0.10410026269E+04  0.10410026269E+04  0.00000000000E+00 0.  1.
    9000010    2    1    2  501    0 -0.38838603422E+03 -0.18433070294E+03 -0.36253080755E+03  0.91084101837E+03  0.71650628378E+03 0.  0.
   -9000010    2    1    2    0  502  0.38838603422E+03  0.18433070294E+03  0.33086212480E+03  0.11394955526E+04  0.10020772671E+04 0.  0.
        -13    1    3    3    0    0 -0.49686289862E+03 -0.26728069231E+03 -0.45944628821E+02  0.56605885611E+03  0.10566000000E+00 0.  1.
          4    1    3    3  501    0  0.10847686440E+03  0.82949989362E+02 -0.31658617873E+03  0.34478216226E+03  0.00000000000E+00 0.  1.
         13    1    4    4    0    0  0.38897477115E+03  0.56917110232E+03  0.11707331624E+03  0.69925909994E+03  0.10566000000E+00 0. -1.
         -4    1    4    4    0  502 -0.58873693297E+00 -0.38484039938E+03  0.21378880857E+03  0.44023645268E+03  0.00000000000E+00 0. -1.
<mgrwt>
<rscale>  2 0.10202068E+04</rscale>
<asrwt>0</asrwt>
<pdfrwt beam="1">  1       21 0.15528215E+00 0.10904038E+04</pdfrwt>
<pdfrwt beam="2">  1       21 0.16015425E+00 0.10904038E+04</pdfrwt>
<totfact> 0.34025758E+01</totfact>
</mgrwt>
</event>
<event>
 8    1  0.1168507E-005  0.1332159E+04  0.7818608E-02  0.8520571E-01
         21   -1    0    0  501  502  0.00000000000E+00  0.00000000000E+00  0.13249203757E+04  0.13249203757E+04  0.00000000000E+00 0. -1.
         21   -1    0    0  502  503 -0.00000000000E+00 -0.00000000000E+00 -0.13517544168E+04  0.13517544168E+04  0.00000000000E+00 0. -1.
   -9000010    2    1    2    0  503  0.36119777026E+03  0.72368378133E+03 -0.28550628720E+03  0.13196347567E+04  0.10028658966E+04 0.  0.
    9000010    2    1    2  501    0 -0.36119777026E+03 -0.72368378133E+03  0.25867224605E+03  0.13570400357E+04  0.10585198549E+04 0.  0.
        -13    1    4    4    0    0 -0.41002536328E+03 -0.95065873109E+03  0.37015418553E+03  0.10994939535E+04  0.10566000000E+00 0.  1.
          4    1    4    4  501    0  0.48827593021E+02  0.22697494976E+03 -0.11148193948E+03  0.25754608226E+03  0.00000000000E+00 0.  1.
         13    1    3    3    0    0  0.37607698937E+02  0.89412833084E+03 -0.75991668728E+02  0.89813949691E+03  0.10566000000E+00 0. -1.
         -4    1    3    3    0  503  0.32359007132E+03 -0.17044454950E+03 -0.20951461847E+03  0.42149525984E+03  0.00000000000E+00 0. -1.
<mgrwt>
<rscale>  2 0.13210763E+04</rscale>
<asrwt>0</asrwt>
<pdfrwt beam="1">  1       21 0.20383390E+00 0.13321585E+04</pdfrwt>
<pdfrwt beam="2">  1       21 0.20796222E+00 0.13321585E+04</pdfrwt>
<totfact> 0.52872487E+00</totfact>
</mgrwt>
</event>
<event>
 8    1  0.1168507E-005  0.1048824E+04  0.7818608E-02  0.8734800E-01
         21   -1    0    0  501  502  0.00000000000E+00  0.00000000000E+00  0.13937293648E+04  0.13937293648E+04  0.00000000000E+00 0. -1.
         21   -1    0    0  502  503 -0.00000000000E+00 -0.00000000000E+00 -0.77406041437E+03  0.77406041437E+03  0.00000000000E+00 0. -1.
   -9000010    2    1    2    0  503  0.34224473283E+02  0.34752199363E+03  0.27939765734E+03  0.10854004062E+04  0.98898338726E+03 0.  0.
    9000010    2    1    2  501    0 -0.34224473283E+02 -0.34752199363E+03  0.34027129310E+03  0.10823893729E+04  0.96635363667E+03 0.  0.
        -13    1    4    4    0    0 -0.41198980524E+03 -0.25684387987E+03 -0.99510080101E+02  0.49558717240E+03  0.10566000000E+00 0.  1.
          4    1    4    4  501    0  0.37776533195E+03 -0.90678113769E+02  0.43978137320E+03  0.58680220054E+03  0.00000000000E+00 0.  1.
         13    1    3    3    0    0 -0.12255457596E+03  0.20705595125E+03  0.63115920455E+03  0.67546557550E+03  0.10566000000E+00 0. -1.
         -4    1    3    3    0  503  0.15677904925E+03  0.14046604239E+03 -0.35176154721E+03  0.40993483073E+03  0.00000000000E+00 0. -1.
<mgrwt>
<rscale>  2 0.10434548E+04</rscale>
<asrwt>0</asrwt>
<pdfrwt beam="1">  1       21 0.21441990E+00 0.10488236E+04</pdfrwt>
<pdfrwt beam="2">  1       21 0.11908622E+00 0.10488236E+04</pdfrwt>
<totfact> 0.27461321E+01</totfact>
</mgrwt>
</event>
<event>
 8    1  0.1168507E-005  0.1326415E+04  0.7818608E-02  0.8518161E-01
         21   -1    0    0  501  502  0.00000000000E+00  0.00000000000E+00  0.25882641112E+04  0.25882641112E+04  0.00000000000E+00 0. -1.
         21   -1    0    0  502  503 -0.00000000000E+00 -0.00000000000E+00 -0.90440125556E+03  0.90440125556E+03  0.00000000000E+00 0. -1.
   -9000010    2    1    2    0  503 -0.68746255491E+03 -0.53947004922E+03  0.17174911550E+04  0.21658243931E+04  0.98862871489E+03 0.  0.
    9000010    2    1    2  501    0  0.68746255491E+03  0.53947004922E+03 -0.33628299277E+02  0.13268409737E+04  0.99786943466E+03 0.  0.
        -13    1    4    4    0    0  0.35207296335E+03  0.22349579433E+03  0.48064121654E+03  0.63633460680E+03  0.10566000000E+00 0.  1.
          4    1    4    4  501    0  0.33538959156E+03  0.31597425488E+03 -0.51426951581E+03  0.69050636693E+03  0.00000000000E+00 0.  1.
         13    1    3    3    0    0 -0.33681069193E+03  0.23395338690E+03  0.28110245386E+03  0.49718631333E+03  0.10566000000E+00 0. -1.
         -4    1    3    3    0  503 -0.35065186298E+03 -0.77342343612E+03  0.14363887011E+04  0.16686380797E+04  0.00000000000E+00 0. -1.
<mgrwt>
<rscale>  2 0.13246769E+04</rscale>
<asrwt>0</asrwt>
<pdfrwt beam="1">  1       21 0.39819448E+00 0.13264148E+04</pdfrwt>
<pdfrwt beam="2">  1       21 0.13913866E+00 0.13264148E+04</pdfrwt>
<totfact> 0.80719962E-01</totfact>
</mgrwt>
</event>
<event>
 8    1  0.1168507E-005  0.1250165E+04  0.7818608E-02  0.8582352E-01
         21   -1    0    0  501  502  0.00000000000E+00  0.00000000000E+00  0.10164789010E+04  0.10164789010E+04  0.00000000000E+00 0. -1.
         21   -1    0    0  502  503 -0.00000000000E+00 -0.00000000000E+00 -0.15160597412E+04  0.15160597412E+04  0.00000000000E+00 0.  1.
   -9000010    2    1    2    0  503 -0.62029228032E+03 -0.19660398670E+03 -0.49811800356E+03  0.12823726269E+04  0.98637841025E+03 0.  0.
    9000010    2    1    2  501    0  0.62029228032E+03  0.19660398670E+03 -0.14628366301E+01  0.12501660152E+04  0.10674723814E+04 0.  0.
        -13    1    4    4    0    0  0.57622483077E+03  0.60397699617E+03  0.54876978933E+02  0.83656127180E+03  0.10566000000E+00 0.  1.
          4    1    4    4  501    0  0.44067449550E+02 -0.40737300947E+03 -0.56339815563E+02  0.41360474341E+03  0.00000000000E+00 0.  1.
         13    1    3    3    0    0 -0.54844900837E+02 -0.49573308563E+03 -0.49835519074E+02  0.50124130462E+03  0.10566000000E+00 0. -1.
         -4    1    3    3    0  503 -0.56544737948E+03  0.29912909893E+03 -0.44828248449E+03  0.78113132231E+03  0.00000000000E+00 0. -1.
<mgrwt>
<rscale>  2 0.12326794E+04</rscale>
<asrwt>0</asrwt>
<pdfrwt beam="1">  1       21 0.15638137E+00 0.12501652E+04</pdfrwt>
<pdfrwt beam="2">  1       21 0.23323996E+00 0.12501652E+04</pdfrwt>
<totfact> 0.84905693E+00</totfact>
</mgrwt>
</event>
<event>
 8    1  0.1168507E-005  0.1022225E+04  0.7818608E-02  0.8757642E-01
         21   -1    0    0  503  502  0.00000000000E+00  0.00000000000E+00  0.80120110619E+03  0.80120110619E+03  0.00000000000E+00 0.  1.
         21   -1    0    0  501  503 -0.00000000000E+00 -0.00000000000E+00 -0.13084743821E+04  0.13084743821E+04  0.00000000000E+00 0.  1.
    9000010    2    1    2  501    0 -0.32159180279E+02  0.20954954158E+03 -0.11153051022E+03  0.10282912273E+04  0.99999928511E+03 0.  0.
   -9000010    2    1    2    0  502  0.32159180279E+02 -0.20954954158E+03 -0.39574276571E+03  0.10813842610E+04  0.98378572872E+03 0.  0.
        -13    1    3    3    0    0 -0.37012945485E+02  0.60049362804E+03 -0.18715342139E+03  0.63007060696E+03  0.10566000000E+00 0.  1.
          4    1    3    3  501    0  0.48537652055E+01 -0.39094408647E+03  0.75622911175E+02  0.39822062035E+03  0.00000000000E+00 0.  1.
         13    1    4    4    0    0 -0.35357306777E+03  0.47361500242E+00  0.14724154396E+03  0.38300681716E+03  0.10566000000E+00 0. -1.
         -4    1    4    4    0  502  0.38573224804E+03 -0.21002315658E+03 -0.54298430967E+03  0.69837744381E+03  0.00000000000E+00 0. -1.
<mgrwt>
<rscale>  2 0.10182378E+04</rscale>
<asrwt>0</asrwt>
<pdfrwt beam="1">  1       21 0.12326171E+00 0.10222249E+04</pdfrwt>
<pdfrwt beam="2">  1       21 0.20130375E+00 0.10222249E+04</pdfrwt>
<totfact> 0.31632303E+01</totfact>
</mgrwt>
</event>
<event>
 8    1  0.1168507E-005  0.1067890E+04  0.7818608E-02  0.8755850E-01
         21   -1    0    0  503  502  0.00000000000E+00  0.00000000000E+00  0.50880312192E+03  0.50880312192E+03  0.00000000000E+00 0.  1.
         21   -1    0    0  501  503 -0.00000000000E+00 -0.00000000000E+00 -0.19444356227E+04  0.19444356227E+04  0.00000000000E+00 0.  1.
    9000010    2    1    2  501    0 -0.16986437373E+03 -0.31696632914E+03 -0.99913441753E+03  0.14624156509E+04  0.10055189667E+04 0.  0.
   -9000010    2    1    2    0  502  0.16986437373E+03  0.31696632914E+03 -0.43649808322E+03  0.99082309373E+03  0.81355901269E+03 0.  0.
        -13    1    3    3    0    0  0.29159414860E+03 -0.34246483099E+03 -0.87505717738E+03  0.98388738320E+03  0.10566000000E+00 0.  1.
          4    1    3    3  501    0 -0.46145852233E+03  0.25498501843E+02 -0.12407724014E+03  0.47852826766E+03  0.00000000000E+00 0.  1.
         13    1    4    4    0    0 -0.22682175227E+02  0.23816373510E+03 -0.65005267096E+03  0.69267953050E+03  0.10566000000E+00 0. -1.
         -4    1    4    4    0  502  0.19254654896E+03  0.78802594045E+02  0.21355458774E+03  0.29814356322E+03  0.00000000000E+00 0. -1.
<mgrwt>
<rscale>  2 0.10201894E+04</rscale>
<asrwt>0</asrwt>
<pdfrwt beam="1">  1       21 0.78277403E-01 0.10678904E+04</pdfrwt>
<pdfrwt beam="2">  1       21 0.29914394E+00 0.10678904E+04</pdfrwt>
<totfact> 0.19748897E+01</totfact>
</mgrwt>
</event>
<event>
 8    1  0.1168507E-005  0.1005082E+04  0.7818608E-02  0.8771071E-01
         21   -1    0    0  501  502  0.00000000000E+00  0.00000000000E+00  0.19121782179E+04  0.19121782179E+04  0.00000000000E+00 0.  1.
         21   -1    0    0  502  503 -0.00000000000E+00 -0.00000000000E+00 -0.55461187470E+03  0.55461187470E+03  0.00000000000E+00 0.  1.
   -9000010    2    1    2    0  503  0.10105147587E+03 -0.18742276765E+03  0.39796155687E+03  0.10810012772E+04  0.98226863230E+03 0.  0.
    9000010    2    1    2  501    0 -0.10105147587E+03  0.18742276765E+03  0.95960478628E+03  0.13857888153E+04  0.97684727581E+03 0.  0.
        -13    1    4    4    0    0 -0.66548579606E+02 -0.40223121351E+03  0.35579336684E+03  0.54111698700E+03  0.10566000000E+00 0.  1.
          4    1    4    4  501    0 -0.34502896265E+02  0.58965398115E+03  0.60381141944E+03  0.84467182834E+03  0.00000000000E+00 0.  1.
         13    1    3    3    0    0 -0.36472404036E+03 -0.35542505695E+03  0.18205174683E+03  0.54082663250E+03  0.10566000000E+00 0. -1.
         -4    1    3    3    0  503  0.46577551623E+03  0.16800228930E+03  0.21590981003E+03  0.54017464472E+03  0.00000000000E+00 0. -1.
<mgrwt>
<rscale>  2 0.10037552E+04</rscale>
<asrwt>0</asrwt>
<pdfrwt beam="1">  1       21 0.29418126E+00 0.10050823E+04</pdfrwt>
<pdfrwt beam="2">  1       21 0.85324905E-01 0.10050823E+04</pdfrwt>
<totfact> 0.17556173E+01</totfact>
</mgrwt>
</event>
<event>
 8    1  0.1168507E-005  0.1088385E+04  0.7818608E-02  0.8697167E-01
         21   -1    0    0  503  502  0.00000000000E+00  0.00000000000E+00  0.78081047080E+03  0.78081047080E+03  0.00000000000E+00 0. -1.
         21   -1    0    0  501  503 -0.00000000000E+00 -0.00000000000E+00 -0.15097960420E+04  0.15097960420E+04  0.00000000000E+00 0. -1.
    9000010    2    1    2  501    0 -0.31076137054E+02  0.42211632944E+03 -0.31965192994E+03  0.11277923375E+04  0.99528401892E+03 0.  0.
   -9000010    2    1    2    0  502  0.31076137054E+02 -0.42211632944E+03 -0.40933364126E+03  0.11628141753E+04  0.10027137451E+04 0.  0.
        -13    1    3    3    0    0  0.35245335377E+03  0.74551979451E+02 -0.46684533726E+03  0.58968291844E+03  0.10566000000E+00 0.  1.
          4    1    3    3  501    0 -0.38352949082E+03  0.34756434999E+03  0.14719340732E+03  0.53810941905E+03  0.00000000000E+00 0.  1.
         13    1    4    4    0    0 -0.54025283119E+02  0.19059391494E+03 -0.49981219678E+03  0.53764022807E+03  0.10566000000E+00 0. -1.
         -4    1    4    4    0  502  0.85101420173E+02 -0.61271024438E+03  0.90478555521E+02  0.62517394723E+03  0.00000000000E+00 0. -1.
<mgrwt>
<rscale>  2 0.10866711E+04</rscale>
<asrwt>0</asrwt>
<pdfrwt beam="1">  1       21 0.12012469E+00 0.10883854E+04</pdfrwt>
<pdfrwt beam="2">  1       21 0.23227631E+00 0.10883854E+04</pdfrwt>
<totfact> 0.19518769E+01</totfact>
</mgrwt>
</event>
<event>
 8    1  0.1168507E-005  0.1018536E+04  0.7818608E-02  0.8785151E-01
         21   -1    0    0  503  502  0.00000000000E+00  0.00000000000E+00  0.79021793672E+03  0.79021793672E+03  0.00000000000E+00 0.  1.
         21   -1    0    0  501  503 -0.00000000000E+00 -0.00000000000E+00 -0.12783893144E+04  0.12783893144E+04  0.00000000000E+00 0.  1.
    9000010    2    1    2  501    0 -0.27464018612E+03  0.11121481920E+02  0.42888726184E+02  0.10194390464E+04  0.98074747375E+03 0.  0.
   -9000010    2    1    2    0  502  0.27464018612E+03 -0.11121481920E+02 -0.53106010388E+03  0.10491682048E+04  0.86207782059E+03 0.  0.
        -13    1    3    3    0    0 -0.59061192710E+03 -0.21467938243E+03 -0.25950845506E+01  0.62842376730E+03  0.10566000000E+00 0.  1.
          4    1    3    3  501    0  0.31597174098E+03  0.22580086435E+03  0.45483810734E+02  0.39101527909E+03  0.00000000000E+00 0.  1.
         13    1    4    4    0    0  0.43038680378E+03 -0.24812219620E+02 -0.69803118163E+03  0.82042427365E+03  0.10566000000E+00 0. -1.
         -4    1    4    4    0  502 -0.15574661767E+03  0.13690737700E+02  0.16697107775E+03  0.22874393111E+03  0.00000000000E+00 0. -1.
<mgrwt>
<rscale>  2 0.98883758E+03</rscale>
<asrwt>0</asrwt>
<pdfrwt beam="1">  1       21 0.12157199E+00 0.10185365E+04</pdfrwt>
<pdfrwt beam="2">  1       21 0.19667528E+00 0.10185365E+04</pdfrwt>
<totfact> 0.35776179E+01</totfact>
</mgrwt>
</event>
<event>
 8    1  0.1168507E-005  0.1139918E+04  0.7818608E-02  0.8657645E-01
         21   -1    0    0  501  502  0.00000000000E+00  0.00000000000E+00  0.15618101513E+04  0.15618101513E+04  0.00000000000E+00 0. -1.
         21   -1    0    0  502  503 -0.00000000000E+00 -0.00000000000E+00 -0.82047428529E+03  0.82047428529E+03  0.00000000000E+00 0. -1.
   -9000010    2    1    2    0  503 -0.47710191976E+03  0.20606601811E+03  0.28784710660E+03  0.11756994257E+04  0.10145559310E+04 0.  0.
    9000010    2    1    2  501    0  0.47710191976E+03 -0.20606601811E+03  0.45348875937E+03  0.12065850109E+04  0.99000297369E+03 0.  0.
        -13    1    4    4    0    0  0.41423629165E+03 -0.28080857469E+03  0.74593802333E+03  0.89825870814E+03  0.10566000000E+00 0.  1.
          4    1    4    4  501    0  0.62865628110E+02  0.74742556581E+02 -0.29244926396E+03  0.30832630272E+03  0.00000000000E+00 0.  1.
         13    1    3    3    0    0 -0.32793342701E+03 -0.21046536156E+03  0.54041659525E+03  0.66624778315E+03  0.10566000000E+00 0. -1.
         -4    1    3    3    0  503 -0.14916849275E+03  0.41653137967E+03 -0.25256948865E+03  0.50945164253E+03  0.00000000000E+00 0. -1.
<mgrwt>
<rscale>  2 0.11344294E+04</rscale>
<asrwt>0</asrwt>
<pdfrwt beam="1">  1       21 0.24027848E+00 0.11399181E+04</pdfrwt>
<pdfrwt beam="2">  1       21 0.12622681E+00 0.11399181E+04</pdfrwt>
<totfact> 0.14643928E+01</totfact>
</mgrwt>
</event>
<event>
 8    1  0.1168507E-005  0.1031128E+04  0.7818608E-02  0.8747804E-01
         21   -1    0    0  501  502  0.00000000000E+00  0.00000000000E+00  0.10329348363E+04  0.10329348363E+04  0.00000000000E+00 0. -1.
         21   -1    0    0  502  503 -0.00000000000E+00 -0.00000000000E+00 -0.10211354558E+04  0.10211354558E+04  0.00000000000E+00 0. -1.
   -9000010    2    1    2    0  503 -0.15693657734E+03 -0.17528872891E+03  0.21434474934E+02  0.10228971618E+04  0.99524064378E+03 0.  0.
    9000010    2    1    2  501    0  0.15693657734E+03  0.17528872891E+03 -0.96350944272E+01  0.10311731303E+04  0.10039272692E+04 0.  0.
        -13    1    4    4    0    0 -0.28338959139E+01  0.33423669135E+03  0.42553243975E+03  0.54111003064E+03  0.10566000000E+00 0.  1.
          4    1    4    4  501    0  0.15977047326E+03 -0.15894796244E+03 -0.43516753418E+03  0.49006309971E+03  0.00000000000E+00 0.  1.
         13    1    3    3    0    0  0.26802215793E+02 -0.14442374547E+03  0.49376371567E+03  0.51514968223E+03  0.10566000000E+00 0. -1.
         -4    1    3    3    0  503 -0.18373879314E+03 -0.30864983434E+02 -0.47232924074E+03  0.50774747952E+03  0.00000000000E+00 0. -1.
<mgrwt>
<rscale>  2 0.10290077E+04</rscale>
<asrwt>0</asrwt>
<pdfrwt beam="1">  1       21 0.15891305E+00 0.10311281E+04</pdfrwt>
<pdfrwt beam="2">  1       21 0.15709776E+00 0.10311281E+04</pdfrwt>
<totfact> 0.34059936E+01</totfact>
</mgrwt>
</event>
<event>
 8    1  0.1168507E-005  0.1301452E+04  0.7818608E-02  0.8537913E-01
         21   -1    0    0  501  502  0.00000000000E+00  0.00000000000E+00  0.96031959288E+03  0.96031959288E+03  0.00000000000E+00 0. -1.
         21   -1    0    0  502  503 -0.00000000000E+00 -0.00000000000E+00 -0.17323061389E+04  0.17323061389E+04  0.00000000000E+00 0.  1.
   -9000010    2    1    2    0  503  0.16393725829E+03  0.79718475295E+03 -0.40940599289E+03  0.13643276169E+04  0.10155774832E+04 0.  0.
    9000010    2    1    2  501    0 -0.16393725829E+03 -0.79718475295E+03 -0.36258055315E+03  0.13282981149E+04  0.98515596197E+03 0.  0.
        -13    1    4    4    0    0 -0.36991439996E+03 -0.27779423412E+03 -0.56839320229E+03  0.73285547237E+03  0.10566000000E+00 0.  1.
          4    1    4    4  501    0  0.20597714168E+03 -0.51939051883E+03  0.20581264914E+03  0.59544264248E+03  0.00000000000E+00 0.  1.
         13    1    3    3    0    0  0.73510470865E+02 -0.24237893632E+03 -0.12679183771E+03  0.28324462815E+03  0.10566000000E+00 0. -1.
         -4    1    3    3    0  503  0.90426787421E+02  0.10395636893E+04 -0.28261415518E+03  0.10810829888E+04  0.00000000000E+00 0. -1.
<mgrwt>
<rscale>  2 0.12955118E+04</rscale>
<asrwt>0</asrwt>
<pdfrwt beam="1">  1       21 0.14774148E+00 0.13014517E+04</pdfrwt>
<pdfrwt beam="2">  1       21 0.26650863E+00 0.13014517E+04</pdfrwt>
<totfact> 0.57355081E+00</totfact>
</mgrwt>
</event>
<event>
 8    1  0.1168507E-005  0.1147233E+04  0.7818608E-02  0.8651248E-01
         21   -1    0    0  501  502  0.00000000000E+00  0.00000000000E+00  0.11213259350E+04  0.11213259350E+04  0.00000000000E+00 0. -1.
         21   -1    0    0  502  503 -0.00000000000E+00 -0.00000000000E+00 -0.11774898915E+04  0.11774898915E+04  0.00000000000E+00 0.  1.
   -9000010    2    1    2    0  503 -0.10565931978E+03 -0.52800531855E+03 -0.19010390261E+03  0.11628770083E+04  0.10130103327E+04 0.  0.
    9000010    2    1    2  501    0  0.10565931978E+03  0.52800531855E+03  0.13393994611E+03  0.11359388183E+04  0.99119300917E+03 0.  0.
        -13    1    4    4    0    0 -0.40922064560E+03  0.41452516374E+02  0.11579404454E+03  0.42730331126E+03  0.10566000000E+00 0.  1.
          4    1    4    4  501    0  0.51487996538E+03  0.48655280218E+03  0.18145901573E+02  0.70863550701E+03  0.00000000000E+00 0.  1.
         13    1    3    3    0    0 -0.49085747960E+03 -0.83784718565E+01 -0.15611735777E+03  0.51515425324E+03  0.10566000000E+00 0. -1.
         -4    1    3    3    0  503  0.38519815982E+03 -0.51962684669E+03 -0.33986544836E+02  0.64772275501E+03  0.00000000000E+00 0. -1.
<mgrwt>
<rscale>  2 0.11423979E+04</rscale>
<asrwt>0</asrwt>
<pdfrwt beam="1">  1       21 0.17251168E+00 0.11472330E+04</pdfrwt>
<pdfrwt beam="2">  1       21 0.18115229E+00 0.11472330E+04</pdfrwt>
<totfact> 0.15974111E+01</totfact>
</mgrwt>
</event>
<event>
 8    1  0.1168507E-005  0.1422031E+04  0.7818608E-02  0.8465743E-01
         21   -1    0    0  503  502  0.00000000000E+00  0.00000000000E+00  0.10543809576E+04  0.10543809576E+04  0.00000000000E+00 0.  1.
         21   -1    0    0  501  503 -0.00000000000E+00 -0.00000000000E+00 -0.18826312478E+04  0.18826312478E+04  0.00000000000E+00 0.  1.
    9000010    2    1    2  501    0 -0.42425370628E+03 -0.87051650720E+03 -0.18668667199E+03  0.14342333517E+04  0.10413372158E+04 0.  0.
   -9000010    2    1    2    0  502  0.42425370628E+03  0.87051650720E+03 -0.64156361821E+03  0.15027788538E+04  0.95338880348E+03 0.  0.
        -13    1    3    3    0    0  0.12180480582E+02  0.17331532307E+03 -0.24613086276E+03  0.30127558495E+03  0.10566000000E+00 0.  1.
          4    1    3    3  501    0 -0.43643418686E+03 -0.10438318303E+04  0.59444190767E+02  0.11329577667E+04  0.00000000000E+00 0.  1.
         13    1    4    4    0    0  0.10529477648E+03  0.96187434542E+03 -0.26987925222E+03  0.10045516753E+04  0.10566000000E+00 0. -1.
         -4    1    4    4    0  502  0.31895892980E+03 -0.91357838221E+02 -0.37168436599E+03  0.49822717853E+03  0.00000000000E+00 0. -1.
<mgrwt>
<rscale>  2 0.14059913E+04</rscale>
<asrwt>0</asrwt>
<pdfrwt beam="1">  1       21 0.16221246E+00 0.14220314E+04</pdfrwt>
<pdfrwt beam="2">  1       21 0.28963557E+00 0.14220314E+04</pdfrwt>
<totfact> 0.28563772E+00</totfact>
</mgrwt>
</event>
<event>
 8    1  0.1168507E-005  0.1194961E+04  0.7818608E-02  0.8612350E-01
         21   -1    0    0  503  502  0.00000000000E+00  0.00000000000E+00  0.71401346446E+03  0.71401346446E+03  0.00000000000E+00 0.  1.
         21   -1    0    0  501  503 -0.00000000000E+00 -0.00000000000E+00 -0.20971377120E+04  0.20971377120E+04  0.00000000000E+00 0.  1.
    9000010    2    1    2  501    0  0.45738484809E+03 -0.44363107596E+03 -0.10231419504E+04  0.15731343651E+04  0.10109019978E+04 0.  0.
   -9000010    2    1    2    0  502 -0.45738484809E+03  0.44363107596E+03 -0.35998229715E+03  0.12380168113E+04  0.99854340921E+03 0.  0.
        -13    1    3    3    0    0 -0.22168011339E+03 -0.46389368162E+03 -0.40249765131E+03  0.65295006777E+03  0.10566000000E+00 0.  1.
          4    1    3    3  501    0  0.67906496149E+03  0.20262605655E+02 -0.62064429906E+03  0.92018429733E+03  0.00000000000E+00 0.  1.
         13    1    4    4    0    0 -0.25933979230E+02 -0.29953533481E+03 -0.20738764316E+03  0.36524462183E+03  0.10566000000E+00 0. -1.
         -4    1    4    4    0  502 -0.43145086886E+03  0.74316641077E+03 -0.15259465399E+03  0.87277218950E+03  0.00000000000E+00 0. -1.
<mgrwt>
<rscale>  2 0.11923434E+04</rscale>
<asrwt>0</asrwt>
<pdfrwt beam="1">  1       21 0.10984823E+00 0.11949612E+04</pdfrwt>
<pdfrwt beam="2">  1       21 0.32263657E+00 0.11949612E+04</pdfrwt>
<totfact> 0.54963514E+00</totfact>
</mgrwt>
</event>
<event>
 8    1  0.1168507E-005  0.1063598E+04  0.7818608E-02  0.8718001E-01
         21   -1    0    0  501  502  0.00000000000E+00  0.00000000000E+00  0.74673955731E+03  0.74673955731E+03  0.00000000000E+00 0. -1.
         21   -1    0    0  502  503 -0.00000000000E+00 -0.00000000000E+00 -0.16161127338E+04  0.16161127338E+04  0.00000000000E+00 0. -1.
   -9000010    2    1    2    0  503  0.30039681962E+03 -0.18254970762E+03 -0.73860443799E+03  0.12912458934E+04  0.99910800037E+03 0.  0.
    9000010    2    1    2  501    0 -0.30039681962E+03  0.18254970762E+03 -0.13076873849E+03  0.10716063977E+04  0.10038312426E+04 0.  0.
        -13    1    4    4    0    0 -0.22494378458E+03 -0.38089861255E+03  0.10746538963E+03  0.45522772367E+03  0.10566000000E+00 0.  1.
          4    1    4    4  501    0 -0.75453035032E+02  0.56344832017E+03 -0.23823412812E+03  0.61637867403E+03  0.00000000000E+00 0.  1.
         13    1    3    3    0    0  0.58683775940E+03 -0.33825409079E+03 -0.29031093517E+03  0.73693611395E+03  0.10566000000E+00 0. -1.
         -4    1    3    3    0  503 -0.28644093978E+03  0.15570438317E+03 -0.44829350282E+03  0.55430977945E+03  0.00000000000E+00 0. -1.
<mgrwt>
<rscale>  2 0.10624817E+04</rscale>
<asrwt>0</asrwt>
<pdfrwt beam="1">  1       21 0.11488301E+00 0.10635976E+04</pdfrwt>
<pdfrwt beam="2">  1       21 0.24863273E+00 0.10635976E+04</pdfrwt>
<totfact> 0.16840862E+01</totfact>
</mgrwt>
</event>
<event>
 8    1  0.1168507E-005  0.1213869E+04  0.7818608E-02  0.8598733E-01
         21   -1    0    0  503  502  0.00000000000E+00  0.00000000000E+00  0.14094642575E+04  0.14094642575E+04  0.00000000000E+00 0. -1.
         21   -1    0    0  501  503 -0.00000000000E+00 -0.00000000000E+00 -0.10511881475E+04  0.10511881475E+04  0.00000000000E+00 0. -1.
    9000010    2    1    2  501    0  0.49340725049E+03 -0.46190454045E+03  0.33669363614E+03  0.12465917672E+04  0.99187797137E+03 0.  0.
   -9000010    2    1    2    0  502 -0.49340725049E+03  0.46190454045E+03  0.21582473841E+02  0.12140606378E+04  0.10083010015E+04 0.  0.
        -13    1    3    3    0    0 -0.10443960394E+03 -0.12416414300E+03 -0.28003256222E+03  0.32363963346E+03  0.10566000000E+00 0.  1.
          4    1    3    3  501    0  0.59784685442E+03 -0.33774039745E+03  0.61672619836E+03  0.92295213373E+03  0.00000000000E+00 0.  1.
         13    1    4    4    0    0  0.11146697669E+03  0.48179005693E+03  0.26582254311E+03  0.56143404015E+03  0.10566000000E+00 0. -1.
         -4    1    4    4    0  502 -0.60487422718E+03 -0.19885516482E+02 -0.24424006927E+03  0.65262659761E+03  0.00000000000E+00 0. -1.
<mgrwt>
<rscale>  2 0.12104526E+04</rscale>
<asrwt>0</asrwt>
<pdfrwt beam="1">  1       21 0.21684066E+00 0.12138688E+04</pdfrwt>
<pdfrwt beam="2">  1       21 0.16172125E+00 0.12138688E+04</pdfrwt>
<totfact> 0.10203571E+01</totfact>
</mgrwt>
</event>
<event>
 8    1  0.1168507E-005  0.1111311E+04  0.7818608E-02  0.8678209E-01
         21   -1    0    0  503  502  0.00000000000E+00  0.00000000000E+00  0.87882637828E+03  0.87882637828E+03  0.00000000000E+00 0. -1.
         21   -1    0    0  501  503 -0.00000000000E+00 -0.00000000000E+00 -0.16509561724E+04  0.16509561724E+04  0.00000000000E+00 0. -1.
    9000010    2    1    2  501    0 -0.43575188782E+03  0.18004966389E+03 -0.88289950987E+03  0.14129649131E+04  0.99732678288E+03 0.  0.
   -9000010    2    1    2    0  502  0.43575188782E+03 -0.18004966389E+03  0.11076971571E+03  0.11168176376E+04  0.10063369797E+04 0.  0.
        -13    1    3    3    0    0  0.32103591546E+03 -0.14816625768E+02 -0.27253943184E+03  0.42138028488E+03  0.10566000000E+00 0.  1.
          4    1    3    3  501    0 -0.75678780327E+03  0.19486628966E+03 -0.61036007802E+03  0.99158462819E+03  0.00000000000E+00 0.  1.
         13    1    4    4    0    0 -0.35128586195E+02  0.43803846404E+02  0.47659914966E+03  0.47989535854E+03  0.10566000000E+00 0. -1.
         -4    1    4    4    0  502  0.47088047401E+03 -0.22385351029E+03 -0.36582943395E+03  0.63692227910E+03  0.00000000000E+00 0. -1.
<mgrwt>
<rscale>  2 0.11092671E+04</rscale>
<asrwt>0</asrwt>
<pdfrwt beam="1">  1       21 0.13520406E+00 0.11113108E+04</pdfrwt>
<pdfrwt beam="2">  1       21 0.25399325E+00 0.11113108E+04</pdfrwt>
<totfact> 0.95881914E+00</totfact>
</mgrwt>
</event>
<event>
 8    1  0.1168507E-005  0.1189859E+04  0.7818608E-02  0.8617420E-01
         21   -1    0    0  501  502  0.00000000000E+00  0.00000000000E+00  0.83248708350E+03  0.83248708350E+03  0.00000000000E+00 0.  1.
         21   -1    0    0  502  503 -0.00000000000E+00 -0.00000000000E+00 -0.21142179691E+04  0.21142179691E+04  0.00000000000E+00 0.  1.
   -9000010    2    1    2    0  503 -0.61901204548E+03 -0.10061962361E+03 -0.13144354420E+04  0.17729931105E+04  0.10111695296E+04 0.  0.
    9000010    2    1    2  501    0  0.61901204548E+03  0.10061962361E+03  0.32704556390E+02  0.11737119421E+04  0.99157950462E+03 0.  0.
        -13    1    4    4    0    0  0.89239552705E+03  0.41693091711E+02  0.34703437380E+02  0.89404274525E+03  0.10566000000E+00 0.  1.
          4    1    4    4  501    0 -0.27338348157E+03  0.58926531902E+02 -0.19988809900E+01  0.27966919688E+03  0.00000000000E+00 0.  1.
         13    1    3    3    0    0 -0.45274113082E+03  0.35186134653E+03 -0.29389207169E+03  0.64432406418E+03  0.10566000000E+00 0. -1.
         -4    1    3    3    0  503 -0.16627091466E+03 -0.45248097014E+03 -0.10205433703E+04  0.11286690463E+04  0.00000000000E+00 0. -1.
<mgrwt>
<rscale>  2 0.11856863E+04</rscale>
<asrwt>0</asrwt>
<pdfrwt beam="1">  1       21 0.12807493E+00 0.11898588E+04</pdfrwt>
<pdfrwt beam="2">  1       21 0.32526431E+00 0.11898588E+04</pdfrwt>
<totfact> 0.34335514E+00</totfact>
</mgrwt>
</event>
<event>
 8    1  0.1168507E-005  0.1358306E+04  0.7818608E-02  0.8496172E-01
         21   -1    0    0  503  502  0.00000000000E+00  0.00000000000E+00  0.13422745570E+04  0.13422745570E+04  0.00000000000E+00 0.  1.
         21   -1    0    0  501  503 -0.00000000000E+00 -0.00000000000E+00 -0.15435962233E+04  0.15435962233E+04  0.00000000000E+00 0.  1.
    9000010    2    1    2  501    0 -0.55696977131E+03 -0.73714526613E+03  0.37819660223E+03  0.14091050019E+04  0.99445752386E+03 0.  0.
   -9000010    2    1    2    0  502  0.55696977131E+03  0.73714526613E+03 -0.57951826858E+03  0.14767657784E+04  0.99568934474E+03 0.  0.
        -13    1    3    3    0    0  0.28986166387E+03 -0.18051966939E+03  0.58255947159E+02  0.34641146309E+03  0.10566000000E+00 0.  1.
          4    1    3    3  501    0 -0.84683143518E+03 -0.55662559674E+03  0.31994065507E+03  0.10626935388E+04  0.00000000000E+00 0.  1.
         13    1    4    4    0    0  0.36237536400E+03  0.71138465444E+03 -0.83455824581E+03  0.11549335513E+04  0.10566000000E+00 0. -1.
         -4    1    4    4    0  502  0.19459440731E+03  0.25760611688E+02  0.25503997723E+03  0.32183222719E+03  0.00000000000E+00 0. -1.
<mgrwt>
<rscale>  2 0.13580805E+04</rscale>
<asrwt>0</asrwt>
<pdfrwt beam="1">  1       21 0.20650378E+00 0.13583062E+04</pdfrwt>
<pdfrwt beam="2">  1       21 0.23747634E+00 0.13583062E+04</pdfrwt>
<totfact> 0.30040118E+00</totfact>
</mgrwt>
</event>
<event>
 8    1  0.1168507E-005  0.1165098E+04  0.7818608E-02  0.8664980E-01
         21   -1    0    0  501  502  0.00000000000E+00  0.00000000000E+00  0.18937551867E+04  0.18937551867E+04  0.00000000000E+00 0. -1.
         21   -1    0    0  502  503 -0.00000000000E+00 -0.00000000000E+00 -0.69628952563E+03  0.69628952563E+03  0.00000000000E+00 0. -1.
   -9000010    2    1    2    0  503 -0.42670216242E+03  0.30375807708E+03  0.15358916190E+03  0.10257138342E+04  0.86842128844E+03 0.  0.
    9000010    2    1    2  501    0  0.42670216242E+03 -0.30375807708E+03  0.10438764991E+04  0.15643308781E+04  0.10407253460E+04 0.  0.
        -13    1    4    4    0    0 -0.32921103584E+03 -0.23819687646E+03  0.36372540491E+03  0.54535661673E+03  0.10566000000E+00 0.  1.
          4    1    4    4  501    0  0.75591319825E+03 -0.65561200621E+02  0.68015109424E+03  0.10189742614E+04  0.00000000000E+00 0.  1.
         13    1    3    3    0    0 -0.41269592313E+03  0.58472032363E+03  0.24274654430E+02  0.71610407892E+03  0.10566000000E+00 0. -1.
         -4    1    3    3    0  503 -0.14006239289E+02 -0.28096224655E+03  0.12931450747E+03  0.30960975529E+03  0.00000000000E+00 0. -1.
<mgrwt>
<rscale>  2 0.11253751E+04</rscale>
<asrwt>0</asrwt>
<pdfrwt beam="1">  1       21 0.29134695E+00 0.11650978E+04</pdfrwt>
<pdfrwt beam="2">  1       21 0.10712147E+00 0.11650978E+04</pdfrwt>
<totfact> 0.98436060E+00</totfact>
</mgrwt>
</event>
<event>
 8    1  0.1168507E-005  0.1126708E+04  0.7818608E-02  0.8666081E-01
         21   -1    0    0  501  502  0.00000000000E+00  0.00000000000E+00  0.76600587021E+03  0.76600587021E+03  0.00000000000E+00 0. -1.
         21   -1    0    0  502  503 -0.00000000000E+00 -0.00000000000E+00 -0.16854697154E+04  0.16854697154E+04  0.00000000000E+00 0. -1.
   -9000010    2    1    2    0  503  0.51192037278E+03  0.44989255859E+02 -0.65969181238E+03  0.13056275560E+04  0.10026881501E+04 0.  0.
    9000010    2    1    2  501    0 -0.51192037278E+03 -0.44989255859E+02 -0.25977203276E+03  0.11458480296E+04  0.99065619503E+03 0.  0.
        -13    1    4    4    0    0 -0.20776751130E+03 -0.29034320791E+03  0.29783409734E+03  0.46494266081E+03  0.10566000000E+00 0.  1.
          4    1    4    4  501    0 -0.30415286148E+03  0.24535395206E+03 -0.55760613011E+03  0.68090536880E+03  0.00000000000E+00 0.  1.
         13    1    3    3    0    0  0.65338827757E+03 -0.32249078733E+03 -0.37311726677E+03  0.81861654949E+03  0.10566000000E+00 0. -1.
         -4    1    3    3    0  503 -0.14146790479E+03  0.36748004319E+03 -0.28657454561E+03  0.48701100646E+03  0.00000000000E+00 0. -1.
<mgrwt>
<rscale>  2 0.11240245E+04</rscale>
<asrwt>0</asrwt>
<pdfrwt beam="1">  1       21 0.11784706E+00 0.11267076E+04</pdfrwt>
<pdfrwt beam="2">  1       21 0.25930303E+00 0.11267076E+04</pdfrwt>
<totfact> 0.12953856E+01</totfact>
</mgrwt>
</event>
<event>
 8    1  0.1168507E-005  0.1840589E+04  0.7818608E-02  0.8239198E-01
         21   -1    0    0  501  502  0.00000000000E+00  0.00000000000E+00  0.98140676829E+03  0.98140676829E+03  0.00000000000E+00 0. -1.
         21   -1    0    0  502  503 -0.00000000000E+00 -0.00000000000E+00 -0.34124877431E+04  0.34124877431E+04  0.00000000000E+00 0.  1.
   -9000010    2    1    2    0  503 -0.88067762977E+03  0.12441286838E+04 -0.11340577317E+04  0.21422198553E+04  0.98973213554E+03 0.  0.
    9000010    2    1    2  501    0  0.88067762977E+03 -0.12441286838E+04 -0.12970232431E+04  0.22516746561E+04  0.10316589525E+04 0.  0.
        -13    1    4    4    0    0 -0.48922201545E+02 -0.36623136643E+03 -0.79752263074E+03  0.87895457975E+03  0.10566000000E+00 0.  1.
          4    1    4    4  501    0  0.92959983132E+03 -0.87789731737E+03 -0.49950061235E+03  0.13727200763E+04  0.00000000000E+00 0.  1.
         13    1    3    3    0    0 -0.10973098292E+04  0.94587377379E+03 -0.89578370072E+03  0.17032893198E+04  0.10566000000E+00 0. -1.
         -4    1    3    3    0  503  0.21663219942E+03  0.29825491001E+03 -0.23827403097E+03  0.43893053551E+03  0.00000000000E+00 0. -1.
<mgrwt>
<rscale>  2 0.18347698E+04</rscale>
<asrwt>0</asrwt>
<pdfrwt beam="1">  1       21 0.15098566E+00 0.18405894E+04</pdfrwt>
<pdfrwt beam="2">  1       21 0.52499811E+00 0.18405894E+04</pdfrwt>
<totfact> 0.75683694E-02</totfact>
</mgrwt>
</event>
<event>
 8    1  0.1168507E-005  0.1331063E+04  0.7818608E-02  0.8518858E-01
         21   -1    0    0  503  502  0.00000000000E+00  0.00000000000E+00  0.22610938862E+04  0.22610938862E+04  0.00000000000E+00 0. -1.
         21   -1    0    0  501  503 -0.00000000000E+00 -0.00000000000E+00 -0.91059162124E+03  0.91059162124E+03  0.00000000000E+00 0. -1.
    9000010    2    1    2  501    0  0.88958665900E+03 -0.44497473583E+02  0.37698578752E+02  0.13021449036E+04  0.94911312187E+03 0.  0.
   -9000010    2    1    2    0  502 -0.88958665900E+03  0.44497473583E+02  0.13128036862E+04  0.18695406038E+04  0.98913300513E+03 0.  0.
        -13    1    3    3    0    0  0.49389697223E+03 -0.27022010127E+02  0.49321283708E+03  0.69851508361E+03  0.10566000000E+00 0.  1.
          4    1    3    3  501    0  0.39568968676E+03 -0.17475463456E+02 -0.45551425833E+03  0.60362981998E+03  0.00000000000E+00 0.  1.
         13    1    4    4    0    0 -0.10854597732E+04 -0.41136410042E+02  0.92502089982E+03  0.14267371166E+04  0.10566000000E+00 0. -1.
         -4    1    4    4    0  502  0.19587311424E+03  0.85633883625E+02  0.38778278637E+03  0.44280348724E+03  0.00000000000E+00 0. -1.
<mgrwt>
<rscale>  2 0.13236350E+04</rscale>
<asrwt>0</asrwt>
<pdfrwt beam="1">  1       21 0.34786059E+00 0.13310629E+04</pdfrwt>
<pdfrwt beam="2">  1       21 0.14009102E+00 0.13310629E+04</pdfrwt>
<totfact> 0.17794067E+00</totfact>
</mgrwt>
</event>
<event>
 8    1  0.1168507E-005  0.1077307E+04  0.7818608E-02  0.8712965E-01
         21   -1    0    0  501  502  0.00000000000E+00  0.00000000000E+00  0.84463221620E+03  0.84463221620E+03  0.00000000000E+00 0. -1.
         21   -1    0    0  502  503 -0.00000000000E+00 -0.00000000000E+00 -0.13311912623E+04  0.13311912623E+04  0.00000000000E+00 0. -1.
   -9000010    2    1    2    0  503  0.20383185531E+03  0.32920099338E+03 -0.20241737986E+03  0.10961584144E+04  0.10053207222E+04 0.  0.
    9000010    2    1    2  501    0 -0.20383185531E+03 -0.32920099338E+03 -0.28414166628E+03  0.10796650641E+04  0.96696403495E+03 0.  0.
        -13    1    4    4    0    0  0.31857937352E+03 -0.39240644887E+03 -0.64886764648E+02  0.50959389884E+03  0.10566000000E+00 0.  1.
          4    1    4    4  501    0 -0.52241122882E+03  0.63205455482E+02 -0.21925490163E+03  0.57007116529E+03  0.00000000000E+00 0.  1.
         13    1    3    3    0    0  0.10574512305E+03  0.54136260175E+03 -0.48145616330E+03  0.73215814273E+03  0.10566000000E+00 0. -1.
         -4    1    3    3    0  503  0.98086732257E+02 -0.21216160837E+03  0.27903878344E+03  0.36400027167E+03  0.00000000000E+00 0. -1.
<mgrwt>
<rscale>  2 0.10682683E+04</rscale>
<asrwt>0</asrwt>
<pdfrwt beam="1">  1       21 0.12994342E+00 0.10773070E+04</pdfrwt>
<pdfrwt beam="2">  1       21 0.20479866E+00 0.10773070E+04</pdfrwt>
<totfact> 0.25248164E+01</totfact>
</mgrwt>
</event>
<event>
 8    1  0.1168507E-005  0.1062723E+04  0.7818608E-02  0.8720115E-01
         21   -1    0    0  501  502  0.00000000000E+00  0.00000000000E+00  0.14576461008E+04  0.14576461008E+04  0.00000000000E+00 0. -1.
         21   -1    0    0  502  503 -0.00000000000E+00 -0.00000000000E+00 -0.77944253131E+03  0.77944253131E+03  0.00000000000E+00 0. -1.
   -9000010    2    1    2    0  503 -0.26346325263E+03 -0.12566305095E+03  0.19663440453E+03  0.10703453686E+04  0.10108264100E+04 0.  0.
    9000010    2    1    2  501    0  0.26346325263E+03  0.12566305095E+03  0.48156916495E+03  0.11667432635E+04  0.10218497416E+04 0.  0.
        -13    1    4    4    0    0 -0.18856135223E+03 -0.79602882037E+02  0.61872315676E+03  0.65169805759E+03  0.10566000000E+00 0.  1.
          4    1    4    4  501    0  0.45202460485E+03  0.20526593298E+03 -0.13715399181E+03  0.51504520589E+03  0.00000000000E+00 0.  1.
         13    1    3    3    0    0 -0.33999475538E+02 -0.31551822865E+03 -0.33470430434E+03  0.46123171991E+03  0.10566000000E+00 0. -1.
         -4    1    3    3    0  503 -0.22946377709E+03  0.18985517770E+03  0.53133870887E+03  0.60911364870E+03  0.00000000000E+00 0. -1.
<mgrwt>
<rscale>  2 0.10600647E+04</rscale>
<asrwt>0</asrwt>
<pdfrwt beam="1">  1       21 0.22425325E+00 0.10627234E+04</pdfrwt>
<pdfrwt beam="2">  1       21 0.11991424E+00 0.10627234E+04</pdfrwt>
<totfact> 0.22635540E+01</totfact>
</mgrwt>
</event>
<event>
 8    1  0.1168507E-005  0.1116888E+04  0.7818608E-02  0.8678785E-01
         21   -1    0    0  501  502  0.00000000000E+00  0.00000000000E+00  0.55355129119E+03  0.55355129119E+03  0.00000000000E+00 0.  1.
         21   -1    0    0  502  503 -0.00000000000E+00 -0.00000000000E+00 -0.21882398180E+04  0.21882398180E+04  0.00000000000E+00 0.  1.
   -9000010    2    1    2    0  503  0.46189382484E+03  0.18336120610E+03 -0.80694435306E+03  0.13778958728E+04  0.10002352773E+04 0.  0.
    9000010    2    1    2  501    0 -0.46189382484E+03 -0.18336120610E+03 -0.82774417372E+03  0.13638952364E+04  0.96337041749E+03 0.  0.
        -13    1    4    4    0    0 -0.47683865222E+03  0.23270365531E+03 -0.78206022986E+03  0.94506312262E+03  0.10566000000E+00 0.  1.
          4    1    4    4  501    0  0.14944827387E+02 -0.41606486141E+03 -0.45683943862E+02  0.41883211373E+03  0.00000000000E+00 0.  1.
         13    1    3    3    0    0  0.33450753245E+03  0.25551722556E+03 -0.10290877811E+04  0.11118480176E+04  0.10566000000E+00 0. -1.
         -4    1    3    3    0  503  0.12738629238E+03 -0.72156019459E+02  0.22214342806E+03  0.26604785521E+03  0.00000000000E+00 0. -1.
<mgrwt>
<rscale>  2 0.11085726E+04</rscale>
<asrwt>0</asrwt>
<pdfrwt beam="1">  1       21 0.85161737E-01 0.11168876E+04</pdfrwt>
<pdfrwt beam="2">  1       21 0.33665228E+00 0.11168876E+04</pdfrwt>
<totfact> 0.86435395E+00</totfact>
</mgrwt>
</event>
<event>
 8    1  0.1168507E-005  0.1277914E+04  0.7818608E-02  0.8552337E-01
         21   -1    0    0  503  502  0.00000000000E+00  0.00000000000E+00  0.11121701415E+04  0.11121701415E+04  0.00000000000E+00 0. -1.
         21   -1    0    0  501  503 -0.00000000000E+00 -0.00000000000E+00 -0.19063625445E+04  0.19063625445E+04  0.00000000000E+00 0.  1.
    9000010    2    1    2  501    0  0.51863531905E+03  0.58954309873E+03 -0.11310183370E+04  0.16969747610E+04  0.99195624971E+03 0.  0.
   -9000010    2    1    2    0  502 -0.51863531905E+03 -0.58954309873E+03  0.33682593404E+03  0.13215579251E+04  0.10082261552E+04 0.  0.
        -13    1    3    3    0    0  0.71621999336E+03  0.51700696083E+03 -0.46449803172E+03  0.99801087623E+03  0.10566000000E+00 0.  1.
          4    1    3    3  501    0 -0.19758467431E+03  0.72536137903E+02 -0.66652030530E+03  0.69896388476E+03  0.00000000000E+00 0.  1.
         13    1    4    4    0    0 -0.56727550100E+03 -0.84244477891E+03  0.31373383014E+03  0.10629880653E+04  0.10566000000E+00 0. -1.
         -4    1    4    4    0  502  0.48640181949E+02  0.25290168017E+03  0.23092103895E+02  0.25856985980E+03  0.00000000000E+00 0. -1.
<mgrwt>
<rscale>  2 0.12747025E+04</rscale>
<asrwt>0</asrwt>
<pdfrwt beam="1">  1       21 0.17110310E+00 0.12779138E+04</pdfrwt>
<pdfrwt beam="2">  1       21 0.29328654E+00 0.12779138E+04</pdfrwt>
<totfact> 0.23249068E+00</totfact>
</mgrwt>
</event>
<event>
 8    1  0.1168507E-005  0.1143937E+04  0.7818608E-02  0.8651814E-01
         21   -1    0    0  501  502  0.00000000000E+00  0.00000000000E+00  0.14911882315E+04  0.14911882315E+04  0.00000000000E+00 0. -1.
         21   -1    0    0  502  503 -0.00000000000E+00 -0.00000000000E+00 -0.87776702393E+03  0.87776702393E+03  0.00000000000E+00 0. -1.
   -9000010    2    1    2    0  503  0.37505661911E+03  0.37190390045E+03  0.41187403966E+03  0.12073993429E+04  0.10045859694E+04 0.  0.
    9000010    2    1    2  501    0 -0.37505661911E+03 -0.37190390045E+03  0.20154716789E+03  0.11615559125E+04  0.10146974418E+04 0.  0.
        -13    1    4    4    0    0  0.78063199081E+02  0.31137156397E+03  0.18736488155E+02  0.32155432053E+03  0.10566000000E+00 0.  1.
          4    1    4    4  501    0 -0.45311981819E+03 -0.68327546442E+03  0.18281067974E+03  0.84000159199E+03  0.00000000000E+00 0.  1.
         13    1    3    3    0    0 -0.30886347452E+03 -0.21174544348E+02  0.25955005054E+03  0.40399411768E+03  0.10566000000E+00 0. -1.
         -4    1    3    3    0  503  0.68392009363E+03  0.39307844480E+03  0.15232398912E+03  0.80340522521E+03  0.00000000000E+00 0. -1.
<mgrwt>
<rscale>  2 0.11416901E+04</rscale>
<asrwt>0</asrwt>
<pdfrwt beam="1">  1       21 0.22941357E+00 0.11439366E+04</pdfrwt>
<pdfrwt beam="2">  1       21 0.13504108E+00 0.11439366E+04</pdfrwt>
<totfact> 0.14479301E+01</totfact>
</mgrwt>
</event>
<event>
 8    1  0.1168507E-005  0.1114922E+04  0.7818608E-02  0.8682021E-01
         21   -1    0    0  501  502  0.00000000000E+00  0.00000000000E+00  0.16123368669E+04  0.16123368669E+04  0.00000000000E+00 0. -1.
         21   -1    0    0  502  503 -0.00000000000E+00 -0.00000000000E+00 -0.74399579250E+03  0.74399579250E+03  0.00000000000E+00 0. -1.
   -9000010    2    1    2    0  503 -0.31314458811E+03  0.29484370734E+03  0.38939192027E+03  0.11428899556E+04  0.98467204599E+03 0.  0.
    9000010    2    1    2  501    0  0.31314458811E+03 -0.29484370734E+03  0.47894915411E+03  0.12134427038E+04  0.10286197346E+04 0.  0.
        -13    1    4    4    0    0 -0.16000331223E+03 -0.34098475196E+03  0.61303514471E+03  0.71950243974E+03  0.10566000000E+00 0.  1.
          4    1    4    4  501    0  0.47314790034E+03  0.46141044618E+02 -0.13408599060E+03  0.49394026407E+03  0.00000000000E+00 0.  1.
         13    1    3    3    0    0  0.10977161888E+03  0.33003350977E+03  0.58108714759E+03  0.67722537618E+03  0.10566000000E+00 0. -1.
         -4    1    3    3    0  503 -0.42291620699E+03 -0.35189802431E+02 -0.19169522732E+03  0.46566457940E+03  0.00000000000E+00 0. -1.
<mgrwt>
<rscale>  2 0.11046786E+04</rscale>
<asrwt>0</asrwt>
<pdfrwt beam="1">  1       21 0.24805183E+00 0.11149219E+04</pdfrwt>
<pdfrwt beam="2">  1       21 0.11446089E+00 0.11149219E+04</pdfrwt>
<totfact> 0.16988504E+01</totfact>
</mgrwt>
</event>
<event>
 8    1  0.1168507E-005  0.1147919E+04  0.7818608E-02  0.8648083E-01
         21   -1    0    0  501  502  0.00000000000E+00  0.00000000000E+00  0.90734399380E+03  0.90734399380E+03  0.00000000000E+00 0. -1.
         21   -1    0    0  502  503 -0.00000000000E+00 -0.00000000000E+00 -0.16856028103E+04  0.16856028103E+04  0.00000000000E+00 0. -1.
   -9000010    2    1    2    0  503  0.46134549562E+03 -0.28610723175E+03 -0.87860797222E+03  0.14406497926E+04  0.10044017333E+04 0.  0.
    9000010    2    1    2  501    0 -0.46134549562E+03  0.28610723175E+03  0.10034915574E+03  0.11522970114E+04  0.10114452210E+04 0.  0.
        -13    1    4    4    0    0  0.12264599921E+03  0.46122423748E+03 -0.13936200077E+03  0.49718368515E+03  0.10566000000E+00 0.  1.
          4    1    4    4  501    0 -0.58399149482E+03 -0.17511700573E+03  0.23971115651E+03  0.65511332629E+03  0.00000000000E+00 0.  1.
         13    1    3    3    0    0  0.72651302223E+03 -0.28055323840E+03 -0.88038431756E+03  0.11754181591E+04  0.10566000000E+00 0. -1.
         -4    1    3    3    0  503 -0.26516752661E+03 -0.55539933510E+01  0.17763453383E+01  0.26523163351E+03  0.00000000000E+00 0. -1.
<mgrwt>
<rscale>  2 0.11463657E+04</rscale>
<asrwt>0</asrwt>
<pdfrwt beam="1">  1       21 0.13959138E+00 0.11479192E+04</pdfrwt>
<pdfrwt beam="2">  1       21 0.25932351E+00 0.11479192E+04</pdfrwt>
<totfact> 0.79158439E+00</totfact>
</mgrwt>
</event>
<event>
 8    1  0.1168507E-005  0.1106630E+04  0.7818608E-02  0.8688844E-01
         21   -1    0    0  501  502  0.00000000000E+00  0.00000000000E+00  0.89560785005E+03  0.89560785005E+03  0.00000000000E+00 0. -1.
         21   -1    0    0  502  503 -0.00000000000E+00 -0.00000000000E+00 -0.16107132692E+04  0.16107132692E+04  0.00000000000E+00 0. -1.
   -9000010    2    1    2    0  503 -0.93154461507E+02  0.48050847344E+03 -0.89657697570E+03  0.14242469303E+04  0.99250334930E+03 0.  0.
    9000010    2    1    2  501    0  0.93154461507E+02 -0.48050847344E+03  0.18147155653E+03  0.10820741890E+04  0.94783251571E+03 0.  0.
        -13    1    4    4    0    0  0.40799567961E+03 -0.60357967899E+03  0.13290830380E+03  0.74056298304E+03  0.10566000000E+00 0.  1.
          4    1    4    4  501    0 -0.31484121810E+03  0.12307120555E+03  0.48563252733E+02  0.34151120592E+03  0.00000000000E+00 0.  1.
         13    1    3    3    0    0 -0.97311355066E+02  0.69546742116E+03 -0.96959409428E+03  0.11971871836E+04  0.10566000000E+00 0. -1.
         -4    1    3    3    0  503  0.41568935593E+01 -0.21495894773E+03  0.73017118579E+02  0.22705974671E+03  0.00000000000E+00 0. -1.
<mgrwt>
<rscale>  2 0.10965217E+04</rscale>
<asrwt>0</asrwt>
<pdfrwt beam="1">  1       21 0.13778582E+00 0.11066296E+04</pdfrwt>
<pdfrwt beam="2">  1       21 0.24780204E+00 0.11066296E+04</pdfrwt>
<totfact> 0.10067169E+01</totfact>
</mgrwt>
</event>
<event>
 8    1  0.1168507E-005  0.1237720E+04  0.7818608E-02  0.8578944E-01
         21   -1    0    0  501  502  0.00000000000E+00  0.00000000000E+00  0.13181849540E+04  0.13181849540E+04  0.00000000000E+00 0. -1.
         21   -1    0    0  502  503 -0.00000000000E+00 -0.00000000000E+00 -0.12387455800E+04  0.12387455800E+04  0.00000000000E+00 0.  1.
   -9000010    2    1    2    0  503  0.21474063949E+03 -0.69843969985E+03 -0.28087857958E+03  0.12691898034E+04  0.99900872064E+03 0.  0.
    9000010    2    1    2  501    0 -0.21474063949E+03  0.69843969985E+03  0.36031795356E+03  0.12877407307E+04  0.99725403244E+03 0.  0.
        -13    1    4    4    0    0 -0.27456822363E+03  0.86655800774E+03  0.52089332683E+03  0.10476833297E+04  0.10566000000E+00 0.  1.
          4    1    4    4  501    0  0.59827584141E+02 -0.16811830788E+03 -0.16057537327E+03  0.24005740099E+03  0.00000000000E+00 0.  1.
         13    1    3    3    0    0  0.49099661213E+03 -0.96820433148E+02  0.92815185724E+02  0.50898579475E+03  0.10566000000E+00 0. -1.
         -4    1    3    3    0  503 -0.27625597263E+03 -0.60161926670E+03 -0.37369376530E+03  0.76020400861E+03  0.00000000000E+00 0. -1.
<mgrwt>
<rscale>  2 0.12373656E+04</rscale>
<asrwt>0</asrwt>
<pdfrwt beam="1">  1       21 0.20279768E+00 0.12377197E+04</pdfrwt>
<pdfrwt beam="2">  1       21 0.19057624E+00 0.12377197E+04</pdfrwt>
<totfact> 0.75110650E+00</totfact>
</mgrwt>
</event>
<event>
 8    1  0.1168507E-005  0.1072839E+04  0.7818608E-02  0.8709390E-01
         21   -1    0    0  503  502  0.00000000000E+00  0.00000000000E+00  0.11939194632E+04  0.11939194632E+04  0.00000000000E+00 0.  1.
         21   -1    0    0  501  503 -0.00000000000E+00 -0.00000000000E+00 -0.10734268669E+04  0.10734268669E+04  0.00000000000E+00 0.  1.
    9000010    2    1    2  501    0 -0.30842223462E+03 -0.24271465536E+03 -0.30430174442E+03  0.11134686069E+04  0.99658321687E+03 0.  0.
   -9000010    2    1    2    0  502  0.30842223462E+03  0.24271465536E+03  0.42479434078E+03  0.11538777232E+04  0.99847327923E+03 0.  0.
        -13    1    3    3    0    0 -0.63691132562E+03 -0.33105911899E+03 -0.28638973574E+03  0.77283586153E+03  0.10566000000E+00 0.  1.
          4    1    3    3  501    0  0.32848909100E+03  0.88344463628E+02 -0.17912008681E+02  0.34063274537E+03  0.00000000000E+00 0.  1.
         13    1    4    4    0    0  0.19416790907E+03 -0.37236830292E+03  0.45831929777E+02  0.42244515251E+03  0.10566000000E+00 0. -1.
         -4    1    4    4    0  502  0.11425432554E+03  0.61508295828E+03  0.37896241100E+03  0.73143257066E+03  0.00000000000E+00 0. -1.
<mgrwt>
<rscale>  2 0.10723990E+04</rscale>
<asrwt>0</asrwt>
<pdfrwt beam="1">  1       21 0.18367992E+00 0.10728390E+04</pdfrwt>
<pdfrwt beam="2">  1       21 0.16514260E+00 0.10728390E+04</pdfrwt>
<totfact> 0.17860228E+01</totfact>
</mgrwt>
</event>
<event>
 8    1  0.1168507E-005  0.1184681E+04  0.7818608E-02  0.8627840E-01
         21   -1    0    0  503  502  0.00000000000E+00  0.00000000000E+00  0.55228055555E+03  0.55228055555E+03  0.00000000000E+00 0.  1.
         21   -1    0    0  501  503 -0.00000000000E+00 -0.00000000000E+00 -0.24723445471E+04  0.24723445471E+04  0.00000000000E+00 0.  1.
    9000010    2    1    2  501    0 -0.37943384335E+03 -0.49277303476E+03 -0.75768897500E+03  0.13649311503E+04  0.94981532785E+03 0.  0.
   -9000010    2    1    2    0  502  0.37943384335E+03  0.49277303476E+03 -0.11623750166E+04  0.16596939524E+04  0.10083020535E+04 0.  0.
        -13    1    3    3    0    0 -0.28134734915E+03 -0.46415401421E+03  0.55272916516E+02  0.54557344716E+03  0.10566000000E+00 0.  1.
          4    1    3    3  501    0 -0.98086494196E+02 -0.28619020553E+02 -0.81296189151E+03  0.81935770316E+03  0.00000000000E+00 0.  1.
         13    1    4    4    0    0  0.45045881989E+02  0.74086636951E+03 -0.57106458038E+03  0.93649713031E+03  0.10566000000E+00 0. -1.
         -4    1    4    4    0  502  0.33438796136E+03 -0.24809333475E+03 -0.59131043620E+03  0.72319682204E+03  0.00000000000E+00 0. -1.
<mgrwt>
<rscale>  2 0.11721421E+04</rscale>
<asrwt>0</asrwt>
<pdfrwt beam="1">  1       21 0.84966240E-01 0.11846807E+04</pdfrwt>
<pdfrwt beam="2">  1       21 0.38036070E+00 0.11846807E+04</pdfrwt>
<totfact> 0.42329328E+00</totfact>
</mgrwt>
</event>
<event>
 8    1  0.1168507E-005  0.1312617E+04  0.7818608E-02  0.8527203E-01
         21   -1    0    0  501  502  0.00000000000E+00  0.00000000000E+00  0.14002247444E+04  0.14002247444E+04  0.00000000000E+00 0. -1.
         21   -1    0    0  502  503 -0.00000000000E+00 -0.00000000000E+00 -0.13097432236E+04  0.13097432236E+04  0.00000000000E+00 0. -1.
   -9000010    2    1    2    0  503 -0.40929726341E+03 -0.74347025413E+03 -0.29871877619E+03  0.13461788533E+04  0.10013452598E+04 0.  0.
    9000010    2    1    2  501    0  0.40929726341E+03  0.74347025413E+03  0.38920029699E+03  0.13637891148E+04  0.99406821181E+03 0.  0.
        -13    1    4    4    0    0  0.22737546183E+03  0.25633819152E+02  0.55902037264E+03  0.60403682133E+03  0.10566000000E+00 0.  1.
          4    1    4    4  501    0  0.18192180158E+03  0.71783643498E+03 -0.16982007565E+03  0.75975229343E+03  0.00000000000E+00 0.  1.
         13    1    3    3    0    0 -0.48786417770E+03 -0.81230779724E+03  0.82281992201E+02  0.95111815814E+03  0.10566000000E+00 0. -1.
         -4    1    3    3    0  503  0.78566914282E+02  0.68837543115E+02 -0.38100076839E+03  0.39506069518E+03  0.00000000000E+00 0. -1.
<mgrwt>
<rscale>  2 0.13112295E+04</rscale>
<asrwt>0</asrwt>
<pdfrwt beam="1">  1       21 0.21541919E+00 0.13126175E+04</pdfrwt>
<pdfrwt beam="2">  1       21 0.20149896E+00 0.13126175E+04</pdfrwt>
<totfact> 0.48512737E+00</totfact>
</mgrwt>
</event>
<event>
 8    1  0.1168507E-005  0.1278174E+04  0.7818608E-02  0.8552406E-01
         21   -1    0    0  501  502  0.00000000000E+00  0.00000000000E+00  0.22763756293E+04  0.22763756293E+04  0.00000000000E+00 0.  1.
         21   -1    0    0  502  503 -0.00000000000E+00 -0.00000000000E+00 -0.91012687966E+03  0.91012687966E+03  0.00000000000E+00 0.  1.
   -9000010    2    1    2    0  503  0.36918778678E+03 -0.71188470914E+03 -0.61508513886E+02  0.12796526764E+04  0.99531312351E+03 0.  0.
    9000010    2    1    2  501    0 -0.36918778678E+03  0.71188470914E+03  0.14277572635E+04  0.19068498326E+04  0.97698823919E+03 0.  0.
        -13    1    4    4    0    0  0.37728581854E+02  0.62897685286E+03  0.13423495406E+04  0.14828815285E+04  0.10566000000E+00 0.  1.
          4    1    4    4  501    0 -0.40691636863E+03  0.82907856280E+02  0.85407722862E+02  0.42396830402E+03  0.00000000000E+00 0.  1.
         13    1    3    3    0    0  0.36214652337E+03 -0.74326624008E+03 -0.41472016238E+03  0.92497980101E+03  0.10566000000E+00 0. -1.
         -4    1    3    3    0  503  0.70412634097E+01  0.31381530940E+02  0.35321164850E+03  0.35467287535E+03  0.00000000000E+00 0. -1.
<mgrwt>
<rscale>  2 0.12746043E+04</rscale>
<asrwt>0</asrwt>
<pdfrwt beam="1">  1       21 0.35021163E+00 0.12781736E+04</pdfrwt>
<pdfrwt beam="2">  1       21 0.14001952E+00 0.12781736E+04</pdfrwt>
<totfact> 0.17337140E+00</totfact>
</mgrwt>
</event>
<event>
 8    1  0.1168507E-005  0.1284880E+04  0.7818608E-02  0.8547653E-01
         21   -1    0    0  503  502  0.00000000000E+00  0.00000000000E+00  0.20424894957E+04  0.20424894957E+04  0.00000000000E+00 0.  1.
         21   -1    0    0  501  503 -0.00000000000E+00 -0.00000000000E+00 -0.12740876449E+04  0.12740876449E+04  0.00000000000E+00 0.  1.
    9000010    2    1    2  501    0 -0.48122730034E+02  0.80727418035E+03 -0.62904332817E+03  0.14182175366E+04  0.98063146645E+03 0.  0.
   -9000010    2    1    2    0  502  0.48122730034E+02 -0.80727418035E+03  0.13974451790E+04  0.18983596039E+04  0.99845318279E+03 0.  0.
        -13    1    3    3    0    0 -0.91633345883E+02 -0.97284595668E+02 -0.48270650538E+03  0.50086579453E+03  0.10566000000E+00 0.  1.
          4    1    3    3  501    0  0.43510615849E+02  0.90455877602E+03 -0.14633682279E+03  0.91735174206E+03  0.00000000000E+00 0.  1.
         13    1    4    4    0    0 -0.55027322175E+02  0.15713871073E+03  0.65796246398E+03  0.67870110930E+03  0.10566000000E+00 0. -1.
         -4    1    4    4    0  502  0.10315005221E+03 -0.96441289108E+03  0.73948271500E+03  0.12196584946E+04  0.00000000000E+00 0. -1.
<mgrwt>
<rscale>  2 0.12814160E+04</rscale>
<asrwt>0</asrwt>
<pdfrwt beam="1">  1       21 0.31422915E+00 0.12848798E+04</pdfrwt>
<pdfrwt beam="2">  1       21 0.19601348E+00 0.12848798E+04</pdfrwt>
<totfact> 0.10354361E+00</totfact>
</mgrwt>
</event>
<event>
 8    1  0.1168507E-005  0.1272568E+04  0.7818608E-02  0.8556563E-01
         21   -1    0    0  501  502  0.00000000000E+00  0.00000000000E+00  0.15048093756E+04  0.15048093756E+04  0.00000000000E+00 0.  1.
         21   -1    0    0  502  503 -0.00000000000E+00 -0.00000000000E+00 -0.10635711120E+04  0.10635711120E+04  0.00000000000E+00 0.  1.
   -9000010    2    1    2    0  503  0.67610377534E+03 -0.39020573243E+03  0.24562947454E+03  0.12808665131E+04  0.98534682063E+03 0.  0.
    9000010    2    1    2  501    0 -0.67610377534E+03  0.39020573243E+03  0.19560878911E+03  0.12875139745E+04  0.10050137350E+04 0.  0.
        -13    1    4    4    0    0 -0.15837553017E+02  0.35127517294E+03 -0.29903880579E+03  0.46159429561E+03  0.10566000000E+00 0.  1.
          4    1    4    4  501    0 -0.66026622233E+03  0.38930559485E+02  0.49464759490E+03  0.82591967887E+03  0.00000000000E+00 0.  1.
         13    1    3    3    0    0  0.16302369149E+02 -0.54535786427E+03  0.25671271361E+03  0.60297793977E+03  0.10566000000E+00 0. -1.
         -4    1    3    3    0  503  0.65980140619E+03  0.15515213184E+03 -0.11083239075E+02  0.67788857331E+03  0.00000000000E+00 0. -1.
<mgrwt>
<rscale>  2 0.12686818E+04</rscale>
<asrwt>0</asrwt>
<pdfrwt beam="1">  1       21 0.23150914E+00 0.12725680E+04</pdfrwt>
<pdfrwt beam="2">  1       21 0.16362632E+00 0.12725680E+04</pdfrwt>
<totfact> 0.75355862E+00</totfact>
</mgrwt>
</event>
<event>
 8    1  0.1168507E-005  0.1186357E+04  0.7818608E-02  0.8618589E-01
         21   -1    0    0  503  502  0.00000000000E+00  0.00000000000E+00  0.78602278692E+03  0.78602278692E+03  0.00000000000E+00 0.  1.
         21   -1    0    0  501  503 -0.00000000000E+00 -0.00000000000E+00 -0.30159479369E+04  0.30159479369E+04  0.00000000000E+00 0.  1.
    9000010    2    1    2  501    0  0.53915551235E+03  0.30828693644E+03 -0.23307482523E+04  0.26113367020E+04  0.10004811113E+04 0.  0.
   -9000010    2    1    2    0  502 -0.53915551235E+03 -0.30828693644E+03  0.10082310230E+03  0.11906340218E+04  0.10107989782E+04 0.  0.
        -13    1    3    3    0    0  0.50950032747E+03 -0.54119107044E+02 -0.21404774499E+04  0.22009459752E+04  0.10566000000E+00 0.  1.
          4    1    3    3  501    0  0.29655184878E+02  0.36240604349E+03 -0.19027080242E+03  0.41039072675E+03  0.00000000000E+00 0.  1.
         13    1    4    4    0    0 -0.30698301018E+03  0.33286658294E+03  0.21157506085E+03  0.49980270920E+03  0.10566000000E+00 0. -1.
         -4    1    4    4    0  502 -0.23217250216E+03 -0.64115351938E+03 -0.11075195856E+03  0.69083131263E+03  0.00000000000E+00 0. -1.
<mgrwt>
<rscale>  2 0.11841567E+04</rscale>
<asrwt>0</asrwt>
<pdfrwt beam="1">  1       21 0.12092658E+00 0.11863575E+04</pdfrwt>
<pdfrwt beam="2">  1       21 0.46399199E+00 0.11863575E+04</pdfrwt>
<totfact> 0.43655777E-01</totfact>
</mgrwt>
</event>
<event>
 8    1  0.1168507E-005  0.1026957E+04  0.7818608E-02  0.8755109E-01
         21   -1    0    0  501  502  0.00000000000E+00  0.00000000000E+00  0.14254134232E+04  0.14254134232E+04  0.00000000000E+00 0.  1.
         21   -1    0    0  502  503 -0.00000000000E+00 -0.00000000000E+00 -0.73379804041E+03  0.73379804041E+03  0.00000000000E+00 0.  1.
   -9000010    2    1    2    0  503 -0.16310138725E+03  0.84955034962E+02  0.21855850878E+03  0.10499559972E+04  0.10103565479E+04 0.  0.
    9000010    2    1    2  501    0  0.16310138725E+03 -0.84955034962E+02  0.47305687399E+03  0.11092554664E+04  0.98632928737E+03 0.  0.
        -13    1    4    4    0    0 -0.11131179317E+03 -0.36146760992E+03  0.59149820216E+03  0.70208210535E+03  0.10566000000E+00 0.  1.
          4    1    4    4  501    0  0.27441318042E+03  0.27651257496E+03 -0.11844132817E+03  0.40717336101E+03  0.00000000000E+00 0.  1.
         13    1    3    3    0    0  0.31609871204E+03 -0.24409604682E+03 -0.62567999107E+02  0.40424750030E+03  0.10566000000E+00 0. -1.
         -4    1    3    3    0  503 -0.47920009929E+03  0.32905108178E+03  0.28112650789E+03  0.64570849693E+03  0.00000000000E+00 0. -1.
<mgrwt>
<rscale>  2 0.10209975E+04</rscale>
<asrwt>0</asrwt>
<pdfrwt beam="1">  1       21 0.21929437E+00 0.10269566E+04</pdfrwt>
<pdfrwt beam="2">  1       21 0.11289201E+00 0.10269566E+04</pdfrwt>
<totfact> 0.29374265E+01</totfact>
</mgrwt>
</event>
<event>
 8    1  0.1168507E-005  0.1323882E+04  0.7818608E-02  0.8519788E-01
         21   -1    0    0  503  502  0.00000000000E+00  0.00000000000E+00  0.78274414491E+03  0.78274414491E+03  0.00000000000E+00 0. -1.
         21   -1    0    0  501  503 -0.00000000000E+00 -0.00000000000E+00 -0.22310075088E+04  0.22310075088E+04  0.00000000000E+00 0. -1.
    9000010    2    1    2  501    0 -0.42461428632E+03  0.74576276496E+03 -0.77687031589E+03  0.15293550893E+04  0.99946991342E+03 0.  0.
   -9000010    2    1    2    0  502  0.42461428632E+03 -0.74576276496E+03 -0.67139304804E+03  0.14843965644E+04  0.10080700083E+04 0.  0.
        -13    1    3    3    0    0  0.12925830724E+03  0.99271118706E+02 -0.64820256547E+03  0.66837791858E+03  0.10566000000E+00 0.  1.
          4    1    3    3  501    0 -0.55387259356E+03  0.64649164626E+03 -0.12866775042E+03  0.86097717076E+03  0.00000000000E+00 0.  1.
         13    1    4    4    0    0  0.70264575672E+03 -0.38285741662E+03 -0.19390789172E+03  0.82334144954E+03  0.10566000000E+00 0. -1.
         -4    1    4    4    0  502 -0.27803147040E+03 -0.36290534834E+03 -0.47748515632E+03  0.66105511487E+03  0.00000000000E+00 0. -1.
<mgrwt>
<rscale>  2 0.13222452E+04</rscale>
<asrwt>0</asrwt>
<pdfrwt beam="1">  1       21 0.12042218E+00 0.13238824E+04</pdfrwt>
<pdfrwt beam="2">  1       21 0.34323192E+00 0.13238824E+04</pdfrwt>
<totfact> 0.29794149E+00</totfact>
</mgrwt>
</event>
<event>
 8    1  0.1168507E-005  0.1572602E+04  0.7818608E-02  0.8369655E-01
         21   -1    0    0  503  502  0.00000000000E+00  0.00000000000E+00  0.12363054283E+04  0.12363054283E+04  0.00000000000E+00 0.  1.
         21   -1    0    0  501  503 -0.00000000000E+00 -0.00000000000E+00 -0.20283889791E+04  0.20283889791E+04  0.00000000000E+00 0. -1.
    9000010    2    1    2  501    0  0.31590654589E+03  0.11713507169E+04 -0.18073881847E+03  0.15774425221E+04  0.99186639329E+03 0.  0.
   -9000010    2    1    2    0  502 -0.31590654589E+03 -0.11713507169E+04 -0.61134473236E+03  0.16872518854E+04  0.10006083626E+04 0.  0.
        -13    1    3    3    0    0  0.47926028941E+03  0.11892072507E+03  0.17563906456E+02  0.49410633049E+03  0.10566000000E+00 0.  1.
          4    1    3    3  501    0 -0.16335374352E+03  0.10524299918E+04 -0.19830272492E+03  0.10833361916E+04  0.00000000000E+00 0.  1.
         13    1    4    4    0    0 -0.50920497450E+03 -0.15109159850E+03 -0.25693213796E+03  0.59002755179E+03  0.10566000000E+00 0. -1.
         -4    1    4    4    0  502  0.19329842862E+03 -0.10202591184E+04 -0.35441259440E+03  0.10972243336E+04  0.00000000000E+00 0. -1.
<mgrwt>
<rscale>  2 0.15712131E+04</rscale>
<asrwt>0</asrwt>
<pdfrwt beam="1">  1       21 0.19020084E+00 0.15726018E+04</pdfrwt>
<pdfrwt beam="2">  1       21 0.31205984E+00 0.15726018E+04</pdfrwt>
<totfact> 0.11297641E+00</totfact>
</mgrwt>
</event>
<event>
 8    1  0.1168507E-005  0.1068939E+04  0.7818608E-02  0.8713138E-01
         21   -1    0    0  501  502  0.00000000000E+00  0.00000000000E+00  0.15106143190E+04  0.15106143190E+04  0.00000000000E+00 0.  1.
         21   -1    0    0  502  503 -0.00000000000E+00 -0.00000000000E+00 -0.75394170240E+03  0.75394170240E+03  0.00000000000E+00 0.  1.
   -9000010    2    1    2    0  503  0.38338740782E+03  0.12910061797E+02  0.37800552086E+03  0.11338071463E+04  0.99773638649E+03 0.  0.
    9000010    2    1    2  501    0 -0.38338740782E+03 -0.12910061797E+02  0.37866709574E+03  0.11307488751E+04  0.99400788482E+03 0.  0.
        -13    1    4    4    0    0  0.14004805944E+03 -0.38667026073E+03  0.69357243556E+02  0.41705849456E+03  0.10566000000E+00 0.  1.
          4    1    4    4  501    0 -0.52343546726E+03  0.37376019893E+03  0.30930985218E+03  0.71369038059E+03  0.00000000000E+00 0.  1.
         13    1    3    3    0    0 -0.60491497522E+02 -0.29308290867E+03 -0.18697568674E+03  0.35286928348E+03  0.10566000000E+00 0. -1.
         -4    1    3    3    0  503  0.44387890534E+03  0.30599297047E+03  0.56498120760E+03  0.78093786277E+03  0.00000000000E+00 0. -1.
<mgrwt>
<rscale>  2 0.10680681E+04</rscale>
<asrwt>0</asrwt>
<pdfrwt beam="1">  1       21 0.23240220E+00 0.10689389E+04</pdfrwt>
<pdfrwt beam="2">  1       21 0.11599103E+00 0.10689389E+04</pdfrwt>
<totfact> 0.21557655E+01</totfact>
</mgrwt>
</event>
<event>
 8    1  0.1168507E-005  0.1080200E+04  0.7818608E-02  0.8709867E-01
         21   -1    0    0  501  502  0.00000000000E+00  0.00000000000E+00  0.10419591805E+04  0.10419591805E+04  0.00000000000E+00 0.  1.
         21   -1    0    0  502  503 -0.00000000000E+00 -0.00000000000E+00 -0.10963937183E+04  0.10963937183E+04  0.00000000000E+00 0.  1.
   -9000010    2    1    2    0  503  0.44086814411E+02 -0.41935085660E+03 -0.13239637919E+03  0.10882831514E+04  0.99450119575E+03 0.  0.
    9000010    2    1    2  501    0 -0.44086814411E+02  0.41935085660E+03  0.77961841447E+02  0.10500697473E+04  0.95852471924E+03 0.  0.
        -13    1    4    4    0    0  0.24825164703E+03  0.28775769011E+03  0.43003619742E+03  0.57390287569E+03  0.10566000000E+00 0.  1.
          4    1    4    4  501    0 -0.29233846144E+03  0.13159316649E+03 -0.35207435597E+03  0.47616687163E+03  0.00000000000E+00 0.  1.
         13    1    3    3    0    0  0.46669491293E+03 -0.11379191054E+03  0.13942547293E+03  0.50019217740E+03  0.10566000000E+00 0. -1.
         -4    1    3    3    0  503 -0.42260809852E+03 -0.30555894606E+03 -0.27182185212E+03  0.58809097404E+03  0.00000000000E+00 0. -1.
<mgrwt>
<rscale>  2 0.10718463E+04</rscale>
<asrwt>0</asrwt>
<pdfrwt beam="1">  1       21 0.16030141E+00 0.10801997E+04</pdfrwt>
<pdfrwt beam="2">  1       21 0.16867596E+00 0.10801997E+04</pdfrwt>
<totfact> 0.26089422E+01</totfact>
</mgrwt>
</event>
<event>
 8    1  0.1168507E-005  0.1227507E+04  0.7818608E-02  0.8591377E-01
         21   -1    0    0  501  502  0.00000000000E+00  0.00000000000E+00  0.14235766165E+04  0.14235766165E+04  0.00000000000E+00 0. -1.
         21   -1    0    0  502  503 -0.00000000000E+00 -0.00000000000E+00 -0.10386849991E+04  0.10386849991E+04  0.00000000000E+00 0. -1.
   -9000010    2    1    2    0  503 -0.56942819965E+03 -0.41331516307E+03  0.11370711036E+03  0.12327625583E+04  0.10058311586E+04 0.  0.
    9000010    2    1    2  501    0  0.56942819965E+03  0.41331516307E+03  0.27118450706E+03  0.12294990573E+04  0.97110709838E+03 0.  0.
        -13    1    4    4    0    0  0.51605096503E+03 -0.18283572397E+03 -0.50832045288E+02  0.54983762008E+03  0.10566000000E+00 0.  1.
          4    1    4    4  501    0  0.53377234625E+02  0.59615088704E+03  0.32201655235E+03  0.67966143725E+03  0.00000000000E+00 0.  1.
         13    1    3    3    0    0 -0.70919752875E+02 -0.65652164553E+03 -0.25699689543E+02  0.66084095485E+03  0.10566000000E+00 0. -1.
         -4    1    3    3    0  503 -0.49850844678E+03  0.24320648246E+03  0.13940679990E+03  0.57192160344E+03  0.00000000000E+00 0. -1.
<mgrwt>
<rscale>  2 0.12203734E+04</rscale>
<asrwt>0</asrwt>
<pdfrwt beam="1">  1       21 0.21901179E+00 0.12275073E+04</pdfrwt>
<pdfrwt beam="2">  1       21 0.15979769E+00 0.12275073E+04</pdfrwt>
<totfact> 0.10180197E+01</totfact>
</mgrwt>
</event>
<event>
 8    1  0.1168507E-005  0.1125707E+04  0.7818608E-02  0.8665932E-01
         21   -1    0    0  503  502  0.00000000000E+00  0.00000000000E+00  0.16305798877E+04  0.16305798877E+04  0.00000000000E+00 0. -1.
         21   -1    0    0  501  503 -0.00000000000E+00 -0.00000000000E+00 -0.89662419950E+03  0.89662419950E+03  0.00000000000E+00 0. -1.
    9000010    2    1    2  501    0  0.44200575829E+03 -0.26206359782E+03 -0.10132364444E+03  0.11302577057E+04  0.10015835365E+04 0.  0.
   -9000010    2    1    2    0  502 -0.44200575829E+03  0.26206359782E+03  0.83527933267E+03  0.13969463815E+04  0.99484732983E+03 0.  0.
        -13    1    3    3    0    0  0.62005435894E+03  0.10916318721E+03 -0.27036834282E+03  0.68518834012E+03  0.10566000000E+00 0.  1.
          4    1    3    3  501    0 -0.17804860065E+03 -0.37122678502E+03  0.16904469838E+03  0.44506936556E+03  0.00000000000E+00 0.  1.
         13    1    4    4    0    0 -0.25380899805E+03  0.52293830398E+03  0.93930463654E+02  0.58881781598E+03  0.10566000000E+00 0. -1.
         -4    1    4    4    0  502 -0.18819676024E+03 -0.26087470616E+03  0.74134886902E+03  0.80812856556E+03  0.00000000000E+00 0. -1.
<mgrwt>
<rscale>  2 0.11242066E+04</rscale>
<asrwt>0</asrwt>
<pdfrwt beam="1">  1       21 0.25085844E+00 0.11257069E+04</pdfrwt>
<pdfrwt beam="2">  1       21 0.13794218E+00 0.11257069E+04</pdfrwt>
<totfact> 0.94918270E+00</totfact>
</mgrwt>
</event>
<event>
 8    1  0.1168507E-005  0.1063229E+04  0.7818608E-02  0.8722307E-01
         21   -1    0    0  503  502  0.00000000000E+00  0.00000000000E+00  0.84063656899E+03  0.84063656899E+03  0.00000000000E+00 0. -1.
         21   -1    0    0  501  503 -0.00000000000E+00 -0.00000000000E+00 -0.13423528155E+04  0.13423528155E+04  0.00000000000E+00 0. -1.
    9000010    2    1    2  501    0 -0.28761858577E+03  0.19250464444E+03 -0.40501452619E+03  0.11377581580E+04  0.10053230180E+04 0.  0.
   -9000010    2    1    2    0  502  0.28761858577E+03 -0.19250464444E+03 -0.96701720332E+02  0.10452312265E+04  0.98151648239E+03 0.  0.
        -13    1    3    3    0    0  0.47440950119E+02  0.55609382295E+03 -0.29481703283E+03  0.63119575227E+03  0.10566000000E+00 0.  1.
          4    1    3    3  501    0 -0.33505953589E+03 -0.36358917850E+03 -0.11019749336E+03  0.50656240569E+03  0.00000000000E+00 0.  1.
         13    1    4    4    0    0  0.13258681421E+03 -0.15231448893E+03 -0.53859649031E+03  0.57520879460E+03  0.10566000000E+00 0. -1.
         -4    1    4    4    0  502  0.15503177156E+03 -0.40190155510E+02  0.44189476998E+03  0.47002243194E+03  0.00000000000E+00 0. -1.
<mgrwt>
<rscale>  2 0.10575640E+04</rscale>
<asrwt>0</asrwt>
<pdfrwt beam="1">  1       21 0.12932870E+00 0.10632294E+04</pdfrwt>
<pdfrwt beam="2">  1       21 0.20651582E+00 0.10632294E+04</pdfrwt>
<totfact> 0.24902532E+01</totfact>
</mgrwt>
</event>
<event>
 8    1  0.1168507E-005  0.1072032E+04  0.7818608E-02  0.8758902E-01
         21   -1    0    0  501  502  0.00000000000E+00  0.00000000000E+00  0.56284489576E+03  0.56284489576E+03  0.00000000000E+00 0.  1.
         21   -1    0    0  502  503 -0.00000000000E+00 -0.00000000000E+00 -0.16834899197E+04  0.16834899197E+04  0.00000000000E+00 0.  1.
   -9000010    2    1    2    0  503  0.22020807883E+03 -0.27711444530E+03 -0.52442481661E+03  0.11934294871E+04  0.10119133059E+04 0.  0.
    9000010    2    1    2  501    0 -0.22020807883E+03  0.27711444530E+03 -0.59622020734E+03  0.10529053284E+04  0.79236802126E+03 0.  0.
        -13    1    4    4    0    0 -0.41504239380E+03  0.13016733843E+03 -0.66924168056E+03  0.79817802702E+03  0.10566000000E+00 0.  1.
          4    1    4    4  501    0  0.19483431497E+03  0.14694710687E+03  0.73021473223E+02  0.25472730136E+03  0.00000000000E+00 0.  1.
         13    1    3    3    0    0  0.50295465646E+03 -0.43557034263E+03 -0.55694445961E+03  0.86768199940E+03  0.10566000000E+00 0. -1.
         -4    1    3    3    0  503 -0.28274657763E+03  0.15845589733E+03  0.32519642999E+02  0.32574748769E+03  0.00000000000E+00 0. -1.
<mgrwt>
<rscale>  2 0.10168681E+04</rscale>
<asrwt>0</asrwt>
<pdfrwt beam="1">  1       21 0.86591523E-01 0.10720320E+04</pdfrwt>
<pdfrwt beam="2">  1       21 0.25899845E+00 0.10720320E+04</pdfrwt>
<totfact> 0.29714324E+01</totfact>
</mgrwt>
</event>
<event>
 8    1  0.1168507E-005  0.1404659E+04  0.7818608E-02  0.8468287E-01
         21   -1    0    0  503  502  0.00000000000E+00  0.00000000000E+00  0.36429871623E+04  0.36429871623E+04  0.00000000000E+00 0. -1.
         21   -1    0    0  501  503 -0.00000000000E+00 -0.00000000000E+00 -0.59386091370E+03  0.59386091370E+03  0.00000000000E+00 0. -1.
    9000010    2    1    2  501    0  0.97624348333E+03 -0.44632696604E+02  0.21724275663E+04  0.25810496494E+04  0.99364598595E+03 0.  0.
   -9000010    2    1    2    0  502 -0.97624348333E+03  0.44632696604E+02  0.87669868225E+03  0.16557984266E+04  0.10089719687E+04 0.  0.
        -13    1    3    3    0    0  0.56820647914E+03  0.23957815344E+03  0.19333302892E+04  0.20292910862E+04  0.10566000000E+00 0.  1.
          4    1    3    3  501    0  0.40803700419E+03 -0.28421085004E+03  0.23909727715E+03  0.55175856315E+03  0.00000000000E+00 0.  1.
         13    1    4    4    0    0 -0.72401283108E+03  0.20154514160E+03  0.10654561497E+04  0.13038450222E+04  0.10566000000E+00 0. -1.
         -4    1    4    4    0  502 -0.25223065224E+03 -0.15691244500E+03 -0.18875746750E+03  0.35195340439E+03  0.00000000000E+00 0. -1.
<mgrwt>
<rscale>  2 0.14019093E+04</rscale>
<asrwt>0</asrwt>
<pdfrwt beam="1">  1       21 0.56045955E+00 0.14046593E+04</pdfrwt>
<pdfrwt beam="2">  1       21 0.91363220E-01 0.14046593E+04</pdfrwt>
<totfact> 0.18386108E-01</totfact>
</mgrwt>
</event>
<event>
 8    1  0.1168507E-005  0.1089368E+04  0.7818608E-02  0.8697468E-01
         21   -1    0    0  501  502  0.00000000000E+00  0.00000000000E+00  0.17428691576E+04  0.17428691576E+04  0.00000000000E+00 0.  1.
         21   -1    0    0  502  503 -0.00000000000E+00 -0.00000000000E+00 -0.73893927418E+03  0.73893927418E+03  0.00000000000E+00 0.  1.
   -9000010    2    1    2    0  503  0.30588235786E+03 -0.26114937057E+03  0.13476218946E+03  0.10976722813E+04  0.10124033677E+04 0.  0.
    9000010    2    1    2  501    0 -0.30588235786E+03  0.26114937057E+03  0.86916769394E+03  0.13841361504E+04  0.99930845693E+03 0.  0.
        -13    1    4    4    0    0 -0.45326683232E+03  0.39770474927E+03  0.12829988711E+03  0.61650690269E+03  0.10566000000E+00 0.  1.
          4    1    4    4  501    0  0.14738447446E+03 -0.13655537870E+03  0.74086780683E+03  0.76762924772E+03  0.00000000000E+00 0.  1.
         13    1    3    3    0    0  0.31948052425E+03  0.33012482017E+03  0.20312345193E+03  0.50230404154E+03  0.10566000000E+00 0. -1.
         -4    1    3    3    0  503 -0.13598166389E+02 -0.59127419073E+03 -0.68361262472E+02  0.59536823980E+03  0.00000000000E+00 0. -1.
<mgrwt>
<rscale>  2 0.10863159E+04</rscale>
<asrwt>0</asrwt>
<pdfrwt beam="1">  1       21 0.26813372E+00 0.10893684E+04</pdfrwt>
<pdfrwt beam="2">  1       21 0.11368297E+00 0.10893684E+04</pdfrwt>
<totfact> 0.12460004E+01</totfact>
</mgrwt>
</event>
<event>
 8    1  0.1168507E-005  0.1334715E+04  0.7818608E-02  0.8515020E-01
         21   -1    0    0  503  502  0.00000000000E+00  0.00000000000E+00  0.22097563697E+04  0.22097563697E+04  0.00000000000E+00 0. -1.
         21   -1    0    0  501  503 -0.00000000000E+00 -0.00000000000E+00 -0.12009158105E+04  0.12009158105E+04  0.00000000000E+00 0. -1.
    9000010    2    1    2  501    0  0.63339631956E+03  0.62627221026E+03 -0.48625207997E+03  0.14205297853E+04  0.99401006368E+03 0.  0.
   -9000010    2    1    2    0  502 -0.63339631956E+03 -0.62627221026E+03  0.14950926392E+04  0.19901423949E+04  0.96537918616E+03 0.  0.
        -13    1    3    3    0    0  0.83076694700E+03  0.52703315689E+03 -0.61941066797E+03  0.11625864507E+04  0.10566000000E+00 0.  1.
          4    1    3    3  501    0 -0.19737062744E+03  0.99239053371E+02  0.13315858800E+03  0.25794333457E+03  0.00000000000E+00 0.  1.
         13    1    4    4    0    0  0.13287723677E+03 -0.47682943507E+03  0.82102250594E+03  0.95869736446E+03  0.10566000000E+00 0. -1.
         -4    1    4    4    0  502 -0.76627355633E+03 -0.14944277518E+03  0.67407013326E+03  0.10314450304E+04  0.00000000000E+00 0. -1.
<mgrwt>
<rscale>  2 0.13293872E+04</rscale>
<asrwt>0</asrwt>
<pdfrwt beam="1">  1       21 0.33996252E+00 0.13347149E+04</pdfrwt>
<pdfrwt beam="2">  1       21 0.18475628E+00 0.13347149E+04</pdfrwt>
<totfact> 0.83120916E-01</totfact>
</mgrwt>
</event>
<event>
 8    1  0.1168507E-005  0.1106484E+04  0.7818608E-02  0.8683450E-01
         21   -1    0    0  501  502  0.00000000000E+00  0.00000000000E+00  0.97421603558E+03  0.97421603558E+03  0.00000000000E+00 0.  1.
         21   -1    0    0  502  503 -0.00000000000E+00 -0.00000000000E+00 -0.14385062223E+04  0.14385062223E+04  0.00000000000E+00 0.  1.
   -9000010    2    1    2    0  503 -0.10097906693E+03  0.44026947084E+03 -0.68059530911E+03  0.12990441963E+04  0.10100850807E+04 0.  0.
    9000010    2    1    2  501    0  0.10097906693E+03 -0.44026947084E+03  0.21630512241E+03  0.11136780615E+04  0.99471450168E+03 0.  0.
        -13    1    4    4    0    0  0.32237715888E+03 -0.66059952784E+03  0.23343101663E+01  0.73506749957E+03  0.10566000000E+00 0.  1.
          4    1    4    4  501    0 -0.22139809195E+03  0.22033005700E+03  0.21397081224E+03  0.37861056196E+03  0.00000000000E+00 0.  1.
         13    1    3    3    0    0 -0.51822165534E+03  0.25980101477E+03 -0.14698064033E+03  0.59804144600E+03  0.10566000000E+00 0. -1.
         -4    1    3    3    0  503  0.41724258841E+03  0.18046845607E+03 -0.53361466878E+03  0.70100275032E+03  0.00000000000E+00 0. -1.
<mgrwt>
<rscale>  2 0.11029634E+04</rscale>
<asrwt>0</asrwt>
<pdfrwt beam="1">  1       21 0.14987939E+00 0.11064836E+04</pdfrwt>
<pdfrwt beam="2">  1       21 0.22130865E+00 0.11064836E+04</pdfrwt>
<totfact> 0.12263602E+01</totfact>
</mgrwt>
</event>
<event>
 8    1  0.1168507E-005  0.1354026E+04  0.7818608E-02  0.8500749E-01
         21   -1    0    0  501  502  0.00000000000E+00  0.00000000000E+00  0.22123034064E+04  0.22123034064E+04  0.00000000000E+00 0.  1.
         21   -1    0    0  502  503 -0.00000000000E+00 -0.00000000000E+00 -0.96956364195E+03  0.96956364195E+03  0.00000000000E+00 0.  1.
   -9000010    2    1    2    0  503  0.37799045280E+03  0.82018923703E+03  0.19079804890E+01  0.13540278256E+04  0.10088610138E+04 0.  0.
    9000010    2    1    2  501    0 -0.37799045280E+03 -0.82018923703E+03  0.12408317840E+04  0.18278392228E+04  0.99284718924E+03 0.  0.
        -13    1    4    4    0    0 -0.28248331021E+03 -0.10511134855E+04  0.95303391354E+03  0.14466893348E+04  0.10566000000E+00 0.  1.
          4    1    4    4  501    0 -0.95507142598E+02  0.23092424850E+03  0.28779787045E+03  0.38114988793E+03  0.00000000000E+00 0.  1.
         13    1    3    3    0    0 -0.29986497684E+03  0.51211887363E+02 -0.10856832528E+03  0.32299961944E+03  0.10566000000E+00 0. -1.
         -4    1    3    3    0  503  0.67785542964E+03  0.76897734967E+03  0.11047630577E+03  0.10310282062E+04  0.00000000000E+00 0. -1.
<mgrwt>
<rscale>  2 0.13510444E+04</rscale>
<asrwt>0</asrwt>
<pdfrwt beam="1">  1       21 0.34035437E+00 0.13540265E+04</pdfrwt>
<pdfrwt beam="2">  1       21 0.14916364E+00 0.13540265E+04</pdfrwt>
<totfact> 0.16526689E+00</totfact>
</mgrwt>
</event>
<event>
 8    1  0.1168507E-005  0.1248615E+04  0.7818608E-02  0.8572699E-01
         21   -1    0    0  501  502  0.00000000000E+00  0.00000000000E+00  0.13011957334E+04  0.13011957334E+04  0.00000000000E+00 0. -1.
         21   -1    0    0  502  503 -0.00000000000E+00 -0.00000000000E+00 -0.11943883004E+04  0.11943883004E+04  0.00000000000E+00 0. -1.
   -9000010    2    1    2    0  503 -0.65122732770E+03 -0.32965392600E+03 -0.36559810281E+02  0.12387655521E+04  0.10002173414E+04 0.  0.
    9000010    2    1    2  501    0  0.65122732770E+03  0.32965392600E+03  0.14336724325E+03  0.12568184817E+04  0.10130497452E+04 0.  0.
        -13    1    4    4    0    0  0.86431308205E+03  0.19099199729E+03 -0.11706480880E+03  0.89287133869E+03  0.10566000000E+00 0.  1.
          4    1    4    4  501    0 -0.21308575436E+03  0.13866192871E+03  0.26043205204E+03  0.36394714302E+03  0.00000000000E+00 0.  1.
         13    1    3    3    0    0  0.28597175522E+02  0.24387842030E+02  0.36946853259E+03  0.37137524557E+03  0.10566000000E+00 0. -1.
         -4    1    3    3    0  503 -0.67982450322E+03 -0.35404176803E+03 -0.40602834287E+03  0.86739030655E+03  0.00000000000E+00 0. -1.
<mgrwt>
<rscale>  2 0.12460093E+04</rscale>
<asrwt>0</asrwt>
<pdfrwt beam="1">  1       21 0.20018396E+00 0.12486146E+04</pdfrwt>
<pdfrwt beam="2">  1       21 0.18375205E+00 0.12486146E+04</pdfrwt>
<totfact> 0.89143484E+00</totfact>
</mgrwt>
</event>
<event>
 8    1  0.1168507E-005  0.1153174E+04  0.7818608E-02  0.8644162E-01
         21   -1    0    0  503  502  0.00000000000E+00  0.00000000000E+00  0.67420874558E+03  0.67420874558E+03  0.00000000000E+00 0. -1.
         21   -1    0    0  501  503 -0.00000000000E+00 -0.00000000000E+00 -0.22575855927E+04  0.22575855927E+04  0.00000000000E+00 0. -1.
    9000010    2    1    2  501    0  0.35349826785E+03  0.43427825063E+03 -0.13219752552E+04  0.17493646042E+04  0.99954955785E+03 0.  0.
   -9000010    2    1    2    0  502 -0.35349826785E+03 -0.43427825063E+03 -0.26140159191E+03  0.11824297341E+04  0.10080925848E+04 0.  0.
        -13    1    3    3    0    0  0.25288930266E+03  0.50412831643E+03 -0.14598104586E+04  0.15649744231E+04  0.10566000000E+00 0.  1.
          4    1    3    3  501    0  0.10060896520E+03 -0.69850065801E+02  0.13783520340E+03  0.18439018104E+03  0.00000000000E+00 0.  1.
         13    1    4    4    0    0  0.89559036975E+02 -0.51694280408E+03 -0.45255936806E+03  0.69286411119E+03  0.10566000000E+00 0. -1.
         -4    1    4    4    0  502 -0.44305730483E+03  0.82664553457E+02  0.19115777614E+03  0.48956562291E+03  0.00000000000E+00 0. -1.
<mgrwt>
<rscale>  2 0.11513038E+04</rscale>
<asrwt>0</asrwt>
<pdfrwt beam="1">  1       21 0.10372442E+00 0.11531736E+04</pdfrwt>
<pdfrwt beam="2">  1       21 0.34732085E+00 0.11531736E+04</pdfrwt>
<totfact> 0.43383206E+00</totfact>
</mgrwt>
</event>
<event>
 8    1  0.1168507E-005  0.1475835E+04  0.7818608E-02  0.8424446E-01
         21   -1    0    0  501  502  0.00000000000E+00  0.00000000000E+00  0.13538479341E+04  0.13538479341E+04  0.00000000000E+00 0. -1.
         21   -1    0    0  502  503 -0.00000000000E+00 -0.00000000000E+00 -0.16066017096E+04  0.16066017096E+04  0.00000000000E+00 0.  1.
   -9000010    2    1    2    0  503 -0.11697748103E+03  0.10692858661E+04 -0.20419193178E+03  0.14838156500E+04  0.10014781793E+04 0.  0.
    9000010    2    1    2  501    0  0.11697748103E+03 -0.10692858661E+04 -0.48561843652E+02  0.14766339937E+04  0.10104621241E+04 0.  0.
        -13    1    4    4    0    0  0.17389511776E+03 -0.64384938567E+03  0.46073147834E+03  0.81058932247E+03  0.10566000000E+00 0.  1.
          4    1    4    4  501    0 -0.56917636725E+02 -0.42543648047E+03 -0.50929332199E+03  0.66604467126E+03  0.00000000000E+00 0.  1.
         13    1    3    3    0    0  0.24957414148E+03  0.87471581241E+03  0.16960239107E+03  0.92529994424E+03  0.10566000000E+00 0. -1.
         -4    1    3    3    0  503 -0.36655162251E+03  0.19457005372E+03 -0.37379432285E+03  0.55851570575E+03  0.00000000000E+00 0. -1.
<mgrwt>
<rscale>  2 0.14742987E+04</rscale>
<asrwt>0</asrwt>
<pdfrwt beam="1">  1       21 0.20828430E+00 0.14758353E+04</pdfrwt>
<pdfrwt beam="2">  1       21 0.24716949E+00 0.14758353E+04</pdfrwt>
<totfact> 0.24164657E+00</totfact>
</mgrwt>
</event>
<event>
 8    1  0.1168507E-005  0.1105895E+04  0.7818608E-02  0.8681058E-01
         21   -1    0    0  501  502  0.00000000000E+00  0.00000000000E+00  0.47445483052E+03  0.47445483052E+03  0.00000000000E+00 0. -1.
         21   -1    0    0  502  503 -0.00000000000E+00 -0.00000000000E+00 -0.25771709987E+04  0.25771709987E+04  0.00000000000E+00 0. -1.
   -9000010    2    1    2    0  503  0.44896611188E+03 -0.21590403349E+03 -0.10469924655E+04  0.15227188039E+04  0.98706342849E+03 0.  0.
    9000010    2    1    2  501    0 -0.44896611188E+03  0.21590403349E+03 -0.10557237027E+04  0.15289070252E+04  0.98732924300E+03 0.  0.
        -13    1    4    4    0    0 -0.75913728953E+03  0.89963607963E+02 -0.80903117119E+03  0.11130652821E+04  0.10566000000E+00 0.  1.
          4    1    4    4  501    0  0.31017117765E+03  0.12594042553E+03 -0.24669253150E+03  0.41584174312E+03  0.00000000000E+00 0.  1.
         13    1    3    3    0    0 -0.21122583283E+03 -0.37023156427E+03 -0.44201068680E+03  0.61405311012E+03  0.10566000000E+00 0. -1.
         -4    1    3    3    0  503  0.66019194472E+03  0.15432753078E+03 -0.60498177866E+03  0.90866569383E+03  0.00000000000E+00 0. -1.
<mgrwt>
<rscale>  2 0.11058359E+04</rscale>
<asrwt>0</asrwt>
<pdfrwt beam="1">  1       21 0.72993053E-01 0.11058952E+04</pdfrwt>
<pdfrwt beam="2">  1       21 0.39648784E+00 0.11058952E+04</pdfrwt>
<totfact> 0.48051540E+00</totfact>
</mgrwt>
</event>
<event>
 8    1  0.1168507E-005  0.1212246E+04  0.7818608E-02  0.8599473E-01
         21   -1    0    0  501  502  0.00000000000E+00  0.00000000000E+00  0.22681485481E+04  0.22681485481E+04  0.00000000000E+00 0. -1.
         21   -1    0    0  502  503 -0.00000000000E+00 -0.00000000000E+00 -0.78001633094E+03  0.78001633094E+03  0.00000000000E+00 0. -1.
   -9000010    2    1    2    0  503 -0.63823932970E+03 -0.21774840592E+03  0.10575001577E+03  0.12168500363E+04  0.10073614718E+04 0.  0.
    9000010    2    1    2  501    0  0.63823932970E+03  0.21774840592E+03  0.13823822014E+04  0.18313148427E+04  0.99396664538E+03 0.  0.
        -13    1    4    4    0    0 -0.25272137607E+03  0.55632535667E+02  0.51983977926E+03  0.58068621493E+03  0.10566000000E+00 0.  1.
          4    1    4    4  501    0  0.89096070578E+03  0.16211587025E+03  0.86254242212E+03  0.12506286278E+04  0.00000000000E+00 0.  1.
         13    1    3    3    0    0 -0.43602930652E+03 -0.60323775798E+03 -0.69565308733E+02  0.74756718236E+03  0.10566000000E+00 0. -1.
         -4    1    3    3    0  503 -0.20221002318E+03  0.38548935206E+03  0.17531532450E+03  0.46928285397E+03  0.00000000000E+00 0. -1.
<mgrwt>
<rscale>  2 0.12094597E+04</rscale>
<asrwt>0</asrwt>
<pdfrwt beam="1">  1       21 0.34894593E+00 0.12122462E+04</pdfrwt>
<pdfrwt beam="2">  1       21 0.12000251E+00 0.12122462E+04</pdfrwt>
<totfact> 0.28041878E+00</totfact>
</mgrwt>
</event>
<event>
 8    1  0.1168507E-005  0.1114750E+04  0.7818608E-02  0.8676899E-01
         21   -1    0    0  501  502  0.00000000000E+00  0.00000000000E+00  0.22023984896E+04  0.22023984896E+04  0.00000000000E+00 0. -1.
         21   -1    0    0  502  503 -0.00000000000E+00 -0.00000000000E+00 -0.58634528017E+03  0.58634528017E+03  0.00000000000E+00 0. -1.
   -9000010    2    1    2    0  503  0.10028084960E+03  0.44658521304E+03  0.49833523394E+03  0.12210669696E+04  0.10164506567E+04 0.  0.
    9000010    2    1    2  501    0 -0.10028084960E+03 -0.44658521304E+03  0.11177179755E+04  0.15676768002E+04  0.99941106451E+03 0.  0.
        -13    1    4    4    0    0  0.30687365850E+03 -0.27770867033E+03  0.55434320077E+02  0.41757217683E+03  0.10566000000E+00 0.  1.
          4    1    4    4  501    0 -0.40715450810E+03 -0.16887654271E+03  0.10622836554E+04  0.11501046234E+04  0.00000000000E+00 0.  1.
         13    1    3    3    0    0 -0.11126769807E+03  0.42397775779E+03 -0.20670316955E+03  0.48462753863E+03  0.10566000000E+00 0. -1.
         -4    1    3    3    0  503  0.21154854766E+03  0.22607455247E+02  0.70503840349E+03  0.73643943094E+03  0.00000000000E+00 0. -1.
<mgrwt>
<rscale>  2 0.11108504E+04</rscale>
<asrwt>0</asrwt>
<pdfrwt beam="1">  1       21 0.33883053E+00 0.11147495E+04</pdfrwt>
<pdfrwt beam="2">  1       21 0.90206967E-01 0.11147495E+04</pdfrwt>
<totfact> 0.72054095E+00</totfact>
</mgrwt>
</event>
<event>
 8    1  0.1168507E-005  0.1213044E+04  0.7818608E-02  0.8597661E-01
         21   -1    0    0  501  502  0.00000000000E+00  0.00000000000E+00  0.17121974471E+04  0.17121974471E+04  0.00000000000E+00 0.  1.
         21   -1    0    0  502  503 -0.00000000000E+00 -0.00000000000E+00 -0.87134481728E+03  0.87134481728E+03  0.00000000000E+00 0.  1.
   -9000010    2    1    2    0  503 -0.69357170184E+03  0.51761424758E+02  0.25062731546E+03  0.12386641641E+04  0.99385809319E+03 0.  0.
    9000010    2    1    2  501    0  0.69357170184E+03 -0.51761424758E+02  0.59022531435E+03  0.13448781003E+04  0.98823591934E+03 0.  0.
        -13    1    4    4    0    0  0.15233827494E+03  0.44521587844E+03  0.18384103594E+03  0.50519468137E+03  0.10566000000E+00 0.  1.
          4    1    4    4  501    0  0.54123342690E+03 -0.49697730319E+03  0.40638427841E+03  0.83968341893E+03  0.00000000000E+00 0.  1.
         13    1    3    3    0    0 -0.10467843244E+03  0.36421810301E+03 -0.20531674849E+03  0.43100740035E+03  0.10566000000E+00 0. -1.
         -4    1    3    3    0  503 -0.58889326940E+03 -0.31245667825E+03  0.45594406395E+03  0.80765676372E+03  0.00000000000E+00 0. -1.
<mgrwt>
<rscale>  2 0.12118915E+04</rscale>
<asrwt>0</asrwt>
<pdfrwt beam="1">  1       21 0.26341499E+00 0.12130436E+04</pdfrwt>
<pdfrwt beam="2">  1       21 0.13405305E+00 0.12130436E+04</pdfrwt>
<totfact> 0.82252716E+00</totfact>
</mgrwt>
</event>
<event>
 8    1  0.1168507E-005  0.1059058E+04  0.7818608E-02  0.8723250E-01
         21   -1    0    0  501  502  0.00000000000E+00  0.00000000000E+00  0.18483983774E+04  0.18483983774E+04  0.00000000000E+00 0. -1.
         21   -1    0    0  502  503 -0.00000000000E+00 -0.00000000000E+00 -0.60784768896E+03  0.60784768896E+03  0.00000000000E+00 0. -1.
   -9000010    2    1    2    0  503  0.33602834956E+03  0.12297608588E+03  0.48647362461E+03  0.11561553989E+04  0.98590088225E+03 0.  0.
    9000010    2    1    2  501    0 -0.33602834956E+03 -0.12297608588E+03  0.75407706385E+03  0.13000906675E+04  0.99677748569E+03 0.  0.
        -13    1    4    4    0    0 -0.29141635353E+03 -0.13389928336E+03  0.99986957613E+03  0.10500436608E+04  0.10566000000E+00 0.  1.
          4    1    4    4  501    0 -0.44611996028E+02  0.10923197485E+02 -0.24579251228E+03  0.25004700664E+03  0.00000000000E+00 0.  1.
         13    1    3    3    0    0 -0.48347232535E+02 -0.26911737591E+03 -0.15298091320E+03  0.31331260409E+03  0.10566000000E+00 0. -1.
         -4    1    3    3    0  503  0.38437558209E+03  0.39209346179E+03  0.63945453781E+03  0.84284279484E+03  0.00000000000E+00 0. -1.
<mgrwt>
<rscale>  2 0.10564909E+04</rscale>
<asrwt>0</asrwt>
<pdfrwt beam="1">  1       21 0.28436898E+00 0.10590578E+04</pdfrwt>
<pdfrwt beam="2">  1       21 0.93515030E-01 0.10590578E+04</pdfrwt>
<totfact> 0.16104080E+01</totfact>
</mgrwt>
</event>
<event>
 8    1  0.1168507E-005  0.1101758E+04  0.7818608E-02  0.8684962E-01
         21   -1    0    0  501  502  0.00000000000E+00  0.00000000000E+00  0.12009036979E+04  0.12009036979E+04  0.00000000000E+00 0. -1.
         21   -1    0    0  502  503 -0.00000000000E+00 -0.00000000000E+00 -0.11172237541E+04  0.11172237541E+04  0.00000000000E+00 0. -1.
   -9000010    2    1    2    0  503 -0.34009057265E+03 -0.36964727931E+03  0.40323618092E+03  0.11709627235E+04  0.97788218799E+03 0.  0.
    9000010    2    1    2  501    0  0.34009057265E+03  0.36964727931E+03 -0.31955623718E+03  0.11471647284E+04  0.98059676563E+03 0.  0.
        -13    1    4    4    0    0  0.63507904795E+03  0.18659446123E+03 -0.42223742643E+03  0.78512887194E+03  0.10566000000E+00 0.  1.
          4    1    4    4  501    0 -0.29498847530E+03  0.18305281808E+03  0.10268118925E+03  0.36203585651E+03  0.00000000000E+00 0.  1.
         13    1    3    3    0    0 -0.41381946916E+03 -0.11570106125E+03 -0.22810337382E+03  0.48648170463E+03  0.10566000000E+00 0. -1.
         -4    1    3    3    0  503  0.73728896507E+02 -0.25394621807E+03  0.63133955475E+03  0.68448101890E+03  0.00000000000E+00 0. -1.
<mgrwt>
<rscale>  2 0.11011537E+04</rscale>
<asrwt>0</asrwt>
<pdfrwt beam="1">  1       21 0.18475441E+00 0.11017580E+04</pdfrwt>
<pdfrwt beam="2">  1       21 0.17188058E+00 0.11017580E+04</pdfrwt>
<totfact> 0.15264326E+01</totfact>
</mgrwt>
</event>
<event>
 8    1  0.1168507E-005  0.1102531E+04  0.7818608E-02  0.8684005E-01
         21   -1    0    0  501  502  0.00000000000E+00  0.00000000000E+00  0.14611010756E+04  0.14611010756E+04  0.00000000000E+00 0. -1.
         21   -1    0    0  502  503 -0.00000000000E+00 -0.00000000000E+00 -0.12236343349E+04  0.12236343349E+04  0.00000000000E+00 0. -1.
   -9000010    2    1    2    0  503 -0.46341535362E+03  0.41567139017E+02 -0.64144844835E+03  0.12747470244E+04  0.99852002853E+03 0.  0.
    9000010    2    1    2  501    0  0.46341535362E+03 -0.41567139017E+02  0.87891518900E+03  0.14099883860E+04  0.99954675844E+03 0.  0.
        -13    1    4    4    0    0 -0.24776173916E+03 -0.15042772717E+03  0.54398497012E+03  0.61638789684E+03  0.10566000000E+00 0.  1.
          4    1    4    4  501    0  0.71117709278E+03  0.10886058815E+03  0.33493021888E+03  0.79360048921E+03  0.00000000000E+00 0.  1.
         13    1    3    3    0    0 -0.33349660736E+03  0.12011965806E+03  0.20856875476E+03  0.41127807625E+03  0.10566000000E+00 0. -1.
         -4    1    3    3    0  503 -0.12991874626E+03 -0.78552519042E+02 -0.85001720311E+03  0.86346894818E+03  0.00000000000E+00 0. -1.
<mgrwt>
<rscale>  2 0.11022986E+04</rscale>
<asrwt>0</asrwt>
<pdfrwt beam="1">  1       21 0.22478478E+00 0.11025313E+04</pdfrwt>
<pdfrwt beam="2">  1       21 0.18825144E+00 0.11025313E+04</pdfrwt>
<totfact> 0.54869945E+00</totfact>
</mgrwt>
</event>
<event>
 8    1  0.1168507E-005  0.1060597E+04  0.7818608E-02  0.8722667E-01
         21   -1    0    0  501  502  0.00000000000E+00  0.00000000000E+00  0.13309592468E+04  0.13309592468E+04  0.00000000000E+00 0.  1.
         21   -1    0    0  502  503 -0.00000000000E+00 -0.00000000000E+00 -0.83590020173E+03  0.83590020173E+03  0.00000000000E+00 0.  1.
   -9000010    2    1    2    0  503 -0.31319464355E+03 -0.69604651193E+02  0.29698409329E+03  0.11013927161E+04  0.10109058666E+04 0.  0.
    9000010    2    1    2  501    0  0.31319464355E+03  0.69604651193E+02  0.19807495175E+03  0.10654667324E+04  0.99651893065E+03 0.  0.
        -13    1    4    4    0    0  0.18675799036E+03  0.32899699511E+03  0.51359691985E+03  0.63788664902E+03  0.10566000000E+00 0.  1.
          4    1    4    4  501    0  0.12643665319E+03 -0.25939234392E+03 -0.31552196810E+03  0.42758008338E+03  0.00000000000E+00 0.  1.
         13    1    3    3    0    0 -0.28968987055E+03 -0.29486976643E+03 -0.26804361243E+03  0.49266194249E+03  0.10566000000E+00 0. -1.
         -4    1    3    3    0  503 -0.23504773008E+02  0.22526511524E+03  0.56502770571E+03  0.60873077359E+03  0.00000000000E+00 0. -1.
<mgrwt>
<rscale>  2 0.10571545E+04</rscale>
<asrwt>0</asrwt>
<pdfrwt beam="1">  1       21 0.20476296E+00 0.10605972E+04</pdfrwt>
<pdfrwt beam="2">  1       21 0.12860003E+00 0.10605972E+04</pdfrwt>
<totfact> 0.26126516E+01</totfact>
</mgrwt>
</event>
<event>
 8    1  0.1168507E-005  0.1217265E+04  0.7818608E-02  0.8596194E-01
         21   -1    0    0  503  502  0.00000000000E+00  0.00000000000E+00  0.29903467292E+04  0.29903467292E+04  0.00000000000E+00 0.  1.
         21   -1    0    0  501  503 -0.00000000000E+00 -0.00000000000E+00 -0.74274175106E+03  0.74274175106E+03  0.00000000000E+00 0. -1.
    9000010    2    1    2  501    0 -0.53045594438E+03 -0.40312935492E+03  0.30861921375E+02  0.12041193475E+04  0.10025238945E+04 0.  0.
   -9000010    2    1    2    0  502  0.53045594438E+03  0.40312935492E+03  0.22167430568E+04  0.25289691328E+04  0.10187434953E+04 0.  0.
        -13    1    3    3    0    0  0.11529405419E+03  0.21616258784E+03  0.17063048694E+03  0.29855277180E+03  0.10566000000E+00 0.  1.
          4    1    3    3  501    0 -0.64574999857E+03 -0.61929194276E+03 -0.13976856557E+03  0.90556657565E+03  0.00000000000E+00 0.  1.
         13    1    4    4    0    0  0.81676861626E+03  0.43760086143E+03  0.17542247087E+04  0.19839127567E+04  0.10566000000E+00 0. -1.
         -4    1    4    4    0  502 -0.28631267187E+03 -0.34471506513E+02  0.46251834805E+03  0.54505637609E+03  0.00000000000E+00 0. -1.
<mgrwt>
<rscale>  2 0.12138658E+04</rscale>
<asrwt>0</asrwt>
<pdfrwt beam="1">  1       21 0.46005333E+00 0.12172654E+04</pdfrwt>
<pdfrwt beam="2">  1       21 0.11426796E+00 0.12172654E+04</pdfrwt>
<totfact> 0.54086348E-01</totfact>
</mgrwt>
</event>
<event>
 8    1  0.1168507E-005  0.1084290E+04  0.7818608E-02  0.8701676E-01
         21   -1    0    0  501  502  0.00000000000E+00  0.00000000000E+00  0.92188473326E+03  0.92188473326E+03  0.00000000000E+00 0.  1.
         21   -1    0    0  502  503 -0.00000000000E+00 -0.00000000000E+00 -0.14688723218E+04  0.14688723218E+04  0.00000000000E+00 0.  1.
   -9000010    2    1    2    0  503  0.34299987013E+03  0.16274277504E+03 -0.72367570424E+03  0.13036067165E+04  0.10156524133E+04 0.  0.
    9000010    2    1    2  501    0 -0.34299987013E+03 -0.16274277504E+03  0.17668811571E+03  0.10871503386E+04  0.10032661893E+04 0.  0.
        -13    1    4    4    0    0 -0.13649438563E+03  0.98372568817E+02  0.55691844993E+03  0.58177835181E+03  0.10566000000E+00 0.  1.
          4    1    4    4  501    0 -0.20650548451E+03 -0.26111534386E+03 -0.38023033422E+03  0.50537198675E+03  0.00000000000E+00 0.  1.
         13    1    3    3    0    0  0.29972958174E+03 -0.36718323895E+03 -0.58729771128E+03  0.75470521794E+03  0.10566000000E+00 0. -1.
         -4    1    3    3    0  503  0.43270288388E+02  0.52992601399E+03 -0.13637799296E+03  0.54890149856E+03  0.00000000000E+00 0. -1.
<mgrwt>
<rscale>  2 0.10813796E+04</rscale>
<asrwt>0</asrwt>
<pdfrwt beam="1">  1       21 0.14182842E+00 0.10842896E+04</pdfrwt>
<pdfrwt beam="2">  1       21 0.22598036E+00 0.10842896E+04</pdfrwt>
<totfact> 0.13447532E+01</totfact>
</mgrwt>
</event>
<event>
 8    1  0.1168507E-005  0.1029084E+04  0.7818608E-02  0.8752859E-01
         21   -1    0    0  503  502  0.00000000000E+00  0.00000000000E+00  0.22658368914E+04  0.22658368914E+04  0.00000000000E+00 0.  1.
         21   -1    0    0  501  503 -0.00000000000E+00 -0.00000000000E+00 -0.45923617306E+03  0.45923617306E+03  0.00000000000E+00 0.  1.
    9000010    2    1    2  501    0 -0.14446337954E+03 -0.14476358306E+03  0.80493272753E+03  0.12889838882E+04  0.98576701370E+03 0.  0.
   -9000010    2    1    2    0  502  0.14446337954E+03  0.14476358306E+03  0.10016679909E+04  0.14360891763E+04  0.10085569866E+04 0.  0.
        -13    1    3    3    0    0 -0.56989443011E+03 -0.83515118755E+02  0.43300275334E+03  0.72058714399E+03  0.10566000000E+00 0.  1.
          4    1    3    3  501    0  0.42543105057E+03 -0.61248464304E+02  0.37192997419E+03  0.56839674425E+03  0.00000000000E+00 0.  1.
         13    1    4    4    0    0  0.22457944189E+02 -0.36725369677E+03  0.78487581299E+03  0.86683890662E+03  0.10566000000E+00 0. -1.
         -4    1    4    4    0  502  0.12200543535E+03  0.51201727983E+03  0.21679217786E+03  0.56925026964E+03  0.00000000000E+00 0. -1.
<mgrwt>
<rscale>  2 0.10234565E+04</rscale>
<asrwt>0</asrwt>
<pdfrwt beam="1">  1       21 0.34859028E+00 0.10290837E+04</pdfrwt>
<pdfrwt beam="2">  1       21 0.70651720E-01 0.10290837E+04</pdfrwt>
<totfact> 0.11435899E+01</totfact>
</mgrwt>
</event>
<event>
 8    1  0.1168507E-005  0.1132923E+04  0.7818608E-02  0.8661097E-01
         21   -1    0    0  501  502  0.00000000000E+00  0.00000000000E+00  0.14937463982E+04  0.14937463982E+04  0.00000000000E+00 0. -1.
         21   -1    0    0  502  503 -0.00000000000E+00 -0.00000000000E+00 -0.85277729235E+03  0.85277729235E+03  0.00000000000E+00 0. -1.
   -9000010    2    1    2    0  503  0.14969751677E+03  0.47283542627E+03  0.26729984411E+03  0.11640290851E+04  0.10185930579E+04 0.  0.
    9000010    2    1    2  501    0 -0.14969751677E+03 -0.47283542627E+03  0.37366926173E+03  0.11824946054E+04  0.10063210660E+04 0.  0.
        -13    1    4    4    0    0  0.11910412997E+03  0.97431337349E+02 -0.25136786150E+03  0.29472779346E+03  0.10566000000E+00 0.  1.
          4    1    4    4  501    0 -0.26880164674E+03 -0.57026676362E+03  0.62503712323E+03  0.88776681195E+03  0.00000000000E+00 0.  1.
         13    1    3    3    0    0  0.48222354177E+03  0.58179463216E+03  0.29901757474E+03  0.81267217217E+03  0.10566000000E+00 0. -1.
         -4    1    3    3    0  503 -0.33252602501E+03 -0.10895920589E+03 -0.31717730628E+02  0.35135691297E+03  0.00000000000E+00 0. -1.
<mgrwt>
<rscale>  2 0.11301577E+04</rscale>
<asrwt>0</asrwt>
<pdfrwt beam="1">  1       21 0.22980714E+00 0.11329230E+04</pdfrwt>
<pdfrwt beam="2">  1       21 0.13119651E+00 0.11329230E+04</pdfrwt>
<totfact> 0.15684380E+01</totfact>
</mgrwt>
</event>
<event>
 8    1  0.1168507E-005  0.1095180E+04  0.7818608E-02  0.8690194E-01
         21   -1    0    0  501  502  0.00000000000E+00  0.00000000000E+00  0.22073013203E+04  0.22073013203E+04  0.00000000000E+00 0. -1.
         21   -1    0    0  502  503 -0.00000000000E+00 -0.00000000000E+00 -0.62709517609E+03  0.62709517609E+03  0.00000000000E+00 0. -1.
   -9000010    2    1    2    0  503  0.38007017761E+03 -0.23062782535E+03  0.27103291074E+03  0.11282192896E+04  0.10008883019E+04 0.  0.
    9000010    2    1    2  501    0 -0.38007017761E+03  0.23062782535E+03  0.13091732335E+04  0.17061772068E+04  0.99973175002E+03 0.  0.
        -13    1    4    4    0    0 -0.18656770255E+03 -0.38744726414E+03  0.38195679562E+03  0.57516423308E+03  0.10566000000E+00 0.  1.
          4    1    4    4  501    0 -0.19350247506E+03  0.61807508949E+03  0.92721643786E+03  0.11310129737E+04  0.00000000000E+00 0.  1.
         13    1    3    3    0    0  0.57550181683E+03  0.20965848789E+03  0.12815590422E+03  0.62576590645E+03  0.10566000000E+00 0. -1.
         -4    1    3    3    0  503 -0.19543163923E+03 -0.44028631324E+03  0.14287700652E+03  0.50245338314E+03  0.00000000000E+00 0. -1.
<mgrwt>
<rscale>  2 0.10949160E+04</rscale>
<asrwt>0</asrwt>
<pdfrwt beam="1">  1       21 0.33958481E+00 0.10951803E+04</pdfrwt>
<pdfrwt beam="2">  1       21 0.96476182E-01 0.10951803E+04</pdfrwt>
<totfact> 0.60186948E+00</totfact>
</mgrwt>
</event>
<event>
 8    1  0.1168507E-005  0.1034535E+04  0.7818608E-02  0.8762642E-01
         21   -1    0    0  501  502  0.00000000000E+00  0.00000000000E+00  0.39848901866E+03  0.39848901866E+03  0.00000000000E+00 0. -1.
         21   -1    0    0  502  503 -0.00000000000E+00 -0.00000000000E+00 -0.25407041489E+04  0.25407041489E+04  0.00000000000E+00 0. -1.
   -9000010    2    1    2    0  503 -0.65677205915E+02 -0.28434349531E+03 -0.78496124921E+03  0.12326176612E+04  0.90444315317E+03 0.  0.
    9000010    2    1    2  501    0  0.65677205915E+02  0.28434349531E+03 -0.13572538810E+04  0.17065755063E+04  0.99252060053E+03 0.  0.
        -13    1    4    4    0    0  0.29684222162E+03 -0.19658752549E+03 -0.10075108075E+04  0.10685691358E+04  0.10566000000E+00 0.  1.
          4    1    4    4  501    0 -0.23116501571E+03  0.48093102080E+03 -0.34974307350E+03  0.63800637044E+03  0.00000000000E+00 0.  1.
         13    1    3    3    0    0 -0.77604581571E+02 -0.57402997939E+03 -0.73916025454E+03  0.93909040107E+03  0.10566000000E+00 0. -1.
         -4    1    3    3    0  503  0.11927375656E+02  0.28968648408E+03 -0.45800994667E+02  0.29352726017E+03  0.00000000000E+00 0. -1.
<mgrwt>
<rscale>  2 0.10128163E+04</rscale>
<asrwt>0</asrwt>
<pdfrwt beam="1">  1       21 0.61306002E-01 0.10345346E+04</pdfrwt>
<pdfrwt beam="2">  1       21 0.39087757E+00 0.10345346E+04</pdfrwt>
<totfact> 0.80447520E+00</totfact>
</mgrwt>
</event>
<event>
 8    1  0.1168507E-005  0.1092148E+04  0.7818608E-02  0.8693848E-01
         21   -1    0    0  503  502  0.00000000000E+00  0.00000000000E+00  0.85207438270E+03  0.85207438270E+03  0.00000000000E+00 0.  1.
         21   -1    0    0  501  503 -0.00000000000E+00 -0.00000000000E+00 -0.13918952126E+04  0.13918952126E+04  0.00000000000E+00 0.  1.
    9000010    2    1    2  501    0 -0.24547474173E+03 -0.34049266404E+03 -0.26576853725E+03  0.11179624671E+04  0.10015058958E+04 0.  0.
   -9000010    2    1    2    0  502  0.24547474173E+03  0.34049266404E+03 -0.27405229268E+03  0.11260071282E+04  0.10082630066E+04 0.  0.
        -13    1    3    3    0    0  0.28628824072E+03 -0.38319187297E+03 -0.32929777294E+03  0.58071852279E+03  0.10566000000E+00 0.  1.
          4    1    3    3  501    0 -0.53176298245E+03  0.42699208921E+02  0.63529235685E+02  0.53724394434E+03  0.00000000000E+00 0.  1.
         13    1    4    4    0    0 -0.10952226327E+03 -0.85580543777E+01 -0.54721722416E+03  0.55813534920E+03  0.10566000000E+00 0. -1.
         -4    1    4    4    0  502  0.35499700500E+03  0.34905071842E+03  0.27316493148E+03  0.56787177900E+03  0.00000000000E+00 0. -1.
<mgrwt>
<rscale>  2 0.10905860E+04</rscale>
<asrwt>0</asrwt>
<pdfrwt beam="1">  1       21 0.13108837E+00 0.10921481E+04</pdfrwt>
<pdfrwt beam="2">  1       21 0.21413772E+00 0.10921481E+04</pdfrwt>
<totfact> 0.20804428E+01</totfact>
</mgrwt>
</event>
<event>
 8    1  0.1168507E-005  0.1185831E+04  0.7818608E-02  0.8627359E-01
         21   -1    0    0  501  502  0.00000000000E+00  0.00000000000E+00  0.13360199864E+04  0.13360199864E+04  0.00000000000E+00 0. -1.
         21   -1    0    0  502  503 -0.00000000000E+00 -0.00000000000E+00 -0.11279148592E+04  0.11279148592E+04  0.00000000000E+00 0.  1.
   -9000010    2    1    2    0  503  0.19696105045E+03  0.61444436297E+03 -0.30063546237E+03  0.11735814976E+04  0.93304679397E+03 0.  0.
    9000010    2    1    2  501    0 -0.19696105045E+03 -0.61444436297E+03  0.50874058952E+03  0.12903533480E+04  0.99491670239E+03 0.  0.
        -13    1    4    4    0    0  0.26368178803E+03 -0.48161846573E+03  0.58792163784E+03  0.80444782011E+03  0.10566000000E+00 0.  1.
          4    1    4    4  501    0 -0.46064283848E+03 -0.13282589724E+03 -0.79181048326E+02  0.48590552789E+03  0.00000000000E+00 0.  1.
         13    1    3    3    0    0 -0.51588376628E+01  0.31542717101E+02  0.30640144347E+03  0.30806397441E+03  0.10566000000E+00 0. -1.
         -4    1    3    3    0  503  0.20211988811E+03  0.58290164586E+03 -0.60703690584E+03  0.86551752321E+03  0.00000000000E+00 0. -1.
<mgrwt>
<rscale>  2 0.11727641E+04</rscale>
<asrwt>0</asrwt>
<pdfrwt beam="1">  1       21 0.20554154E+00 0.11858308E+04</pdfrwt>
<pdfrwt beam="2">  1       21 0.17352536E+00 0.11858308E+04</pdfrwt>
<totfact> 0.99529384E+00</totfact>
</mgrwt>
</event>
<event>
 8    1  0.1168507E-005  0.1218220E+04  0.7818608E-02  0.8592984E-01
         21   -1    0    0  503  502  0.00000000000E+00  0.00000000000E+00  0.11069172309E+04  0.11069172309E+04  0.00000000000E+00 0. -1.
         21   -1    0    0  501  503 -0.00000000000E+00 -0.00000000000E+00 -0.13420667754E+04  0.13420667754E+04  0.00000000000E+00 0. -1.
    9000010    2    1    2  501    0 -0.66744746985E+03  0.19240861705E+03 -0.15786730565E+03  0.12284066150E+04  0.10007764608E+04 0.  0.
   -9000010    2    1    2    0  502  0.66744746985E+03 -0.19240861705E+03 -0.77282238866E+02  0.12205773914E+04  0.10006644907E+04 0.  0.
        -13    1    3    3    0    0 -0.45620218364E+03 -0.34528001728E+03  0.12429997267E+03  0.58548203821E+03  0.10566000000E+00 0.  1.
          4    1    3    3  501    0 -0.21124528621E+03  0.53768863433E+03 -0.28216727832E+03  0.64292457675E+03  0.00000000000E+00 0.  1.
         13    1    4    4    0    0  0.26120770834E+02  0.43609924559E+02 -0.44271810501E+03  0.44562703223E+03  0.10566000000E+00 0. -1.
         -4    1    4    4    0  502  0.64132669902E+03 -0.23601854161E+03  0.36543586614E+03  0.77495035913E+03  0.00000000000E+00 0. -1.
<mgrwt>
<rscale>  2 0.12181973E+04</rscale>
<asrwt>0</asrwt>
<pdfrwt beam="1">  1       21 0.17029496E+00 0.12182203E+04</pdfrwt>
<pdfrwt beam="2">  1       21 0.20647181E+00 0.12182203E+04</pdfrwt>
<totfact> 0.10349387E+01</totfact>
</mgrwt>
</event>
<event>
 8    1  0.1168507E-005  0.1147980E+04  0.7818608E-02  0.8649818E-01
         21   -1    0    0  501  502  0.00000000000E+00  0.00000000000E+00  0.76429664921E+03  0.76429664921E+03  0.00000000000E+00 0.  1.
         21   -1    0    0  502  503 -0.00000000000E+00 -0.00000000000E+00 -0.17150476719E+04  0.17150476719E+04  0.00000000000E+00 0.  1.
   -9000010    2    1    2    0  503  0.25588794348E+03  0.51360889715E+03 -0.58168614364E+03  0.12734973946E+04  0.97681323984E+03 0.  0.
    9000010    2    1    2  501    0 -0.25588794348E+03 -0.51360889715E+03 -0.36906487907E+03  0.12058469265E+04  0.99427621233E+03 0.  0.
        -13    1    4    4    0    0 -0.59408654473E+03 -0.45403732942E+03 -0.42168632837E+03  0.85843350926E+03  0.10566000000E+00 0.  1.
          4    1    4    4  501    0  0.33819860125E+03 -0.59571567730E+02  0.52621449298E+02  0.34741341726E+03  0.00000000000E+00 0.  1.
         13    1    3    3    0    0  0.22413568650E+03  0.61399321455E+03 -0.79883886673E+03  0.10321666627E+04  0.10566000000E+00 0. -1.
         -4    1    3    3    0  503  0.31752256982E+02 -0.10038431740E+03  0.21715272310E+03  0.24133073188E+03  0.00000000000E+00 0. -1.
<mgrwt>
<rscale>  2 0.11441884E+04</rscale>
<asrwt>0</asrwt>
<pdfrwt beam="1">  1       21 0.11758410E+00 0.11479799E+04</pdfrwt>
<pdfrwt beam="2">  1       21 0.26385348E+00 0.11479799E+04</pdfrwt>
<totfact> 0.12032025E+01</totfact>
</mgrwt>
</event>
<event>
 8    1  0.1168507E-005  0.1327984E+04  0.7818608E-02  0.8518433E-01
         21   -1    0    0  503  502  0.00000000000E+00  0.00000000000E+00  0.13665274154E+04  0.13665274154E+04  0.00000000000E+00 0. -1.
         21   -1    0    0  501  503 -0.00000000000E+00 -0.00000000000E+00 -0.13107778682E+04  0.13107778682E+04  0.00000000000E+00 0.  1.
    9000010    2    1    2  501    0 -0.63183618091E+03  0.61445915320E+03  0.24516681272E+03  0.13358801088E+04  0.97349467818E+03 0.  0.
   -9000010    2    1    2    0  502  0.63183618091E+03 -0.61445915320E+03 -0.18941726560E+03  0.13414251749E+04  0.99336075460E+03 0.  0.
        -13    1    3    3    0    0 -0.26828554829E+03 -0.20657041988E+03  0.27689503582E+03  0.43740066966E+03  0.10566000000E+00 0.  1.
          4    1    3    3  501    0 -0.36355063262E+03  0.82102957307E+03 -0.31728223095E+02  0.89847943910E+03  0.00000000000E+00 0.  1.
         13    1    4    4    0    0  0.25612375622E+03 -0.33282985060E+03  0.40532902255E+03  0.58366661343E+03  0.10566000000E+00 0. -1.
         -4    1    4    4    0  502  0.37571242469E+03 -0.28162930260E+03 -0.59474628814E+03  0.75775856142E+03  0.00000000000E+00 0. -1.
<mgrwt>
<rscale>  2 0.13242703E+04</rscale>
<asrwt>0</asrwt>
<pdfrwt beam="1">  1       21 0.21023499E+00 0.13279844E+04</pdfrwt>
<pdfrwt beam="2">  1       21 0.20165813E+00 0.13279844E+04</pdfrwt>
<totfact> 0.52843082E+00</totfact>
</mgrwt>
</event>
<event>
 8    1  0.1168507E-005  0.1144089E+04  0.7818608E-02  0.8650231E-01
         21   -1    0    0  503  502  0.00000000000E+00  0.00000000000E+00  0.20301040746E+04  0.20301040746E+04  0.00000000000E+00 0.  1.
         21   -1    0    0  501  503 -0.00000000000E+00 -0.00000000000E+00 -0.79917788209E+03  0.79917788209E+03  0.00000000000E+00 0. -1.
    9000010    2    1    2  501    0 -0.43971779920E+03  0.35548334699E+03 -0.86140771929E+01  0.11424503816E+04  0.99267241278E+03 0.  0.
   -9000010    2    1    2    0  502  0.43971779920E+03 -0.35548334699E+03  0.12395402697E+04  0.16868315751E+04  0.99459566140E+03 0.  0.
        -13    1    3    3    0    0 -0.48879005578E+03  0.14167115019E+03 -0.43073984216E+03  0.66672577287E+03  0.10566000000E+00 0.  1.
          4    1    3    3  501    0  0.49072256586E+02  0.21381219679E+03  0.42212576496E+03  0.47572460869E+03  0.00000000000E+00 0.  1.
         13    1    4    4    0    0 -0.27056409731E+03 -0.11457012912E+03  0.71089718686E+03  0.76922432793E+03  0.10566000000E+00 0. -1.
         -4    1    4    4    0  502  0.71028189651E+03 -0.24091321787E+03  0.52864308285E+03  0.91760724719E+03  0.00000000000E+00 0. -1.
<mgrwt>
<rscale>  2 0.11436713E+04</rscale>
<asrwt>0</asrwt>
<pdfrwt beam="1">  1       21 0.31232370E+00 0.11440895E+04</pdfrwt>
<pdfrwt beam="2">  1       21 0.12295044E+00 0.11440895E+04</pdfrwt>
<totfact> 0.48046772E+00</totfact>
</mgrwt>
</event>
<event>
 8    1  0.1168507E-005  0.1203056E+04  0.7818608E-02  0.8608176E-01
         21   -1    0    0  503  502  0.00000000000E+00  0.00000000000E+00  0.28101237841E+04  0.28101237841E+04  0.00000000000E+00 0.  1.
         21   -1    0    0  501  503 -0.00000000000E+00 -0.00000000000E+00 -0.57975895526E+03  0.57975895526E+03  0.00000000000E+00 0.  1.
    9000010    2    1    2  501    0  0.30189159560E+03 -0.57884003173E+03  0.50321529644E+03  0.12850339354E+04  0.98584596292E+03 0.  0.
   -9000010    2    1    2    0  502 -0.30189159560E+03  0.57884003173E+03  0.17271495324E+04  0.21048488040E+04  0.10105190066E+04 0.  0.
        -13    1    3    3    0    0  0.63157757696E+03 -0.52632328922E+03  0.47622163281E+03  0.95010183413E+03  0.10566000000E+00 0.  1.
          4    1    3    3  501    0 -0.32968598137E+03 -0.52516742516E+02  0.26993663628E+02  0.33493210122E+03  0.00000000000E+00 0.  1.
         13    1    4    4    0    0 -0.44960007958E+03  0.50129544679E+03  0.43430521034E+03  0.80128545689E+03  0.10566000000E+00 0. -1.
         -4    1    4    4    0  502  0.14770848398E+03  0.77544584946E+02  0.12928443220E+04  0.13035633471E+04  0.00000000000E+00 0. -1.
<mgrwt>
<rscale>  2 0.11978600E+04</rscale>
<asrwt>0</asrwt>
<pdfrwt beam="1">  1       21 0.43232673E+00 0.12030557E+04</pdfrwt>
<pdfrwt beam="2">  1       21 0.89193687E-01 0.12030557E+04</pdfrwt>
<totfact> 0.16243377E+00</totfact>
</mgrwt>
</event>
<event>
 8    1  0.1168507E-005  0.1021735E+04  0.7818608E-02  0.8758525E-01
         21   -1    0    0  503  502  0.00000000000E+00  0.00000000000E+00  0.16054716686E+04  0.16054716686E+04  0.00000000000E+00 0.  1.
         21   -1    0    0  501  503 -0.00000000000E+00 -0.00000000000E+00 -0.64032568857E+03  0.64032568857E+03  0.00000000000E+00 0.  1.
    9000010    2    1    2  501    0 -0.15185459375E+02  0.16036410152E+03  0.52914797818E+03  0.11349252303E+04  0.99101485974E+03 0.  0.
   -9000010    2    1    2    0  502  0.15185459375E+02 -0.16036410152E+03  0.43599800190E+03  0.11108721270E+04  0.10089575717E+04 0.  0.
        -13    1    3    3    0    0 -0.18237829400E+03 -0.72000693468E+02 -0.24252149577E+03  0.31186957058E+03  0.10566000000E+00 0.  1.
          4    1    3    3  501    0  0.16719283462E+03  0.23236479499E+03  0.77166947395E+03  0.82305565967E+03  0.00000000000E+00 0.  1.
         13    1    4    4    0    0 -0.29973273814E+03  0.80814832860E+02 -0.19424047372E+03  0.36619683821E+03  0.10566000000E+00 0. -1.
         -4    1    4    4    0  502  0.31491819751E+03 -0.24117893438E+03  0.63023847562E+03  0.74467528874E+03  0.00000000000E+00 0. -1.
<mgrwt>
<rscale>  2 0.10172774E+04</rscale>
<asrwt>0</asrwt>
<pdfrwt beam="1">  1       21 0.24699564E+00 0.10217351E+04</pdfrwt>
<pdfrwt beam="2">  1       21 0.98511645E-01 0.10217351E+04</pdfrwt>
<totfact> 0.26373874E+01</totfact>
</mgrwt>
</event>
<event>
 8    1  0.1168507E-005  0.1048398E+04  0.7818608E-02  0.8731922E-01
         21   -1    0    0  501  502  0.00000000000E+00  0.00000000000E+00  0.17945860316E+04  0.17945860316E+04  0.00000000000E+00 0.  1.
         21   -1    0    0  502  503 -0.00000000000E+00 -0.00000000000E+00 -0.63098832183E+03  0.63098832183E+03  0.00000000000E+00 0.  1.
   -9000010    2    1    2    0  503  0.30209907611E+03 -0.19782175412E+02  0.35094865113E+03  0.10990992635E+04  0.99659372311E+03 0.  0.
    9000010    2    1    2  501    0 -0.30209907611E+03  0.19782175412E+02  0.81264905868E+03  0.13264750900E+04  0.10037342704E+04 0.  0.
        -13    1    4    4    0    0 -0.57712519452E+03  0.10989092983E+03  0.15444822405E+03  0.60745680643E+03  0.10566000000E+00 0.  1.
          4    1    4    4  501    0  0.27502611841E+03 -0.90108754414E+02  0.65820083463E+03  0.71901828359E+03  0.00000000000E+00 0.  1.
         13    1    3    3    0    0  0.57021032054E+03  0.27773294882E+03  0.15344414285E+03  0.65254924462E+03  0.10566000000E+00 0. -1.
         -4    1    3    3    0  503 -0.26811124443E+03 -0.29751512423E+03  0.19750450828E+03  0.44655001884E+03  0.00000000000E+00 0. -1.
<mgrwt>
<rscale>  2 0.10466849E+04</rscale>
<asrwt>0</asrwt>
<pdfrwt beam="1">  1       21 0.27609016E+00 0.10483977E+04</pdfrwt>
<pdfrwt beam="2">  1       21 0.97075127E-01 0.10483977E+04</pdfrwt>
<totfact> 0.16802493E+01</totfact>
</mgrwt>
</event>
<event>
 8    1  0.1168507E-005  0.1144861E+04  0.7818608E-02  0.8651011E-01
         21   -1    0    0  501  502  0.00000000000E+00  0.00000000000E+00  0.89034287445E+03  0.89034287445E+03  0.00000000000E+00 0. -1.
         21   -1    0    0  502  503 -0.00000000000E+00 -0.00000000000E+00 -0.14661143825E+04  0.14661143825E+04  0.00000000000E+00 0. -1.
   -9000010    2    1    2    0  503  0.36849721050E+03  0.39699125686E+03 -0.35606245428E+03  0.11907050114E+04  0.99880213287E+03 0.  0.
    9000010    2    1    2  501    0 -0.36849721050E+03 -0.39699125686E+03 -0.21970905375E+03  0.11657522455E+04  0.10086198379E+04 0.  0.
        -13    1    4    4    0    0 -0.17859315751E+03 -0.65295646761E+03 -0.41302103880E+03  0.79299057634E+03  0.10566000000E+00 0.  1.
          4    1    4    4  501    0 -0.18990405299E+03  0.25596521075E+03  0.19331198505E+03  0.37276166919E+03  0.00000000000E+00 0.  1.
         13    1    3    3    0    0  0.23366324749E+03  0.37708991129E+03  0.29027980753E+03  0.53014874540E+03  0.10566000000E+00 0. -1.
         -4    1    3    3    0  503  0.13483396301E+03  0.19901345573E+02 -0.64634226181E+03  0.66055626599E+03  0.00000000000E+00 0. -1.
<mgrwt>
<rscale>  2 0.11426947E+04</rscale>
<asrwt>0</asrwt>
<pdfrwt beam="1">  1       21 0.13697583E+00 0.11448608E+04</pdfrwt>
<pdfrwt beam="2">  1       21 0.22555606E+00 0.11448608E+04</pdfrwt>
<totfact> 0.14831818E+01</totfact>
</mgrwt>
</event>
<event>
 8    1  0.1168507E-005  0.1030712E+04  0.7818608E-02  0.8747959E-01
         21   -1    0    0  501  502  0.00000000000E+00  0.00000000000E+00  0.16744375979E+04  0.16744375979E+04  0.00000000000E+00 0. -1.
         21   -1    0    0  502  503 -0.00000000000E+00 -0.00000000000E+00 -0.63366759391E+03  0.63366759391E+03  0.00000000000E+00 0. -1.
   -9000010    2    1    2    0  503  0.27248419510E+03  0.80450045872E+02  0.43289498869E+03  0.11179290043E+04  0.99078117716E+03 0.  0.
    9000010    2    1    2  501    0 -0.27248419510E+03 -0.80450045872E+02  0.60787501528E+03  0.11901761875E+04  0.98299922510E+03 0.  0.
        -13    1    4    4    0    0  0.23841781426E+03 -0.33211906325E+03  0.43043553143E+03  0.59365047310E+03  0.10566000000E+00 0.  1.
          4    1    4    4  501    0 -0.51090200935E+03  0.25166901738E+03  0.17743948385E+03  0.59652571436E+03  0.00000000000E+00 0.  1.
         13    1    3    3    0    0  0.42892662130E+03  0.13047894311E+02  0.68819017683E+03  0.81102036020E+03  0.10566000000E+00 0. -1.
         -4    1    3    3    0  503 -0.15644242621E+03  0.67402151561E+02 -0.25529518814E+03  0.30690864413E+03  0.00000000000E+00 0. -1.
<mgrwt>
<rscale>  2 0.10288373E+04</rscale>
<asrwt>0</asrwt>
<pdfrwt beam="1">  1       21 0.25760578E+00 0.10307120E+04</pdfrwt>
<pdfrwt beam="2">  1       21 0.97487323E-01 0.10307120E+04</pdfrwt>
<totfact> 0.22649151E+01</totfact>
</mgrwt>
</event>
<event>
 8    1  0.1168507E-005  0.1531260E+04  0.7818608E-02  0.8392621E-01
         21   -1    0    0  503  502  0.00000000000E+00  0.00000000000E+00  0.17203842752E+04  0.17203842752E+04  0.00000000000E+00 0.  1.
         21   -1    0    0  501  503 -0.00000000000E+00 -0.00000000000E+00 -0.13637079936E+04  0.13637079936E+04  0.00000000000E+00 0.  1.
    9000010    2    1    2  501    0  0.76793124119E+03  0.86447214410E+03  0.28357580705E+03  0.15510883825E+04  0.99419789417E+03 0.  0.
   -9000010    2    1    2    0  502 -0.76793124119E+03 -0.86447214410E+03  0.73100474543E+02  0.15330038863E+04  0.10038559443E+04 0.  0.
        -13    1    3    3    0    0  0.84472149141E+03  0.96612001512E+03  0.49137122303E+02  0.12842728486E+04  0.10566000000E+00 0.  1.
          4    1    3    3  501    0 -0.76790250221E+02 -0.10164787102E+03  0.23443868475E+03  0.26681553388E+03  0.00000000000E+00 0.  1.
         13    1    4    4    0    0 -0.59503107255E+03 -0.95325424085E+03 -0.25440972496E+03  0.11521631587E+04  0.10566000000E+00 0. -1.
         -4    1    4    4    0  502 -0.17290016864E+03  0.88782096753E+02  0.32751019950E+03  0.38084072760E+03  0.00000000000E+00 0. -1.
<mgrwt>
<rscale>  2 0.15296790E+04</rscale>
<asrwt>0</asrwt>
<pdfrwt beam="1">  1       21 0.26467450E+00 0.15312600E+04</pdfrwt>
<pdfrwt beam="2">  1       21 0.20980123E+00 0.15312600E+04</pdfrwt>
<totfact> 0.17376284E+00</totfact>
</mgrwt>
</event>
<event>
 8    1  0.1168507E-005  0.1258258E+04  0.7818608E-02  0.8574493E-01
         21   -1    0    0  501  502  0.00000000000E+00  0.00000000000E+00  0.13111388978E+04  0.13111388978E+04  0.00000000000E+00 0.  1.
         21   -1    0    0  502  503 -0.00000000000E+00 -0.00000000000E+00 -0.13443888937E+04  0.13443888937E+04  0.00000000000E+00 0. -1.
   -9000010    2    1    2    0  503  0.57014411261E+03 -0.32031106256E+03 -0.51772782169E+03  0.13072207230E+04  0.10065388394E+04 0.  0.
    9000010    2    1    2  501    0 -0.57014411261E+03  0.32031106256E+03  0.48447782579E+03  0.13483070685E+04  0.10749649767E+04 0.  0.
        -13    1    4    4    0    0 -0.32171972827E+03  0.26250435032E+03 -0.30722878389E+03  0.51652846418E+03  0.10566000000E+00 0.  1.
          4    1    4    4  501    0 -0.24842438434E+03  0.57806712241E+02  0.79170660968E+03  0.83177860427E+03  0.00000000000E+00 0.  1.
         13    1    3    3    0    0  0.36369454630E+03 -0.38450910578E+03 -0.79534369889E+03  0.95534945751E+03  0.10566000000E+00 0. -1.
         -4    1    3    3    0  503  0.20644956631E+03  0.64198043217E+02  0.27761587721E+03  0.35187126547E+03  0.00000000000E+00 0. -1.
<mgrwt>
<rscale>  2 0.12435182E+04</rscale>
<asrwt>0</asrwt>
<pdfrwt beam="1">  1       21 0.20171368E+00 0.12582580E+04</pdfrwt>
<pdfrwt beam="2">  1       21 0.20682906E+00 0.12582580E+04</pdfrwt>
<totfact> 0.56854609E+00</totfact>
</mgrwt>
</event>
<event>
 8    1  0.1168507E-005  0.1129834E+04  0.7818608E-02  0.8661686E-01
         21   -1    0    0  503  502  0.00000000000E+00  0.00000000000E+00  0.19580128961E+04  0.19580128961E+04  0.00000000000E+00 0. -1.
         21   -1    0    0  501  503 -0.00000000000E+00 -0.00000000000E+00 -0.67057641757E+03  0.67057641757E+03  0.00000000000E+00 0. -1.
    9000010    2    1    2  501    0 -0.39480895615E+03 -0.34567537698E+03  0.86862866605E+03  0.14251461364E+04  0.10005799181E+04 0.  0.
   -9000010    2    1    2    0  502  0.39480895615E+03  0.34567537698E+03  0.41880781245E+03  0.12034431772E+04  0.99875418346E+03 0.  0.
        -13    1    3    3    0    0 -0.18857501283E+03  0.29766073827E+03  0.60462633584E+03  0.69981102287E+03  0.10566000000E+00 0.  1.
          4    1    3    3  501    0 -0.20623394332E+03 -0.64333611525E+03  0.26400233021E+03  0.72533511353E+03  0.00000000000E+00 0.  1.
         13    1    4    4    0    0  0.33160147572E+03 -0.56368801092E+02  0.65253256390E+03  0.73412242750E+03  0.10566000000E+00 0. -1.
         -4    1    4    4    0  502  0.63207480424E+02  0.40204417808E+03 -0.23372475145E+03  0.46932074975E+03  0.00000000000E+00 0. -1.
<mgrwt>
<rscale>  2 0.11294300E+04</rscale>
<asrwt>0</asrwt>
<pdfrwt beam="1">  1       21 0.30123275E+00 0.11298344E+04</pdfrwt>
<pdfrwt beam="2">  1       21 0.10316560E+00 0.11298344E+04</pdfrwt>
<totfact> 0.93289618E+00</totfact>
</mgrwt>
</event>
<event>
 8    1  0.1168507E-005  0.1169663E+04  0.7818608E-02  0.8629928E-01
         21   -1    0    0  503  502  0.00000000000E+00  0.00000000000E+00  0.13388705541E+04  0.13388705541E+04  0.00000000000E+00 0. -1.
         21   -1    0    0  501  503 -0.00000000000E+00 -0.00000000000E+00 -0.15026051542E+04  0.15026051542E+04  0.00000000000E+00 0. -1.
    9000010    2    1    2  501    0  0.16390557124E+03 -0.58240221469E+03 -0.88609682860E+03  0.14667328128E+04  0.10000400884E+04 0.  0.
   -9000010    2    1    2    0  502 -0.16390557124E+03  0.58240221469E+03  0.72236222852E+03  0.13747428954E+04  0.10010262052E+04 0.  0.
        -13    1    3    3    0    0  0.16120792594E+03 -0.29246184929E+03  0.16775800821E+03  0.37371739210E+03  0.10566000000E+00 0.  1.
          4    1    3    3  501    0  0.26976452998E+01 -0.28994036540E+03 -0.10538548368E+04  0.10930154207E+04  0.00000000000E+00 0.  1.
         13    1    4    4    0    0 -0.53549903508E+03  0.14935013369E+03  0.17195333870E+03  0.58192150748E+03  0.10566000000E+00 0. -1.
         -4    1    4    4    0  502  0.37159346384E+03  0.43305208100E+03  0.55040888981E+03  0.79282138796E+03  0.00000000000E+00 0. -1.
<mgrwt>
<rscale>  2 0.11694517E+04</rscale>
<asrwt>0</asrwt>
<pdfrwt beam="1">  1       21 0.20598009E+00 0.11696627E+04</pdfrwt>
<pdfrwt beam="2">  1       21 0.23117002E+00 0.11696627E+04</pdfrwt>
<totfact> 0.35122885E+00</totfact>
</mgrwt>
</event>
<event>
 8    1  0.1168507E-005  0.1103470E+04  0.7818608E-02  0.8723836E-01
         21   -1    0    0  503  502  0.00000000000E+00  0.00000000000E+00  0.18866199513E+04  0.18866199513E+04  0.00000000000E+00 0.  1.
         21   -1    0    0  501  503 -0.00000000000E+00 -0.00000000000E+00 -0.55314728498E+03  0.55314728498E+03  0.00000000000E+00 0.  1.
    9000010    2    1    2  501    0  0.30798857460E+03  0.33363500135E+03  0.75469624407E+03  0.11937222100E+04  0.80575245430E+03 0.  0.
   -9000010    2    1    2    0  502 -0.30798857460E+03 -0.33363500135E+03  0.57877642228E+03  0.12460450263E+04  0.10057220214E+04 0.  0.
        -13    1    3    3    0    0  0.27113236981E+02  0.44624335551E+02  0.78763793607E+03  0.78936682756E+03  0.10566000000E+00 0.  1.
          4    1    3    3  501    0  0.28087533762E+03  0.28901066580E+03 -0.32941692006E+02  0.40435538243E+03  0.00000000000E+00 0.  1.
         13    1    4    4    0    0  0.13647201920E+03 -0.50552356318E+03  0.56354593470E+03  0.76926114983E+03  0.10566000000E+00 0. -1.
         -4    1    4    4    0  502 -0.44446059380E+03  0.17188856182E+03  0.15230487580E+02  0.47678387649E+03  0.00000000000E+00 0. -1.
<mgrwt>
<rscale>  2 0.10558250E+04</rscale>
<asrwt>0</asrwt>
<pdfrwt beam="1">  1       21 0.29024922E+00 0.11034700E+04</pdfrwt>
<pdfrwt beam="2">  1       21 0.85099583E-01 0.11034700E+04</pdfrwt>
<totfact> 0.18442283E+01</totfact>
</mgrwt>
</event>
<event>
 8    1  0.1168507E-005  0.1076629E+04  0.7818608E-02  0.8706187E-01
         21   -1    0    0  501  502  0.00000000000E+00  0.00000000000E+00  0.13965781668E+04  0.13965781668E+04  0.00000000000E+00 0.  1.
         21   -1    0    0  502  503 -0.00000000000E+00 -0.00000000000E+00 -0.82917420743E+03  0.82917420743E+03  0.00000000000E+00 0.  1.
   -9000010    2    1    2    0  503 -0.32407802192E+03 -0.22085691752E+03  0.31748647232E+03  0.11204970268E+04  0.10004556885E+04 0.  0.
    9000010    2    1    2  501    0  0.32407802192E+03  0.22085691752E+03  0.24991748707E+03  0.11052553474E+04  0.10026596084E+04 0.  0.
        -13    1    4    4    0    0 -0.32754068674E+03  0.60997652639E+02  0.27771499909E+03  0.43373868513E+03  0.10566000000E+00 0.  1.
          4    1    4    4  501    0  0.65161870866E+03  0.15985926488E+03 -0.27797512022E+02  0.67151666228E+03  0.00000000000E+00 0.  1.
         13    1    3    3    0    0 -0.33210232279E+03 -0.40780608909E+03  0.58971128916E+03  0.79016275211E+03  0.10566000000E+00 0. -1.
         -4    1    3    3    0  503  0.80243008660E+01  0.18694917157E+03 -0.27222481685E+03  0.33033427473E+03  0.00000000000E+00 0. -1.
<mgrwt>
<rscale>  2 0.10761159E+04</rscale>
<asrwt>0</asrwt>
<pdfrwt beam="1">  1       21 0.21485818E+00 0.10766293E+04</pdfrwt>
<pdfrwt beam="2">  1       21 0.12756526E+00 0.10766293E+04</pdfrwt>
<totfact> 0.22296488E+01</totfact>
</mgrwt>
</event>
<event>
 8    1  0.1168507E-005  0.1413341E+04  0.7818608E-02  0.8476634E-01
         21   -1    0    0  503  502  0.00000000000E+00  0.00000000000E+00  0.12568807554E+04  0.12568807554E+04  0.00000000000E+00 0.  1.
         21   -1    0    0  501  503 -0.00000000000E+00 -0.00000000000E+00 -0.14849467195E+04  0.14849467195E+04  0.00000000000E+00 0.  1.
    9000010    2    1    2  501    0 -0.33546514070E+03 -0.75098571612E+03 -0.17028274905E+03  0.14235624481E+04  0.11493552204E+04 0.  0.
   -9000010    2    1    2    0  502  0.33546514070E+03  0.75098571612E+03 -0.57783215066E+02  0.13182650269E+04  0.10285754103E+04 0.  0.
        -13    1    3    3    0    0  0.14358713930E+03 -0.36221100083E+03  0.41775547724E+03  0.57125626966E+03  0.10566000000E+00 0.  1.
          4    1    3    3  501    0 -0.47905228000E+03 -0.38877471529E+03 -0.58803822629E+03  0.85230617844E+03  0.00000000000E+00 0.  1.
         13    1    4    4    0    0  0.16929836405E+03  0.80286029638E+03  0.33683054018E+03  0.88696190196E+03  0.10566000000E+00 0. -1.
         -4    1    4    4    0  502  0.16616677666E+03 -0.51874580253E+02 -0.39461375525E+03  0.43130312493E+03  0.00000000000E+00 0. -1.
<mgrwt>
<rscale>  2 0.13886141E+04</rscale>
<asrwt>0</asrwt>
<pdfrwt beam="1">  1       21 0.19336627E+00 0.14133414E+04</pdfrwt>
<pdfrwt beam="2">  1       21 0.22845334E+00 0.14133414E+04</pdfrwt>
<totfact> 0.43997626E+00</totfact>
</mgrwt>
</event>
<event>
 8    1  0.1168507E-005  0.1109803E+04  0.7818608E-02  0.8680033E-01
         21   -1    0    0  501  502  0.00000000000E+00  0.00000000000E+00  0.19391175327E+04  0.19391175327E+04  0.00000000000E+00 0.  1.
         21   -1    0    0  502  503 -0.00000000000E+00 -0.00000000000E+00 -0.65965656309E+03  0.65965656309E+03  0.00000000000E+00 0.  1.
   -9000010    2    1    2    0  503 -0.30176451613E+03  0.38888296409E+03  0.36236951893E+03  0.11674653613E+04  0.99467176426E+03 0.  0.
    9000010    2    1    2  501    0  0.30176451613E+03 -0.38888296409E+03  0.91709145067E+03  0.14313087345E+04  0.98249487609E+03 0.  0.
        -13    1    4    4    0    0  0.66088040831E+03 -0.19468605162E+03  0.61377177158E+03  0.92270329551E+03  0.10566000000E+00 0.  1.
          4    1    4    4  501    0 -0.35911589218E+03 -0.19419691247E+03  0.30331967909E+03  0.50860543897E+03  0.00000000000E+00 0.  1.
         13    1    3    3    0    0 -0.12158146035E+03 -0.28680928738E+03 -0.10226951592E+03  0.32787296912E+03  0.10566000000E+00 0. -1.
         -4    1    3    3    0  503 -0.18018305578E+03  0.67569225148E+03  0.46463903484E+03  0.83959239218E+03  0.00000000000E+00 0. -1.
<mgrwt>
<rscale>  2 0.11070683E+04</rscale>
<asrwt>0</asrwt>
<pdfrwt beam="1">  1       21 0.29832577E+00 0.11098035E+04</pdfrwt>
<pdfrwt beam="2">  1       21 0.10148563E+00 0.11098035E+04</pdfrwt>
<totfact> 0.10260138E+01</totfact>
</mgrwt>
</event>
<event>
 8    1  0.1168507E-005  0.1136839E+04  0.7818608E-02  0.8659032E-01
         21   -1    0    0  503  502  0.00000000000E+00  0.00000000000E+00  0.10799201378E+04  0.10799201378E+04  0.00000000000E+00 0. -1.
         21   -1    0    0  501  503 -0.00000000000E+00 -0.00000000000E+00 -0.12284036448E+04  0.12284036448E+04  0.00000000000E+00 0. -1.
    9000010    2    1    2  501    0 -0.42057474086E+03  0.30984986823E+03 -0.30497265834E+03  0.11770351218E+04  0.10097095137E+04 0.  0.
   -9000010    2    1    2    0  502  0.42057474086E+03 -0.30984986823E+03  0.15648915135E+03  0.11312886607E+04  0.99117865487E+03 0.  0.
        -13    1    3    3    0    0  0.15700172691E+03  0.48034287247E+03 -0.76157935377E+01  0.50540758687E+03  0.10566000000E+00 0.  1.
          4    1    3    3  501    0 -0.57757646778E+03 -0.17049300424E+03 -0.29735686480E+03  0.67162753493E+03  0.00000000000E+00 0.  1.
         13    1    4    4    0    0  0.52221309262E+03 -0.55872210241E+03 -0.85566941612E+02  0.76954442008E+03  0.10566000000E+00 0. -1.
         -4    1    4    4    0  502 -0.10163835175E+03  0.24887223418E+03  0.24205609296E+03  0.36174424063E+03  0.00000000000E+00 0. -1.
<mgrwt>
<rscale>  2 0.11327102E+04</rscale>
<asrwt>0</asrwt>
<pdfrwt beam="1">  1       21 0.16614156E+00 0.11368392E+04</pdfrwt>
<pdfrwt beam="2">  1       21 0.18898517E+00 0.11368392E+04</pdfrwt>
<totfact> 0.15654482E+01</totfact>
</mgrwt>
</event>
<event>
 8    1  0.1168507E-005  0.1119306E+04  0.7818608E-02  0.8673441E-01
         21   -1    0    0  503  502  0.00000000000E+00  0.00000000000E+00  0.10481682853E+04  0.10481682853E+04  0.00000000000E+00 0.  1.
         21   -1    0    0  501  503 -0.00000000000E+00 -0.00000000000E+00 -0.19215248557E+04  0.19215248557E+04  0.00000000000E+00 0.  1.
    9000010    2    1    2  501    0  0.48796394876E+03 -0.95521762992E+01 -0.13587493877E+04  0.17496718378E+04  0.98840861079E+03 0.  0.
   -9000010    2    1    2    0  502 -0.48796394876E+03  0.95521762992E+01  0.48539281736E+03  0.12200213033E+04  0.10072962493E+04 0.  0.
        -13    1    3    3    0    0  0.17074616466E+03  0.47485847370E+03 -0.47428173479E+03  0.69252292230E+03  0.10566000000E+00 0.  1.
          4    1    3    3  501    0  0.31721778410E+03 -0.48441065000E+03 -0.88446765293E+03  0.10571489155E+04  0.00000000000E+00 0.  1.
         13    1    4    4    0    0  0.23167879922E+03 -0.58597719703E+02 -0.12879004269E+03  0.27146941821E+03  0.10566000000E+00 0. -1.
         -4    1    4    4    0  502 -0.71964274798E+03  0.68149896003E+02  0.61418286005E+03  0.94855188505E+03  0.00000000000E+00 0. -1.
<mgrwt>
<rscale>  2 0.11150399E+04</rscale>
<asrwt>0</asrwt>
<pdfrwt beam="1">  1       21 0.16125666E+00 0.11193059E+04</pdfrwt>
<pdfrwt beam="2">  1       21 0.29561921E+00 0.11193059E+04</pdfrwt>
<totfact> 0.28096763E+00</totfact>
</mgrwt>
</event>
<event>
 8    1  0.1168507E-005  0.1121825E+04  0.7818608E-02  0.8670607E-01
         21   -1    0    0  503  502  0.00000000000E+00  0.00000000000E+00  0.82627095262E+03  0.82627095262E+03  0.00000000000E+00 0.  1.
         21   -1    0    0  501  503 -0.00000000000E+00 -0.00000000000E+00 -0.15846339654E+04  0.15846339654E+04  0.00000000000E+00 0.  1.
    9000010    2    1    2  501    0 -0.36220782905E+03 -0.32832171036E+03 -0.11129534993E+03  0.11273321551E+04  0.10097036576E+04 0.  0.
   -9000010    2    1    2    0  502  0.36220782905E+03  0.32832171036E+03 -0.64706766283E+03  0.12835727629E+04  0.99492352494E+03 0.  0.
        -13    1    3    3    0    0 -0.27922869345E+03 -0.68600104497E+03  0.97481006140E+01  0.74071663514E+03  0.10566000000E+00 0.  1.
          4    1    3    3  501    0 -0.82979135602E+02  0.35767933461E+03 -0.12104345055E+03  0.38661551995E+03  0.00000000000E+00 0.  1.
         13    1    4    4    0    0  0.14280516459E+03  0.67203350898E+03 -0.50149076666E+03  0.85059705645E+03  0.10566000000E+00 0. -1.
         -4    1    4    4    0  502  0.21940266447E+03 -0.34371179862E+03 -0.14557689617E+03  0.43297570646E+03  0.00000000000E+00 0. -1.
<mgrwt>
<rscale>  2 0.11184890E+04</rscale>
<asrwt>0</asrwt>
<pdfrwt beam="1">  1       21 0.12711861E+00 0.11218249E+04</pdfrwt>
<pdfrwt beam="2">  1       21 0.24378984E+00 0.11218249E+04</pdfrwt>
<totfact> 0.13577373E+01</totfact>
</mgrwt>
</event>
<event>
 8    1  0.1168507E-005  0.1040142E+04  0.7818608E-02  0.8738881E-01
         21   -1    0    0  501  502  0.00000000000E+00  0.00000000000E+00  0.14057102328E+04  0.14057102328E+04  0.00000000000E+00 0. -1.
         21   -1    0    0  502  503 -0.00000000000E+00 -0.00000000000E+00 -0.81928291865E+03  0.81928291865E+03  0.00000000000E+00 0. -1.
   -9000010    2    1    2    0  503 -0.22725091208E+02 -0.26988114813E+03  0.87489610070E+01  0.10352004679E+04  0.99910519990E+03 0.  0.
    9000010    2    1    2  501    0  0.22725091208E+02  0.26988114813E+03  0.57767835318E+03  0.11897926836E+04  0.10042619610E+04 0.  0.
        -13    1    4    4    0    0 -0.46730721130E+03 -0.22175638652E+02  0.29563184345E+03  0.55341303446E+03  0.10566000000E+00 0.  1.
          4    1    4    4  501    0  0.49003230251E+03  0.29205678678E+03  0.28204650973E+03  0.63637964915E+03  0.00000000000E+00 0.  1.
         13    1    3    3    0    0  0.37990356663E+03  0.17693935002E+03  0.88921266244E+02  0.42841715218E+03  0.10566000000E+00 0. -1.
         -4    1    3    3    0  503 -0.40262865784E+03 -0.44682049815E+03 -0.80172305237E+02  0.60678331569E+03  0.00000000000E+00 0. -1.
<mgrwt>
<rscale>  2 0.10388948E+04</rscale>
<asrwt>0</asrwt>
<pdfrwt beam="1">  1       21 0.21626311E+00 0.10401415E+04</pdfrwt>
<pdfrwt beam="2">  1       21 0.12604353E+00 0.10401415E+04</pdfrwt>
<totfact> 0.22698927E+01</totfact>
</mgrwt>
</event>
<event>
 8    1  0.1168507E-005  0.1079519E+04  0.7818608E-02  0.8704917E-01
         21   -1    0    0  503  502  0.00000000000E+00  0.00000000000E+00  0.13115391034E+04  0.13115391034E+04  0.00000000000E+00 0.  1.
         21   -1    0    0  501  503 -0.00000000000E+00 -0.00000000000E+00 -0.89351131299E+03  0.89351131299E+03  0.00000000000E+00 0.  1.
    9000010    2    1    2  501    0  0.42671393187E+03  0.36548586809E+02  0.84442331334E+02  0.10751651591E+04  0.98256248308E+03 0.  0.
   -9000010    2    1    2    0  502 -0.42671393187E+03 -0.36548586809E+02  0.33358545909E+03  0.11298852573E+04  0.99092928976E+03 0.  0.
        -13    1    3    3    0    0  0.65819517496E+02  0.46733344941E+03 -0.10242488122E+03  0.48293232371E+03  0.10566000000E+00 0.  1.
          4    1    3    3  501    0  0.36089441437E+03 -0.43078486260E+03  0.18686721256E+03  0.59223283538E+03  0.00000000000E+00 0.  1.
         13    1    4    4    0    0 -0.55991014889E+02 -0.64854751056E+02 -0.34534551679E+03  0.35581549940E+03  0.10566000000E+00 0. -1.
         -4    1    4    4    0  502 -0.37072291698E+03  0.28306164247E+02  0.67893097587E+03  0.77406975791E+03  0.00000000000E+00 0. -1.
<mgrwt>
<rscale>  2 0.10775952E+04</rscale>
<asrwt>0</asrwt>
<pdfrwt beam="1">  1       21 0.20177525E+00 0.10795191E+04</pdfrwt>
<pdfrwt beam="2">  1       21 0.13746328E+00 0.10795191E+04</pdfrwt>
<totfact> 0.22593634E+01</totfact>
</mgrwt>
</event>
<event>
 8    1  0.1168507E-005  0.1125684E+04  0.7818608E-02  0.8675062E-01
         21   -1    0    0  503  502  0.00000000000E+00  0.00000000000E+00  0.11285938938E+04  0.11285938938E+04  0.00000000000E+00 0.  1.
         21   -1    0    0  501  503 -0.00000000000E+00 -0.00000000000E+00 -0.11298436867E+04  0.11298436867E+04  0.00000000000E+00 0.  1.
    9000010    2    1    2  501    0 -0.19521046225E+03 -0.29874315037E+03 -0.25194892694E+03  0.11535346496E+04  0.10676185328E+04 0.  0.
   -9000010    2    1    2    0  502  0.19521046225E+03  0.29874315037E+03  0.25069913403E+03  0.11049029308E+04  0.10151875867E+04 0.  0.
        -13    1    3    3    0    0 -0.32280231716E+03 -0.66089940996E+03 -0.22247574513E+03  0.76843011028E+03  0.10566000000E+00 0.  1.
          4    1    3    3  501    0  0.12759185491E+03  0.36215625958E+03 -0.29473181812E+02  0.38510453937E+03  0.00000000000E+00 0.  1.
         13    1    4    4    0    0 -0.12299886897E+03 -0.88964851035E+02  0.51573558362E+03  0.53761200680E+03  0.10566000000E+00 0. -1.
         -4    1    4    4    0  502  0.31820933122E+03  0.38770800141E+03 -0.26503644959E+03  0.56729092399E+03  0.00000000000E+00 0. -1.
<mgrwt>
<rscale>  2 0.11130739E+04</rscale>
<asrwt>0</asrwt>
<pdfrwt beam="1">  1       21 0.17362983E+00 0.11256838E+04</pdfrwt>
<pdfrwt beam="2">  1       21 0.17382211E+00 0.11256838E+04</pdfrwt>
<totfact> 0.18044940E+01</totfact>
</mgrwt>
</event>
<event>
 8    1  0.1168507E-005  0.1393192E+04  0.7818608E-02  0.8509953E-01
         21   -1    0    0  503  502  0.00000000000E+00  0.00000000000E+00  0.23958402211E+04  0.23958402211E+04  0.00000000000E+00 0. -1.
         21   -1    0    0  501  503 -0.00000000000E+00 -0.00000000000E+00 -0.74780041917E+03  0.74780041917E+03  0.00000000000E+00 0.  1.
    9000010    2    1    2  501    0 -0.27650798362E+03 -0.56212376675E+03  0.33288198674E+03  0.12277536126E+04  0.10020622347E+04 0.  0.
   -9000010    2    1    2    0  502  0.27650798362E+03  0.56212376675E+03  0.13151578152E+04  0.19158870276E+04  0.12444047692E+04 0.  0.
        -13    1    3    3    0    0 -0.32766583566E+02 -0.37798856421E+03  0.67176980495E+03  0.77150741129E+03  0.10566000000E+00 0.  1.
          4    1    3    3  501    0 -0.24374140005E+03 -0.18413520254E+03 -0.33888781821E+03  0.45624620135E+03  0.00000000000E+00 0.  1.
         13    1    4    4    0    0  0.73031301784E+03  0.50493330887E+03  0.10906797927E+04  0.14063773220E+04  0.10566000000E+00 0. -1.
         -4    1    4    4    0  502 -0.45380503422E+03  0.57190457876E+02  0.22447802248E+03  0.50950970563E+03  0.00000000000E+00 0. -1.
<mgrwt>
<rscale>  2 0.13370293E+04</rscale>
<asrwt>0</asrwt>
<pdfrwt beam="1">  1       21 0.36859080E+00 0.13931917E+04</pdfrwt>
<pdfrwt beam="2">  1       21 0.11504622E+00 0.13931917E+04</pdfrwt>
<totfact> 0.22184636E+00</totfact>
</mgrwt>
</event>
<event>
 8    1  0.1168507E-005  0.1048753E+04  0.7818608E-02  0.8734043E-01
         21   -1    0    0  501  502  0.00000000000E+00  0.00000000000E+00  0.99019699416E+03  0.99019699416E+03  0.00000000000E+00 0.  1.
         21   -1    0    0  502  503 -0.00000000000E+00 -0.00000000000E+00 -0.11053825094E+04  0.11053825094E+04  0.00000000000E+00 0.  1.
   -9000010    2    1    2    0  503 -0.34740084852E+03 -0.34077021173E+02  0.57671012468E+02  0.10326767683E+04  0.97017873053E+03 0.  0.
    9000010    2    1    2  501    0  0.34740084852E+03  0.34077021173E+02 -0.17285652767E+03  0.10629027352E+04  0.98895614284E+03 0.  0.
        -13    1    4    4    0    0  0.22119854132E+03  0.21558453768E+03  0.36691366758E+03  0.47961561504E+03  0.10566000000E+00 0.  1.
          4    1    4    4  501    0  0.12620230720E+03 -0.18150751651E+03 -0.53977019525E+03  0.58328712018E+03  0.00000000000E+00 0.  1.
         13    1    3    3    0    0 -0.30758060421E+03  0.83833023986E+02  0.48900571517E+03  0.58374686691E+03  0.10566000000E+00 0. -1.
         -4    1    3    3    0  503 -0.39820244305E+02 -0.11791004516E+03 -0.43133470270E+03  0.44892990139E+03  0.00000000000E+00 0. -1.
<mgrwt>
<rscale>  2 0.10443028E+04</rscale>
<asrwt>0</asrwt>
<pdfrwt beam="1">  1       21 0.15233800E+00 0.10487530E+04</pdfrwt>
<pdfrwt beam="2">  1       21 0.17005885E+00 0.10487530E+04</pdfrwt>
<totfact> 0.30017028E+01</totfact>
</mgrwt>
</event>
<event>
 8    1  0.1168507E-005  0.1204055E+04  0.7818608E-02  0.8606052E-01
         21   -1    0    0  501  502  0.00000000000E+00  0.00000000000E+00  0.16441997754E+04  0.16441997754E+04  0.00000000000E+00 0.  1.
         21   -1    0    0  502  503 -0.00000000000E+00 -0.00000000000E+00 -0.87368435117E+03  0.87368435117E+03  0.00000000000E+00 0.  1.
   -9000010    2    1    2    0  503 -0.43241721713E+03  0.47971882282E+03  0.44414307020E+03  0.12833592657E+04  0.10161855831E+04 0.  0.
    9000010    2    1    2  501    0  0.43241721713E+03 -0.47971882282E+03  0.32637235404E+03  0.12345248609E+04  0.10002089382E+04 0.  0.
        -13    1    4    4    0    0  0.17386741735E+03 -0.52787285901E+03  0.62515668398E+03  0.83648103672E+03  0.10566000000E+00 0.  1.
          4    1    4    4  501    0  0.25854979978E+03  0.48154036186E+02 -0.29878432995E+03  0.39804382421E+03  0.00000000000E+00 0.  1.
         13    1    3    3    0    0 -0.46546468950E+03 -0.16751858592E+03  0.39568104579E+03  0.63346930072E+03  0.10566000000E+00 0. -1.
         -4    1    3    3    0  503  0.33047472369E+02  0.64723740875E+03  0.48462024415E+02  0.64988996493E+03  0.00000000000E+00 0. -1.
<mgrwt>
<rscale>  2 0.12006774E+04</rscale>
<asrwt>0</asrwt>
<pdfrwt beam="1">  1       21 0.25295381E+00 0.12040548E+04</pdfrwt>
<pdfrwt beam="2">  1       21 0.13441298E+00 0.12040548E+04</pdfrwt>
<totfact> 0.97329300E+00</totfact>
</mgrwt>
</event>
<event>
 8    1  0.1168507E-005  0.1117519E+04  0.7818608E-02  0.8672877E-01
         21   -1    0    0  501  502  0.00000000000E+00  0.00000000000E+00  0.57453843989E+03  0.57453843989E+03  0.00000000000E+00 0. -1.
         21   -1    0    0  502  503 -0.00000000000E+00 -0.00000000000E+00 -0.26421743821E+04  0.26421743821E+04  0.00000000000E+00 0. -1.
   -9000010    2    1    2    0  503  0.41838237971E+03 -0.21936509537E+03 -0.17183456863E+04  0.20458791914E+04  0.10048606409E+04 0.  0.
    9000010    2    1    2  501    0 -0.41838237971E+03  0.21936509537E+03 -0.34929025593E+03  0.11708336306E+04  0.10127600144E+04 0.  0.
        -13    1    4    4    0    0  0.55123896335E+02 -0.30173212006E+03 -0.35179451281E+03  0.46673365705E+03  0.10566000000E+00 0.  1.
          4    1    4    4  501    0 -0.47350627605E+03  0.52109721543E+03  0.25042568753E+01  0.70409997350E+03  0.00000000000E+00 0.  1.
         13    1    3    3    0    0  0.26909782604E+03  0.37465108659E+03 -0.48798172641E+03  0.67149330089E+03  0.10566000000E+00 0. -1.
         -4    1    3    3    0  503  0.14928455367E+03 -0.59401618196E+03 -0.12303639598E+04  0.13743858905E+04  0.00000000000E+00 0. -1.
<mgrwt>
<rscale>  2 0.11157258E+04</rscale>
<asrwt>0</asrwt>
<pdfrwt beam="1">  1       21 0.88390530E-01 0.11175185E+04</pdfrwt>
<pdfrwt beam="2">  1       21 0.40648836E+00 0.11175185E+04</pdfrwt>
<totfact> 0.25504415E+00</totfact>
</mgrwt>
</event>
<event>
 8    1  0.1168507E-005  0.1244500E+04  0.7818608E-02  0.8587339E-01
         21   -1    0    0  501  502  0.00000000000E+00  0.00000000000E+00  0.15105683027E+04  0.15105683027E+04  0.00000000000E+00 0.  1.
         21   -1    0    0  502  503 -0.00000000000E+00 -0.00000000000E+00 -0.14850875210E+04  0.14850875210E+04  0.00000000000E+00 0.  1.
   -9000010    2    1    2    0  503 -0.60691581957E+03  0.13494434175E+03 -0.87268180809E+03  0.14608996576E+04  0.99302441263E+03 0.  0.
    9000010    2    1    2  501    0  0.60691581957E+03 -0.13494434175E+03  0.89816258974E+03  0.15347561661E+04  0.10780647774E+04 0.  0.
        -13    1    4    4    0    0 -0.29836736061E+03 -0.14958232017E+03  0.30673765904E+03  0.45330558680E+03  0.10566000000E+00 0.  1.
          4    1    4    4  501    0  0.90528318018E+03  0.14637978421E+02  0.59142493070E+03  0.10814505793E+04  0.00000000000E+00 0.  1.
         13    1    3    3    0    0  0.92336005612E+02 -0.18791549942E+03 -0.61354140583E+03  0.64828330280E+03  0.10566000000E+00 0. -1.
         -4    1    3    3    0  503 -0.69925182518E+03  0.32285984117E+03 -0.25914040226E+03  0.81261635483E+03  0.00000000000E+00 0. -1.
<mgrwt>
<rscale>  2 0.12258613E+04</rscale>
<asrwt>0</asrwt>
<pdfrwt beam="1">  1       21 0.23239512E+00 0.12445001E+04</pdfrwt>
<pdfrwt beam="2">  1       21 0.22847500E+00 0.12445001E+04</pdfrwt>
<totfact> 0.22832284E+00</totfact>
</mgrwt>
</event>
<event>
 8    1  0.1168507E-005  0.1196632E+04  0.7818608E-02  0.8640351E-01
         21   -1    0    0  503  502  0.00000000000E+00  0.00000000000E+00  0.88959585841E+03  0.88959585841E+03  0.00000000000E+00 0. -1.
         21   -1    0    0  501  503 -0.00000000000E+00 -0.00000000000E+00 -0.14195107382E+04  0.14195107382E+04  0.00000000000E+00 0. -1.
    9000010    2    1    2  501    0 -0.60129357299E+03  0.76669497288E+02 -0.18484313902E+03  0.12108238343E+04  0.10317437661E+04 0.  0.
   -9000010    2    1    2    0  502  0.60129357299E+03 -0.76669497288E+02 -0.34507174078E+03  0.10982827624E+04  0.84836215561E+03 0.  0.
        -13    1    3    3    0    0 -0.49337150346E+03 -0.30302904271E+03 -0.45169403416E+03  0.73434974829E+03  0.10566000000E+00 0.  1.
          4    1    3    3  501    0 -0.10792206954E+03  0.37969853999E+03  0.26685089514E+03  0.47647408597E+03  0.00000000000E+00 0.  1.
         13    1    4    4    0    0  0.66853134348E+03 -0.35072682141E+03 -0.19998959843E+03  0.78098611454E+03  0.10566000000E+00 0. -1.
         -4    1    4    4    0  502 -0.67237770483E+02  0.27405732412E+03 -0.14508214236E+03  0.31729664782E+03  0.00000000000E+00 0. -1.
<mgrwt>
<rscale>  2 0.11561298E+04</rscale>
<asrwt>0</asrwt>
<pdfrwt beam="1">  1       21 0.13686090E+00 0.11966317E+04</pdfrwt>
<pdfrwt beam="2">  1       21 0.21838627E+00 0.11966317E+04</pdfrwt>
<totfact> 0.16661666E+01</totfact>
</mgrwt>
</event>
<event>
 8    1  0.1168507E-005  0.1116793E+04  0.7818608E-02  0.8677669E-01
         21   -1    0    0  503  502  0.00000000000E+00  0.00000000000E+00  0.95828043841E+03  0.95828043841E+03  0.00000000000E+00 0. -1.
         21   -1    0    0  501  503 -0.00000000000E+00 -0.00000000000E+00 -0.12708935707E+04  0.12708935707E+04  0.00000000000E+00 0. -1.
    9000010    2    1    2  501    0  0.32501529381E+03 -0.30480802494E+03 -0.12434440157E+03  0.10966229342E+04  0.99427232500E+03 0.  0.
   -9000010    2    1    2    0  502 -0.32501529381E+03  0.30480802494E+03 -0.18826873069E+03  0.11325510749E+04  0.10240527081E+04 0.  0.
        -13    1    3    3    0    0  0.35624820476E+03  0.37346860642E+02 -0.48209862354E+03  0.60060524921E+03  0.10566000000E+00 0.  1.
          4    1    3    3  501    0 -0.31232910948E+02 -0.34215488558E+03  0.35775422197E+03  0.49601768496E+03  0.00000000000E+00 0.  1.
         13    1    4    4    0    0  0.30698258367E+03  0.14296575802E+03  0.17988266895E+03  0.38345182278E+03  0.10566000000E+00 0. -1.
         -4    1    4    4    0  502 -0.63199787748E+03  0.16184226692E+03 -0.36815139964E+03  0.74909925214E+03  0.00000000000E+00 0. -1.
<mgrwt>
<rscale>  2 0.11099192E+04</rscale>
<asrwt>0</asrwt>
<pdfrwt beam="1">  1       21 0.14742776E+00 0.11167931E+04</pdfrwt>
<pdfrwt beam="2">  1       21 0.19552209E+00 0.11167931E+04</pdfrwt>
<totfact> 0.20328754E+01</totfact>
</mgrwt>
</event>
<event>
 8    1  0.1168507E-005  0.1319839E+04  0.7818608E-02  0.8523200E-01
         21   -1    0    0  501  502  0.00000000000E+00  0.00000000000E+00  0.15495457272E+04  0.15495457272E+04  0.00000000000E+00 0.  1.
         21   -1    0    0  502  503 -0.00000000000E+00 -0.00000000000E+00 -0.13833085894E+04  0.13833085894E+04  0.00000000000E+00 0. -1.
   -9000010    2    1    2    0  503 -0.63110212254E+03  0.56461924082E+03 -0.56284403740E+03  0.14250303497E+04  0.99841539995E+03 0.  0.
    9000010    2    1    2  501    0  0.63110212254E+03 -0.56461924082E+03  0.72908117520E+03  0.15078239670E+04  0.10123680058E+04 0.  0.
        -13    1    4    4    0    0  0.10313485645E+03  0.19654394249E+03 -0.11904007368E+03  0.25186677084E+03  0.10566000000E+00 0.  1.
          4    1    4    4  501    0  0.52796726609E+03 -0.76116318331E+03  0.84812124888E+03  0.12559571961E+04  0.00000000000E+00 0.  1.
         13    1    3    3    0    0 -0.22445342257E+03 -0.23439925999E+03  0.64385340359E+02  0.33085923775E+03  0.10566000000E+00 0. -1.
         -4    1    3    3    0  503 -0.40664869997E+03  0.79901850081E+03 -0.62722937776E+03  0.10941711119E+04  0.00000000000E+00 0. -1.
<mgrwt>
<rscale>  2 0.13171625E+04</rscale>
<asrwt>0</asrwt>
<pdfrwt beam="1">  1       21 0.23839165E+00 0.13198385E+04</pdfrwt>
<pdfrwt beam="2">  1       21 0.21281671E+00 0.13198385E+04</pdfrwt>
<totfact> 0.26644487E+00</totfact>
</mgrwt>
</event>
<event>
 8    1  0.1168507E-005  0.1101209E+04  0.7818608E-02  0.8694313E-01
         21   -1    0    0  501  502  0.00000000000E+00  0.00000000000E+00  0.30397011584E+04  0.30397011584E+04  0.00000000000E+00 0. -1.
         21   -1    0    0  502  503 -0.00000000000E+00 -0.00000000000E+00 -0.38507415095E+03  0.38507415095E+03  0.00000000000E+00 0. -1.
   -9000010    2    1    2    0  503 -0.36349037546E+03 -0.26679041829E+03  0.14212485514E+04  0.17713289936E+04  0.95621994247E+03 0.  0.
    9000010    2    1    2  501    0  0.36349037546E+03  0.26679041829E+03  0.12333784560E+04  0.16534463157E+04  0.10046690614E+04 0.  0.
        -13    1    4    4    0    0  0.69381513586E+03  0.30117056891E+02  0.79895497618E+03  0.10585913022E+04  0.10566000000E+00 0.  1.
          4    1    4    4  501    0 -0.33032476040E+03  0.23667336140E+03  0.43442347983E+03  0.59485501356E+03  0.00000000000E+00 0.  1.
         13    1    3    3    0    0  0.82009251739E+02 -0.23254719710E+03  0.12788013154E+04  0.13023580659E+04  0.10566000000E+00 0. -1.
         -4    1    3    3    0  503 -0.44549962720E+03 -0.34243221187E+02  0.14244723601E+03  0.46897092776E+03  0.00000000000E+00 0. -1.
<mgrwt>
<rscale>  2 0.10900367E+04</rscale>
<asrwt>0</asrwt>
<pdfrwt beam="1">  1       21 0.46764632E+00 0.11012095E+04</pdfrwt>
<pdfrwt beam="2">  1       21 0.59242179E-01 0.11012095E+04</pdfrwt>
<totfact> 0.25203544E+00</totfact>
</mgrwt>
</event>
<event>
 8    1  0.1168507E-005  0.1163432E+04  0.7818608E-02  0.8649628E-01
         21   -1    0    0  503  502  0.00000000000E+00  0.00000000000E+00  0.74103544341E+03  0.74103544341E+03  0.00000000000E+00 0.  1.
         21   -1    0    0  501  503 -0.00000000000E+00 -0.00000000000E+00 -0.19358755036E+04  0.19358755036E+04  0.00000000000E+00 0.  1.
    9000010    2    1    2  501    0 -0.10471380501E+03  0.56738071190E+03 -0.10697708692E+04  0.15805010097E+04  0.10102909856E+04 0.  0.
   -9000010    2    1    2    0  502  0.10471380501E+03 -0.56738071190E+03 -0.12506919093E+03  0.10964099373E+04  0.92389750242E+03 0.  0.
        -13    1    3    3    0    0 -0.37351736314E+02 -0.16605231522E+03 -0.76451048790E+03  0.78322718343E+03  0.10566000000E+00 0.  1.
          4    1    3    3  501    0 -0.67362068693E+02  0.73343302712E+03 -0.30526038135E+03  0.79727382623E+03  0.00000000000E+00 0.  1.
         13    1    4    4    0    0 -0.29687525772E+03 -0.17717319491E+03  0.24631975393E+03  0.42449816487E+03  0.10566000000E+00 0. -1.
         -4    1    4    4    0  502  0.40158906273E+03 -0.39020751699E+03 -0.37138894485E+03  0.67191177247E+03  0.00000000000E+00 0. -1.
<mgrwt>
<rscale>  2 0.11444266E+04</rscale>
<asrwt>0</asrwt>
<pdfrwt beam="1">  1       21 0.11400545E+00 0.11634319E+04</pdfrwt>
<pdfrwt beam="2">  1       21 0.29782699E+00 0.11634319E+04</pdfrwt>
<totfact> 0.74770658E+00</totfact>
</mgrwt>
</event>
<event>
 8    1  0.1168507E-005  0.1053064E+04  0.7818608E-02  0.8726687E-01
         21   -1    0    0  501  502  0.00000000000E+00  0.00000000000E+00  0.14811062716E+04  0.14811062716E+04  0.00000000000E+00 0. -1.
         21   -1    0    0  502  503 -0.00000000000E+00 -0.00000000000E+00 -0.76745837515E+03  0.76745837515E+03  0.00000000000E+00 0. -1.
   -9000010    2    1    2    0  503 -0.33723521007E+03  0.39759429315E+02  0.53834685150E+03  0.11810093006E+04  0.99481517698E+03 0.  0.
    9000010    2    1    2  501    0  0.33723521007E+03 -0.39759429315E+02  0.17530104498E+03  0.10675553462E+04  0.99681270143E+03 0.  0.
        -13    1    4    4    0    0 -0.34605910667E+03 -0.93450865526E+02 -0.62793179972E+01  0.35850998672E+03  0.10566000000E+00 0.  1.
          4    1    4    4  501    0  0.68329431674E+03  0.53691436211E+02  0.18158036298E+03  0.70904535950E+03  0.00000000000E+00 0.  1.
         13    1    3    3    0    0 -0.14448280893E+03  0.49532795396E+03  0.11204899931E+03  0.52799626273E+03  0.10566000000E+00 0. -1.
         -4    1    3    3    0  503 -0.19275240114E+03 -0.45556852464E+03  0.42629785219E+03  0.65301303783E+03  0.00000000000E+00 0. -1.
<mgrwt>
<rscale>  2 0.10525911E+04</rscale>
<asrwt>0</asrwt>
<pdfrwt beam="1">  1       21 0.22786250E+00 0.10530641E+04</pdfrwt>
<pdfrwt beam="2">  1       21 0.11807052E+00 0.10530641E+04</pdfrwt>
<totfact> 0.22258572E+01</totfact>
</mgrwt>
</event>
<event>
 8    1  0.1168507E-005  0.1041275E+04  0.7818608E-02  0.8736862E-01
         21   -1    0    0  501  502  0.00000000000E+00  0.00000000000E+00  0.56202400228E+03  0.56202400228E+03  0.00000000000E+00 0.  1.
         21   -1    0    0  502  503 -0.00000000000E+00 -0.00000000000E+00 -0.23464277587E+04  0.23464277587E+04  0.00000000000E+00 0.  1.
   -9000010    2    1    2    0  503 -0.18398435461E+03 -0.23466894524E+03 -0.15059366665E+04  0.18305849988E+04  0.99713411217E+03 0.  0.
    9000010    2    1    2  501    0  0.18398435461E+03  0.23466894524E+03 -0.27846708990E+03  0.10778667622E+04  0.99766381124E+03 0.  0.
        -13    1    4    4    0    0  0.91322220703E+02  0.57761035001E+03 -0.39305530791E+03  0.70460339956E+03  0.10566000000E+00 0.  1.
          4    1    4    4  501    0  0.92662133906E+02 -0.34294140477E+03  0.11458821801E+03  0.37326336262E+03  0.00000000000E+00 0.  1.
         13    1    3    3    0    0 -0.23929173544E+03  0.14123619036E+03 -0.42046742807E+00  0.27786396685E+03  0.10566000000E+00 0. -1.
         -4    1    3    3    0  503  0.55307380831E+02 -0.37590513560E+03 -0.15055161991E+04  0.15527210319E+04  0.00000000000E+00 0. -1.
<mgrwt>
<rscale>  2 0.10411477E+04</rscale>
<asrwt>0</asrwt>
<pdfrwt beam="1">  1       21 0.86465232E-01 0.10412746E+04</pdfrwt>
<pdfrwt beam="2">  1       21 0.36098888E+00 0.10412746E+04</pdfrwt>
<totfact> 0.57080943E+00</totfact>
</mgrwt>
</event>
<event>
 8    1  0.1168507E-005  0.1067581E+04  0.7818608E-02  0.8722185E-01
         21   -1    0    0  501  502  0.00000000000E+00  0.00000000000E+00  0.19637762254E+04  0.19637762254E+04  0.00000000000E+00 0. -1.
         21   -1    0    0  502  503 -0.00000000000E+00 -0.00000000000E+00 -0.56967616272E+03  0.56967616272E+03  0.00000000000E+00 0. -1.
   -9000010    2    1    2    0  503 -0.18521257899E+03 -0.30758158510E+03  0.53956388974E+03  0.11961847827E+04  0.10053948042E+04 0.  0.
    9000010    2    1    2  501    0  0.18521257899E+03  0.30758158510E+03  0.85453617293E+03  0.13372676055E+04  0.96392035295E+03 0.  0.
        -13    1    4    4    0    0 -0.16464559077E+03  0.17719468242E+03  0.92604779418E+03  0.95711579984E+03  0.10566000000E+00 0.  1.
          4    1    4    4  501    0  0.34985816976E+03  0.13038690268E+03 -0.71511621242E+02  0.38015180561E+03  0.00000000000E+00 0.  1.
         13    1    3    3    0    0  0.23335897286E+02 -0.41944981629E+03 -0.16621472601E+03  0.45178541232E+03  0.10566000000E+00 0. -1.
         -4    1    3    3    0  503 -0.20854847627E+03  0.11186823118E+03  0.70577861575E+03  0.74439937033E+03  0.00000000000E+00 0. -1.
<mgrwt>
<rscale>  2 0.10577036E+04</rscale>
<asrwt>0</asrwt>
<pdfrwt beam="1">  1       21 0.30211942E+00 0.10675808E+04</pdfrwt>
<pdfrwt beam="2">  1       21 0.87642487E-01 0.10675808E+04</pdfrwt>
<totfact> 0.14207520E+01</totfact>
</mgrwt>
</event>
<event>
 8    1  0.1168507E-005  0.1573683E+04  0.7818608E-02  0.8368765E-01
         21   -1    0    0  501  502  0.00000000000E+00  0.00000000000E+00  0.19469466040E+04  0.19469466040E+04  0.00000000000E+00 0.  1.
         21   -1    0    0  502  503 -0.00000000000E+00 -0.00000000000E+00 -0.12955676256E+04  0.12955676256E+04  0.00000000000E+00 0. -1.
   -9000010    2    1    2    0  503 -0.10318036864E+04  0.58894426186E+03  0.95154885239E+02  0.15765569644E+04  0.10319899317E+04 0.  0.
    9000010    2    1    2  501    0  0.10318036864E+04 -0.58894426186E+03  0.55622409316E+03  0.16659572653E+04  0.10269148831E+04 0.  0.
        -13    1    4    4    0    0  0.10511070584E+04 -0.79583276739E+03  0.60796434874E+03  0.14518252314E+04  0.10566000000E+00 0.  1.
          4    1    4    4  501    0 -0.19303372066E+02  0.20688850553E+03 -0.51740255575E+02  0.21413203390E+03  0.00000000000E+00 0.  1.
         13    1    3    3    0    0 -0.11034443708E+04  0.71172117055E+03  0.28078658792E+03  0.13427500226E+04  0.10566000000E+00 0. -1.
         -4    1    3    3    0  503  0.71640684483E+02 -0.12277690869E+03 -0.18563170268E+03  0.23380694178E+03  0.00000000000E+00 0. -1.
<mgrwt>
<rscale>  2 0.15728512E+04</rscale>
<asrwt>0</asrwt>
<pdfrwt beam="1">  1       21 0.29953025E+00 0.15736828E+04</pdfrwt>
<pdfrwt beam="2">  1       21 0.19931810E+00 0.15736828E+04</pdfrwt>
<totfact> 0.11727233E+00</totfact>
</mgrwt>
</event>
<event>
 8    1  0.1168507E-005  0.1033197E+04  0.7818608E-02  0.8814110E-01
         21   -1    0    0  503  502  0.00000000000E+00  0.00000000000E+00  0.14387667055E+04  0.14387667055E+04  0.00000000000E+00 0. -1.
         21   -1    0    0  501  503 -0.00000000000E+00 -0.00000000000E+00 -0.57510995206E+03  0.57510995206E+03  0.00000000000E+00 0. -1.
    9000010    2    1    2  501    0  0.24705041095E+03 -0.16466713025E+03  0.22474054877E+03  0.79908887317E+03  0.70702584368E+03 0.  0.
   -9000010    2    1    2    0  502 -0.24705041095E+03  0.16466713025E+03  0.63891620465E+03  0.12147877844E+04  0.98961925768E+03 0.  0.
        -13    1    3    3    0    0  0.77134086703E+02 -0.21938450218E+03 -0.21983706981E+03  0.32001183659E+03  0.10566000000E+00 0.  1.
          4    1    3    3  501    0  0.16991632425E+03  0.54717371936E+02  0.44457761858E+03  0.47907703658E+03  0.00000000000E+00 0.  1.
         13    1    4    4    0    0 -0.26118083749E+03  0.47682147409E+03  0.47299459570E+02  0.54572098921E+03  0.10566000000E+00 0. -1.
         -4    1    4    4    0  502  0.14130426542E+02 -0.31215434384E+03  0.59161674508E+03  0.66906679516E+03  0.00000000000E+00 0. -1.
<mgrwt>
<rscale>  2 0.95898681E+03</rscale>
<asrwt>0</asrwt>
<pdfrwt beam="1">  1       21 0.22134872E+00 0.10331967E+04</pdfrwt>
<pdfrwt beam="2">  1       21 0.88478455E-01 0.10331967E+04</pdfrwt>
<totfact> 0.53631226E+01</totfact>
</mgrwt>
</event>
<event>
 8    1  0.1168507E-005  0.1219500E+04  0.7818608E-02  0.8592973E-01
         21   -1    0    0  503  502  0.00000000000E+00  0.00000000000E+00  0.12635513166E+04  0.12635513166E+04  0.00000000000E+00 0. -1.
         21   -1    0    0  501  503 -0.00000000000E+00 -0.00000000000E+00 -0.11742714803E+04  0.11742714803E+04  0.00000000000E+00 0. -1.
    9000010    2    1    2  501    0 -0.67036051050E+03  0.17363807967E+03 -0.87354374954E+01  0.12143901834E+04  0.99756393931E+03 0.  0.
   -9000010    2    1    2    0  502  0.67036051050E+03 -0.17363807967E+03  0.98015273733E+02  0.12234326135E+04  0.10038162029E+04 0.  0.
        -13    1    3    3    0    0 -0.23216012105E+03 -0.40429057313E+03  0.11115386331E+03  0.47927484998E+03  0.10566000000E+00 0.  1.
          4    1    3    3  501    0 -0.43820038945E+03  0.57792865280E+03 -0.11988930081E+03  0.73511533346E+03  0.00000000000E+00 0.  1.
         13    1    4    4    0    0  0.76023441600E+02  0.13241955605E+03 -0.37473740238E+03  0.40465125035E+03  0.10566000000E+00 0. -1.
         -4    1    4    4    0  502  0.59433706890E+03 -0.30605763573E+03  0.47275267612E+03  0.81878136314E+03  0.00000000000E+00 0. -1.
<mgrwt>
<rscale>  2 0.12182127E+04</rscale>
<asrwt>0</asrwt>
<pdfrwt beam="1">  1       21 0.19439251E+00 0.12195000E+04</pdfrwt>
<pdfrwt beam="2">  1       21 0.18065715E+00 0.12195000E+04</pdfrwt>
<totfact> 0.10554050E+01</totfact>
</mgrwt>
</event>
<event>
 8    1  0.1168507E-005  0.1154373E+04  0.7818608E-02  0.8643911E-01
         21   -1    0    0  501  502  0.00000000000E+00  0.00000000000E+00  0.21069572076E+04  0.21069572076E+04  0.00000000000E+00 0.  1.
         21   -1    0    0  502  503 -0.00000000000E+00 -0.00000000000E+00 -0.62942912018E+03  0.62942912018E+03  0.00000000000E+00 0.  1.
   -9000010    2    1    2    0  503  0.53501223217E+03  0.19779720877E+03  0.83608620280E+03  0.14253481307E+04  0.10036011812E+04 0.  0.
    9000010    2    1    2  501    0 -0.53501223217E+03 -0.19779720877E+03  0.64144188461E+03  0.13110381970E+04  0.99096500360E+03 0.  0.
        -13    1    4    4    0    0 -0.22274334793E+03  0.38872191151E+03  0.41032512928E+03  0.60752452330E+03  0.10566000000E+00 0.  1.
          4    1    4    4  501    0 -0.31226888424E+03 -0.58651912028E+03  0.23111675534E+03  0.70351367373E+03  0.00000000000E+00 0.  1.
         13    1    3    3    0    0 -0.15367773812E+03  0.74155167423E+02 -0.14252474719E+03  0.22232667581E+03  0.10566000000E+00 0. -1.
         -4    1    3    3    0  503  0.68868997030E+03  0.12364204135E+03  0.97861094999E+03  0.12030214549E+04  0.00000000000E+00 0. -1.
<mgrwt>
<rscale>  2 0.11516211E+04</rscale>
<asrwt>0</asrwt>
<pdfrwt beam="1">  1       21 0.32414726E+00 0.11543731E+04</pdfrwt>
<pdfrwt beam="2">  1       21 0.96835250E-01 0.11543731E+04</pdfrwt>
<totfact> 0.75560915E+00</totfact>
</mgrwt>
</event>
<event>
 8    1  0.1168507E-005  0.1189770E+04  0.7818608E-02  0.8643757E-01
         21   -1    0    0  503  502  0.00000000000E+00  0.00000000000E+00  0.11273532275E+04  0.11273532275E+04  0.00000000000E+00 0.  1.
         21   -1    0    0  501  503 -0.00000000000E+00 -0.00000000000E+00 -0.11097054360E+04  0.11097054360E+04  0.00000000000E+00 0.  1.
    9000010    2    1    2  501    0  0.80662480144E+02 -0.33356674913E+03 -0.40726973753E+02  0.10458574334E+04  0.98710985847E+03 0.  0.
   -9000010    2    1    2    0  502 -0.80662480144E+02  0.33356674913E+03  0.58374765229E+02  0.11912012302E+04  0.11392012754E+04 0.  0.
        -13    1    3    3    0    0 -0.43699388499E+03 -0.15101631536E+03  0.11275330710E+03  0.47590219841E+03  0.10566000000E+00 0.  1.
          4    1    3    3  501    0  0.51765636514E+03 -0.18255043377E+03 -0.15348028085E+03  0.56995523495E+03  0.00000000000E+00 0.  1.
         13    1    4    4    0    0  0.31180920590E+03 -0.30293087589E+03  0.84961195721E+02  0.44295655813E+03  0.10566000000E+00 0. -1.
         -4    1    4    4    0  502 -0.39247168604E+03  0.63649762502E+03 -0.26586430492E+02  0.74824467207E+03  0.00000000000E+00 0. -1.
<mgrwt>
<rscale>  2 0.11518157E+04</rscale>
<asrwt>0</asrwt>
<pdfrwt beam="1">  1       21 0.17343896E+00 0.11897700E+04</pdfrwt>
<pdfrwt beam="2">  1       21 0.17072391E+00 0.11897700E+04</pdfrwt>
<totfact> 0.18972913E+01</totfact>
</mgrwt>
</event>
<event>
 8    1  0.1168507E-005  0.1311398E+04  0.7818608E-02  0.8528083E-01
         21   -1    0    0  501  502  0.00000000000E+00  0.00000000000E+00  0.91263797143E+03  0.91263797143E+03  0.00000000000E+00 0. -1.
         21   -1    0    0  502  503 -0.00000000000E+00 -0.00000000000E+00 -0.18773474774E+04  0.18773474774E+04  0.00000000000E+00 0. -1.
   -9000010    2    1    2    0  503 -0.79017821187E+03  0.27990806271E+03 -0.52126608782E+03  0.14111986940E+04  0.10084806838E+04 0.  0.
    9000010    2    1    2  501    0  0.79017821187E+03 -0.27990806271E+03 -0.44344341810E+03  0.13787867548E+04  0.10008400072E+04 0.  0.
        -13    1    4    4    0    0  0.88598295220E+03  0.42980787649E+02 -0.91628015838E+02  0.89174483130E+03  0.10566000000E+00 0.  1.
          4    1    4    4  501    0 -0.95804740336E+02 -0.32288885036E+03 -0.35181540226E+03  0.48704192348E+03  0.00000000000E+00 0.  1.
         13    1    3    3    0    0 -0.45881391773E+03  0.64070854148E+03 -0.16412332660E+03  0.80495597627E+03  0.10566000000E+00 0. -1.
         -4    1    3    3    0  503 -0.33136429414E+03 -0.36080047877E+03 -0.35714276122E+03  0.60624271773E+03  0.00000000000E+00 0. -1.
<mgrwt>
<rscale>  2 0.13099284E+04</rscale>
<asrwt>0</asrwt>
<pdfrwt beam="1">  1       21 0.14040584E+00 0.13113975E+04</pdfrwt>
<pdfrwt beam="2">  1       21 0.28882269E+00 0.13113975E+04</pdfrwt>
<totfact> 0.46266293E+00</totfact>
</mgrwt>
</event>
<event>
 8    1  0.1168507E-005  0.1298459E+04  0.7818608E-02  0.8546892E-01
         21   -1    0    0  503  502  0.00000000000E+00  0.00000000000E+00  0.14393094372E+04  0.14393094372E+04  0.00000000000E+00 0.  1.
         21   -1    0    0  501  503 -0.00000000000E+00 -0.00000000000E+00 -0.11186755869E+04  0.11186755869E+04  0.00000000000E+00 0. -1.
    9000010    2    1    2  501    0  0.59227558917E+03 -0.58439368286E+03  0.89018565948E+02  0.12390300024E+04  0.91376402401E+03 0.  0.
   -9000010    2    1    2    0  502 -0.59227558917E+03  0.58439368286E+03  0.23161528438E+03  0.13189550217E+04  0.99684018741E+03 0.  0.
        -13    1    3    3    0    0 -0.16700383735E+02 -0.98275828240E+02 -0.33667584907E+03  0.35112345371E+03  0.10566000000E+00 0.  1.
          4    1    3    3  501    0  0.60897597290E+03 -0.48611785462E+03  0.42569441502E+03  0.88790654865E+03  0.00000000000E+00 0.  1.
         13    1    4    4    0    0 -0.18538194499E+03  0.58624348156E+03  0.53210263607E+03  0.81313043952E+03  0.10566000000E+00 0. -1.
         -4    1    4    4    0  502 -0.40689364417E+03 -0.18497986982E+01 -0.30048735168E+03  0.50582458219E+03  0.00000000000E+00 0. -1.
<mgrwt>
<rscale>  2 0.12825101E+04</rscale>
<asrwt>0</asrwt>
<pdfrwt beam="1">  1       21 0.22143222E+00 0.12984594E+04</pdfrwt>
<pdfrwt beam="2">  1       21 0.17210394E+00 0.12984594E+04</pdfrwt>
<totfact> 0.75634114E+00</totfact>
</mgrwt>
</event>
<event>
 8    1  0.1168507E-005  0.1031509E+04  0.7818608E-02  0.8768199E-01
         21   -1    0    0  501  502  0.00000000000E+00  0.00000000000E+00  0.10049066792E+04  0.10049066792E+04  0.00000000000E+00 0.  1.
         21   -1    0    0  502  503 -0.00000000000E+00 -0.00000000000E+00 -0.96649682651E+03  0.96649682651E+03  0.00000000000E+00 0.  1.
   -9000010    2    1    2    0  503 -0.34961693318E+03  0.10416766487E+03  0.74651434400E+02  0.93925807301E+03  0.86229344697E+03 0.  0.
    9000010    2    1    2  501    0  0.34961693318E+03 -0.10416766487E+03 -0.36241581723E+02  0.10321454327E+04  0.96484601859E+03 0.  0.
        -13    1    4    4    0    0 -0.21798698694E+03  0.10924723623E+03  0.26069111326E+03  0.35694979030E+03  0.10566000000E+00 0.  1.
          4    1    4    4  501    0  0.56760392012E+03 -0.21341490109E+03 -0.29693269498E+03  0.67519564238E+03  0.00000000000E+00 0.  1.
         13    1    3    3    0    0 -0.52188146175E+03  0.68454871898E+02  0.33582385671E+03  0.62435887397E+03  0.10566000000E+00 0. -1.
         -4    1    3    3    0  503  0.17226452857E+03  0.35712792968E+02 -0.26117242231E+03  0.31489919904E+03  0.00000000000E+00 0. -1.
<mgrwt>
<rscale>  2 0.10068319E+04</rscale>
<asrwt>0</asrwt>
<pdfrwt beam="1">  1       21 0.15460103E+00 0.10315090E+04</pdfrwt>
<pdfrwt beam="2">  1       21 0.14869182E+00 0.10315090E+04</pdfrwt>
<totfact> 0.44053290E+01</totfact>
</mgrwt>
</event>
<event>
 8    1  0.1168507E-005  0.1172373E+04  0.7818608E-02  0.8628106E-01
         21   -1    0    0  503  502  0.00000000000E+00  0.00000000000E+00  0.15260528031E+04  0.15260528031E+04  0.00000000000E+00 0. -1.
         21   -1    0    0  501  503 -0.00000000000E+00 -0.00000000000E+00 -0.90015366875E+03  0.90015366875E+03  0.00000000000E+00 0. -1.
    9000010    2    1    2  501    0 -0.15154701680E+03 -0.58574788181E+03  0.35851935510E+03  0.12259671904E+04  0.10041874051E+04 0.  0.
   -9000010    2    1    2    0  502  0.15154701680E+03  0.58574788181E+03  0.26737977927E+03  0.12002392815E+04  0.10015065188E+04 0.  0.
        -13    1    3    3    0    0  0.18790365153E+03 -0.40969103306E+02  0.52812930860E+03  0.56205589353E+03  0.10566000000E+00 0.  1.
          4    1    3    3  501    0 -0.33945066833E+03 -0.54477877850E+03 -0.16960995350E+03  0.66391129683E+03  0.00000000000E+00 0.  1.
         13    1    4    4    0    0  0.44615988944E+03  0.32067705243E+03  0.49814002046E+03  0.74164405887E+03  0.10566000000E+00 0. -1.
         -4    1    4    4    0  502 -0.29461287265E+03  0.26507082937E+03 -0.23076024119E+03  0.45859522264E+03  0.00000000000E+00 0. -1.
<mgrwt>
<rscale>  2 0.11717991E+04</rscale>
<asrwt>0</asrwt>
<pdfrwt beam="1">  1       21 0.23477736E+00 0.11723734E+04</pdfrwt>
<pdfrwt beam="2">  1       21 0.13848518E+00 0.11723734E+04</pdfrwt>
<totfact> 0.12187838E+01</totfact>
</mgrwt>
</event>
<event>
 8    1  0.1168507E-005  0.1078182E+04  0.7818608E-02  0.8706416E-01
         21   -1    0    0  501  502  0.00000000000E+00  0.00000000000E+00  0.14920248166E+04  0.14920248166E+04  0.00000000000E+00 0. -1.
         21   -1    0    0  502  503 -0.00000000000E+00 -0.00000000000E+00 -0.83530766380E+03  0.83530766380E+03  0.00000000000E+00 0. -1.
   -9000010    2    1    2    0  503 -0.15935725492E+03  0.33598442199E+03  0.10386871559E+02  0.10782323272E+04  0.10120260856E+04 0.  0.
    9000010    2    1    2  501    0  0.15935725492E+03 -0.33598442199E+03  0.64633028124E+03  0.12491001531E+04  0.10021118169E+04 0.  0.
        -13    1    4    4    0    0  0.38528993184E+03 -0.60024863729E+03  0.50426410593E+03  0.87351534494E+03  0.10566000000E+00 0.  1.
          4    1    4    4  501    0 -0.22593267693E+03  0.26426421530E+03  0.14206617531E+03  0.37558480821E+03  0.00000000000E+00 0.  1.
         13    1    3    3    0    0  0.68716256693E+02  0.17346281659E+03  0.48917741663E+03  0.52355117111E+03  0.10566000000E+00 0. -1.
         -4    1    3    3    0  503 -0.22807351161E+03  0.16252160540E+03 -0.47879054507E+03  0.55468115613E+03  0.00000000000E+00 0. -1.
<mgrwt>
<rscale>  2 0.10758496E+04</rscale>
<asrwt>0</asrwt>
<pdfrwt beam="1">  1       21 0.22954228E+00 0.10781823E+04</pdfrwt>
<pdfrwt beam="2">  1       21 0.12850887E+00 0.10781823E+04</pdfrwt>
<totfact> 0.16924764E+01</totfact>
</mgrwt>
</event>
<event>
 8    1  0.1168507E-005  0.1752348E+04  0.7818608E-02  0.8278873E-01
         21   -1    0    0  503  502  0.00000000000E+00  0.00000000000E+00  0.18192487622E+04  0.18192487622E+04  0.00000000000E+00 0. -1.
         21   -1    0    0  501  503 -0.00000000000E+00 -0.00000000000E+00 -0.18260041142E+04  0.18260041142E+04  0.00000000000E+00 0.  1.
    9000010    2    1    2  501    0  0.54831657926E+03  0.13357573748E+04 -0.52516071833E+03  0.18293490272E+04  0.99288732902E+03 0.  0.
   -9000010    2    1    2    0  502 -0.54831657926E+03 -0.13357573748E+04  0.51840536635E+03  0.18159038492E+04  0.97152654637E+03 0.  0.
        -13    1    3    3    0    0  0.32822709563E+03 -0.23219187075E+02  0.58223388658E+02  0.33415884112E+03  0.10566000000E+00 0.  1.
          4    1    3    3  501    0  0.22008948363E+03  0.13589765618E+04 -0.58338410699E+03  0.14951901861E+04  0.00000000000E+00 0.  1.
         13    1    4    4    0    0 -0.28862667368E+03 -0.14209398829E+04  0.52620916390E+03  0.15424887691E+04  0.10566000000E+00 0. -1.
         -4    1    4    4    0  502 -0.25968990558E+03  0.85182508121E+02 -0.78037975532E+01  0.27341508007E+03  0.00000000000E+00 0. -1.
<mgrwt>
<rscale>  2 0.17493369E+04</rscale>
<asrwt>0</asrwt>
<pdfrwt beam="1">  1       21 0.27988443E+00 0.17523482E+04</pdfrwt>
<pdfrwt beam="2">  1       21 0.28092371E+00 0.17523482E+04</pdfrwt>
<totfact> 0.38897974E-01</totfact>
</mgrwt>
</event>
<event>
 8    1  0.1168507E-005  0.1008497E+04  0.7818608E-02  0.8774069E-01
         21   -1    0    0  503  502  0.00000000000E+00  0.00000000000E+00  0.16667505988E+04  0.16667505988E+04  0.00000000000E+00 0. -1.
         21   -1    0    0  501  503 -0.00000000000E+00 -0.00000000000E+00 -0.60147633878E+03  0.60147633878E+03  0.00000000000E+00 0. -1.
    9000010    2    1    2  501    0  0.67877080405E+02  0.18642328196E+03  0.39387732824E+03  0.10826843265E+04  0.98878969611E+03 0.  0.
   -9000010    2    1    2    0  502 -0.67877080405E+02 -0.18642328196E+03  0.67139693181E+03  0.11855426111E+04  0.95675310530E+03 0.  0.
        -13    1    3    3    0    0 -0.49018091092E+02  0.58784399303E+03  0.24756576701E+03  0.63972818724E+03  0.10566000000E+00 0.  1.
          4    1    3    3  501    0  0.11689517150E+03 -0.40142071107E+03  0.14631156124E+03  0.44295613930E+03  0.00000000000E+00 0.  1.
         13    1    4    4    0    0  0.88984259202E+02  0.36626368575E+03  0.13739563088E+03  0.40117933201E+03  0.10566000000E+00 0. -1.
         -4    1    4    4    0  502 -0.15686133961E+03 -0.55268696771E+03  0.53400130093E+03  0.78436327905E+03  0.00000000000E+00 0. -1.
<mgrwt>
<rscale>  2 0.10005560E+04</rscale>
<asrwt>0</asrwt>
<pdfrwt beam="1">  1       21 0.25642317E+00 0.10084969E+04</pdfrwt>
<pdfrwt beam="2">  1       21 0.92534822E-01 0.10084969E+04</pdfrwt>
<totfact> 0.26531567E+01</totfact>
</mgrwt>
</event>
<event>
 8    1  0.1168507E-005  0.1017325E+04  0.7818608E-02  0.8762870E-01
         21   -1    0    0  501  502  0.00000000000E+00  0.00000000000E+00  0.18887117548E+04  0.18887117548E+04  0.00000000000E+00 0.  1.
         21   -1    0    0  502  503 -0.00000000000E+00 -0.00000000000E+00 -0.61330278074E+03  0.61330278074E+03  0.00000000000E+00 0.  1.
   -9000010    2    1    2    0  503 -0.19965864638E+03 -0.57936200723E+02  0.20413740493E+03  0.10376037758E+04  0.99585608249E+03 0.  0.
    9000010    2    1    2  501    0  0.19965864638E+03  0.57936200723E+02  0.10712715692E+04  0.14644107598E+04  0.97655308100E+03 0.  0.
        -13    1    4    4    0    0 -0.10186351458E+03  0.46093656921E+03  0.67565203356E+03  0.82422350006E+03  0.10566000000E+00 0.  1.
          4    1    4    4  501    0  0.30152216095E+03 -0.40300036849E+03  0.39561953560E+03  0.64018725971E+03  0.00000000000E+00 0.  1.
         13    1    3    3    0    0 -0.10068765305E+03 -0.20253848799E+03  0.58019514896E+03  0.62272487074E+03  0.10566000000E+00 0. -1.
         -4    1    3    3    0  503 -0.98970993330E+02  0.14460228727E+03 -0.37605774404E+03  0.41487890505E+03  0.00000000000E+00 0. -1.
<mgrwt>
<rscale>  2 0.10125695E+04</rscale>
<asrwt>0</asrwt>
<pdfrwt beam="1">  1       21 0.29057104E+00 0.10173247E+04</pdfrwt>
<pdfrwt beam="2">  1       21 0.94354274E-01 0.10173247E+04</pdfrwt>
<totfact> 0.14360938E+01</totfact>
</mgrwt>
</event>
<event>
 8    1  0.1168507E-005  0.1437754E+04  0.7818608E-02  0.8454109E-01
         21   -1    0    0  501  502  0.00000000000E+00  0.00000000000E+00  0.25706595672E+04  0.25706595672E+04  0.00000000000E+00 0. -1.
         21   -1    0    0  502  503 -0.00000000000E+00 -0.00000000000E+00 -0.81567628839E+03  0.81567628839E+03  0.00000000000E+00 0.  1.
   -9000010    2    1    2    0  503  0.49063383044E+03  0.91482352080E+03  0.51863921367E+03  0.15284380225E+04  0.99474244151E+03 0.  0.
    9000010    2    1    2  501    0 -0.49063383044E+03 -0.91482352080E+03  0.12363440652E+04  0.18578978331E+04  0.91957277090E+03 0.  0.
        -13    1    4    4    0    0 -0.12042329222E+03 -0.98178958518E+03  0.74119315368E+03  0.12360339239E+04  0.10566000000E+00 0.  1.
          4    1    4    4  501    0 -0.37021053822E+03  0.66966064382E+02  0.49515091147E+03  0.62186390916E+03  0.00000000000E+00 0.  1.
         13    1    3    3    0    0  0.59672703775E+02  0.99231208305E+03  0.29613060411E+03  0.10372740465E+04  0.10566000000E+00 0. -1.
         -4    1    3    3    0  503  0.43096112667E+03 -0.77488562254E+02  0.22250860956E+03  0.49116397599E+03  0.00000000000E+00 0. -1.
<mgrwt>
<rscale>  2 0.14248447E+04</rscale>
<asrwt>0</asrwt>
<pdfrwt beam="1">  1       21 0.39548608E+00 0.14377539E+04</pdfrwt>
<pdfrwt beam="2">  1       21 0.12548866E+00 0.14377539E+04</pdfrwt>
<totfact> 0.11174473E+00</totfact>
</mgrwt>
</event>
<event>
 8    1  0.1168507E-005  0.1112786E+04  0.7818608E-02  0.8678221E-01
         21   -1    0    0  501  502  0.00000000000E+00  0.00000000000E+00  0.19780611368E+04  0.19780611368E+04  0.00000000000E+00 0. -1.
         21   -1    0    0  502  503 -0.00000000000E+00 -0.00000000000E+00 -0.86349034233E+03  0.86349034233E+03  0.00000000000E+00 0. -1.
   -9000010    2    1    2    0  503  0.48298672703E+03  0.86875175344E+02 -0.19752655663E+03  0.11301814706E+04  0.99873416945E+03 0.  0.
    9000010    2    1    2  501    0 -0.48298672703E+03 -0.86875175344E+02  0.13120973511E+04  0.17113700086E+04  0.98303833746E+03 0.  0.
        -13    1    4    4    0    0 -0.43485743261E+03  0.24063716382E+03  0.17474555731E+03  0.52682373928E+03  0.10566000000E+00 0.  1.
          4    1    4    4  501    0 -0.48129294419E+02 -0.32751233917E+03  0.11373517938E+04  0.11845462693E+04  0.00000000000E+00 0.  1.
         13    1    3    3    0    0  0.69519065391E+03  0.22077845337E+03  0.10523399685E+03  0.73695819149E+03  0.10566000000E+00 0. -1.
         -4    1    3    3    0  503 -0.21220392688E+03 -0.13390327803E+03 -0.30276055348E+03  0.39322327906E+03  0.00000000000E+00 0. -1.
<mgrwt>
<rscale>  2 0.11092532E+04</rscale>
<asrwt>0</asrwt>
<pdfrwt beam="1">  1       21 0.30431710E+00 0.11127863E+04</pdfrwt>
<pdfrwt beam="2">  1       21 0.13284467E+00 0.11127863E+04</pdfrwt>
<totfact> 0.44114022E+00</totfact>
</mgrwt>
</event>
<event>
 8    1  0.1168507E-005  0.1201278E+04  0.7818608E-02  0.8606915E-01
         21   -1    0    0  503  502  0.00000000000E+00  0.00000000000E+00  0.16885699185E+04  0.16885699185E+04  0.00000000000E+00 0.  1.
         21   -1    0    0  501  503 -0.00000000000E+00 -0.00000000000E+00 -0.14245791158E+04  0.14245791158E+04  0.00000000000E+00 0.  1.
    9000010    2    1    2  501    0  0.56607072934E+03  0.32846815130E+03 -0.85662286053E+03  0.14754225969E+04  0.10073438922E+04 0.  0.
   -9000010    2    1    2    0  502 -0.56607072934E+03 -0.32846815130E+03  0.11206136633E+04  0.16377264375E+04  0.99902227432E+03 0.  0.
        -13    1    3    3    0    0  0.43469784853E+03  0.33043781430E+03  0.60102004435E+02  0.54933016551E+03  0.10566000000E+00 0.  1.
          4    1    3    3  501    0  0.13137288081E+03 -0.19696629977E+01 -0.91672486497E+03  0.92609243137E+03  0.00000000000E+00 0.  1.
         13    1    4    4    0    0 -0.41245195274E+03 -0.56611519728E+03  0.11569218822E+04  0.13524316185E+04  0.10566000000E+00 0. -1.
         -4    1    4    4    0  502 -0.15361877660E+03  0.23764704598E+03 -0.36308218922E+02  0.28529481900E+03  0.00000000000E+00 0. -1.
<mgrwt>
<rscale>  2 0.11995319E+04</rscale>
<asrwt>0</asrwt>
<pdfrwt beam="1">  1       21 0.25977999E+00 0.12012781E+04</pdfrwt>
<pdfrwt beam="2">  1       21 0.21916602E+00 0.12012781E+04</pdfrwt>
<totfact> 0.17067804E+00</totfact>
</mgrwt>
</event>
<event>
 8    1  0.1168507E-005  0.1130932E+04  0.7818608E-02  0.8660529E-01
         21   -1    0    0  503  502  0.00000000000E+00  0.00000000000E+00  0.91132269337E+03  0.91132269337E+03  0.00000000000E+00 0. -1.
         21   -1    0    0  501  503 -0.00000000000E+00 -0.00000000000E+00 -0.14616527425E+04  0.14616527425E+04  0.00000000000E+00 0. -1.
    9000010    2    1    2  501    0  0.48805010129E+03  0.18030943167E+03 -0.51260410704E+03  0.12414148305E+04  0.10038144342E+04 0.  0.
   -9000010    2    1    2    0  502 -0.48805010129E+03 -0.18030943167E+03 -0.37725942118E+02  0.11315606054E+04  0.10041423029E+04 0.  0.
        -13    1    3    3    0    0  0.58650851267E+03 -0.15140637634E+03 -0.63196843083E+03  0.87538576351E+03  0.10566000000E+00 0.  1.
          4    1    3    3  501    0 -0.98458411389E+02  0.33171580801E+03  0.11936432379E+03  0.36602906695E+03  0.00000000000E+00 0.  1.
         13    1    4    4    0    0 -0.75852779324E+02  0.39210706387E+03  0.10261957380E+03  0.41234982934E+03  0.10566000000E+00 0. -1.
         -4    1    4    4    0  502 -0.41219732196E+03 -0.57241649554E+03 -0.14034551592E+03  0.71921077609E+03  0.00000000000E+00 0. -1.
<mgrwt>
<rscale>  2 0.11308588E+04</rscale>
<asrwt>0</asrwt>
<pdfrwt beam="1">  1       21 0.14020349E+00 0.11309315E+04</pdfrwt>
<pdfrwt beam="2">  1       21 0.22486965E+00 0.11309315E+04</pdfrwt>
<totfact> 0.14044539E+01</totfact>
</mgrwt>
</event>
<event>
 8    1  0.1168507E-005  0.1049829E+04  0.7818608E-02  0.8734587E-01
         21   -1    0    0  503  502  0.00000000000E+00  0.00000000000E+00  0.10929113622E+04  0.10929113622E+04  0.00000000000E+00 0.  1.
         21   -1    0    0  501  503 -0.00000000000E+00 -0.00000000000E+00 -0.10138754336E+04  0.10138754336E+04  0.00000000000E+00 0.  1.
    9000010    2    1    2  501    0 -0.27921174711E+03  0.91920774417E+02  0.21618395356E+03  0.10480369208E+04  0.98246488851E+03 0.  0.
   -9000010    2    1    2    0  502  0.27921174711E+03 -0.91920774417E+02 -0.13714802489E+03  0.10587498750E+04  0.10078358441E+04 0.  0.
        -13    1    3    3    0    0  0.59625734556E+02 -0.41084675827E+02  0.54963629769E+03  0.55438547033E+03  0.10566000000E+00 0.  1.
          4    1    3    3  501    0 -0.33883748167E+03  0.13300545024E+03 -0.33345234413E+03  0.49365145050E+03  0.00000000000E+00 0.  1.
         13    1    4    4    0    0 -0.24791451069E+03 -0.21250592254E+03  0.23501936463E+03  0.40231142743E+03  0.10566000000E+00 0. -1.
         -4    1    4    4    0  502  0.52712625780E+03  0.12058514813E+03 -0.37216738952E+03  0.65643844756E+03  0.00000000000E+00 0. -1.
<mgrwt>
<rscale>  2 0.10436929E+04</rscale>
<asrwt>0</asrwt>
<pdfrwt beam="1">  1       21 0.16814021E+00 0.10498294E+04</pdfrwt>
<pdfrwt beam="2">  1       21 0.15598084E+00 0.10498294E+04</pdfrwt>
<totfact> 0.28931511E+01</totfact>
</mgrwt>
</event>
<event>
 8    1  0.1168507E-005  0.1218170E+04  0.7818608E-02  0.8593908E-01
         21   -1    0    0  501  502  0.00000000000E+00  0.00000000000E+00  0.86927083914E+03  0.86927083914E+03  0.00000000000E+00 0. -1.
         21   -1    0    0  502  503 -0.00000000000E+00 -0.00000000000E+00 -0.18713583352E+04  0.18713583352E+04  0.00000000000E+00 0.  1.
   -9000010    2    1    2    0  503 -0.55545251490E+03 -0.40848268881E+03 -0.91628486584E+03  0.15243086579E+04  0.10042675569E+04 0.  0.
    9000010    2    1    2  501    0  0.55545251490E+03  0.40848268881E+03 -0.85802630188E+02  0.12163205164E+04  0.99834257845E+03 0.  0.
        -13    1    4    4    0    0  0.69172791237E+03  0.48213332384E+03 -0.34769320748E+03  0.91204749022E+03  0.10566000000E+00 0.  1.
          4    1    4    4  501    0 -0.13627539747E+03 -0.73650635033E+02  0.26189057730E+03  0.30427302620E+03  0.00000000000E+00 0.  1.
         13    1    3    3    0    0 -0.23876539773E+03  0.33028424685E+03 -0.38621358385E+03  0.56147799813E+03  0.10566000000E+00 0. -1.
         -4    1    3    3    0  503 -0.31668711717E+03 -0.73876693566E+03 -0.53007128199E+03  0.96283065977E+03  0.00000000000E+00 0. -1.
<mgrwt>
<rscale>  2 0.12169485E+04</rscale>
<asrwt>0</asrwt>
<pdfrwt beam="1">  1       21 0.13373398E+00 0.12181703E+04</pdfrwt>
<pdfrwt beam="2">  1       21 0.28790128E+00 0.12181703E+04</pdfrwt>
<totfact> 0.55280698E+00</totfact>
</mgrwt>
</event>
<event>
 8    1  0.1168507E-005  0.1265343E+04  0.7818608E-02  0.8564012E-01
         21   -1    0    0  503  502  0.00000000000E+00  0.00000000000E+00  0.86750722951E+03  0.86750722951E+03  0.00000000000E+00 0. -1.
         21   -1    0    0  501  503 -0.00000000000E+00 -0.00000000000E+00 -0.20271151972E+04  0.20271151972E+04  0.00000000000E+00 0. -1.
    9000010    2    1    2  501    0  0.42673262267E+03 -0.58781437858E+03 -0.10655266032E+04  0.16542186319E+04  0.10360819780E+04 0.  0.
   -9000010    2    1    2    0  502 -0.42673262267E+03  0.58781437858E+03 -0.94081364472E+02  0.12404037948E+04  0.10010613348E+04 0.  0.
        -13    1    3    3    0    0 -0.25149644228E+03  0.12527951935E+03 -0.22315824959E+03  0.35881058230E+03  0.10566000000E+00 0.  1.
          4    1    3    3  501    0  0.67822906496E+03 -0.71309389793E+03 -0.84236835366E+03  0.12954080496E+04  0.00000000000E+00 0.  1.
         13    1    4    4    0    0 -0.41164241760E+03  0.15487066027E+03 -0.48653806207E+03  0.65586103588E+03  0.10566000000E+00 0. -1.
         -4    1    4    4    0  502 -0.15090205071E+02  0.43294371831E+03  0.39245669760E+03  0.58454275892E+03  0.00000000000E+00 0. -1.
<mgrwt>
<rscale>  2 0.12581537E+04</rscale>
<asrwt>0</asrwt>
<pdfrwt beam="1">  1       21 0.13346265E+00 0.12653428E+04</pdfrwt>
<pdfrwt beam="2">  1       21 0.31186387E+00 0.12653428E+04</pdfrwt>
<totfact> 0.37265241E+00</totfact>
</mgrwt>
</event>
<event>
 8    1  0.1168507E-005  0.1466055E+04  0.7818608E-02  0.8437335E-01
         21   -1    0    0  503  502  0.00000000000E+00  0.00000000000E+00  0.16304926913E+04  0.16304926913E+04  0.00000000000E+00 0. -1.
         21   -1    0    0  501  503 -0.00000000000E+00 -0.00000000000E+00 -0.13193359235E+04  0.13193359235E+04  0.00000000000E+00 0.  1.
    9000010    2    1    2  501    0  0.43414426665E+03 -0.10303219039E+04 -0.12457215646E+03  0.14713377041E+04  0.94829950296E+03 0.  0.
   -9000010    2    1    2    0  502 -0.43414426665E+03  0.10303219039E+04  0.43572892429E+03  0.14784909107E+04  0.86373098100E+03 0.  0.
        -13    1    3    3    0    0  0.21646912095E+03 -0.11572417281E+04 -0.22760356998E+03  0.11991124609E+04  0.10566000000E+00 0.  1.
          4    1    3    3  501    0  0.21767514570E+03  0.12691982424E+03  0.10303141352E+03  0.27222524316E+03  0.00000000000E+00 0.  1.
         13    1    4    4    0    0 -0.40280001379E+03  0.91039661769E+03  0.67929239314E+03  0.12052004062E+04  0.10566000000E+00 0. -1.
         -4    1    4    4    0  502 -0.31344252858E+02  0.11992528622E+03 -0.24356346886E+03  0.27329050445E+03  0.00000000000E+00 0. -1.
<mgrwt>
<rscale>  2 0.14525623E+04</rscale>
<asrwt>0</asrwt>
<pdfrwt beam="1">  1       21 0.25084503E+00 0.14660547E+04</pdfrwt>
<pdfrwt beam="2">  1       21 0.20297476E+00 0.14660547E+04</pdfrwt>
<totfact> 0.25017776E+00</totfact>
</mgrwt>
</event>
<event>
 8    1  0.1168507E-005  0.1260109E+04  0.7818608E-02  0.8575368E-01
         21   -1    0    0  503  502  0.00000000000E+00  0.00000000000E+00  0.15962167505E+04  0.15962167505E+04  0.00000000000E+00 0. -1.
         21   -1    0    0  501  503 -0.00000000000E+00 -0.00000000000E+00 -0.15848536046E+04  0.15848536046E+04  0.00000000000E+00 0. -1.
    9000010    2    1    2  501    0  0.62922303068E+03  0.20493427128E+03 -0.10083424054E+04  0.15600603770E+04  0.98950204418E+03 0.  0.
   -9000010    2    1    2    0  502 -0.62922303068E+03 -0.20493427128E+03  0.10197055512E+04  0.16210099781E+04  0.10723592030E+04 0.  0.
        -13    1    3    3    0    0  0.30552396291E+03  0.33655158936E+03 -0.11072326847E+04  0.11969027084E+04  0.10566000000E+00 0.  1.
          4    1    3    3  501    0  0.32369906776E+03 -0.13161731807E+03  0.98890279317E+02  0.36315766856E+03  0.00000000000E+00 0.  1.
         13    1    4    4    0    0 -0.81318120405E+03 -0.29275938669E+03  0.37012237074E+03  0.94019269813E+03  0.10566000000E+00 0. -1.
         -4    1    4    4    0  502  0.18395817338E+03  0.87825115406E+02  0.64958318045E+03  0.68081728002E+03  0.00000000000E+00 0. -1.
<mgrwt>
<rscale>  2 0.12423059E+04</rscale>
<asrwt>0</asrwt>
<pdfrwt beam="1">  1       21 0.24557181E+00 0.12601087E+04</pdfrwt>
<pdfrwt beam="2">  1       21 0.24382363E+00 0.12601087E+04</pdfrwt>
<totfact> 0.14007338E+00</totfact>
</mgrwt>
</event>
<event>
 8    1  0.1168507E-005  0.1029272E+04  0.7818608E-02  0.8774710E-01
         21   -1    0    0  503  502  0.00000000000E+00  0.00000000000E+00  0.48095413420E+03  0.48095413420E+03  0.00000000000E+00 0. -1.
         21   -1    0    0  501  503 -0.00000000000E+00 -0.00000000000E+00 -0.19810457791E+04  0.19810457791E+04  0.00000000000E+00 0. -1.
    9000010    2    1    2  501    0  0.18896955289E+03 -0.48554227957E+02 -0.60803839907E+03  0.10999576439E+04  0.89561661369E+03 0.  0.
   -9000010    2    1    2    0  502 -0.18896955289E+03  0.48554227957E+02 -0.89205324580E+03  0.13620422693E+04  0.10106102835E+04 0.  0.
        -13    1    3    3    0    0  0.41331410625E+03  0.29118117263E+03 -0.38700929583E+03  0.63670340972E+03  0.10566000000E+00 0.  1.
          4    1    3    3  501    0 -0.22434455336E+03 -0.33973540059E+03 -0.22102910323E+03  0.46325423421E+03  0.00000000000E+00 0.  1.
         13    1    4    4    0    0 -0.36211375978E+03  0.36443629950E+03 -0.85821127664E+03  0.10002333717E+04  0.10566000000E+00 0. -1.
         -4    1    4    4    0  502  0.17314420689E+03 -0.31588207154E+03 -0.33841969158E+02  0.36180889759E+03  0.00000000000E+00 0. -1.
<mgrwt>
<rscale>  2 0.99987359E+03</rscale>
<asrwt>0</asrwt>
<pdfrwt beam="1">  1       21 0.73992943E-01 0.10292717E+04</pdfrwt>
<pdfrwt beam="2">  1       21 0.30477628E+00 0.10292717E+04</pdfrwt>
<totfact> 0.20805401E+01</totfact>
</mgrwt>
</event>
<event>
 8    1  0.1168507E-005  0.1437366E+04  0.7818608E-02  0.8448211E-01
         21   -1    0    0  501  502  0.00000000000E+00  0.00000000000E+00  0.96714374672E+03  0.96714374672E+03  0.00000000000E+00 0. -1.
         21   -1    0    0  502  503 -0.00000000000E+00 -0.00000000000E+00 -0.22369355392E+04  0.22369355392E+04  0.00000000000E+00 0.  1.
   -9000010    2    1    2    0  503  0.13111562457E+03 -0.10148689561E+04 -0.26999109388E+03  0.14625032739E+04  0.10093910691E+04 0.  0.
    9000010    2    1    2  501    0 -0.13111562457E+03  0.10148689561E+04 -0.99980069854E+03  0.17415760120E+04  0.99314413040E+03 0.  0.
        -13    1    4    4    0    0  0.33679460089E+03  0.18703916292E+03 -0.59333106968E+03  0.70742916329E+03  0.10566000000E+00 0.  1.
          4    1    4    4  501    0 -0.46791022546E+03  0.82782979314E+03 -0.40646962886E+03  0.10341468487E+04  0.00000000000E+00 0.  1.
         13    1    3    3    0    0 -0.19514910944E+03 -0.63257703194E+03 -0.57308632829E+03  0.87559398530E+03  0.10566000000E+00 0. -1.
         -4    1    3    3    0  503  0.32626473401E+03 -0.38229192412E+03  0.30309523441E+03  0.58690928858E+03  0.00000000000E+00 0. -1.
<mgrwt>
<rscale>  2 0.14345168E+04</rscale>
<asrwt>0</asrwt>
<pdfrwt beam="1">  1       21 0.14879135E+00 0.14373659E+04</pdfrwt>
<pdfrwt beam="2">  1       21 0.34414392E+00 0.14373659E+04</pdfrwt>
<totfact> 0.15425655E+00</totfact>
</mgrwt>
</event>
<event>
 8    1  0.1168507E-005  0.1062406E+04  0.7818608E-02  0.8722102E-01
         21   -1    0    0  501  502  0.00000000000E+00  0.00000000000E+00  0.10552988967E+04  0.10552988967E+04  0.00000000000E+00 0. -1.
         21   -1    0    0  502  503 -0.00000000000E+00 -0.00000000000E+00 -0.10596584260E+04  0.10596584260E+04  0.00000000000E+00 0. -1.
   -9000010    2    1    2    0  503  0.16548107357E+03  0.27231069444E+03 -0.96598619524E+02  0.10485550869E+04  0.99428334840E+03 0.  0.
    9000010    2    1    2  501    0 -0.16548107357E+03 -0.27231069444E+03  0.92239090250E+02  0.10664022359E+04  0.10134932555E+04 0.  0.
        -13    1    4    4    0    0 -0.28993325712E+02  0.25910161617E+03  0.36906099154E+03  0.45186312870E+03  0.10566000000E+00 0.  1.
          4    1    4    4  501    0 -0.13648774785E+03 -0.53141231062E+03 -0.27682190129E+03  0.61453910715E+03  0.00000000000E+00 0.  1.
         13    1    3    3    0    0 -0.59878401486E+02  0.80811881526E+02 -0.52136556215E+03  0.53097838348E+03  0.10566000000E+00 0. -1.
         -4    1    3    3    0  503  0.22535947505E+03  0.19149881292E+03  0.42476694263E+03  0.51757670339E+03  0.00000000000E+00 0. -1.
<mgrwt>
<rscale>  2 0.10577983E+04</rscale>
<asrwt>0</asrwt>
<pdfrwt beam="1">  1       21 0.16235368E+00 0.10624056E+04</pdfrwt>
<pdfrwt beam="2">  1       21 0.16302437E+00 0.10624056E+04</pdfrwt>
<totfact> 0.28079698E+01</totfact>
</mgrwt>
</event>
<event>
 8    1  0.1168507E-005  0.1156711E+04  0.7818608E-02  0.8640744E-01
         21   -1    0    0  501  502  0.00000000000E+00  0.00000000000E+00  0.55741111703E+03  0.55741111703E+03  0.00000000000E+00 0. -1.
         21   -1    0    0  502  503 -0.00000000000E+00 -0.00000000000E+00 -0.23962095640E+04  0.23962095640E+04  0.00000000000E+00 0.  1.
   -9000010    2    1    2    0  503 -0.52428355467E+03  0.27152229539E+03 -0.98730009999E+03  0.15207700366E+04  0.99467704022E+03 0.  0.
    9000010    2    1    2  501    0  0.52428355467E+03 -0.27152229539E+03 -0.85149834696E+03  0.14328506444E+04  0.98965344013E+03 0.  0.
        -13    1    4    4    0    0  0.57313674472E+03 -0.59434088185E+03 -0.62308986639E+03  0.10343924810E+04  0.10566000000E+00 0.  1.
          4    1    4    4  501    0 -0.48853190059E+02  0.32281858646E+03 -0.22840848057E+03  0.39845816335E+03  0.00000000000E+00 0.  1.
         13    1    3    3    0    0 -0.40647359255E+03 -0.13315643248E+03 -0.10118872289E+04  0.10985750735E+04  0.10566000000E+00 0. -1.
         -4    1    3    3    0  503 -0.11780996211E+03  0.40467872787E+03  0.24587128943E+02  0.42219496311E+03  0.00000000000E+00 0. -1.
<mgrwt>
<rscale>  2 0.11556301E+04</rscale>
<asrwt>0</asrwt>
<pdfrwt beam="1">  1       21 0.85755556E-01 0.11567109E+04</pdfrwt>
<pdfrwt beam="2">  1       21 0.36864763E+00 0.11567109E+04</pdfrwt>
<totfact> 0.50238810E+00</totfact>
</mgrwt>
</event>
<event>
 8    1  0.1168507E-005  0.1163398E+04  0.7818608E-02  0.8636065E-01
         21   -1    0    0  501  502  0.00000000000E+00  0.00000000000E+00  0.15470757303E+04  0.15470757303E+04  0.00000000000E+00 0.  1.
         21   -1    0    0  502  503 -0.00000000000E+00 -0.00000000000E+00 -0.92685047787E+03  0.92685047787E+03  0.00000000000E+00 0. -1.
   -9000010    2    1    2    0  503  0.54155789220E+03  0.17684493804E+03  0.13497321114E+01  0.11561625905E+04  0.10060571710E+04 0.  0.
    9000010    2    1    2  501    0 -0.54155789220E+03 -0.17684493804E+03  0.61887552035E+03  0.13177636177E+04  0.10143643131E+04 0.  0.
        -13    1    4    4    0    0 -0.57386980126E+03 -0.42445606872E+03  0.75029426027E+03  0.10355824406E+04  0.10566000000E+00 0.  1.
          4    1    4    4  501    0  0.32311909055E+02  0.24761113068E+03 -0.13141873992E+03  0.28218117709E+03  0.00000000000E+00 0.  1.
         13    1    3    3    0    0  0.80167693437E+03 -0.58912197478E+02 -0.23915264424E+02  0.80419432052E+03  0.10566000000E+00 0. -1.
         -4    1    3    3    0  503 -0.26011904217E+03  0.23575713552E+03  0.25264996536E+02  0.35196827002E+03  0.00000000000E+00 0. -1.
<mgrwt>
<rscale>  2 0.11615844E+04</rscale>
<asrwt>0</asrwt>
<pdfrwt beam="1">  1       21 0.23801165E+00 0.11633976E+04</pdfrwt>
<pdfrwt beam="2">  1       21 0.14259238E+00 0.11633976E+04</pdfrwt>
<totfact> 0.10588970E+01</totfact>
</mgrwt>
</event>
<event>
 8    1  0.1168507E-005  0.1070266E+04  0.7818608E-02  0.8712551E-01
         21   -1    0    0  501  502  0.00000000000E+00  0.00000000000E+00  0.67008167225E+03  0.67008167225E+03  0.00000000000E+00 0.  1.
         21   -1    0    0  502  503 -0.00000000000E+00 -0.00000000000E+00 -0.17593591141E+04  0.17593591141E+04  0.00000000000E+00 0.  1.
   -9000010    2    1    2    0  503 -0.39285268129E+03  0.20436404565E+02 -0.76669839388E+03  0.13116188045E+04  0.98882080550E+03 0.  0.
    9000010    2    1    2  501    0  0.39285268129E+03 -0.20436404565E+02 -0.32257904798E+03  0.11178219818E+04  0.99534811249E+03 0.  0.
        -13    1    4    4    0    0  0.72529633251E+03  0.93484125000E+01 -0.14485355994E+03  0.73967880040E+03  0.10566000000E+00 0.  1.
          4    1    4    4  501    0 -0.33244365122E+03 -0.29784817065E+02 -0.17772548803E+03  0.37814318143E+03  0.00000000000E+00 0.  1.
         13    1    3    3    0    0  0.17929778872E+03 -0.64977279586E+02  0.13966164867E+03  0.23637921054E+03  0.10566000000E+00 0. -1.
         -4    1    3    3    0  503 -0.57215047000E+03  0.85413684151E+02 -0.90636004255E+03  0.10752395940E+04  0.00000000000E+00 0. -1.
<mgrwt>
<rscale>  2 0.10687456E+04</rscale>
<asrwt>0</asrwt>
<pdfrwt beam="1">  1       21 0.10308949E+00 0.10702657E+04</pdfrwt>
<pdfrwt beam="2">  1       21 0.27067063E+00 0.10702657E+04</pdfrwt>
<totfact> 0.15618484E+01</totfact>
</mgrwt>
</event>
<event>
 8    1  0.1168507E-005  0.1103285E+04  0.7818608E-02  0.8684664E-01
         21   -1    0    0  501  502  0.00000000000E+00  0.00000000000E+00  0.62208036781E+03  0.62208036781E+03  0.00000000000E+00 0.  1.
         21   -1    0    0  502  503 -0.00000000000E+00 -0.00000000000E+00 -0.19532423222E+04  0.19532423222E+04  0.00000000000E+00 0.  1.
   -9000010    2    1    2    0  503  0.45996138364E+03  0.49166059733E+02 -0.57573559576E+03  0.12381964841E+04  0.99381954159E+03 0.  0.
    9000010    2    1    2  501    0 -0.45996138364E+03 -0.49166059733E+02 -0.75542635858E+03  0.13371262058E+04  0.10016265428E+04 0.  0.
        -13    1    4    4    0    0  0.26350177212E+02 -0.18753610880E+03 -0.80696849807E+03  0.82889220770E+03  0.10566000000E+00 0.  1.
          4    1    4    4  501    0 -0.48631156085E+03  0.13837004906E+03  0.51542139493E+02  0.50823399811E+03  0.00000000000E+00 0.  1.
         13    1    3    3    0    0 -0.18099822795E+03  0.22454348885E+03 -0.48944297156E+03  0.56809732483E+03  0.10566000000E+00 0. -1.
         -4    1    3    3    0  503  0.64095961158E+03 -0.17537742911E+03 -0.86292624201E+02  0.67009915932E+03  0.00000000000E+00 0. -1.
<mgrwt>
<rscale>  2 0.11015099E+04</rscale>
<asrwt>0</asrwt>
<pdfrwt beam="1">  1       21 0.95704673E-01 0.11032849E+04</pdfrwt>
<pdfrwt beam="2">  1       21 0.30049881E+00 0.11032849E+04</pdfrwt>
<totfact> 0.11552798E+01</totfact>
</mgrwt>
</event>
<event>
 8    1  0.1168507E-005  0.1801344E+04  0.7818608E-02  0.8255054E-01
         21   -1    0    0  501  502  0.00000000000E+00  0.00000000000E+00  0.12497534270E+04  0.12497534270E+04  0.00000000000E+00 0. -1.
         21   -1    0    0  502  503 -0.00000000000E+00 -0.00000000000E+00 -0.35252512917E+04  0.35252512917E+04  0.00000000000E+00 0. -1.
   -9000010    2    1    2    0  503  0.12583460936E+04 -0.80585380793E+03 -0.23694422245E+04  0.29764236950E+04  0.10059852412E+04 0.  0.
    9000010    2    1    2  501    0 -0.12583460936E+04  0.80585380793E+03  0.93944359818E+02  0.17985810238E+04  0.99661070916E+03 0.  0.
        -13    1    4    4    0    0 -0.11682694240E+04  0.70538583744E+03 -0.28690139503E+03  0.13945375751E+04  0.10566000000E+00 0.  1.
          4    1    4    4  501    0 -0.90076669576E+02  0.10046797049E+03  0.38084575485E+03  0.40404344875E+03  0.00000000000E+00 0.  1.
         13    1    3    3    0    0  0.49971480813E+03 -0.17947268879E+03 -0.17137884533E+04  0.17941561274E+04  0.10566000000E+00 0. -1.
         -4    1    3    3    0  503  0.75863128543E+03 -0.62638111913E+03 -0.65565377118E+03  0.11822675676E+04  0.00000000000E+00 0. -1.
<mgrwt>
<rscale>  2 0.18000383E+04</rscale>
<asrwt>0</asrwt>
<pdfrwt beam="1">  1       21 0.19226976E+00 0.18013444E+04</pdfrwt>
<pdfrwt beam="2">  1       21 0.54234635E+00 0.18013444E+04</pdfrwt>
<totfact> 0.25578913E-02</totfact>
</mgrwt>
</event>
<event>
 8    1  0.1168507E-005  0.1041563E+04  0.7818608E-02  0.8742063E-01
         21   -1    0    0  503  502  0.00000000000E+00  0.00000000000E+00  0.73209121250E+03  0.73209121250E+03  0.00000000000E+00 0. -1.
         21   -1    0    0  501  503 -0.00000000000E+00 -0.00000000000E+00 -0.14494846070E+04  0.14494846070E+04  0.00000000000E+00 0. -1.
    9000010    2    1    2  501    0 -0.26180037690E+03 -0.47129023387E+02 -0.31830789172E+03  0.10891163512E+04  0.10070223088E+04 0.  0.
   -9000010    2    1    2    0  502  0.26180037690E+03  0.47129023387E+02 -0.39908550273E+03  0.10924594682E+04  0.98154870944E+03 0.  0.
        -13    1    3    3    0    0  0.26173604717E+02 -0.50007200287E+03 -0.20174393392E+03  0.53986821696E+03  0.10566000000E+00 0.  1.
          4    1    3    3  501    0 -0.28797398162E+03  0.45294297949E+03 -0.11656395780E+03  0.54924813428E+03  0.00000000000E+00 0.  1.
         13    1    4    4    0    0 -0.96486091976E+02  0.30793545653E+03 -0.53858851031E+03  0.62786256931E+03  0.10566000000E+00 0. -1.
         -4    1    4    4    0  502  0.35828646888E+03 -0.26080643314E+03  0.13950300758E+03  0.46459689890E+03  0.00000000000E+00 0. -1.
<mgrwt>
<rscale>  2 0.10353562E+04</rscale>
<asrwt>0</asrwt>
<pdfrwt beam="1">  1       21 0.11262942E+00 0.10415635E+04</pdfrwt>
<pdfrwt beam="2">  1       21 0.22299763E+00 0.10415635E+04</pdfrwt>
<totfact> 0.27633701E+01</totfact>
</mgrwt>
</event>
<event>
 8    1  0.1168507E-005  0.1149763E+04  0.7818608E-02  0.8647449E-01
         21   -1    0    0  501  502  0.00000000000E+00  0.00000000000E+00  0.69903183343E+03  0.69903183343E+03  0.00000000000E+00 0.  1.
         21   -1    0    0  502  503 -0.00000000000E+00 -0.00000000000E+00 -0.19264575900E+04  0.19264575900E+04  0.00000000000E+00 0.  1.
   -9000010    2    1    2    0  503 -0.55811891721E+03 -0.29754864801E+02 -0.40002145576E+03  0.12173631157E+04  0.10047754539E+04 0.  0.
    9000010    2    1    2  501    0  0.55811891721E+03  0.29754864801E+02 -0.82740430085E+03  0.14081263078E+04  0.99289462875E+03 0.  0.
        -13    1    4    4    0    0  0.72795547843E+03  0.19903218707E+03 -0.88342098314E+03  0.11618802153E+04  0.10566000000E+00 0.  1.
          4    1    4    4  501    0 -0.16983656122E+03 -0.16927732227E+03  0.56016682285E+02  0.24624609247E+03  0.00000000000E+00 0.  1.
         13    1    3    3    0    0 -0.35769490777E+03 -0.48771917273E+03 -0.49565004737E+02  0.60685446307E+03  0.10566000000E+00 0. -1.
         -4    1    3    3    0  503 -0.20042400944E+03  0.45796430792E+03 -0.35045645102E+03  0.61050865264E+03  0.00000000000E+00 0. -1.
<mgrwt>
<rscale>  2 0.11471626E+04</rscale>
<asrwt>0</asrwt>
<pdfrwt beam="1">  1       21 0.10754336E+00 0.11497634E+04</pdfrwt>
<pdfrwt beam="2">  1       21 0.29637809E+00 0.11497634E+04</pdfrwt>
<totfact> 0.90002365E+00</totfact>
</mgrwt>
</event>
<event>
 8    1  0.1168507E-005  0.1098254E+04  0.7818608E-02  0.8687961E-01
         21   -1    0    0  501  502  0.00000000000E+00  0.00000000000E+00  0.16337883737E+04  0.16337883737E+04  0.00000000000E+00 0.  1.
         21   -1    0    0  502  503 -0.00000000000E+00 -0.00000000000E+00 -0.76539332371E+03  0.76539332371E+03  0.00000000000E+00 0.  1.
   -9000010    2    1    2    0  503 -0.41828287976E+03  0.19140615938E+03  0.66702987175E+03  0.12826199140E+04  0.99427768181E+03 0.  0.
    9000010    2    1    2  501    0  0.41828287976E+03 -0.19140615938E+03  0.20136517828E+03  0.11165617835E+04  0.99727899605E+03 0.  0.
        -13    1    4    4    0    0 -0.16701705676E+03 -0.40068925428E+03 -0.67488369390E+02  0.43931909464E+03  0.10566000000E+00 0.  1.
          4    1    4    4  501    0  0.58529993652E+03  0.20928309491E+03  0.26885354767E+03  0.67724268884E+03  0.00000000000E+00 0.  1.
         13    1    3    3    0    0 -0.53263494197E+03  0.48179859058E+03  0.65223117830E+03  0.97017286316E+03  0.10566000000E+00 0. -1.
         -4    1    3    3    0  503  0.11435206221E+03 -0.29039243120E+03  0.14798693446E+02  0.31244705081E+03  0.00000000000E+00 0. -1.
<mgrwt>
<rscale>  2 0.10975724E+04</rscale>
<asrwt>0</asrwt>
<pdfrwt beam="1">  1       21 0.25135206E+00 0.10982542E+04</pdfrwt>
<pdfrwt beam="2">  1       21 0.11775282E+00 0.10982542E+04</pdfrwt>
<totfact> 0.14915904E+01</totfact>
</mgrwt>
</event>
<event>
 8    1  0.1168507E-005  0.1217838E+04  0.7818608E-02  0.8597060E-01
         21   -1    0    0  501  502  0.00000000000E+00  0.00000000000E+00  0.84439931631E+03  0.84439931631E+03  0.00000000000E+00 0.  1.
         21   -1    0    0  502  503 -0.00000000000E+00 -0.00000000000E+00 -0.20369640814E+04  0.20369640814E+04  0.00000000000E+00 0.  1.
   -9000010    2    1    2    0  503 -0.61222564229E+03 -0.31472592432E+03 -0.11624490683E+04  0.16835730895E+04  0.10046182692E+04 0.  0.
    9000010    2    1    2  501    0  0.61222564229E+03  0.31472592432E+03 -0.30115696795E+02  0.11977903082E+04  0.97975610369E+03 0.  0.
        -13    1    4    4    0    0 -0.84145903949E+02  0.18304948269E+03 -0.36271901645E+03  0.41491293343E+03  0.10566000000E+00 0.  1.
          4    1    4    4  501    0  0.69637154624E+03  0.13167644162E+03  0.33260331966E+03  0.78287737478E+03  0.00000000000E+00 0.  1.
         13    1    3    3    0    0 -0.53972540395E+03 -0.66011048230E+03 -0.92596586252E+03  0.12587542056E+04  0.10566000000E+00 0. -1.
         -4    1    3    3    0  503 -0.72500238340E+02  0.34538455799E+03 -0.23648320573E+03  0.42481888382E+03  0.00000000000E+00 0. -1.
<mgrwt>
<rscale>  2 0.12126993E+04</rscale>
<asrwt>0</asrwt>
<pdfrwt beam="1">  1       21 0.12990759E+00 0.12178385E+04</pdfrwt>
<pdfrwt beam="2">  1       21 0.31337908E+00 0.12178385E+04</pdfrwt>
<totfact> 0.39716904E+00</totfact>
</mgrwt>
</event>
<event>
 8    1  0.1168507E-005  0.1071605E+04  0.7818608E-02  0.8717347E-01
         21   -1    0    0  503  502  0.00000000000E+00  0.00000000000E+00  0.18969559738E+04  0.18969559738E+04  0.00000000000E+00 0.  1.
         21   -1    0    0  501  503 -0.00000000000E+00 -0.00000000000E+00 -0.80530249474E+03  0.80530249474E+03  0.00000000000E+00 0.  1.
    9000010    2    1    2  501    0  0.74263623542E+02  0.36498699966E+03 -0.15166427636E+03  0.10822847863E+04  0.10047923717E+04 0.  0.
   -9000010    2    1    2    0  502 -0.74263623542E+02 -0.36498699966E+03  0.12433177554E+04  0.16199736823E+04  0.96940450510E+03 0.  0.
        -13    1    3    3    0    0  0.12415304199E+03  0.55574836011E+03 -0.44923501284E+03  0.72531532834E+03  0.10566000000E+00 0.  1.
          4    1    3    3  501    0 -0.49889418445E+02 -0.19076136045E+03  0.29757073648E+03  0.35696945797E+03  0.00000000000E+00 0.  1.
         13    1    4    4    0    0 -0.29044671361E+03 -0.51541288075E+03  0.12196239351E+04  0.13555413256E+04  0.10566000000E+00 0. -1.
         -4    1    4    4    0  502  0.21618309007E+03  0.15042588109E+03  0.23693820316E+02  0.26443235667E+03  0.00000000000E+00 0. -1.
<mgrwt>
<rscale>  2 0.10632307E+04</rscale>
<asrwt>0</asrwt>
<pdfrwt beam="1">  1       21 0.29183938E+00 0.10716055E+04</pdfrwt>
<pdfrwt beam="2">  1       21 0.12389269E+00 0.10716055E+04</pdfrwt>
<totfact> 0.66720343E+00</totfact>
</mgrwt>
</event>
<event>
 8    1  0.1168507E-005  0.1300557E+04  0.7818608E-02  0.8535219E-01
         21   -1    0    0  501  502  0.00000000000E+00  0.00000000000E+00  0.23392193805E+04  0.23392193805E+04  0.00000000000E+00 0. -1.
         21   -1    0    0  502  503 -0.00000000000E+00 -0.00000000000E+00 -0.90130959073E+03  0.90130959073E+03  0.00000000000E+00 0. -1.
   -9000010    2    1    2    0  503 -0.37801631263E+02  0.79388596472E+03 -0.55405201900E+01  0.13005690882E+04  0.10294490602E+04 0.  0.
    9000010    2    1    2  501    0  0.37801631263E+02 -0.79388596472E+03  0.14434503099E+04  0.19399598830E+04  0.10238220852E+04 0.  0.
        -13    1    4    4    0    0  0.34474018438E+03 -0.33154337775E+02  0.90854154349E+02  0.35804956831E+03  0.10566000000E+00 0.  1.
          4    1    4    4  501    0 -0.30693855312E+03 -0.76073162694E+03  0.13525961556E+04  0.15819103147E+04  0.00000000000E+00 0.  1.
         13    1    3    3    0    0  0.19924567383E+03  0.45163678685E+03 -0.46667142098E+03  0.67930615491E+03  0.10566000000E+00 0. -1.
         -4    1    3    3    0  503 -0.23704730510E+03  0.34224917787E+03  0.46113090079E+03  0.62126293328E+03  0.00000000000E+00 0. -1.
<mgrwt>
<rscale>  2 0.12994435E+04</rscale>
<asrwt>0</asrwt>
<pdfrwt beam="1">  1       21 0.35987990E+00 0.13005573E+04</pdfrwt>
<pdfrwt beam="2">  1       21 0.13866301E+00 0.13005573E+04</pdfrwt>
<totfact> 0.15199863E+00</totfact>
</mgrwt>
</event>
<event>
 8    1  0.1168507E-005  0.1218198E+04  0.7818608E-02  0.8599271E-01
         21   -1    0    0  501  502  0.00000000000E+00  0.00000000000E+00  0.14736401439E+04  0.14736401439E+04  0.00000000000E+00 0. -1.
         21   -1    0    0  502  503 -0.00000000000E+00 -0.00000000000E+00 -0.97954126491E+03  0.97954126491E+03  0.00000000000E+00 0. -1.
   -9000010    2    1    2    0  503 -0.46126750697E+01  0.64515977232E+03  0.24979826526E+03  0.12107281523E+04  0.99358496207E+03 0.  0.
    9000010    2    1    2  501    0  0.46126750697E+01 -0.64515977232E+03  0.24430061369E+03  0.12424532565E+04  0.10333222615E+04 0.  0.
        -13    1    4    4    0    0 -0.10452286669E+03 -0.12448775662E+03 -0.38530432837E+03  0.41818855536E+03  0.10566000000E+00 0.  1.
          4    1    4    4  501    0  0.10913554176E+03 -0.52067201571E+03  0.62960494206E+03  0.82426470110E+03  0.00000000000E+00 0.  1.
         13    1    3    3    0    0 -0.21930664402E+03  0.82134571764E+03  0.20166511538E+02  0.85035927192E+03  0.10566000000E+00 0. -1.
         -4    1    3    3    0  503  0.21469396895E+03 -0.17618594531E+03  0.22963175372E+03  0.36036888038E+03  0.00000000000E+00 0. -1.
<mgrwt>
<rscale>  2 0.12097306E+04</rscale>
<asrwt>0</asrwt>
<pdfrwt beam="1">  1       21 0.22671387E+00 0.12181984E+04</pdfrwt>
<pdfrwt beam="2">  1       21 0.15069866E+00 0.12181984E+04</pdfrwt>
<totfact> 0.10728038E+01</totfact>
</mgrwt>
</event>
<event>
 8    1  0.1168507E-005  0.1290587E+04  0.7818608E-02  0.8543865E-01
         21   -1    0    0  503  502  0.00000000000E+00  0.00000000000E+00  0.12995484767E+04  0.12995484767E+04  0.00000000000E+00 0. -1.
         21   -1    0    0  501  503 -0.00000000000E+00 -0.00000000000E+00 -0.12680537043E+04  0.12680537043E+04  0.00000000000E+00 0.  1.
    9000010    2    1    2  501    0 -0.42306900344E+03  0.67389920923E+03 -0.20433320336E+02  0.12759705095E+04  0.99727413220E+03 0.  0.
   -9000010    2    1    2    0  502  0.42306900344E+03 -0.67389920923E+03  0.51928092741E+02  0.12916316714E+04  0.10161143252E+04 0.  0.
        -13    1    3    3    0    0  0.12285624430E+03  0.50262355297E+02  0.34537503166E+03  0.37000524967E+03  0.10566000000E+00 0.  1.
          4    1    3    3  501    0 -0.54592524774E+03  0.62363685393E+03 -0.36580835199E+03  0.90596525987E+03  0.00000000000E+00 0.  1.
         13    1    4    4    0    0  0.35207143978E+03 -0.25216587497E+03 -0.45517110508E+03  0.62826958646E+03  0.10566000000E+00 0. -1.
         -4    1    4    4    0  502  0.70997563659E+02 -0.42173333426E+03  0.50709919782E+03  0.66336208492E+03  0.00000000000E+00 0. -1.
<mgrwt>
<rscale>  2 0.12868763E+04</rscale>
<asrwt>0</asrwt>
<pdfrwt beam="1">  1       21 0.19993054E+00 0.12905874E+04</pdfrwt>
<pdfrwt beam="2">  1       21 0.19508518E+00 0.12905874E+04</pdfrwt>
<totfact> 0.72065161E+00</totfact>
</mgrwt>
</event>
<event>
 8    1  0.1168507E-005  0.1287833E+04  0.7818608E-02  0.8547602E-01
         21   -1    0    0  503  502  0.00000000000E+00  0.00000000000E+00  0.10028143325E+04  0.10028143325E+04  0.00000000000E+00 0.  1.
         21   -1    0    0  501  503 -0.00000000000E+00 -0.00000000000E+00 -0.18080715828E+04  0.18080715828E+04  0.00000000000E+00 0.  1.
    9000010    2    1    2  501    0 -0.42849820488E+03  0.68488415037E+03  0.45047275334E+02  0.12886204544E+04  0.10029139581E+04 0.  0.
   -9000010    2    1    2    0  502  0.42849820488E+03 -0.68488415037E+03 -0.85030452560E+03  0.15222654609E+04  0.97035938510E+03 0.  0.
        -13    1    3    3    0    0 -0.51189820774E+03  0.56894330220E+03 -0.36971565262E+03  0.84995642898E+03  0.10566000000E+00 0.  1.
          4    1    3    3  501    0  0.83400002867E+02  0.11594084817E+03  0.41476292795E+03  0.43866402537E+03  0.00000000000E+00 0.  1.
         13    1    4    4    0    0  0.52658169899E+03 -0.19100341983E+03 -0.85091626844E+03  0.10187389750E+04  0.10566000000E+00 0. -1.
         -4    1    4    4    0  502 -0.98083494113E+02 -0.49388073053E+03  0.61174283981E+00  0.50352648594E+03  0.00000000000E+00 0. -1.
<mgrwt>
<rscale>  2 0.12814894E+04</rscale>
<asrwt>0</asrwt>
<pdfrwt beam="1">  1       21 0.15427913E+00 0.12878328E+04</pdfrwt>
<pdfrwt beam="2">  1       21 0.27816486E+00 0.12878328E+04</pdfrwt>
<totfact> 0.41471394E+00</totfact>
</mgrwt>
</event>
<event>
 8    1  0.1168507E-005  0.1240321E+04  0.7818608E-02  0.8579079E-01
         21   -1    0    0  503  502  0.00000000000E+00  0.00000000000E+00  0.19214395708E+04  0.19214395708E+04  0.00000000000E+00 0. -1.
         21   -1    0    0  501  503 -0.00000000000E+00 -0.00000000000E+00 -0.82766994414E+03  0.82766994414E+03  0.00000000000E+00 0. -1.
    9000010    2    1    2  501    0 -0.68530485893E+03 -0.22031011716E+03  0.26124502217E+03  0.12552911377E+04  0.99464947664E+03 0.  0.
   -9000010    2    1    2    0  502  0.68530485893E+03  0.22031011716E+03  0.83252460446E+03  0.14938183772E+04  0.10100578348E+04 0.  0.
        -13    1    3    3    0    0 -0.45471052249E+03  0.24108823281E+03 -0.21072246981E+03  0.55613772189E+03  0.10566000000E+00 0.  1.
          4    1    3    3  501    0 -0.23059433643E+03 -0.46139834997E+03  0.47196749197E+03  0.69915341581E+03  0.00000000000E+00 0.  1.
         13    1    4    4    0    0 -0.13692816848E+03  0.18431890428E+03  0.59414624156E+03  0.63697138815E+03  0.10566000000E+00 0. -1.
         -4    1    4    4    0  502  0.82223302741E+03  0.35991212888E+02  0.23837836290E+03  0.85684698906E+03  0.00000000000E+00 0. -1.
<mgrwt>
<rscale>  2 0.12371803E+04</rscale>
<asrwt>0</asrwt>
<pdfrwt beam="1">  1       21 0.29560609E+00 0.12403210E+04</pdfrwt>
<pdfrwt beam="2">  1       21 0.12733384E+00 0.12403210E+04</pdfrwt>
<totfact> 0.55940440E+00</totfact>
</mgrwt>
</event>
<event>
 8    1  0.1168507E-005  0.1292122E+04  0.7818608E-02  0.8551552E-01
         21   -1    0    0  503  502  0.00000000000E+00  0.00000000000E+00  0.12424712058E+04  0.12424712058E+04  0.00000000000E+00 0. -1.
         21   -1    0    0  501  503 -0.00000000000E+00 -0.00000000000E+00 -0.13977812629E+04  0.13977812629E+04  0.00000000000E+00 0. -1.
    9000010    2    1    2  501    0  0.59380774862E+03 -0.36633281595E+03  0.31038526345E+03  0.12667712897E+04  0.10107240545E+04 0.  0.
   -9000010    2    1    2    0  502 -0.59380774862E+03  0.36633281595E+03 -0.46569532059E+03  0.13734811790E+04  0.10875527772E+04 0.  0.
        -13    1    3    3    0    0  0.11543978063E+02 -0.59823726678E+03  0.10692330698E+03  0.60782702765E+03  0.10566000000E+00 0.  1.
          4    1    3    3  501    0  0.58226377056E+03  0.23190445083E+03  0.20346195647E+03  0.65894426210E+03  0.00000000000E+00 0.  1.
         13    1    4    4    0    0 -0.58726001089E+03 -0.22174949911E+02  0.18455912903E+03  0.61597737951E+03  0.10566000000E+00 0. -1.
         -4    1    4    4    0  502 -0.65477377296E+01  0.38850776586E+03 -0.65025444962E+03  0.75750379950E+03  0.00000000000E+00 0. -1.
<mgrwt>
<rscale>  2 0.12758249E+04</rscale>
<asrwt>0</asrwt>
<pdfrwt beam="1">  1       21 0.19114942E+00 0.12921217E+04</pdfrwt>
<pdfrwt beam="2">  1       21 0.21504327E+00 0.12921217E+04</pdfrwt>
<totfact> 0.59178003E+00</totfact>
</mgrwt>
</event>
<event>
 8    1  0.1168507E-005  0.1200144E+04  0.7818608E-02  0.8612752E-01
         21   -1    0    0  501  502  0.00000000000E+00  0.00000000000E+00  0.13136804787E+04  0.13136804787E+04  0.00000000000E+00 0.  1.
         21   -1    0    0  502  503 -0.00000000000E+00 -0.00000000000E+00 -0.12626031614E+04  0.12626031614E+04  0.00000000000E+00 0.  1.
   -9000010    2    1    2    0  503  0.64004649524E+03 -0.87149067033E+02 -0.48237454991E+03  0.12629225206E+04  0.97212839213E+03 0.  0.
    9000010    2    1    2  501    0 -0.64004649524E+03  0.87149067033E+02  0.53345186724E+03  0.13133611194E+04  0.10114801330E+04 0.  0.
        -13    1    4    4    0    0 -0.72022056460E+03  0.25280515440E+03  0.72143780380E+03  0.10502859723E+04  0.10566000000E+00 0.  1.
          4    1    4    4  501    0  0.80174069363E+02 -0.16565608737E+03 -0.18798593656E+03  0.26307514711E+03  0.00000000000E+00 0.  1.
         13    1    3    3    0    0  0.15299741651E+03 -0.21015113447E+03  0.25928500517E+03  0.36715178584E+03  0.10566000000E+00 0. -1.
         -4    1    3    3    0  503  0.48704907872E+03  0.12300206744E+03 -0.74165955508E+03  0.89577073480E+03  0.00000000000E+00 0. -1.
<mgrwt>
<rscale>  2 0.11918147E+04</rscale>
<asrwt>0</asrwt>
<pdfrwt beam="1">  1       21 0.20210469E+00 0.12001444E+04</pdfrwt>
<pdfrwt beam="2">  1       21 0.19424664E+00 0.12001444E+04</pdfrwt>
<totfact> 0.71662092E+00</totfact>
</mgrwt>
</event>
<event>
 8    1  0.1168507E-005  0.1056396E+04  0.7818608E-02  0.8724125E-01
         21   -1    0    0  503  502  0.00000000000E+00  0.00000000000E+00  0.82870152271E+03  0.82870152271E+03  0.00000000000E+00 0. -1.
         21   -1    0    0  501  503 -0.00000000000E+00 -0.00000000000E+00 -0.13696687697E+04  0.13696687697E+04  0.00000000000E+00 0. -1.
    9000010    2    1    2  501    0 -0.34397406601E+03  0.35494585318E+02 -0.42603578760E+03  0.11357411370E+04  0.99439600481E+03 0.  0.
   -9000010    2    1    2    0  502  0.34397406601E+03 -0.35494585318E+02 -0.11493145941E+03  0.10626291554E+04  0.99819510010E+03 0.  0.
        -13    1    3    3    0    0  0.16141025287E+02  0.36174924894E+03 -0.52702007051E+03  0.63943194923E+03  0.10566000000E+00 0.  1.
          4    1    3    3  501    0 -0.36011509130E+03 -0.32625466363E+03  0.10098428290E+03  0.49630918782E+03  0.00000000000E+00 0.  1.
         13    1    4    4    0    0 -0.29967643212E+03  0.12210297687E+03  0.14004828688E+03  0.35260265845E+03  0.10566000000E+00 0. -1.
         -4    1    4    4    0  502  0.64365049813E+03 -0.15759756219E+03 -0.25497974629E+03  0.71002649695E+03  0.00000000000E+00 0. -1.
<mgrwt>
<rscale>  2 0.10554971E+04</rscale>
<asrwt>0</asrwt>
<pdfrwt beam="1">  1       21 0.12749254E+00 0.10563955E+04</pdfrwt>
<pdfrwt beam="2">  1       21 0.21071827E+00 0.10563955E+04</pdfrwt>
<totfact> 0.24123180E+01</totfact>
</mgrwt>
</event>
<event>
 8    1  0.1168507E-005  0.1410170E+04  0.7818608E-02  0.8480135E-01
         21   -1    0    0  501  502  0.00000000000E+00  0.00000000000E+00  0.14448321020E+04  0.14448321020E+04  0.00000000000E+00 0.  1.
         21   -1    0    0  502  503 -0.00000000000E+00 -0.00000000000E+00 -0.16058471361E+04  0.16058471361E+04  0.00000000000E+00 0.  1.
   -9000010    2    1    2    0  503  0.92763232707E+03 -0.35522774491E+03 -0.76942921545E+03  0.15148575384E+04  0.84621720569E+03 0.  0.
    9000010    2    1    2  501    0 -0.92763232707E+03  0.35522774491E+03  0.60841418127E+03  0.15358216997E+04  0.10009455491E+04 0.  0.
        -13    1    4    4    0    0  0.20123667000E+03  0.16738235755E+03  0.15958493039E+03  0.30656224840E+03  0.10566000000E+00 0.  1.
          4    1    4    4  501    0 -0.11288689971E+04  0.18784538736E+03  0.44882925088E+03  0.12292594513E+04  0.00000000000E+00 0.  1.
         13    1    3    3    0    0 -0.83844273231E+02 -0.23029248850E+03 -0.31463718140E+03  0.39882459740E+03  0.10566000000E+00 0. -1.
         -4    1    3    3    0  503  0.10114766003E+04 -0.12493525641E+03 -0.45479203405E+03  0.11160329410E+04  0.00000000000E+00 0. -1.
<mgrwt>
<rscale>  2 0.13830830E+04</rscale>
<asrwt>0</asrwt>
<pdfrwt beam="1">  1       21 0.22228186E+00 0.14101704E+04</pdfrwt>
<pdfrwt beam="2">  1       21 0.24705340E+00 0.14101704E+04</pdfrwt>
<totfact> 0.19160084E+00</totfact>
</mgrwt>
</event>
<event>
 8    1  0.1168507E-005  0.1175402E+04  0.7818608E-02  0.8634665E-01
         21   -1    0    0  501  502  0.00000000000E+00  0.00000000000E+00  0.22353794687E+04  0.22353794687E+04  0.00000000000E+00 0.  1.
         21   -1    0    0  502  503 -0.00000000000E+00 -0.00000000000E+00 -0.61377217288E+03  0.61377217288E+03  0.00000000000E+00 0.  1.
   -9000010    2    1    2    0  503 -0.18493894615E+03 -0.58760173220E+03  0.53510615650E+03  0.12485098140E+04  0.94496557997E+03 0.  0.
    9000010    2    1    2  501    0  0.18493894615E+03  0.58760173220E+03  0.10865011393E+04  0.16006418276E+04  0.10010451164E+04 0.  0.
        -13    1    4    4    0    0  0.27651411483E+03  0.85026438477E+03  0.77740051338E+03  0.11848042661E+04  0.10566000000E+00 0.  1.
          4    1    4    4  501    0 -0.91575168678E+02 -0.26266265257E+03  0.30910062593E+03  0.41583756146E+03  0.00000000000E+00 0.  1.
         13    1    3    3    0    0  0.26759113837E+03 -0.46491795219E+03 -0.82900186570E+00  0.53642745829E+03  0.10566000000E+00 0. -1.
         -4    1    3    3    0  503 -0.45253008452E+03 -0.12268378001E+03  0.53593515836E+03  0.71208235566E+03  0.00000000000E+00 0. -1.
<mgrwt>
<rscale>  2 0.11633740E+04</rscale>
<asrwt>0</asrwt>
<pdfrwt beam="1">  1       21 0.34390453E+00 0.11754019E+04</pdfrwt>
<pdfrwt beam="2">  1       21 0.94426489E-01 0.11754019E+04</pdfrwt>
<totfact> 0.58311933E+00</totfact>
</mgrwt>
</event>
<event>
 8    1  0.1168507E-005  0.1094262E+04  0.7818608E-02  0.8713849E-01
         21   -1    0    0  501  502  0.00000000000E+00  0.00000000000E+00  0.13706413852E+04  0.13706413852E+04  0.00000000000E+00 0. -1.
         21   -1    0    0  502  503 -0.00000000000E+00 -0.00000000000E+00 -0.82168541780E+03  0.82168541780E+03  0.00000000000E+00 0. -1.
   -9000010    2    1    2    0  503 -0.29226347267E+03 -0.55412221421E+02  0.54811567849E+02  0.99166541787E+03  0.94440856693E+03 0.  0.
    9000010    2    1    2  501    0  0.29226347267E+03  0.55412221421E+02  0.49414439957E+03  0.12006613852E+04  0.10530530008E+04 0.  0.
        -13    1    4    4    0    0 -0.14938725125E+03  0.28749113166E+03 -0.17324627482E+03  0.36739894464E+03  0.10566000000E+00 0.  1.
          4    1    4    4  501    0  0.44165072392E+03 -0.23207891024E+03  0.66739067439E+03  0.83326244051E+03  0.00000000000E+00 0.  1.
         13    1    3    3    0    0  0.46004256691E+01  0.42520428037E+03  0.21036184470E+02  0.42574919399E+03  0.10566000000E+00 0. -1.
         -4    1    3    3    0  503 -0.29686389834E+03 -0.48061650179E+03  0.33775383379E+02  0.56591622388E+03  0.00000000000E+00 0. -1.
<mgrwt>
<rscale>  2 0.10672500E+04</rscale>
<asrwt>0</asrwt>
<pdfrwt beam="1">  1       21 0.21086791E+00 0.10942619E+04</pdfrwt>
<pdfrwt beam="2">  1       21 0.12641314E+00 0.10942619E+04</pdfrwt>
<totfact> 0.24451174E+01</totfact>
</mgrwt>
</event>
<event>
 8    1  0.1168507E-005  0.1418217E+04  0.7818608E-02  0.8461374E-01
         21   -1    0    0  503  502  0.00000000000E+00  0.00000000000E+00  0.24593794088E+04  0.24593794088E+04  0.00000000000E+00 0.  1.
         21   -1    0    0  501  503 -0.00000000000E+00 -0.00000000000E+00 -0.80813252874E+03  0.80813252874E+03  0.00000000000E+00 0. -1.
    9000010    2    1    2  501    0 -0.67507328591E+03 -0.73298886688E+03  0.74739127045E+03  0.16031010513E+04  0.10091296494E+04 0.  0.
   -9000010    2    1    2    0  502  0.67507328591E+03  0.73298886688E+03  0.90385560964E+03  0.16644108862E+04  0.97995510855E+03 0.  0.
        -13    1    3    3    0    0  0.21344294820E+02  0.20689774304E+03 -0.12175063342E+02  0.20835186183E+03  0.10566000000E+00 0.  1.
          4    1    3    3  501    0 -0.69641758073E+03 -0.93988660992E+03  0.75956633379E+03  0.13947491895E+04  0.00000000000E+00 0.  1.
         13    1    4    4    0    0  0.18275058900E+01  0.72411621705E+03  0.45481064553E+03  0.85510254942E+03  0.10566000000E+00 0. -1.
         -4    1    4    4    0  502  0.67324578002E+03  0.88726498336E+01  0.44904496411E+03  0.80930833680E+03  0.00000000000E+00 0. -1.
<mgrwt>
<rscale>  2 0.14130364E+04</rscale>
<asrwt>0</asrwt>
<pdfrwt beam="1">  1       21 0.37836606E+00 0.14182169E+04</pdfrwt>
<pdfrwt beam="2">  1       21 0.12432808E+00 0.14182169E+04</pdfrwt>
<totfact> 0.15170541E+00</totfact>
</mgrwt>
</event>
<event>
 8    1  0.1168507E-005  0.1105603E+04  0.7818608E-02  0.8682144E-01
         21   -1    0    0  501  502  0.00000000000E+00  0.00000000000E+00  0.15502057155E+04  0.15502057155E+04  0.00000000000E+00 0.  1.
         21   -1    0    0  502  503 -0.00000000000E+00 -0.00000000000E+00 -0.78649073333E+03  0.78649073333E+03  0.00000000000E+00 0.  1.
   -9000010    2    1    2    0  503  0.35481499897E+03  0.30981144599E+03  0.34028743779E+03  0.11567860181E+04  0.10002407389E+04 0.  0.
    9000010    2    1    2  501    0 -0.35481499897E+03 -0.30981144599E+03  0.42342754439E+03  0.11799104308E+04  0.99550033838E+03 0.  0.
        -13    1    4    4    0    0  0.21245361031E+03  0.21728672288E+03  0.14560491831E+02  0.30424016099E+03  0.10566000000E+00 0.  1.
          4    1    4    4  501    0 -0.56726860928E+03 -0.52709816887E+03  0.40886705256E+03  0.87567026978E+03  0.00000000000E+00 0.  1.
         13    1    3    3    0    0  0.13320119175E+03 -0.21988919189E+03 -0.23186233078E+03  0.34619931513E+03  0.10566000000E+00 0. -1.
         -4    1    3    3    0  503  0.22161380723E+03  0.52970063789E+03  0.57214976857E+03  0.81058670295E+03  0.00000000000E+00 0. -1.
<mgrwt>
<rscale>  2 0.11045299E+04</rscale>
<asrwt>0</asrwt>
<pdfrwt beam="1">  1       21 0.23849319E+00 0.11056032E+04</pdfrwt>
<pdfrwt beam="2">  1       21 0.12099858E+00 0.11056032E+04</pdfrwt>
<totfact> 0.17141942E+01</totfact>
</mgrwt>
</event>
<event>
 8    1  0.1168507E-005  0.1066992E+04  0.7818608E-02  0.8717225E-01
         21   -1    0    0  503  502  0.00000000000E+00  0.00000000000E+00  0.76483293509E+03  0.76483293509E+03  0.00000000000E+00 0. -1.
         21   -1    0    0  501  503 -0.00000000000E+00 -0.00000000000E+00 -0.15612050148E+04  0.15612050148E+04  0.00000000000E+00 0. -1.
    9000010    2    1    2  501    0 -0.16112737693E+03 -0.27877867053E+03 -0.67905781807E+03  0.12526162151E+04  0.10021218905E+04 0.  0.
   -9000010    2    1    2    0  502  0.16112737693E+03  0.27877867053E+03 -0.11731426167E+03  0.10734217348E+04  0.10172472689E+04 0.  0.
        -13    1    3    3    0    0 -0.38234535937E+03 -0.31728914012E+03 -0.84028370090E+03  0.97618496272E+03  0.10566000000E+00 0.  1.
          4    1    3    3  501    0  0.22121798244E+03  0.38510469587E+02  0.16122588283E+03  0.27643125242E+03  0.00000000000E+00 0.  1.
         13    1    4    4    0    0  0.16872664355E+02  0.62145727548E+03  0.11886300043E+03  0.63294727750E+03  0.10566000000E+00 0. -1.
         -4    1    4    4    0  502  0.14425471258E+03 -0.34267860495E+03 -0.23617726211E+03  0.44047445729E+03  0.00000000000E+00 0. -1.
<mgrwt>
<rscale>  2 0.10633709E+04</rscale>
<asrwt>0</asrwt>
<pdfrwt beam="1">  1       21 0.11766661E+00 0.10669918E+04</pdfrwt>
<pdfrwt beam="2">  1       21 0.24018539E+00 0.10669918E+04</pdfrwt>
<totfact> 0.18159880E+01</totfact>
</mgrwt>
</event>
<event>
 8    1  0.1168507E-005  0.1028116E+04  0.7818608E-02  0.8751940E-01
         21   -1    0    0  501  502  0.00000000000E+00  0.00000000000E+00  0.67408260132E+03  0.67408260132E+03  0.00000000000E+00 0. -1.
         21   -1    0    0  502  503 -0.00000000000E+00 -0.00000000000E+00 -0.15460292444E+04  0.15460292444E+04  0.00000000000E+00 0. -1.
   -9000010    2    1    2    0  503  0.18376803395E+03  0.11530593736E+03 -0.43758438335E+03  0.11040059854E+04  0.99009240667E+03 0.  0.
    9000010    2    1    2  501    0 -0.18376803395E+03 -0.11530593736E+03 -0.43436225978E+03  0.11161058604E+04  0.10049654568E+04 0.  0.
        -13    1    4    4    0    0  0.15753349982E+03 -0.46340728250E+03 -0.43728972725E+02  0.49140141154E+03  0.10566000000E+00 0.  1.
          4    1    4    4  501    0 -0.34130153377E+03  0.34810134514E+03 -0.39063328705E+03  0.62470444883E+03  0.00000000000E+00 0.  1.
         13    1    3    3    0    0 -0.23135471534E+03  0.41653293615E+03 -0.33097325250E+03  0.58014480627E+03  0.10566000000E+00 0. -1.
         -4    1    3    3    0  503  0.41512274929E+03 -0.30122699878E+03 -0.10661113085E+03  0.52386117913E+03  0.00000000000E+00 0. -1.
<mgrwt>
<rscale>  2 0.10244629E+04</rscale>
<asrwt>0</asrwt>
<pdfrwt beam="1">  1       21 0.10370502E+00 0.10281156E+04</pdfrwt>
<pdfrwt beam="2">  1       21 0.23785065E+00 0.10281156E+04</pdfrwt>
<totfact> 0.26844122E+01</totfact>
</mgrwt>
</event>
<event>
 8    1  0.1168507E-005  0.1234118E+04  0.7818608E-02  0.8582621E-01
         21   -1    0    0  503  502  0.00000000000E+00  0.00000000000E+00  0.68686896599E+03  0.68686896599E+03  0.00000000000E+00 0. -1.
         21   -1    0    0  501  503 -0.00000000000E+00 -0.00000000000E+00 -0.28180725092E+04  0.28180725092E+04  0.00000000000E+00 0. -1.
    9000010    2    1    2  501    0  0.66639508660E+03 -0.19072642723E+03 -0.18809227479E+04  0.22457010208E+04  0.10123456474E+04 0.  0.
   -9000010    2    1    2    0  502 -0.66639508660E+03  0.19072642723E+03 -0.25028079525E+03  0.12592404543E+04  0.10210715273E+04 0.  0.
        -13    1    3    3    0    0  0.14534034497E+03  0.13869644544E+03  0.59649706434E+02  0.20956769430E+03  0.10566000000E+00 0.  1.
          4    1    3    3  501    0  0.52105474164E+03 -0.32942287267E+03 -0.19405724544E+04  0.20361333265E+04  0.00000000000E+00 0.  1.
         13    1    4    4    0    0 -0.81937983421E+03 -0.14823378067E+03 -0.29780180167E+03  0.88433166328E+03  0.10566000000E+00 0. -1.
         -4    1    4    4    0  502  0.15298474761E+03  0.33896020790E+03  0.47521006428E+02  0.37490879103E+03  0.00000000000E+00 0. -1.
<mgrwt>
<rscale>  2 0.12323111E+04</rscale>
<asrwt>0</asrwt>
<pdfrwt beam="1">  1       21 0.10567215E+00 0.12341175E+04</pdfrwt>
<pdfrwt beam="2">  1       21 0.43354961E+00 0.12341175E+04</pdfrwt>
<totfact> 0.10185220E+00</totfact>
</mgrwt>
</event>
<event>
 8    1  0.1168507E-005  0.1071008E+04  0.7818608E-02  0.8710797E-01
         21   -1    0    0  501  502  0.00000000000E+00  0.00000000000E+00  0.47743674190E+03  0.47743674190E+03  0.00000000000E+00 0.  1.
         21   -1    0    0  502  503 -0.00000000000E+00 -0.00000000000E+00 -0.24198467049E+04  0.24198467049E+04  0.00000000000E+00 0.  1.
   -9000010    2    1    2    0  503  0.24981649182E+03 -0.27037577075E+03 -0.11014959353E+04  0.15363436420E+04  0.10057570054E+04 0.  0.
    9000010    2    1    2  501    0 -0.24981649182E+03  0.27037577075E+03 -0.84091402775E+03  0.13609398048E+04  0.10047434564E+04 0.  0.
        -13    1    4    4    0    0  0.21490232397E+03 -0.27085850712E+03 -0.36858854623E+03  0.50537596629E+03  0.10566000000E+00 0.  1.
          4    1    4    4  501    0 -0.46471881579E+03  0.54123427786E+03 -0.47232548151E+03  0.85556383852E+03  0.00000000000E+00 0.  1.
         13    1    3    3    0    0  0.16668401183E+03 -0.19136607246E+03 -0.12905259566E+04  0.13152421029E+04  0.10566000000E+00 0. -1.
         -4    1    3    3    0  503  0.83132479986E+02 -0.79009698290E+02  0.18903002129E+03  0.22110153912E+03  0.00000000000E+00 0. -1.
<mgrwt>
<rscale>  2 0.10707702E+04</rscale>
<asrwt>0</asrwt>
<pdfrwt beam="1">  1       21 0.73451806E-01 0.10710082E+04</pdfrwt>
<pdfrwt beam="2">  1       21 0.37228411E+00 0.10710082E+04</pdfrwt>
<totfact> 0.70440669E+00</totfact>
</mgrwt>
</event>
<event>
 8    1  0.1168507E-005  0.1334153E+04  0.7818608E-02  0.8520701E-01
         21   -1    0    0  501  502  0.00000000000E+00  0.00000000000E+00  0.24242968102E+04  0.24242968102E+04  0.00000000000E+00 0. -1.
         21   -1    0    0  502  503 -0.00000000000E+00 -0.00000000000E+00 -0.71219828476E+03  0.71219828476E+03  0.00000000000E+00 0. -1.
   -9000010    2    1    2    0  503 -0.63820255945E+03  0.47047655664E+03  0.68958277391E+03  0.14555717959E+04  0.10072309336E+04 0.  0.
    9000010    2    1    2  501    0  0.63820255945E+03 -0.47047655664E+03  0.10225157516E+04  0.16809232991E+04  0.10729930000E+04 0.  0.
        -13    1    4    4    0    0  0.42170707323E+03 -0.77295629639E+03  0.42652188490E+03  0.97837580776E+03  0.10566000000E+00 0.  1.
          4    1    4    4  501    0  0.21649548622E+03  0.30247973975E+03  0.59599386666E+03  0.70254749135E+03  0.00000000000E+00 0.  1.
         13    1    3    3    0    0 -0.71250329706E+03  0.67204031872E+03  0.74863295954E+03  0.12327815936E+04  0.10566000000E+00 0. -1.
         -4    1    3    3    0  503  0.74300737607E+02 -0.20156376208E+03 -0.59050185626E+02  0.22279020224E+03  0.00000000000E+00 0. -1.
<mgrwt>
<rscale>  2 0.13208832E+04</rscale>
<asrwt>0</asrwt>
<pdfrwt beam="1">  1       21 0.37296874E+00 0.13341532E+04</pdfrwt>
<pdfrwt beam="2">  1       21 0.10956897E+00 0.13341532E+04</pdfrwt>
<totfact> 0.23884166E+00</totfact>
</mgrwt>
</event>
<event>
 8    1  0.1168507E-005  0.1228921E+04  0.7818608E-02  0.8591940E-01
         21   -1    0    0  503  502  0.00000000000E+00  0.00000000000E+00  0.18882208220E+04  0.18882208220E+04  0.00000000000E+00 0.  1.
         21   -1    0    0  501  503 -0.00000000000E+00 -0.00000000000E+00 -0.13513746557E+04  0.13513746557E+04  0.00000000000E+00 0.  1.
    9000010    2    1    2  501    0 -0.50129151716E+03 -0.49907194015E+03 -0.79074898650E+03  0.14305197935E+04  0.95955038081E+03 0.  0.
   -9000010    2    1    2    0  502  0.50129151716E+03  0.49907194015E+03  0.13275951528E+04  0.18090756843E+04  0.10049278358E+04 0.  0.
        -13    1    3    3    0    0 -0.65238438617E+03 -0.16561646349E+03 -0.14545911879E+03  0.68861641478E+03  0.10566000000E+00 0.  1.
          4    1    3    3  501    0  0.15109286901E+03 -0.33345547666E+03 -0.64528986771E+03  0.74190337872E+03  0.00000000000E+00 0.  1.
         13    1    4    4    0    0  0.53665052756E+03  0.52125201348E+03  0.34199530272E+03  0.82259239514E+03  0.10566000000E+00 0. -1.
         -4    1    4    4    0  502 -0.35359010406E+02 -0.22180073332E+02  0.98559985007E+03  0.98648328913E+03  0.00000000000E+00 0. -1.
<mgrwt>
<rscale>  2 0.12196103E+04</rscale>
<asrwt>0</asrwt>
<pdfrwt beam="1">  1       21 0.29049551E+00 0.12289206E+04</pdfrwt>
<pdfrwt beam="2">  1       21 0.20790379E+00 0.12289206E+04</pdfrwt>
<totfact> 0.12463655E+00</totfact>
</mgrwt>
</event>
<event>
 8    1  0.1168507E-005  0.1094065E+04  0.7818608E-02  0.8692479E-01
         21   -1    0    0  501  502  0.00000000000E+00  0.00000000000E+00  0.16612480580E+04  0.16612480580E+04  0.00000000000E+00 0.  1.
         21   -1    0    0  502  503 -0.00000000000E+00 -0.00000000000E+00 -0.71782525104E+03  0.71782525104E+03  0.00000000000E+00 0.  1.
   -9000010    2    1    2    0  503  0.24617571757E+03 -0.31917961028E+03  0.53875969991E+03  0.12195244814E+04  0.10171036520E+04 0.  0.
    9000010    2    1    2  501    0 -0.24617571757E+03  0.31917961028E+03  0.40466310701E+03  0.11595488276E+04  0.10091199859E+04 0.  0.
        -13    1    4    4    0    0 -0.59625404005E+02  0.35302011835E+03  0.71285433656E+03  0.79770903785E+03  0.10566000000E+00 0.  1.
          4    1    4    4  501    0 -0.18655031357E+03 -0.33840508072E+02 -0.30819122955E+03  0.36183978976E+03  0.00000000000E+00 0.  1.
         13    1    3    3    0    0 -0.16387693774E+03 -0.57833845992E+03  0.22513489807E+03  0.64188531564E+03  0.10566000000E+00 0. -1.
         -4    1    3    3    0  503  0.41005265531E+03  0.25915884964E+03  0.31362480185E+03  0.57763916575E+03  0.00000000000E+00 0. -1.
<mgrwt>
<rscale>  2 0.10922056E+04</rscale>
<asrwt>0</asrwt>
<pdfrwt beam="1">  1       21 0.25557662E+00 0.10940649E+04</pdfrwt>
<pdfrwt beam="2">  1       21 0.11043465E+00 0.10940649E+04</pdfrwt>
<totfact> 0.16595626E+01</totfact>
</mgrwt>
</event>
<event>
 8    1  0.1168507E-005  0.1135287E+04  0.7818608E-02  0.8667082E-01
         21   -1    0    0  503  502  0.00000000000E+00  0.00000000000E+00  0.11173441236E+04  0.11173441236E+04  0.00000000000E+00 0.  1.
         21   -1    0    0  501  503 -0.00000000000E+00 -0.00000000000E+00 -0.11453752583E+04  0.11453752583E+04  0.00000000000E+00 0.  1.
    9000010    2    1    2  501    0  0.85593525909E+02 -0.45903983801E+03  0.20033585613E+03  0.11528278250E+04  0.10348109558E+04 0.  0.
   -9000010    2    1    2    0  502 -0.85593525909E+02  0.45903983801E+03 -0.22836699084E+03  0.11098915569E+04  0.98064466602E+03 0.  0.
        -13    1    3    3    0    0 -0.45706248704E+03 -0.97541340839E+02  0.17892979948E+03  0.50043612434E+03  0.10566000000E+00 0.  1.
          4    1    3    3  501    0  0.54265601295E+03 -0.36149849717E+03  0.21406056647E+02  0.65239170067E+03  0.00000000000E+00 0.  1.
         13    1    4    4    0    0 -0.37569967489E+03  0.42183488278E+03 -0.46659236635E+03  0.73266865740E+03  0.10566000000E+00 0. -1.
         -4    1    4    4    0  502  0.29010614898E+03  0.37204955222E+02  0.23822537550E+03  0.37722289949E+03  0.00000000000E+00 0. -1.
<mgrwt>
<rscale>  2 0.11227968E+04</rscale>
<asrwt>0</asrwt>
<pdfrwt beam="1">  1       21 0.17189910E+00 0.11352874E+04</pdfrwt>
<pdfrwt beam="2">  1       21 0.17621158E+00 0.11352874E+04</pdfrwt>
<totfact> 0.17787796E+01</totfact>
</mgrwt>
</event>
<event>
 8    1  0.1168507E-005  0.1046016E+04  0.7818608E-02  0.8735010E-01
         21   -1    0    0  501  502  0.00000000000E+00  0.00000000000E+00  0.94804856972E+03  0.94804856972E+03  0.00000000000E+00 0. -1.
         21   -1    0    0  502  503 -0.00000000000E+00 -0.00000000000E+00 -0.11429981025E+04  0.11429981025E+04  0.00000000000E+00 0. -1.
   -9000010    2    1    2    0  503 -0.18937247229E+03 -0.76565558864E+02 -0.13013622388E+03  0.10430241391E+04  0.10145145143E+04 0.  0.
    9000010    2    1    2  501    0  0.18937247229E+03  0.76565558864E+02 -0.64813308917E+02  0.10480225332E+04  0.10258782808E+04 0.  0.
        -13    1    4    4    0    0  0.27332403417E+03  0.35093536821E+03  0.33433006340E+03  0.55645149184E+03  0.10566000000E+00 0.  1.
          4    1    4    4  501    0 -0.83951561880E+02 -0.27436980935E+03 -0.39914337232E+03  0.49157104134E+03  0.00000000000E+00 0.  1.
         13    1    3    3    0    0 -0.83116314846E+02 -0.33813112492E+03 -0.48029138053E+03  0.59322913011E+03  0.10566000000E+00 0. -1.
         -4    1    3    3    0  503 -0.10625615744E+03  0.26156556606E+03  0.35015515665E+03  0.44979500894E+03  0.00000000000E+00 0. -1.
<mgrwt>
<rscale>  2 0.10432196E+04</rscale>
<asrwt>0</asrwt>
<pdfrwt beam="1">  1       21 0.14585363E+00 0.10460165E+04</pdfrwt>
<pdfrwt beam="2">  1       21 0.17584586E+00 0.10460165E+04</pdfrwt>
<totfact> 0.30728048E+01</totfact>
</mgrwt>
</event>
<event>
 8    1  0.1168507E-005  0.1056545E+04  0.7818608E-02  0.8725964E-01
         21   -1    0    0  501  502  0.00000000000E+00  0.00000000000E+00  0.75110010401E+03  0.75110010401E+03  0.00000000000E+00 0. -1.
         21   -1    0    0  502  503 -0.00000000000E+00 -0.00000000000E+00 -0.23825725417E+04  0.23825725417E+04  0.00000000000E+00 0. -1.
   -9000010    2    1    2    0  503 -0.34039064778E+03  0.86966486827E+01 -0.17831234712E+04  0.20662995221E+04  0.98697668497E+03 0.  0.
    9000010    2    1    2  501    0  0.34039064778E+03 -0.86966486827E+01  0.15165103349E+03  0.10673731236E+04  0.10001729472E+04 0.  0.
        -13    1    4    4    0    0  0.34638609838E+02 -0.79541499877E+01 -0.41871668652E+03  0.42022229419E+03  0.10566000000E+00 0.  1.
          4    1    4    4  501    0  0.30575203794E+03 -0.74249869495E+00  0.57036772001E+03  0.64715082944E+03  0.00000000000E+00 0.  1.
         13    1    3    3    0    0 -0.14396891197E+03  0.75048866172E+02  0.87355980160E+02  0.18436501393E+03  0.10566000000E+00 0. -1.
         -4    1    3    3    0  503 -0.19642173581E+03 -0.66352217489E+02 -0.18704794514E+04  0.18819345082E+04  0.00000000000E+00 0. -1.
<mgrwt>
<rscale>  2 0.10534102E+04</rscale>
<asrwt>0</asrwt>
<pdfrwt beam="1">  1       21 0.11555386E+00 0.10565450E+04</pdfrwt>
<pdfrwt beam="2">  1       21 0.36654962E+00 0.10565450E+04</pdfrwt>
<totfact> 0.24259876E+00</totfact>
</mgrwt>
</event>
<event>
 8    1  0.1168507E-005  0.1385314E+04  0.7818608E-02  0.8485109E-01
         21   -1    0    0  503  502  0.00000000000E+00  0.00000000000E+00  0.79737412386E+03  0.79737412386E+03  0.00000000000E+00 0. -1.
         21   -1    0    0  501  503 -0.00000000000E+00 -0.00000000000E+00 -0.26328065645E+04  0.26328065645E+04  0.00000000000E+00 0.  1.
    9000010    2    1    2  501    0  0.39401048690E+02 -0.90141809462E+03 -0.14795007158E+04  0.19998722784E+04  0.99822829960E+03 0.  0.
   -9000010    2    1    2    0  502 -0.39401048690E+02  0.90141809462E+03 -0.35593172485E+03  0.14303084099E+04  0.10511839662E+04 0.  0.
        -13    1    3    3    0    0  0.47506508349E+03 -0.28661002886E+03 -0.40251703816E+03  0.68545759852E+03  0.10566000000E+00 0.  1.
          4    1    3    3  501    0 -0.43566403480E+03 -0.61480806576E+03 -0.10769836776E+04  0.13144146799E+04  0.00000000000E+00 0.  1.
         13    1    4    4    0    0 -0.37576920505E+03 -0.38543193323E+02 -0.17249337400E+03  0.41526142182E+03  0.10566000000E+00 0. -1.
         -4    1    4    4    0  502  0.33636815637E+03  0.93996128794E+03 -0.18343835086E+03  0.10150469881E+04  0.00000000000E+00 0. -1.
<mgrwt>
<rscale>  2 0.13752700E+04</rscale>
<asrwt>0</asrwt>
<pdfrwt beam="1">  1       21 0.12267294E+00 0.13853140E+04</pdfrwt>
<pdfrwt beam="2">  1       21 0.40504716E+00 0.13853140E+04</pdfrwt>
<totfact> 0.10327597E+00</totfact>
</mgrwt>
</event>
<event>
 8    1  0.1168507E-005  0.1155167E+04  0.7818608E-02  0.8647013E-01
         21   -1    0    0  503  502  0.00000000000E+00  0.00000000000E+00  0.80174482768E+03  0.80174482768E+03  0.00000000000E+00 0.  1.
         21   -1    0    0  501  503 -0.00000000000E+00 -0.00000000000E+00 -0.18511001774E+04  0.18511001774E+04  0.00000000000E+00 0.  1.
    9000010    2    1    2  501    0  0.32707501030E+03 -0.46374029012E+03 -0.99713627570E+03  0.15260050604E+04  0.10061697536E+04 0.  0.
   -9000010    2    1    2    0  502 -0.32707501030E+03  0.46374029012E+03 -0.52219074031E+02  0.11268399447E+04  0.97211537909E+03 0.  0.
        -13    1    3    3    0    0 -0.81162485647E+02  0.28764792391E+03 -0.22876053443E+03  0.37637756374E+03  0.10566000000E+00 0.  1.
          4    1    3    3  501    0  0.40823749595E+03 -0.75138821403E+03 -0.76837574127E+03  0.11496274967E+04  0.00000000000E+00 0.  1.
         13    1    4    4    0    0 -0.27459041030E+03 -0.19565073383E+03 -0.26838293907E+03  0.43093910965E+03  0.10566000000E+00 0. -1.
         -4    1    4    4    0  502 -0.52484599998E+02  0.65939102394E+03  0.21616386504E+03  0.69590083506E+03  0.00000000000E+00 0. -1.
<mgrwt>
<rscale>  2 0.11477107E+04</rscale>
<asrwt>0</asrwt>
<pdfrwt beam="1">  1       21 0.12334536E+00 0.11551670E+04</pdfrwt>
<pdfrwt beam="2">  1       21 0.28478464E+00 0.11551670E+04</pdfrwt>
<totfact> 0.74411290E+00</totfact>
</mgrwt>
</event>
<event>
 8    1  0.1168507E-005  0.1068970E+04  0.7818608E-02  0.8712848E-01
         21   -1    0    0  503  502  0.00000000000E+00  0.00000000000E+00  0.15193381298E+04  0.15193381298E+04  0.00000000000E+00 0. -1.
         21   -1    0    0  501  503 -0.00000000000E+00 -0.00000000000E+00 -0.75079910259E+03  0.75079910259E+03  0.00000000000E+00 0. -1.
    9000010    2    1    2  501    0 -0.36750817136E+03  0.54640686435E+02  0.36145796100E+03  0.11262790319E+04  0.99990236503E+03 0.  0.
   -9000010    2    1    2    0  502  0.36750817136E+03 -0.54640686435E+02  0.40708106620E+03  0.11438582004E+04  0.10023216687E+04 0.  0.
        -13    1    3    3    0    0 -0.67104549726E+03  0.20647697403E+03  0.35519028108E+03  0.78682586837E+03  0.10566000000E+00 0.  1.
          4    1    3    3  501    0  0.30353732590E+03 -0.15183628759E+03  0.62676799205E+01  0.33945316357E+03  0.00000000000E+00 0.  1.
         13    1    4    4    0    0 -0.23325914376E+03 -0.32930236951E+03  0.10201336566E+03  0.41624105594E+03  0.10566000000E+00 0. -1.
         -4    1    4    4    0  502  0.60076731512E+03  0.27466168308E+03  0.30506770054E+03  0.72761714450E+03  0.00000000000E+00 0. -1.
<mgrwt>
<rscale>  2 0.10684024E+04</rscale>
<asrwt>0</asrwt>
<pdfrwt beam="1">  1       21 0.23374433E+00 0.10689699E+04</pdfrwt>
<pdfrwt beam="2">  1       21 0.11550755E+00 0.10689699E+04</pdfrwt>
<totfact> 0.21313269E+01</totfact>
</mgrwt>
</event>
<event>
 8    1  0.1168507E-005  0.1179251E+04  0.7818608E-02  0.8623966E-01
         21   -1    0    0  503  502  0.00000000000E+00  0.00000000000E+00  0.67879307538E+03  0.67879307538E+03  0.00000000000E+00 0. -1.
         21   -1    0    0  501  503 -0.00000000000E+00 -0.00000000000E+00 -0.30060073790E+04  0.30060073790E+04  0.00000000000E+00 0. -1.
    9000010    2    1    2  501    0 -0.49091329539E+03 -0.39187947845E+03 -0.22139688193E+04  0.25084439163E+04  0.99803184279E+03 0.  0.
   -9000010    2    1    2    0  502  0.49091329539E+03  0.39187947845E+03 -0.11324548439E+03  0.11763565381E+04  0.98814208283E+03 0.  0.
        -13    1    3    3    0    0 -0.31667840016E+02 -0.59069995112E+03 -0.71409478817E+03  0.92728672049E+03  0.10566000000E+00 0.  1.
          4    1    3    3  501    0 -0.45924545537E+03  0.19882047267E+03 -0.14998740311E+04  0.15811571958E+04  0.00000000000E+00 0.  1.
         13    1    4    4    0    0  0.32606616308E+03 -0.26426535940E+03 -0.24661509557E+03  0.48680010211E+03  0.10566000000E+00 0. -1.
         -4    1    4    4    0  502  0.16484713230E+03  0.65614483786E+03  0.13336961118E+03  0.68955643602E+03  0.00000000000E+00 0. -1.
<mgrwt>
<rscale>  2 0.11771559E+04</rscale>
<asrwt>0</asrwt>
<pdfrwt beam="1">  1       21 0.10442970E+00 0.11792510E+04</pdfrwt>
<pdfrwt beam="2">  1       21 0.46246268E+00 0.11792510E+04</pdfrwt>
<totfact> 0.66933282E-01</totfact>
</mgrwt>
</event>
<event>
 8    1  0.1168507E-005  0.1295336E+04  0.7818608E-02  0.8539327E-01
         21   -1    0    0  501  502  0.00000000000E+00  0.00000000000E+00  0.14726018599E+04  0.14726018599E+04  0.00000000000E+00 0. -1.
         21   -1    0    0  502  503 -0.00000000000E+00 -0.00000000000E+00 -0.11368811254E+04  0.11368811254E+04  0.00000000000E+00 0. -1.
   -9000010    2    1    2    0  503 -0.80772942568E+03 -0.11767459941E+03  0.24644488224E+03  0.13185718354E+04  0.10057944466E+04 0.  0.
    9000010    2    1    2  501    0  0.80772942568E+03  0.11767459941E+03  0.89275852306E+02  0.12909111499E+04  0.99609602082E+03 0.  0.
        -13    1    4    4    0    0  0.67477238580E+03  0.24609950745E+03 -0.36121831222E+03  0.80396605678E+03  0.10566000000E+00 0.  1.
          4    1    4    4  501    0  0.13295703988E+03 -0.12842490804E+03  0.45049416452E+03  0.48694509313E+03  0.00000000000E+00 0.  1.
         13    1    3    3    0    0 -0.41206002307E+02  0.37223617189E+03  0.15123765466E+03  0.40389422086E+03  0.10566000000E+00 0. -1.
         -4    1    3    3    0  503 -0.76652342337E+03 -0.48991077130E+03  0.95207227575E+02  0.91467761457E+03  0.00000000000E+00 0. -1.
<mgrwt>
<rscale>  2 0.12934534E+04</rscale>
<asrwt>0</asrwt>
<pdfrwt beam="1">  1       21 0.22655413E+00 0.12953365E+04</pdfrwt>
<pdfrwt beam="2">  1       21 0.17490479E+00 0.12953365E+04</pdfrwt>
<totfact> 0.65626550E+00</totfact>
</mgrwt>
</event>
<event>
 8    1  0.1168507E-005  0.1094928E+04  0.7818608E-02  0.8701684E-01
         21   -1    0    0  503  502  0.00000000000E+00  0.00000000000E+00  0.15950548584E+04  0.15950548584E+04  0.00000000000E+00 0. -1.
         21   -1    0    0  501  503 -0.00000000000E+00 -0.00000000000E+00 -0.71746964471E+03  0.71746964471E+03  0.00000000000E+00 0. -1.
    9000010    2    1    2  501    0 -0.24224264677E+03 -0.55494919732E+02  0.36759740214E+03  0.11046529034E+04  0.10116170228E+04 0.  0.
   -9000010    2    1    2    0  502  0.24224264677E+03  0.55494919732E+02  0.50998781159E+03  0.12078715998E+04  0.10663512777E+04 0.  0.
        -13    1    3    3    0    0 -0.56216937065E+03  0.31188537083E+02  0.49486386090E+03  0.74959814443E+03  0.10566000000E+00 0.  1.
          4    1    3    3  501    0  0.31992672387E+03 -0.86683456816E+02 -0.12726645876E+03  0.35505475896E+03  0.00000000000E+00 0.  1.
         13    1    4    4    0    0 -0.17744833342E+03  0.15486707935E+03 -0.24407347009E+03  0.33918076783E+03  0.10566000000E+00 0. -1.
         -4    1    4    4    0  502  0.41969098019E+03 -0.99372159617E+02  0.75406128169E+03  0.86869083194E+03  0.00000000000E+00 0. -1.
<mgrwt>
<rscale>  2 0.10813698E+04</rscale>
<asrwt>0</asrwt>
<pdfrwt beam="1">  1       21 0.24539305E+00 0.10949275E+04</pdfrwt>
<pdfrwt beam="2">  1       21 0.11037995E+00 0.10949275E+04</pdfrwt>
<totfact> 0.19705814E+01</totfact>
</mgrwt>
</event>
<event>
 8    1  0.1168507E-005  0.1254290E+04  0.7818608E-02  0.8580370E-01
         21   -1    0    0  501  502  0.00000000000E+00  0.00000000000E+00  0.38387935359E+04  0.38387935359E+04  0.00000000000E+00 0. -1.
         21   -1    0    0  502  503 -0.00000000000E+00 -0.00000000000E+00 -0.38605926416E+03  0.38605926416E+03  0.00000000000E+00 0. -1.
   -9000010    2    1    2    0  503 -0.71589350899E+03  0.17920124745E+03  0.17675461947E+04  0.21673632203E+04  0.10142125886E+04 0.  0.
    9000010    2    1    2  501    0  0.71589350899E+03 -0.17920124745E+03  0.16851880770E+04  0.20574895797E+04  0.92129686452E+03 0.  0.
        -13    1    4    4    0    0  0.60123876990E+03 -0.46665550628E+03  0.73453855334E+03  0.10577345213E+04  0.10566000000E+00 0.  1.
          4    1    4    4  501    0  0.11465473909E+03  0.28745425883E+03  0.95064952363E+03  0.99975505845E+03  0.00000000000E+00 0.  1.
         13    1    3    3    0    0 -0.58703863513E+03  0.25305969373E+03  0.18769966801E+04  0.19828691626E+04  0.10566000000E+00 0. -1.
         -4    1    3    3    0  503 -0.12885487387E+03 -0.73858446277E+02 -0.10945048533E+03  0.18449405775E+03  0.00000000000E+00 0. -1.
<mgrwt>
<rscale>  2 0.12354016E+04</rscale>
<asrwt>0</asrwt>
<pdfrwt beam="1">  1       21 0.59058359E+00 0.12542901E+04</pdfrwt>
<pdfrwt beam="2">  1       21 0.59393736E-01 0.12542901E+04</pdfrwt>
<totfact> 0.31866026E-01</totfact>
</mgrwt>
</event>
<event>
 8    1  0.1168507E-005  0.1077196E+04  0.7818608E-02  0.8711389E-01
         21   -1    0    0  501  502  0.00000000000E+00  0.00000000000E+00  0.99064421555E+03  0.99064421555E+03  0.00000000000E+00 0. -1.
         21   -1    0    0  502  503 -0.00000000000E+00 -0.00000000000E+00 -0.11408948435E+04  0.11408948435E+04  0.00000000000E+00 0. -1.
   -9000010    2    1    2    0  503 -0.16458864585E+03 -0.18557685580E+03 -0.75660791109E+02  0.10798494881E+04  0.10482471893E+04 0.  0.
    9000010    2    1    2  501    0  0.16458864585E+03  0.18557685580E+03 -0.74589836847E+02  0.10516895710E+04  0.10192934407E+04 0.  0.
        -13    1    4    4    0    0 -0.27573666255E+03 -0.16152487209E+03  0.24828942628E+03  0.40468338456E+03  0.10566000000E+00 0.  1.
          4    1    4    4  501    0  0.44032530839E+03  0.34710172788E+03 -0.32287926312E+03  0.64700618642E+03  0.00000000000E+00 0.  1.
         13    1    3    3    0    0 -0.24903736145E+03  0.28158092967E+03 -0.36494805037E+03  0.52392224422E+03  0.10566000000E+00 0. -1.
         -4    1    3    3    0  503  0.84448715604E+02 -0.46715778547E+03  0.28928725926E+03  0.55592724385E+03  0.00000000000E+00 0. -1.
<mgrwt>
<rscale>  2 0.10700869E+04</rscale>
<asrwt>0</asrwt>
<pdfrwt beam="1">  1       21 0.15240680E+00 0.10771956E+04</pdfrwt>
<pdfrwt beam="2">  1       21 0.17552228E+00 0.10771956E+04</pdfrwt>
<totfact> 0.26826754E+01</totfact>
</mgrwt>
</event>
<event>
 8    1  0.1168507E-005  0.1092164E+04  0.7818608E-02  0.8693050E-01
         21   -1    0    0  501  502  0.00000000000E+00  0.00000000000E+00  0.30265828376E+04  0.30265828376E+04  0.00000000000E+00 0.  1.
         21   -1    0    0  502  503 -0.00000000000E+00 -0.00000000000E+00 -0.45097196526E+03  0.45097196526E+03  0.00000000000E+00 0.  1.
   -9000010    2    1    2    0  503  0.42074163200E+03  0.12750347612E+03  0.66417069801E+03  0.12760949366E+04  0.99700296586E+03 0.  0.
    9000010    2    1    2  501    0 -0.42074163200E+03 -0.12750347612E+03  0.19114401743E+04  0.22014598662E+04  0.99977064629E+03 0.  0.
        -13    1    4    4    0    0 -0.73696958384E+03 -0.11525213112E+03  0.10865930379E+04  0.13179877323E+04  0.10566000000E+00 0.  1.
          4    1    4    4  501    0  0.31622795185E+03 -0.12251345001E+02  0.82484713639E+03  0.88347213391E+03  0.00000000000E+00 0.  1.
         13    1    3    3    0    0  0.42314617815E+03  0.52573654284E+03  0.30806210705E+03  0.74185839183E+03  0.10566000000E+00 0. -1.
         -4    1    3    3    0  503 -0.24045461548E+01 -0.39823306672E+03  0.35610859095E+03  0.53423654482E+03  0.00000000000E+00 0. -1.
<mgrwt>
<rscale>  2 0.10915301E+04</rscale>
<asrwt>0</asrwt>
<pdfrwt beam="1">  1       21 0.46562812E+00 0.10921639E+04</pdfrwt>
<pdfrwt beam="2">  1       21 0.69380304E-01 0.10921639E+04</pdfrwt>
<totfact> 0.18049721E+00</totfact>
</mgrwt>
</event>
<event>
 8    1  0.1168507E-005  0.1041977E+04  0.7818608E-02  0.8756196E-01
         21   -1    0    0  503  502  0.00000000000E+00  0.00000000000E+00  0.55399941855E+03  0.55399941855E+03  0.00000000000E+00 0.  1.
         21   -1    0    0  501  503 -0.00000000000E+00 -0.00000000000E+00 -0.18586245086E+04  0.18586245086E+04  0.00000000000E+00 0. -1.
    9000010    2    1    2  501    0  0.31309279602E+03 -0.12784324206E+03 -0.41403347041E+03  0.10419053472E+04  0.89429975092E+03 0.  0.
   -9000010    2    1    2    0  502 -0.31309279602E+03  0.12784324206E+03 -0.89059161960E+03  0.13707185799E+04  0.98556836339E+03 0.  0.
        -13    1    3    3    0    0  0.10480424508E+01  0.33812523945E+03  0.10888746185E+02  0.33830216066E+03  0.10566000000E+00 0.  1.
          4    1    3    3  501    0  0.31204475357E+03 -0.46596848151E+03 -0.42492221659E+03  0.70360318657E+03  0.00000000000E+00 0.  1.
         13    1    4    4    0    0 -0.58757936561E+03 -0.12535960237E+02 -0.88499582668E+03  0.10623673026E+04  0.10566000000E+00 0. -1.
         -4    1    4    4    0  502  0.27448656959E+03  0.14037920230E+03 -0.55957929229E+01  0.30835127732E+03  0.00000000000E+00 0. -1.
<mgrwt>
<rscale>  2 0.10198126E+04</rscale>
<asrwt>0</asrwt>
<pdfrwt beam="1">  1       21 0.85230680E-01 0.10419770E+04</pdfrwt>
<pdfrwt beam="2">  1       21 0.28594223E+00 0.10419770E+04</pdfrwt>
<totfact> 0.19969568E+01</totfact>
</mgrwt>
</event>
<event>
 8    1  0.1168507E-005  0.1087929E+04  0.7818608E-02  0.8702308E-01
         21   -1    0    0  501  502  0.00000000000E+00  0.00000000000E+00  0.74392362889E+03  0.74392362889E+03  0.00000000000E+00 0.  1.
         21   -1    0    0  502  503 -0.00000000000E+00 -0.00000000000E+00 -0.15493430868E+04  0.15493430868E+04  0.00000000000E+00 0.  1.
   -9000010    2    1    2    0  503  0.29439200302E+03  0.33734808881E+03 -0.42312260520E+03  0.11673139917E+04  0.99152349028E+03 0.  0.
    9000010    2    1    2  501    0 -0.29439200302E+03 -0.33734808881E+03 -0.38229685273E+03  0.11259527240E+04  0.95976469438E+03 0.  0.
        -13    1    4    4    0    0  0.22275160485E+03 -0.46018592449E+03 -0.28583067569E+03  0.58573761096E+03  0.10566000000E+00 0.  1.
          4    1    4    4  501    0 -0.51714360787E+03  0.12283783568E+03 -0.96466177044E+02  0.54021511304E+03  0.00000000000E+00 0.  1.
         13    1    3    3    0    0  0.48036670412E+03  0.52954474288E+03 -0.51870489337E+03  0.88330322240E+03  0.10566000000E+00 0. -1.
         -4    1    3    3    0  503 -0.18597470109E+03 -0.19219665407E+03  0.95582288168E+02  0.28401076933E+03  0.00000000000E+00 0. -1.
<mgrwt>
<rscale>  2 0.10806400E+04</rscale>
<asrwt>0</asrwt>
<pdfrwt beam="1">  1       21 0.11444979E+00 0.10879289E+04</pdfrwt>
<pdfrwt beam="2">  1       21 0.23836047E+00 0.10879289E+04</pdfrwt>
<totfact> 0.20127098E+01</totfact>
</mgrwt>
</event>
<event>
 8    1  0.1168507E-005  0.1138799E+04  0.7818608E-02  0.8657460E-01
         21   -1    0    0  503  502  0.00000000000E+00  0.00000000000E+00  0.21169510652E+04  0.21169510652E+04  0.00000000000E+00 0. -1.
         21   -1    0    0  501  503 -0.00000000000E+00 -0.00000000000E+00 -0.60551022569E+03  0.60551022569E+03  0.00000000000E+00 0. -1.
    9000010    2    1    2  501    0  0.40993044149E+03 -0.31875861484E+03  0.83396746329E+03  0.14115116926E+04  0.10135154203E+04 0.  0.
   -9000010    2    1    2    0  502 -0.40993044149E+03  0.31875861484E+03  0.67747337626E+03  0.13109495983E+04  0.99497168417E+03 0.  0.
        -13    1    3    3    0    0  0.45432486285E+01  0.91412866565E+02  0.82976688206E+03  0.83479940286E+03  0.10566000000E+00 0.  1.
          4    1    3    3  501    0  0.40538719287E+03 -0.41017148141E+03  0.42005812279E+01  0.57671228978E+03  0.00000000000E+00 0.  1.
         13    1    4    4    0    0  0.12345934290E+02 -0.21026343639E+02 -0.24221009909E+03  0.24343432889E+03  0.10566000000E+00 0. -1.
         -4    1    4    4    0  502 -0.42227637578E+03  0.33978495848E+03  0.91968347535E+03  0.10675152694E+04  0.00000000000E+00 0. -1.
<mgrwt>
<rscale>  2 0.11346587E+04</rscale>
<asrwt>0</asrwt>
<pdfrwt beam="1">  1       21 0.32568477E+00 0.11387992E+04</pdfrwt>
<pdfrwt beam="2">  1       21 0.93155421E-01 0.11387992E+04</pdfrwt>
<totfact> 0.81667394E+00</totfact>
</mgrwt>
</event>
<event>
 8    1  0.1168507E-005  0.1203282E+04  0.7818608E-02  0.8619546E-01
         21   -1    0    0  501  502  0.00000000000E+00  0.00000000000E+00  0.17334603937E+04  0.17334603937E+04  0.00000000000E+00 0.  1.
         21   -1    0    0  502  503 -0.00000000000E+00 -0.00000000000E+00 -0.97364104302E+03  0.97364104302E+03  0.00000000000E+00 0.  1.
   -9000010    2    1    2    0  503  0.68959208598E+03 -0.33520359042E+03 -0.21145246619E+03  0.12217199858E+04  0.92735585734E+03 0.  0.
    9000010    2    1    2  501    0 -0.68959208598E+03  0.33520359042E+03  0.97127181687E+03  0.14853814509E+04  0.82163886255E+03 0.  0.
        -13    1    4    4    0    0 -0.87047884676E+03  0.27853726235E+03  0.68553160057E+03  0.11424841424E+04  0.10566000000E+00 0.  1.
          4    1    4    4  501    0  0.18088676078E+03  0.56666328069E+02  0.28574021630E+03  0.34289730850E+03  0.00000000000E+00 0.  1.
         13    1    3    3    0    0  0.55324384716E+03  0.99894760918E+01  0.26847347566E+03  0.61502565991E+03  0.10566000000E+00 0. -1.
         -4    1    3    3    0  503  0.13634823882E+03 -0.34519306651E+03 -0.47992594185E+03  0.60669432588E+03  0.00000000000E+00 0. -1.
<mgrwt>
<rscale>  2 0.11829068E+04</rscale>
<asrwt>0</asrwt>
<pdfrwt beam="1">  1       21 0.26668621E+00 0.12032820E+04</pdfrwt>
<pdfrwt beam="2">  1       21 0.14979093E+00 0.12032820E+04</pdfrwt>
<totfact> 0.55898394E+00</totfact>
</mgrwt>
</event>
<event>
 8    1  0.1168507E-005  0.1481187E+04  0.7818608E-02  0.8421061E-01
         21   -1    0    0  501  502  0.00000000000E+00  0.00000000000E+00  0.91363031993E+03  0.91363031993E+03  0.00000000000E+00 0. -1.
         21   -1    0    0  502  503 -0.00000000000E+00 -0.00000000000E+00 -0.24463861983E+04  0.24463861983E+04  0.00000000000E+00 0.  1.
   -9000010    2    1    2    0  503 -0.10511278505E+04 -0.27962260595E+03 -0.52189886016E+03  0.15704435504E+04  0.10054133304E+04 0.  0.
    9000010    2    1    2  501    0  0.10511278505E+04  0.27962260595E+03 -0.10108570182E+04  0.17895729678E+04  0.99883979494E+03 0.  0.
        -13    1    4    4    0    0  0.15864009678E+03  0.22616312320E+03 -0.83346863917E+03  0.87805832509E+03  0.10566000000E+00 0.  1.
          4    1    4    4  501    0  0.89248775374E+03  0.53459482753E+02 -0.17738837901E+03  0.91151464272E+03  0.00000000000E+00 0.  1.
         13    1    3    3    0    0 -0.10912746113E+04 -0.18939012364E+01 -0.14547013069E+03  0.11009293502E+04  0.10566000000E+00 0. -1.
         -4    1    3    3    0  503  0.40146760749E+02 -0.27772870471E+03 -0.37642872946E+03  0.46951420020E+03  0.00000000000E+00 0. -1.
<mgrwt>
<rscale>  2 0.14800721E+04</rscale>
<asrwt>0</asrwt>
<pdfrwt beam="1">  1       21 0.14055851E+00 0.14811869E+04</pdfrwt>
<pdfrwt beam="2">  1       21 0.37636710E+00 0.14811869E+04</pdfrwt>
<totfact> 0.10819221E+00</totfact>
</mgrwt>
</event>
<event>
 8    1  0.1168507E-005  0.1086631E+04  0.7818608E-02  0.8701827E-01
         21   -1    0    0  501  502  0.00000000000E+00  0.00000000000E+00  0.11589813740E+04  0.11589813740E+04  0.00000000000E+00 0.  1.
         21   -1    0    0  502  503 -0.00000000000E+00 -0.00000000000E+00 -0.10177742231E+04  0.10177742231E+04  0.00000000000E+00 0.  1.
   -9000010    2    1    2    0  503 -0.20019296747E+03  0.36533303160E+03 -0.79123218080E+02  0.10680123677E+04  0.98022675216E+03 0.  0.
    9000010    2    1    2  501    0  0.20019296747E+03 -0.36533303160E+03  0.22033036893E+03  0.11087432294E+04  0.10036038208E+04 0.  0.
        -13    1    4    4    0    0  0.42756180424E+03  0.20349714855E+03  0.79009744735E+02  0.48006534642E+03  0.10566000000E+00 0.  1.
          4    1    4    4  501    0 -0.22736883677E+03 -0.56883018014E+03  0.14132062419E+03  0.62867788302E+03  0.00000000000E+00 0.  1.
         13    1    3    3    0    0 -0.27033823650E+03 -0.29494310074E+03 -0.74331552630E+01  0.40016178946E+03  0.10566000000E+00 0. -1.
         -4    1    3    3    0  503  0.70145269033E+02  0.66027613233E+03 -0.71690062817E+02  0.66785057820E+03  0.00000000000E+00 0. -1.
<mgrwt>
<rscale>  2 0.10812018E+04</rscale>
<asrwt>0</asrwt>
<pdfrwt beam="1">  1       21 0.17830483E+00 0.10866306E+04</pdfrwt>
<pdfrwt beam="2">  1       21 0.15658065E+00 0.10866306E+04</pdfrwt>
<totfact> 0.23341700E+01</totfact>
</mgrwt>
</event>
<event>
 8    1  0.1168507E-005  0.1032556E+04  0.7818608E-02  0.8747601E-01
         21   -1    0    0  501  502  0.00000000000E+00  0.00000000000E+00  0.15948326759E+04  0.15948326759E+04  0.00000000000E+00 0.  1.
         21   -1    0    0  502  503 -0.00000000000E+00 -0.00000000000E+00 -0.66306172352E+03  0.66306172352E+03  0.00000000000E+00 0.  1.
   -9000010    2    1    2    0  503  0.44800020533E+02  0.20347981183E+03  0.54588861367E+03  0.11679749739E+04  0.10113160166E+04 0.  0.
    9000010    2    1    2  501    0 -0.44800020533E+02 -0.20347981183E+03  0.38588233869E+03  0.10899194255E+04  0.99780163314E+03 0.  0.
        -13    1    4    4    0    0  0.30887335361E+02 -0.22885098868E+02 -0.33791898507E+03  0.34009852524E+03  0.10566000000E+00 0.  1.
          4    1    4    4  501    0 -0.75687355894E+02 -0.18059471297E+03  0.72380132376E+03  0.74982090026E+03  0.00000000000E+00 0.  1.
         13    1    3    3    0    0  0.31420449408E+03  0.88225727606E+02  0.74524182789E+03  0.81356845828E+03  0.10566000000E+00 0. -1.
         -4    1    3    3    0  503 -0.26940447355E+03  0.11525408423E+03 -0.19935321421E+03  0.35440651563E+03  0.00000000000E+00 0. -1.
<mgrwt>
<rscale>  2 0.10292314E+04</rscale>
<asrwt>0</asrwt>
<pdfrwt beam="1">  1       21 0.24535887E+00 0.10325556E+04</pdfrwt>
<pdfrwt beam="2">  1       21 0.10200950E+00 0.10325556E+04</pdfrwt>
<totfact> 0.24678887E+01</totfact>
</mgrwt>
</event>
<event>
 8    1  0.1168507E-005  0.1432832E+04  0.7818608E-02  0.8452450E-01
         21   -1    0    0  501  502  0.00000000000E+00  0.00000000000E+00  0.34578620160E+04  0.34578620160E+04  0.00000000000E+00 0.  1.
         21   -1    0    0  502  503 -0.00000000000E+00 -0.00000000000E+00 -0.58703212799E+03  0.58703212799E+03  0.00000000000E+00 0. -1.
   -9000010    2    1    2    0  503 -0.37293311298E+02 -0.10046565735E+04  0.15421374730E+04  0.20908133679E+04  0.99125523045E+03 0.  0.
    9000010    2    1    2  501    0  0.37293311298E+02  0.10046565735E+04  0.13286924150E+04  0.19540807760E+04  0.10209223888E+04 0.  0.
        -13    1    4    4    0    0 -0.51604209377E+02  0.11314172380E+04  0.75819612005E+03  0.13629487622E+04  0.10566000000E+00 0.  1.
          4    1    4    4  501    0  0.88897520675E+02 -0.12676066446E+03  0.57049629492E+03  0.59113201381E+03  0.00000000000E+00 0.  1.
         13    1    3    3    0    0  0.20563926165E+03 -0.48044950004E+01 -0.34059699019E+02  0.20849619508E+03  0.10566000000E+00 0. -1.
         -4    1    3    3    0  503 -0.24293257295E+03 -0.99985207854E+03  0.15761971720E+04  0.18823171728E+04  0.00000000000E+00 0. -1.
<mgrwt>
<rscale>  2 0.14275569E+04</rscale>
<asrwt>0</asrwt>
<pdfrwt beam="1">  1       21 0.53197876E+00 0.14328322E+04</pdfrwt>
<pdfrwt beam="2">  1       21 0.90312637E-01 0.14328322E+04</pdfrwt>
<totfact> 0.30359455E-01</totfact>
</mgrwt>
</event>
<event>
 8    1  0.1168507E-005  0.1036008E+04  0.7818608E-02  0.8742748E-01
         21   -1    0    0  501  502  0.00000000000E+00  0.00000000000E+00  0.18785051744E+04  0.18785051744E+04  0.00000000000E+00 0.  1.
         21   -1    0    0  502  503 -0.00000000000E+00 -0.00000000000E+00 -0.56893995477E+03  0.56893995477E+03  0.00000000000E+00 0.  1.
   -9000010    2    1    2    0  503  0.10619400885E+02 -0.27851716647E+03  0.69883736268E+03  0.12496745498E+04  0.99781172439E+03 0.  0.
    9000010    2    1    2  501    0 -0.10619400885E+02  0.27851716647E+03  0.61072785698E+03  0.11977705794E+04  0.99195829642E+03 0.  0.
        -13    1    4    4    0    0 -0.48161610076E+03  0.12086753489E+03  0.14598331030E+03  0.51756561666E+03  0.10566000000E+00 0.  1.
          4    1    4    4  501    0  0.47099669988E+03  0.15764963158E+03  0.46474454667E+03  0.68020496271E+03  0.00000000000E+00 0.  1.
         13    1    3    3    0    0  0.44494423250E+03  0.98137343057E+02  0.24569524933E+03  0.51766057880E+03  0.10566000000E+00 0. -1.
         -4    1    3    3    0  503 -0.43432483161E+03 -0.37665450952E+03  0.45314211335E+03  0.73201397104E+03  0.00000000000E+00 0. -1.
<mgrwt>
<rscale>  2 0.10345961E+04</rscale>
<asrwt>0</asrwt>
<pdfrwt beam="1">  1       21 0.28900079E+00 0.10360081E+04</pdfrwt>
<pdfrwt beam="2">  1       21 0.87529225E-01 0.10360081E+04</pdfrwt>
<totfact> 0.17780006E+01</totfact>
</mgrwt>
</event>
<event>
 8    1  0.1168507E-005  0.1053915E+04  0.7818608E-02  0.8725779E-01
         21   -1    0    0  503  502  0.00000000000E+00  0.00000000000E+00  0.97939087082E+03  0.97939087082E+03  0.00000000000E+00 0.  1.
         21   -1    0    0  501  503 -0.00000000000E+00 -0.00000000000E+00 -0.11329178428E+04  0.11329178428E+04  0.00000000000E+00 0.  1.
    9000010    2    1    2  501    0  0.29604860842E+03  0.10469505663E+03 -0.68151180702E+02  0.10561159029E+04  0.10060469091E+04 0.  0.
   -9000010    2    1    2    0  502 -0.29604860842E+03 -0.10469505663E+03 -0.85375791241E+02  0.10561928107E+04  0.10048126165E+04 0.  0.
        -13    1    3    3    0    0  0.59917750899E+03  0.28827063855E+03 -0.17205269334E+03  0.68681568763E+03  0.10566000000E+00 0.  1.
          4    1    3    3  501    0 -0.30312890057E+03 -0.18357558191E+03  0.10390151263E+03  0.36930021522E+03  0.00000000000E+00 0.  1.
         13    1    4    4    0    0 -0.35288968258E+03  0.77575367859E+02  0.39736078843E+03  0.53707045452E+03  0.10566000000E+00 0. -1.
         -4    1    4    4    0  502  0.56841074162E+02 -0.18227042449E+03 -0.48273657967E+03  0.51912235621E+03  0.00000000000E+00 0. -1.
<mgrwt>
<rscale>  2 0.10536200E+04</rscale>
<asrwt>0</asrwt>
<pdfrwt beam="1">  1       21 0.15067552E+00 0.10539147E+04</pdfrwt>
<pdfrwt beam="2">  1       21 0.17429505E+00 0.10539147E+04</pdfrwt>
<totfact> 0.28595143E+01</totfact>
</mgrwt>
</event>
<event>
 8    1  0.1168507E-005  0.1089887E+04  0.7818608E-02  0.8695960E-01
         21   -1    0    0  503  502  0.00000000000E+00  0.00000000000E+00  0.26755753609E+04  0.26755753609E+04  0.00000000000E+00 0. -1.
         21   -1    0    0  501  503 -0.00000000000E+00 -0.00000000000E+00 -0.44994519111E+03  0.44994519111E+03  0.00000000000E+00 0. -1.
    9000010    2    1    2  501    0 -0.67040723578E+02 -0.41923523819E+03  0.89667760827E+03  0.14113410026E+04  0.10037928317E+04 0.  0.
   -9000010    2    1    2    0  502  0.67040723578E+02  0.41923523819E+03  0.13289525615E+04  0.17141795494E+04  0.99601404264E+03 0.  0.
        -13    1    3    3    0    0  0.37170765502E+03  0.44891748333E+02  0.59972245683E+03  0.70699991956E+03  0.10566000000E+00 0.  1.
          4    1    3    3  501    0 -0.43874837860E+03 -0.46412698653E+03  0.29695515145E+03  0.70434108308E+03  0.00000000000E+00 0.  1.
         13    1    4    4    0    0 -0.36376540454E+03  0.47235686462E+03  0.49855783497E+03  0.77717835988E+03  0.10566000000E+00 0. -1.
         -4    1    4    4    0  502  0.43080612812E+03 -0.53121626426E+02  0.83039472653E+03  0.93700118947E+03  0.00000000000E+00 0. -1.
<mgrwt>
<rscale>  2 0.10880921E+04</rscale>
<asrwt>0</asrwt>
<pdfrwt beam="1">  1       21 0.41162697E+00 0.10898866E+04</pdfrwt>
<pdfrwt beam="2">  1       21 0.69222339E-01 0.10898866E+04</pdfrwt>
<totfact> 0.42976043E+00</totfact>
</mgrwt>
</event>
<event>
 8    1  0.1168507E-005  0.1073297E+04  0.7818608E-02  0.8710849E-01
         21   -1    0    0  503  502  0.00000000000E+00  0.00000000000E+00  0.17696547290E+04  0.17696547290E+04  0.00000000000E+00 0. -1.
         21   -1    0    0  501  503 -0.00000000000E+00 -0.00000000000E+00 -0.65039232106E+03  0.65039232106E+03  0.00000000000E+00 0. -1.
    9000010    2    1    2  501    0  0.37183928099E+03 -0.52186382803E+02  0.66997443694E+03  0.12565069875E+04  0.99446276657E+03 0.  0.
   -9000010    2    1    2    0  502 -0.37183928099E+03  0.52186382803E+02  0.44928797100E+03  0.11635400625E+04  0.10054739812E+04 0.  0.
        -13    1    3    3    0    0  0.17668364296E+03 -0.44273040351E+03  0.24586013711E+02  0.47731729816E+03  0.10566000000E+00 0.  1.
          4    1    3    3  501    0  0.19515563802E+03  0.39054402071E+03  0.64538842323E+03  0.77918968936E+03  0.00000000000E+00 0.  1.
         13    1    4    4    0    0 -0.29369887408E+03  0.52089674224E+03  0.24145174356E+03  0.64489642606E+03  0.10566000000E+00 0. -1.
         -4    1    4    4    0  502 -0.78140406904E+02 -0.46871035943E+03  0.20783622744E+03  0.51864363649E+03  0.00000000000E+00 0. -1.
<mgrwt>
<rscale>  2 0.10707103E+04</rscale>
<asrwt>0</asrwt>
<pdfrwt beam="1">  1       21 0.27225457E+00 0.10732967E+04</pdfrwt>
<pdfrwt beam="2">  1       21 0.10006036E+00 0.10732967E+04</pdfrwt>
<totfact> 0.16450163E+01</totfact>
</mgrwt>
</event>
<event>
 8    1  0.1168507E-005  0.1225916E+04  0.7818608E-02  0.8588468E-01
         21   -1    0    0  501  502  0.00000000000E+00  0.00000000000E+00  0.98973571620E+03  0.98973571620E+03  0.00000000000E+00 0. -1.
         21   -1    0    0  502  503 -0.00000000000E+00 -0.00000000000E+00 -0.20153581541E+04  0.20153581541E+04  0.00000000000E+00 0. -1.
   -9000010    2    1    2    0  503 -0.36618578322E+03  0.59172438129E+03 -0.12657730367E+04  0.17621155024E+04  0.10092769155E+04 0.  0.
    9000010    2    1    2  501    0  0.36618578322E+03 -0.59172438129E+03  0.24015059879E+03  0.12429783679E+04  0.10015453768E+04 0.  0.
        -13    1    4    4    0    0  0.15220695978E+03 -0.79477556700E+03 -0.73322959413E+02  0.81253395501E+03  0.10566000000E+00 0.  1.
          4    1    4    4  501    0  0.21397882344E+03  0.20305118571E+03  0.31347355820E+03  0.43044441289E+03  0.00000000000E+00 0.  1.
         13    1    3    3    0    0 -0.18844764654E+03  0.66606574313E+03 -0.26218232368E+03  0.74019975120E+03  0.10566000000E+00 0. -1.
         -4    1    3    3    0  503 -0.17773813668E+03 -0.74341361845E+02 -0.10035907130E+04  0.10219157512E+04  0.00000000000E+00 0. -1.
<mgrwt>
<rscale>  2 0.12243234E+04</rscale>
<asrwt>0</asrwt>
<pdfrwt beam="1">  1       21 0.15226703E+00 0.12259158E+04</pdfrwt>
<pdfrwt beam="2">  1       21 0.31005510E+00 0.12259158E+04</pdfrwt>
<totfact> 0.25981092E+00</totfact>
</mgrwt>
</event>
<event>
 8    1  0.1168507E-005  0.1062889E+04  0.7818608E-02  0.8722828E-01
         21   -1    0    0  503  502  0.00000000000E+00  0.00000000000E+00  0.12595284189E+04  0.12595284189E+04  0.00000000000E+00 0.  1.
         21   -1    0    0  501  503 -0.00000000000E+00 -0.00000000000E+00 -0.87930864733E+03  0.87930864733E+03  0.00000000000E+00 0.  1.
    9000010    2    1    2  501    0  0.28983644586E+03  0.38164253446E+03  0.14049138027E+03  0.10721338184E+04  0.94872383080E+03 0.  0.
   -9000010    2    1    2    0  502 -0.28983644586E+03 -0.38164253446E+03  0.23972839130E+03  0.10667032479E+04  0.92235021978E+03 0.  0.
        -13    1    3    3    0    0  0.28960840415E+03  0.67222264113E+03 -0.34791409098E+02  0.73278015824E+03  0.10566000000E+00 0.  1.
          4    1    3    3  501    0  0.22804171741E+00 -0.29058010668E+03  0.17528278936E+03  0.33935366013E+03  0.00000000000E+00 0.  1.
         13    1    4    4    0    0 -0.41400779866E+02  0.94948969175E+02 -0.29250814464E+03  0.31030687579E+03  0.10566000000E+00 0. -1.
         -4    1    4    4    0  502 -0.24843566600E+03 -0.47659150363E+03  0.53223653594E+03  0.75639637206E+03  0.00000000000E+00 0. -1.
<mgrwt>
<rscale>  2 0.10569716E+04</rscale>
<asrwt>0</asrwt>
<pdfrwt beam="1">  1       21 0.19377360E+00 0.10628890E+04</pdfrwt>
<pdfrwt beam="2">  1       21 0.13527825E+00 0.10628890E+04</pdfrwt>
<totfact> 0.27473549E+01</totfact>
</mgrwt>
</event>
<event>
 8    1  0.1168507E-005  0.1077962E+04  0.7818608E-02  0.8724543E-01
         21   -1    0    0  503  502  0.00000000000E+00  0.00000000000E+00  0.23729251984E+04  0.23729251984E+04  0.00000000000E+00 0.  1.
         21   -1    0    0  501  503 -0.00000000000E+00 -0.00000000000E+00 -0.49674472089E+03  0.49674472089E+03  0.00000000000E+00 0.  1.
    9000010    2    1    2  501    0  0.19896854203E+03  0.37573204913E+03  0.53557043084E+03  0.12036769731E+04  0.99057534582E+03 0.  0.
   -9000010    2    1    2    0  502 -0.19896854203E+03 -0.37573204913E+03  0.13406100467E+04  0.16659929462E+04  0.89304767286E+03 0.  0.
        -13    1    3    3    0    0  0.10558742726E+03  0.41292587544E+03 -0.19323666966E+03  0.46797105153E+03  0.10566000000E+00 0.  1.
          4    1    3    3  501    0  0.93381114772E+02 -0.37193826315E+02  0.72880710050E+03  0.73570592158E+03  0.00000000000E+00 0.  1.
         13    1    4    4    0    0  0.23737710418E+01  0.19024329510E+03 -0.71759761953E+01  0.19039341353E+03  0.10566000000E+00 0. -1.
         -4    1    4    4    0  502 -0.20134231307E+03 -0.56597534422E+03  0.13477860229E+04  0.14755995326E+04  0.00000000000E+00 0. -1.
<mgrwt>
<rscale>  2 0.10550220E+04</rscale>
<asrwt>0</asrwt>
<pdfrwt beam="1">  1       21 0.36506541E+00 0.10779622E+04</pdfrwt>
<pdfrwt beam="2">  1       21 0.76422266E-01 0.10779622E+04</pdfrwt>
<totfact> 0.71866193E+00</totfact>
</mgrwt>
</event>
<event>
 8    1  0.1168507E-005  0.1556746E+04  0.7818608E-02  0.8393774E-01
         21   -1    0    0  503  502  0.00000000000E+00  0.00000000000E+00  0.21651097992E+04  0.21651097992E+04  0.00000000000E+00 0.  1.
         21   -1    0    0  501  503 -0.00000000000E+00 -0.00000000000E+00 -0.10640166713E+04  0.10640166713E+04  0.00000000000E+00 0.  1.
    9000010    2    1    2  501    0 -0.69943516869E+03 -0.96524890457E+03  0.32533155067E+03  0.15903773976E+04  0.10012715147E+04 0.  0.
   -9000010    2    1    2    0  502  0.69943516869E+03  0.96524890457E+03  0.77576157723E+03  0.16387490729E+04  0.81411147660E+03 0.  0.
        -13    1    3    3    0    0 -0.63791318932E+02 -0.30886781038E+03 -0.33722408920E+03  0.46172367728E+03  0.10566000000E+00 0.  1.
          4    1    3    3  501    0 -0.63564384976E+03 -0.65638109420E+03  0.66255563987E+03  0.11286537204E+04  0.00000000000E+00 0.  1.
         13    1    4    4    0    0  0.72816366167E+03  0.33120431650E+03  0.34198664118E+03  0.86998476501E+03  0.10566000000E+00 0. -1.
         -4    1    4    4    0  502 -0.28728492978E+02  0.63404458807E+03  0.43377493605E+03  0.76876430792E+03  0.00000000000E+00 0. -1.
<mgrwt>
<rscale>  2 0.15276281E+04</rscale>
<asrwt>0</asrwt>
<pdfrwt beam="1">  1       21 0.33309381E+00 0.15567465E+04</pdfrwt>
<pdfrwt beam="2">  1       21 0.16369487E+00 0.15567465E+04</pdfrwt>
<totfact> 0.13360746E+00</totfact>
</mgrwt>
</event>
<event>
 8    1  0.1168507E-005  0.1114611E+04  0.7818608E-02  0.8678361E-01
         21   -1    0    0  501  502  0.00000000000E+00  0.00000000000E+00  0.18424770844E+04  0.18424770844E+04  0.00000000000E+00 0.  1.
         21   -1    0    0  502  503 -0.00000000000E+00 -0.00000000000E+00 -0.68824603185E+03  0.68824603185E+03  0.00000000000E+00 0.  1.
   -9000010    2    1    2    0  503  0.48045961862E+03 -0.24503442438E+02  0.32021098705E+03  0.11386216131E+04  0.98106179105E+03 0.  0.
    9000010    2    1    2  501    0 -0.48045961862E+03  0.24503442438E+02  0.83402006549E+03  0.13921015031E+04  0.10054428186E+04 0.  0.
        -13    1    4    4    0    0 -0.41567708572E+03  0.35118458847E+03  0.90082240996E+03  0.10524253324E+04  0.10566000000E+00 0.  1.
          4    1    4    4  501    0 -0.64782532902E+02 -0.32668114603E+03 -0.66802344471E+02  0.33967617074E+03  0.00000000000E+00 0.  1.
         13    1    3    3    0    0  0.62666010198E+03 -0.33536645336E+03  0.71149274396E+02  0.71430789711E+03  0.10566000000E+00 0. -1.
         -4    1    3    3    0  503 -0.14620048336E+03  0.31086301093E+03  0.24906171266E+03  0.42431371603E+03  0.00000000000E+00 0. -1.
<mgrwt>
<rscale>  2 0.11090842E+04</rscale>
<asrwt>0</asrwt>
<pdfrwt beam="1">  1       21 0.28345801E+00 0.11146108E+04</pdfrwt>
<pdfrwt beam="2">  1       21 0.10588401E+00 0.11146108E+04</pdfrwt>
<totfact> 0.11674870E+01</totfact>
</mgrwt>
</event>
<event>
 8    1  0.1168507E-005  0.1399340E+04  0.7818608E-02  0.8471224E-01
         21   -1    0    0  501  502  0.00000000000E+00  0.00000000000E+00  0.18045205795E+04  0.18045205795E+04  0.00000000000E+00 0.  1.
         21   -1    0    0  502  503 -0.00000000000E+00 -0.00000000000E+00 -0.10893421400E+04  0.10893421400E+04  0.00000000000E+00 0.  1.
   -9000010    2    1    2    0  503  0.98058986169E+03 -0.66542531616E+02  0.50040498729E+03  0.14781365007E+04  0.98412294869E+03 0.  0.
    9000010    2    1    2  501    0 -0.98058986169E+03  0.66542531616E+02  0.21477345228E+03  0.14157262188E+04  0.99607665633E+03 0.  0.
        -13    1    4    4    0    0  0.15536693658E+03 -0.57328783946E+02  0.21707524813E+03  0.27303323784E+03  0.10566000000E+00 0.  1.
          4    1    4    4  501    0 -0.11359567983E+04  0.12387131556E+03 -0.23017958524E+01  0.11426929809E+04  0.00000000000E+00 0.  1.
         13    1    3    3    0    0  0.60594440627E+03  0.40147620911E+03  0.49353873219E+03  0.87859675694E+03  0.10566000000E+00 0. -1.
         -4    1    3    3    0  503  0.37464545542E+03 -0.46801874072E+03  0.68662550964E+01  0.59953974380E+03  0.00000000000E+00 0. -1.
<mgrwt>
<rscale>  2 0.13972145E+04</rscale>
<asrwt>0</asrwt>
<pdfrwt beam="1">  1       21 0.27761855E+00 0.13993402E+04</pdfrwt>
<pdfrwt beam="2">  1       21 0.16759110E+00 0.13993402E+04</pdfrwt>
<totfact> 0.31428221E+00</totfact>
</mgrwt>
</event>
<event>
 8    1  0.1168507E-005  0.1118020E+04  0.7818608E-02  0.8674591E-01
         21   -1    0    0  503  502  0.00000000000E+00  0.00000000000E+00  0.21404388489E+04  0.21404388489E+04  0.00000000000E+00 0. -1.
         21   -1    0    0  501  503 -0.00000000000E+00 -0.00000000000E+00 -0.57588995894E+03  0.57588995894E+03  0.00000000000E+00 0. -1.
    9000010    2    1    2  501    0  0.77166872768E+02  0.43956557896E+03  0.72053884452E+03  0.13154997084E+04  0.10060768519E+04 0.  0.
   -9000010    2    1    2    0  502 -0.77166872768E+02 -0.43956557896E+03  0.84401004543E+03  0.14008290994E+04  0.10250836964E+04 0.  0.
        -13    1    3    3    0    0 -0.95583413132E+02 -0.23957945760E+03 -0.61753653429E+02  0.26523203095E+03  0.10566000000E+00 0.  1.
          4    1    3    3  501    0  0.17275028590E+03  0.67914503655E+03  0.78229249795E+03  0.10502676774E+04  0.00000000000E+00 0.  1.
         13    1    4    4    0    0  0.41153780791E+03  0.26834998615E+02  0.48215428287E+03  0.63447320522E+03  0.10566000000E+00 0. -1.
         -4    1    4    4    0  502 -0.48870468068E+03 -0.46640057757E+03  0.36185576256E+03  0.76635589420E+03  0.00000000000E+00 0. -1.
<mgrwt>
<rscale>  2 0.11136444E+04</rscale>
<asrwt>0</asrwt>
<pdfrwt beam="1">  1       21 0.32929828E+00 0.11180202E+04</pdfrwt>
<pdfrwt beam="2">  1       21 0.88598456E-01 0.11180202E+04</pdfrwt>
<totfact> 0.87983119E+00</totfact>
</mgrwt>
</event>
<event>
 8    1  0.1168507E-005  0.1574837E+04  0.7818608E-02  0.8372682E-01
         21   -1    0    0  503  502  0.00000000000E+00  0.00000000000E+00  0.25587789628E+04  0.25587789628E+04  0.00000000000E+00 0. -1.
         21   -1    0    0  501  503 -0.00000000000E+00 -0.00000000000E+00 -0.10155014959E+04  0.10155014959E+04  0.00000000000E+00 0.  1.
    9000010    2    1    2  501    0 -0.79528482003E+02  0.11679185914E+04  0.31589076643E+03  0.16062066692E+04  0.10534487517E+04 0.  0.
   -9000010    2    1    2    0  502  0.79528482003E+02 -0.11679185914E+04  0.12273867005E+04  0.19680737894E+04  0.99823730264E+03 0.  0.
        -13    1    3    3    0    0  0.30413551702E+03  0.22365116689E+02  0.25340042966E+03  0.39649766717E+03  0.10566000000E+00 0.  1.
          4    1    3    3  501    0 -0.38366399902E+03  0.11455534747E+04  0.62490336768E+02  0.12097090021E+04  0.00000000000E+00 0.  1.
         13    1    4    4    0    0  0.22452404510E+02 -0.23043185120E+03 -0.16798889252E+03  0.28604759690E+03  0.10566000000E+00 0. -1.
         -4    1    4    4    0  502  0.57076077493E+02 -0.93748674017E+03  0.13953755930E+04  0.16820261925E+04  0.00000000000E+00 0. -1.
<mgrwt>
<rscale>  2 0.15656613E+04</rscale>
<asrwt>0</asrwt>
<pdfrwt beam="1">  1       21 0.39365830E+00 0.15748374E+04</pdfrwt>
<pdfrwt beam="2">  1       21 0.15623100E+00 0.15748374E+04</pdfrwt>
<totfact> 0.58187177E-01</totfact>
</mgrwt>
</event>
<event>
 8    1  0.1168507E-005  0.1084481E+04  0.7818608E-02  0.8701194E-01
         21   -1    0    0  501  502  0.00000000000E+00  0.00000000000E+00  0.11349304245E+04  0.11349304245E+04  0.00000000000E+00 0.  1.
         21   -1    0    0  502  503 -0.00000000000E+00 -0.00000000000E+00 -0.10448444166E+04  0.10448444166E+04  0.00000000000E+00 0.  1.
   -9000010    2    1    2    0  503  0.39609163051E+03  0.85522064971E+02  0.18874040074E+03  0.10908157130E+04  0.99501425993E+03 0.  0.
    9000010    2    1    2  501    0 -0.39609163051E+03 -0.85522064971E+02 -0.98654392803E+02  0.10889591281E+04  0.10059307581E+04 0.  0.
        -13    1    4    4    0    0 -0.18864652181E+03 -0.53804938315E+03 -0.14700123068E+03  0.58880728757E+03  0.10566000000E+00 0.  1.
          4    1    4    4  501    0 -0.20744510869E+03  0.45252731818E+03  0.48346837880E+02  0.50015184050E+03  0.00000000000E+00 0.  1.
         13    1    3    3    0    0 -0.22203501395E+03  0.75080328462E+02  0.37757049947E+03  0.44440532892E+03  0.10566000000E+00 0. -1.
         -4    1    3    3    0  503  0.61812664445E+03  0.10441736509E+02 -0.18883009872E+03  0.64641038407E+03  0.00000000000E+00 0. -1.
<mgrwt>
<rscale>  2 0.10819427E+04</rscale>
<asrwt>0</asrwt>
<pdfrwt beam="1">  1       21 0.17460468E+00 0.10844811E+04</pdfrwt>
<pdfrwt beam="2">  1       21 0.16074529E+00 0.10844811E+04</pdfrwt>
<totfact> 0.23051369E+01</totfact>
</mgrwt>
</event>
<event>
 8    1  0.1168507E-005  0.1262704E+04  0.7818608E-02  0.8561245E-01
         21   -1    0    0  501  502  0.00000000000E+00  0.00000000000E+00  0.78842409256E+03  0.78842409256E+03  0.00000000000E+00 0. -1.
         21   -1    0    0  502  503 -0.00000000000E+00 -0.00000000000E+00 -0.21414828023E+04  0.21414828023E+04  0.00000000000E+00 0. -1.
   -9000010    2    1    2    0  503 -0.17612292933E+02  0.78346145172E+03 -0.10287947571E+04  0.16287540199E+04  0.99010048282E+03 0.  0.
    9000010    2    1    2  501    0  0.17612292933E+02 -0.78346145172E+03 -0.32426395263E+03  0.13011528749E+04  0.98677740838E+03 0.  0.
        -13    1    4    4    0    0  0.14136223523E+03 -0.11106065119E+03  0.31658779453E+03  0.36406811533E+03  0.10566000000E+00 0.  1.
          4    1    4    4  501    0 -0.12374994230E+03 -0.67240080052E+03 -0.64085174716E+03  0.93708475956E+03  0.00000000000E+00 0.  1.
         13    1    3    3    0    0  0.37506754332E+03  0.26542529472E+03 -0.61865000627E+02  0.46363082144E+03  0.10566000000E+00 0. -1.
         -4    1    3    3    0  503 -0.39267983625E+03  0.51803615700E+03 -0.96692975646E+03  0.11651231985E+04  0.00000000000E+00 0. -1.
<mgrwt>
<rscale>  2 0.12620523E+04</rscale>
<asrwt>0</asrwt>
<pdfrwt beam="1">  1       21 0.12129601E+00 0.12627038E+04</pdfrwt>
<pdfrwt beam="2">  1       21 0.32945889E+00 0.12627038E+04</pdfrwt>
<totfact> 0.36908475E+00</totfact>
</mgrwt>
</event>
<event>
 8    1  0.1168507E-005  0.1063995E+04  0.7818608E-02  0.8739092E-01
         21   -1    0    0  503  502  0.00000000000E+00  0.00000000000E+00  0.17069817440E+04  0.17069817440E+04  0.00000000000E+00 0.  1.
         21   -1    0    0  501  503 -0.00000000000E+00 -0.00000000000E+00 -0.61065775006E+03  0.61065775006E+03  0.00000000000E+00 0.  1.
    9000010    2    1    2  501    0 -0.14207141908E+03  0.28728061459E+03  0.69815581215E+03  0.12725988582E+04  0.10145796549E+04 0.  0.
   -9000010    2    1    2    0  502  0.14207141908E+03 -0.28728061459E+03  0.39816818179E+03  0.10450406359E+04  0.91151390005E+03 0.  0.
        -13    1    3    3    0    0  0.17278683543E+03  0.32426254786E+03 -0.12690767757E+03  0.38872491589E+03  0.10566000000E+00 0.  1.
          4    1    3    3  501    0 -0.31485825450E+03 -0.36981933278E+02  0.82506348971E+03  0.88387394230E+03  0.00000000000E+00 0.  1.
         13    1    4    4    0    0  0.38229256231E+03 -0.34838176043E+03 -0.63435485964E+02  0.52109646539E+03  0.10566000000E+00 0. -1.
         -4    1    4    4    0  502 -0.24022114324E+03  0.61101145847E+02  0.46160366776E+03  0.52394417047E+03  0.00000000000E+00 0. -1.
<mgrwt>
<rscale>  2 0.10386598E+04</rscale>
<asrwt>0</asrwt>
<pdfrwt beam="1">  1       21 0.26261257E+00 0.10639954E+04</pdfrwt>
<pdfrwt beam="2">  1       21 0.93947347E-01 0.10639954E+04</pdfrwt>
<totfact> 0.22748327E+01</totfact>
</mgrwt>
</event>
<event>
 8    1  0.1168507E-005  0.1101854E+04  0.7818608E-02  0.8688062E-01
         21   -1    0    0  503  502  0.00000000000E+00  0.00000000000E+00  0.93289846579E+03  0.93289846579E+03  0.00000000000E+00 0. -1.
         21   -1    0    0  501  503 -0.00000000000E+00 -0.00000000000E+00 -0.12835683577E+04  0.12835683577E+04  0.00000000000E+00 0. -1.
    9000010    2    1    2  501    0  0.32812033767E+03  0.31256142750E+03 -0.12265671508E+03  0.10912676292E+04  0.98512068642E+03 0.  0.
   -9000010    2    1    2    0  502 -0.32812033767E+03 -0.31256142750E+03 -0.22801317688E+03  0.11251991943E+04  0.10043533323E+04 0.  0.
        -13    1    3    3    0    0 -0.32904671956E+03  0.61948354227E+02 -0.18955721711E+03  0.38476134417E+03  0.10566000000E+00 0.  1.
          4    1    3    3  501    0  0.65716705723E+03  0.25061307328E+03  0.66900502036E+02  0.70650628502E+03  0.00000000000E+00 0.  1.
         13    1    4    4    0    0 -0.56329510172E+03 -0.41224359256E+03  0.10460055896E+03  0.70582394358E+03  0.10566000000E+00 0. -1.
         -4    1    4    4    0  502  0.23517476405E+03  0.99682165056E+02 -0.33261373585E+03  0.41937525076E+03  0.00000000000E+00 0. -1.
<mgrwt>
<rscale>  2 0.10974527E+04</rscale>
<asrwt>0</asrwt>
<pdfrwt beam="1">  1       21 0.14352284E+00 0.11018544E+04</pdfrwt>
<pdfrwt beam="2">  1       21 0.19747206E+00 0.11018544E+04</pdfrwt>
<totfact> 0.21357248E+01</totfact>
</mgrwt>
</event>
