<event>
 8    1  0.1094795E-005  0.1595835E+04  0.7818608E-02  0.8363600E-01
         21   -1    0    0  501  502  0.00000000000E+00  0.00000000000E+00  0.10209502996E+04  0.10209502996E+04  0.00000000000E+00 0. -1.
         21   -1    0    0  502  503 -0.00000000000E+00 -0.00000000000E+00 -0.27283159953E+04  0.27283159953E+04  0.00000000000E+00 0.  1.
   -9000010    2    1    2    0  503  0.98258318933E+03  0.75536359050E+03 -0.14790187791E+04  0.21371774720E+04  0.91868771642E+03 0.  0.
    9000010    2    1    2  501    0 -0.98258318933E+03 -0.75536359050E+03 -0.22834691663E+03  0.16120888228E+04  0.10053080028E+04 0.  0.
        -13    1    4    4    0    0 -0.65783449642E+03 -0.35992942656E+03  0.36046670736E+03  0.83200461240E+03  0.10566000000E+00 0.  1.
          4    1    4    4  501    0 -0.32474869290E+03 -0.39543416395E+03 -0.58881362399E+03  0.78008421042E+03  0.00000000000E+00 0.  1.
         13    1    3    3    0    0  0.64599441591E+03  0.30597208105E+03 -0.13976762428E+04  0.15698492255E+04  0.10566000000E+00 0. -1.
         -4    1    3    3    0  503  0.33658877342E+03  0.44939150946E+03 -0.81342536264E+02  0.56732824658E+03  0.00000000000E+00 0. -1.
<mgrwt>
<rscale>  2 0.15823907E+04</rscale>
<asrwt>0</asrwt>
<pdfrwt beam="1">  1       21 0.15706928E+00 0.15958346E+04</pdfrwt>
<pdfrwt beam="2">  1       21 0.41974092E+00 0.15958346E+04</pdfrwt>
<totfact> 0.37628573E-01</totfact>
</mgrwt>
</event>
<event>
 8    1  0.1094795E-005  0.1096957E+04  0.7818608E-02  0.8692234E-01
         21   -1    0    0  503  502  0.00000000000E+00  0.00000000000E+00  0.12663165652E+04  0.12663165652E+04  0.00000000000E+00 0. -1.
         21   -1    0    0  501  503 -0.00000000000E+00 -0.00000000000E+00 -0.94682532409E+03  0.94682532409E+03  0.00000000000E+00 0. -1.
    9000010    2    1    2  501    0 -0.30504363109E+03  0.32072385444E+03  0.28240704617E+03  0.11155578284E+04  0.98427644550E+03 0.  0.
   -9000010    2    1    2    0  502  0.30504363109E+03 -0.32072385444E+03  0.37084194936E+02  0.10975840609E+04  0.10036932427E+04 0.  0.
        -13    1    3    3    0    0 -0.28409175483E+03 -0.10033787502E+03 -0.28092638634E+03  0.41194108806E+03  0.10566000000E+00 0.  1.
          4    1    3    3  501    0 -0.20951876259E+02  0.42106172945E+03  0.56333343252E+03  0.70361674036E+03  0.00000000000E+00 0.  1.
         13    1    4    4    0    0  0.34754240681E+03  0.28266817607E+03  0.16843627702E+03  0.47859984630E+03  0.10566000000E+00 0. -1.
         -4    1    4    4    0  502 -0.42498775724E+02 -0.60339203051E+03 -0.13135208209E+03  0.61898421457E+03  0.00000000000E+00 0. -1.
<mgrwt>
<rscale>  2 0.10924959E+04</rscale>
<asrwt>0</asrwt>
<pdfrwt beam="1">  1       21 0.19481793E+00 0.10969574E+04</pdfrwt>
<pdfrwt beam="2">  1       21 0.14566544E+00 0.10969574E+04</pdfrwt>
<totfact> 0.21450257E+01</totfact>
</mgrwt>
</event>
<event>
 8    1  0.1094795E-005  0.1130565E+04  0.7818608E-02  0.8660869E-01
         21   -1    0    0  501  502  0.00000000000E+00  0.00000000000E+00  0.21166112072E+04  0.21166112072E+04  0.00000000000E+00 0. -1.
         21   -1    0    0  502  503 -0.00000000000E+00 -0.00000000000E+00 -0.67308819255E+03  0.67308819255E+03  0.00000000000E+00 0.  1.
   -9000010    2    1    2    0  503 -0.47155854360E+03 -0.18535002288E+03  0.27347914451E+03  0.11626839754E+04  0.10101094461E+04 0.  0.
    9000010    2    1    2  501    0  0.47155854360E+03  0.18535002288E+03  0.11700438702E+04  0.16270154244E+04  0.10106702935E+04 0.  0.
        -13    1    4    4    0    0  0.42425715441E+03  0.20760536011E+03  0.13549216489E+04  0.14348891261E+04  0.10566000000E+00 0.  1.
          4    1    4    4  501    0  0.47301389195E+02 -0.22255337232E+02 -0.18487777867E+03  0.19212629830E+03  0.00000000000E+00 0.  1.
         13    1    3    3    0    0 -0.57551645264E+03  0.19011145041E+03  0.42967084219E+03  0.74295261937E+03  0.10566000000E+00 0. -1.
         -4    1    3    3    0  503  0.10395790903E+03 -0.37546147329E+03 -0.15619169768E+03  0.41973135599E+03  0.00000000000E+00 0. -1.
<mgrwt>
<rscale>  2 0.11304393E+04</rscale>
<asrwt>0</asrwt>
<pdfrwt beam="1">  1       21 0.32563249E+00 0.11305647E+04</pdfrwt>
<pdfrwt beam="2">  1       21 0.10355203E+00 0.11305647E+04</pdfrwt>
<totfact> 0.62175604E+00</totfact>
</mgrwt>
</event>
<event>
 8    1  0.1094795E-005  0.1107088E+04  0.7818608E-02  0.8681448E-01
         21   -1    0    0  501  502  0.00000000000E+00  0.00000000000E+00  0.26820391403E+04  0.26820391403E+04  0.00000000000E+00 0.  1.
         21   -1    0    0  502  503 -0.00000000000E+00 -0.00000000000E+00 -0.65133118656E+03  0.65133118656E+03  0.00000000000E+00 0.  1.
   -9000010    2    1    2    0  503 -0.73529722632E+01 -0.46069695160E+03  0.96121560250E+02  0.11044090128E+04  0.99909167042E+03 0.  0.
    9000010    2    1    2  501    0  0.73529722632E+01  0.46069695160E+03  0.19345863935E+04  0.22289613140E+04  0.10066520144E+04 0.  0.
        -13    1    4    4    0    0  0.48793198104E+03  0.35639190028E+03  0.90802418144E+03  0.10906881910E+04  0.10566000000E+00 0.  1.
          4    1    4    4  501    0 -0.48057900878E+03  0.10430505132E+03  0.10265622121E+04  0.11382731230E+04  0.00000000000E+00 0.  1.
         13    1    3    3    0    0  0.44149737676E+03  0.12119719941E+02  0.98288159186E+02  0.45246811456E+03  0.10566000000E+00 0. -1.
         -4    1    3    3    0  503 -0.44885034902E+03 -0.47281667154E+03 -0.21665989364E+01  0.65194089828E+03  0.00000000000E+00 0. -1.
<mgrwt>
<rscale>  2 0.11053666E+04</rscale>
<asrwt>0</asrwt>
<pdfrwt beam="1">  1       21 0.41262140E+00 0.11070881E+04</pdfrwt>
<pdfrwt beam="2">  1       21 0.10020480E+00 0.11070881E+04</pdfrwt>
<totfact> 0.16789437E+00</totfact>
</mgrwt>
</event>
<event>
 8    1  0.1094795E-005  0.1057196E+04  0.7818608E-02  0.8754697E-01
         21   -1    0    0  503  502  0.00000000000E+00  0.00000000000E+00  0.19701967061E+04  0.19701967061E+04  0.00000000000E+00 0.  1.
         21   -1    0    0  501  503 -0.00000000000E+00 -0.00000000000E+00 -0.49679902965E+03  0.49679902965E+03  0.00000000000E+00 0.  1.
    9000010    2    1    2  501    0  0.31004380355E+03 -0.18883693825E+03  0.77015038192E+03  0.13079739842E+04  0.99291378438E+03 0.  0.
   -9000010    2    1    2    0  502 -0.31004380355E+03  0.18883693825E+03  0.70324729453E+03  0.11590217515E+04  0.84675150659E+03 0.  0.
        -13    1    3    3    0    0  0.45428951999E+03 -0.52324959499E+03  0.51133319611E+03  0.86117986230E+03  0.10566000000E+00 0.  1.
          4    1    3    3  501    0 -0.14424571644E+03  0.33441265674E+03  0.25881718582E+03  0.44679412191E+03  0.00000000000E+00 0.  1.
         13    1    4    4    0    0  0.23058845191E+03  0.63192106698E+02 -0.28284575217E+02  0.24075777218E+03  0.10566000000E+00 0. -1.
         -4    1    4    4    0  502 -0.54063225546E+03  0.12564483155E+03  0.73153186975E+03  0.91826397937E+03  0.00000000000E+00 0. -1.
<mgrwt>
<rscale>  2 0.10214470E+04</rscale>
<asrwt>0</asrwt>
<pdfrwt beam="1">  1       21 0.30310718E+00 0.10571964E+04</pdfrwt>
<pdfrwt beam="2">  1       21 0.76430621E-01 0.10571964E+04</pdfrwt>
<totfact> 0.19658391E+01</totfact>
</mgrwt>
</event>
<event>
 8    1  0.1094795E-005  0.1150177E+04  0.7818608E-02  0.8649721E-01
         21   -1    0    0  503  502  0.00000000000E+00  0.00000000000E+00  0.12189310209E+04  0.12189310209E+04  0.00000000000E+00 0. -1.
         21   -1    0    0  501  503 -0.00000000000E+00 -0.00000000000E+00 -0.10714509738E+04  0.10714509738E+04  0.00000000000E+00 0.  1.
    9000010    2    1    2  501    0  0.26421034518E+03 -0.47522030461E+03 -0.26039452990E+02  0.11271900164E+04  0.98703487046E+03 0.  0.
   -9000010    2    1    2    0  502 -0.26421034518E+03  0.47522030461E+03  0.17351950012E+03  0.11631919783E+04  0.10135408808E+04 0.  0.
        -13    1    3    3    0    0  0.55179348808E+03 -0.30331407123E+03 -0.29709136168E+03  0.69623183470E+03  0.10566000000E+00 0.  1.
          4    1    3    3  501    0 -0.28758314290E+03 -0.17190623338E+03  0.27105190869E+03  0.43095818169E+03  0.00000000000E+00 0.  1.
         13    1    4    4    0    0 -0.33810642887E+03 -0.24900302747E+03  0.28223209302E+02  0.42085036015E+03  0.10566000000E+00 0. -1.
         -4    1    4    4    0  502  0.73896083694E+02  0.72422333208E+03  0.14529629082E+03  0.74234161815E+03  0.00000000000E+00 0. -1.
<mgrwt>
<rscale>  2 0.11443101E+04</rscale>
<asrwt>0</asrwt>
<pdfrwt beam="1">  1       21 0.18752785E+00 0.11501768E+04</pdfrwt>
<pdfrwt beam="2">  1       21 0.16483861E+00 0.11501768E+04</pdfrwt>
<totfact> 0.16450454E+01</totfact>
</mgrwt>
</event>
<event>
 8    1  0.1094795E-005  0.1027253E+04  0.7818608E-02  0.8754699E-01
         21   -1    0    0  503  502  0.00000000000E+00  0.00000000000E+00  0.11358466497E+04  0.11358466497E+04  0.00000000000E+00 0. -1.
         21   -1    0    0  501  503 -0.00000000000E+00 -0.00000000000E+00 -0.91038568499E+03  0.91038568499E+03  0.00000000000E+00 0. -1.
    9000010    2    1    2  501    0  0.19131445329E+03 -0.17995380801E+03  0.16267513474E+03  0.10400541747E+04  0.99310870193E+03 0.  0.
   -9000010    2    1    2    0  502 -0.19131445329E+03  0.17995380801E+03  0.62785830015E+02  0.10061781600E+04  0.96926149008E+03 0.  0.
        -13    1    3    3    0    0  0.31024034422E+03  0.34366691365E+03 -0.43169300616E+02  0.46499421329E+03  0.10566000000E+00 0.  1.
          4    1    3    3  501    0 -0.11892589093E+03 -0.52362072165E+03  0.20584443535E+03  0.57505996143E+03  0.00000000000E+00 0.  1.
         13    1    4    4    0    0  0.35782643841E+03 -0.11668046805E+03 -0.18194106474E+02  0.37680914044E+03  0.10566000000E+00 0. -1.
         -4    1    4    4    0  502 -0.54914089169E+03  0.29663427606E+03  0.80979936489E+02  0.62936901956E+03  0.00000000000E+00 0. -1.
<mgrwt>
<rscale>  2 0.10214453E+04</rscale>
<asrwt>0</asrwt>
<pdfrwt beam="1">  1       21 0.17474564E+00 0.10272534E+04</pdfrwt>
<pdfrwt beam="2">  1       21 0.14005934E+00 0.10272534E+04</pdfrwt>
<totfact> 0.35594947E+01</totfact>
</mgrwt>
</event>
<event>
 8    1  0.1094795E-005  0.1088260E+04  0.7818608E-02  0.8712281E-01
         21   -1    0    0  501  502  0.00000000000E+00  0.00000000000E+00  0.59585082026E+03  0.59585082026E+03  0.00000000000E+00 0.  1.
         21   -1    0    0  502  503 -0.00000000000E+00 -0.00000000000E+00 -0.18540677451E+04  0.18540677451E+04  0.00000000000E+00 0.  1.
   -9000010    2    1    2    0  503 -0.75471312622E+02  0.35692524147E+03 -0.62687529831E+03  0.12558994131E+04  0.10252897879E+04 0.  0.
    9000010    2    1    2  501    0  0.75471312622E+02 -0.35692524147E+03 -0.63134162656E+03  0.11940191523E+04  0.94551464273E+03 0.  0.
        -13    1    4    4    0    0 -0.41154415712E+03 -0.69316643173E+02 -0.12705095027E+03  0.43625147038E+03  0.10566000000E+00 0.  1.
          4    1    4    4  501    0  0.48701546974E+03 -0.28760859830E+03 -0.50429067629E+03  0.75776768193E+03  0.00000000000E+00 0.  1.
         13    1    3    3    0    0 -0.11032318156E+03 -0.24814360293E+03  0.11758644035E+03  0.29592741371E+03  0.10566000000E+00 0. -1.
         -4    1    3    3    0  503  0.34851868942E+02  0.60506884441E+03 -0.74446173866E+03  0.95997199937E+03  0.00000000000E+00 0. -1.
<mgrwt>
<rscale>  2 0.10690565E+04</rscale>
<asrwt>0</asrwt>
<pdfrwt beam="1">  1       21 0.91669358E-01 0.10882604E+04</pdfrwt>
<pdfrwt beam="2">  1       21 0.28524119E+00 0.10882604E+04</pdfrwt>
<totfact> 0.16599572E+01</totfact>
</mgrwt>
</event>
<event>
 8    1  0.1094795E-005  0.1105696E+04  0.7818608E-02  0.8681299E-01
         21   -1    0    0  501  502  0.00000000000E+00  0.00000000000E+00  0.10929937118E+04  0.10929937118E+04  0.00000000000E+00 0. -1.
         21   -1    0    0  502  503 -0.00000000000E+00 -0.00000000000E+00 -0.12702881722E+04  0.12702881722E+04  0.00000000000E+00 0. -1.
   -9000010    2    1    2    0  503  0.34967521581E+03 -0.26761537288E+03 -0.49788716660E+03  0.12126235483E+04  0.10142354238E+04 0.  0.
    9000010    2    1    2  501    0 -0.34967521581E+03  0.26761537288E+03  0.32059270624E+03  0.11506583356E+04  0.10135798822E+04 0.  0.
        -13    1    4    4    0    0  0.13738041621E+03 -0.31573329190E+03  0.79501707639E+02  0.35338565768E+03  0.10566000000E+00 0.  1.
          4    1    4    4  501    0 -0.48705563202E+03  0.58334866479E+03  0.24109099860E+03  0.79727267794E+03  0.00000000000E+00 0.  1.
         13    1    3    3    0    0 -0.23909769608E+03 -0.11679848789E+03  0.16513865678E+03  0.31317787625E+03  0.10566000000E+00 0. -1.
         -4    1    3    3    0  503  0.58877291190E+03 -0.15081688499E+03 -0.66302582338E+03  0.89944567209E+03  0.00000000000E+00 0. -1.
<mgrwt>
<rscale>  2 0.11055459E+04</rscale>
<asrwt>0</asrwt>
<pdfrwt beam="1">  1       21 0.16815288E+00 0.11056963E+04</pdfrwt>
<pdfrwt beam="2">  1       21 0.19542895E+00 0.11056963E+04</pdfrwt>
<totfact> 0.13471010E+01</totfact>
</mgrwt>
</event>
<event>
 8    1  0.1094795E-005  0.1064192E+04  0.7818608E-02  0.8720191E-01
         21   -1    0    0  503  502  0.00000000000E+00  0.00000000000E+00  0.17066867821E+04  0.17066867821E+04  0.00000000000E+00 0. -1.
         21   -1    0    0  501  503 -0.00000000000E+00 -0.00000000000E+00 -0.66573714529E+03  0.66573714529E+03  0.00000000000E+00 0. -1.
    9000010    2    1    2  501    0  0.39237454923E+03 -0.49563989496E+02  0.68756719634E+03  0.12669855247E+04  0.98797231458E+03 0.  0.
   -9000010    2    1    2    0  502 -0.39237454923E+03  0.49563989496E+02  0.35338244043E+03  0.11054384026E+04  0.96989717852E+03 0.  0.
        -13    1    3    3    0    0  0.30959271768E+03  0.20015669835E+02  0.94133317057E+03  0.99113895447E+03  0.10566000000E+00 0.  1.
          4    1    3    3  501    0  0.82781831553E+02 -0.69579659332E+02 -0.25376597423E+03  0.27584657023E+03  0.00000000000E+00 0.  1.
         13    1    4    4    0    0  0.27679942254E+03 -0.55300573695E+02 -0.89545817816E+02  0.29613263654E+03  0.10566000000E+00 0. -1.
         -4    1    4    4    0  502 -0.66917397177E+03  0.10486456319E+03  0.44292825824E+03  0.80930576611E+03  0.00000000000E+00 0. -1.
<mgrwt>
<rscale>  2 0.10599768E+04</rscale>
<asrwt>0</asrwt>
<pdfrwt beam="1">  1       21 0.26256720E+00 0.10641916E+04</pdfrwt>
<pdfrwt beam="2">  1       21 0.10242110E+00 0.10641916E+04</pdfrwt>
<totfact> 0.18191547E+01</totfact>
</mgrwt>
</event>
<event>
 8    1  0.1094795E-005  0.1338411E+04  0.7818608E-02  0.8538007E-01
         21   -1    0    0  501  502  0.00000000000E+00  0.00000000000E+00  0.48223738764E+03  0.48223738764E+03  0.00000000000E+00 0.  1.
         21   -1    0    0  502  503 -0.00000000000E+00 -0.00000000000E+00 -0.33037840593E+04  0.33037840593E+04  0.00000000000E+00 0.  1.
   -9000010    2    1    2    0  503 -0.49056037496E+03 -0.36482018396E+03 -0.13208059675E+04  0.18803916562E+04  0.11906305593E+04 0.  0.
    9000010    2    1    2  501    0  0.49056037496E+03  0.36482018396E+03 -0.15007407042E+04  0.19056297908E+04  0.10027257801E+04 0.  0.
        -13    1    4    4    0    0  0.56015156996E+03 -0.20351256508E+03 -0.86013944677E+03  0.10464353896E+04  0.10566000000E+00 0.  1.
          4    1    4    4  501    0 -0.69591195000E+02  0.56833274904E+03 -0.64060125742E+03  0.85919440120E+03  0.00000000000E+00 0.  1.
         13    1    3    3    0    0 -0.21669403143E+03 -0.73604042026E+03 -0.11620943823E+04  0.13925426988E+04  0.10566000000E+00 0. -1.
         -4    1    3    3    0  503 -0.27386634352E+03  0.37122023630E+03 -0.15871158524E+03  0.48784895741E+03  0.00000000000E+00 0. -1.
<mgrwt>
<rscale>  2 0.12953754E+04</rscale>
<asrwt>0</asrwt>
<pdfrwt beam="1">  1       21 0.74190371E-01 0.13384111E+04</pdfrwt>
<pdfrwt beam="2">  1       21 0.50827445E+00 0.13384111E+04</pdfrwt>
<totfact> 0.74120364E-01</totfact>
</mgrwt>
</event>
<event>
 8    1  0.1094795E-005  0.1043000E+04  0.7818608E-02  0.8739086E-01
         21   -1    0    0  503  502  0.00000000000E+00  0.00000000000E+00  0.85179878447E+03  0.85179878447E+03  0.00000000000E+00 0.  1.
         21   -1    0    0  501  503 -0.00000000000E+00 -0.00000000000E+00 -0.13465755332E+04  0.13465755332E+04  0.00000000000E+00 0.  1.
    9000010    2    1    2  501    0 -0.23725489877E+03 -0.53083992024E+02  0.35577689962E+02  0.10436064222E+04  0.10142686011E+04 0.  0.
   -9000010    2    1    2    0  502  0.23725489877E+03  0.53083992024E+02 -0.53035443868E+03  0.11547678954E+04  0.99654666951E+03 0.  0.
        -13    1    3    3    0    0 -0.55267581983E+03  0.38709924173E+02  0.29255556346E+03  0.62652836243E+03  0.10566000000E+00 0.  1.
          4    1    3    3  501    0  0.31542092105E+03 -0.91793916198E+02 -0.25697787350E+03  0.41707805979E+03  0.00000000000E+00 0.  1.
         13    1    4    4    0    0  0.62317859670E+02 -0.12410016431E+03 -0.78584176493E+03  0.79801732882E+03  0.10566000000E+00 0. -1.
         -4    1    4    4    0  502  0.17493703910E+03  0.17718415634E+03  0.25548732625E+03  0.35675056662E+03  0.00000000000E+00 0. -1.
<mgrwt>
<rscale>  2 0.10386665E+04</rscale>
<asrwt>0</asrwt>
<pdfrwt beam="1">  1       21 0.13104597E+00 0.10429998E+04</pdfrwt>
<pdfrwt beam="2">  1       21 0.20716547E+00 0.10429998E+04</pdfrwt>
<totfact> 0.23803811E+01</totfact>
</mgrwt>
</event>
<event>
 8    1  0.1094795E-005  0.1197205E+04  0.7818608E-02  0.8622380E-01
         21   -1    0    0  503  502  0.00000000000E+00  0.00000000000E+00  0.80860541950E+03  0.80860541950E+03  0.00000000000E+00 0.  1.
         21   -1    0    0  501  503 -0.00000000000E+00 -0.00000000000E+00 -0.19446107564E+04  0.19446107564E+04  0.00000000000E+00 0.  1.
    9000010    2    1    2  501    0 -0.36928357968E+03 -0.43341829356E+03 -0.10704154218E+04  0.15542158815E+04  0.97240734864E+03 0.  0.
   -9000010    2    1    2    0  502  0.36928357968E+03  0.43341829356E+03 -0.65589915055E+02  0.11990002943E+04  0.10531276701E+04 0.  0.
        -13    1    3    3    0    0 -0.61923577103E+03 -0.54610234387E+03 -0.64328851047E+03  0.10466617548E+04  0.10566000000E+00 0.  1.
          4    1    3    3  501    0  0.24995219135E+03  0.11268405031E+03 -0.42712691133E+03  0.50755412671E+03  0.00000000000E+00 0.  1.
         13    1    4    4    0    0 -0.13214250052E+03  0.49866853997E+03 -0.34564805907E+03  0.62097064753E+03  0.10566000000E+00 0. -1.
         -4    1    4    4    0  502  0.50142608020E+03 -0.65250246406E+02  0.28005814401E+03  0.57802964681E+03  0.00000000000E+00 0. -1.
<mgrwt>
<rscale>  2 0.11792156E+04</rscale>
<asrwt>0</asrwt>
<pdfrwt beam="1">  1       21 0.12440083E+00 0.11972049E+04</pdfrwt>
<pdfrwt beam="2">  1       21 0.29917088E+00 0.11972049E+04</pdfrwt>
<totfact> 0.56912263E+00</totfact>
</mgrwt>
</event>
<event>
 8    1  0.1094795E-005  0.1136377E+04  0.7818608E-02  0.8658075E-01
         21   -1    0    0  501  502  0.00000000000E+00  0.00000000000E+00  0.10987743883E+04  0.10987743883E+04  0.00000000000E+00 0.  1.
         21   -1    0    0  502  503 -0.00000000000E+00 -0.00000000000E+00 -0.11844961890E+04  0.11844961890E+04  0.00000000000E+00 0.  1.
   -9000010    2    1    2    0  503  0.18328803345E+03 -0.49731013123E+03  0.10356905922E+03  0.11312356942E+04  0.99400994760E+03 0.  0.
    9000010    2    1    2  501    0 -0.18328803345E+03  0.49731013123E+03 -0.18929085994E+03  0.11520348831E+04  0.10052071789E+04 0.  0.
        -13    1    4    4    0    0 -0.59831128373E+03  0.24223729444E+03 -0.15407722654E+03  0.66362271055E+03  0.10566000000E+00 0.  1.
          4    1    4    4  501    0  0.41502325028E+03  0.25507283679E+03 -0.35213633394E+02  0.48841217257E+03  0.00000000000E+00 0.  1.
         13    1    3    3    0    0  0.35320739065E+03  0.93294833805E+01  0.38891368913E+03  0.52544873092E+03  0.10566000000E+00 0. -1.
         -4    1    3    3    0  503 -0.16991935720E+03 -0.50663961461E+03 -0.28534462991E+03  0.60578696326E+03  0.00000000000E+00 0. -1.
<mgrwt>
<rscale>  2 0.11338960E+04</rscale>
<asrwt>0</asrwt>
<pdfrwt beam="1">  1       21 0.16904221E+00 0.11363773E+04</pdfrwt>
<pdfrwt beam="2">  1       21 0.18223018E+00 0.11363773E+04</pdfrwt>
<totfact> 0.16776629E+01</totfact>
</mgrwt>
</event>
<event>
 8    1  0.1094795E-005  0.1213429E+04  0.7818608E-02  0.8598690E-01
         21   -1    0    0  503  502  0.00000000000E+00  0.00000000000E+00  0.18718487871E+04  0.18718487871E+04  0.00000000000E+00 0.  1.
         21   -1    0    0  501  503 -0.00000000000E+00 -0.00000000000E+00 -0.10398251570E+04  0.10398251570E+04  0.00000000000E+00 0.  1.
    9000010    2    1    2  501    0  0.51490430368E+02 -0.68088305708E+03 -0.31450032490E+03  0.12422647763E+04  0.98896831007E+03 0.  0.
   -9000010    2    1    2    0  502 -0.51490430368E+02  0.68088305708E+03  0.11465239550E+04  0.16694091678E+04  0.10030736704E+04 0.  0.
        -13    1    3    3    0    0  0.25043505048E+03 -0.88216157490E+03 -0.26870704600E+03  0.95557848786E+03  0.10566000000E+00 0.  1.
          4    1    3    3  501    0 -0.19894462011E+03  0.20127851782E+03 -0.45793278908E+02  0.28668628847E+03  0.00000000000E+00 0.  1.
         13    1    4    4    0    0 -0.10621568852E+03  0.74223377717E+02 -0.17295854525E+03  0.21611467287E+03  0.10566000000E+00 0. -1.
         -4    1    4    4    0  502  0.54725258154E+02  0.60665967936E+03  0.13194825003E+04  0.14532944949E+04  0.00000000000E+00 0. -1.
<mgrwt>
<rscale>  2 0.12105099E+04</rscale>
<asrwt>0</asrwt>
<pdfrwt beam="1">  1       21 0.28797674E+00 0.12134289E+04</pdfrwt>
<pdfrwt beam="2">  1       21 0.15997310E+00 0.12134289E+04</pdfrwt>
<totfact> 0.31970701E+00</totfact>
</mgrwt>
</event>
<event>
 8    1  0.1094795E-005  0.1199308E+04  0.7818608E-02  0.8607985E-01
         21   -1    0    0  503  502  0.00000000000E+00  0.00000000000E+00  0.15941184820E+04  0.15941184820E+04  0.00000000000E+00 0. -1.
         21   -1    0    0  501  503 -0.00000000000E+00 -0.00000000000E+00 -0.12052423534E+04  0.12052423534E+04  0.00000000000E+00 0. -1.
    9000010    2    1    2  501    0  0.57417921013E+02  0.63446319389E+03 -0.51117136173E+03  0.13037010366E+04  0.10161200075E+04 0.  0.
   -9000010    2    1    2    0  502 -0.57417921013E+02 -0.63446319389E+03  0.90004749026E+03  0.14956597988E+04  0.10104812650E+04 0.  0.
        -13    1    3    3    0    0  0.19486057986E+03  0.51817825702E+03 -0.79429388134E+03  0.96818496824E+03  0.10566000000E+00 0.  1.
          4    1    3    3  501    0 -0.13744265885E+03  0.11628493687E+03  0.28312251961E+03  0.33551606836E+03  0.00000000000E+00 0.  1.
         13    1    4    4    0    0 -0.20941413323E+03 -0.64482269951E+03  0.10489246714E+03  0.68604156859E+03  0.10566000000E+00 0. -1.
         -4    1    4    4    0  502  0.15199621222E+03  0.10359505624E+02  0.79515502312E+03  0.80961823021E+03  0.00000000000E+00 0. -1.
<mgrwt>
<rscale>  2 0.11981130E+04</rscale>
<asrwt>0</asrwt>
<pdfrwt beam="1">  1       21 0.24524900E+00 0.11993082E+04</pdfrwt>
<pdfrwt beam="2">  1       21 0.18542190E+00 0.11993082E+04</pdfrwt>
<totfact> 0.39919759E+00</totfact>
</mgrwt>
</event>
<event>
 8    1  0.1094795E-005  0.1087227E+04  0.7818608E-02  0.8698629E-01
         21   -1    0    0  501  502  0.00000000000E+00  0.00000000000E+00  0.11336473793E+04  0.11336473793E+04  0.00000000000E+00 0. -1.
         21   -1    0    0  502  503 -0.00000000000E+00 -0.00000000000E+00 -0.10753990129E+04  0.10753990129E+04  0.00000000000E+00 0. -1.
   -9000010    2    1    2    0  503  0.57895714044E+02  0.41719264694E+03 -0.18763782895E+03  0.10943619106E+04  0.99248094100E+03 0.  0.
    9000010    2    1    2  501    0 -0.57895714044E+02 -0.41719264694E+03  0.24588619533E+03  0.11146844816E+04  0.10023272191E+04 0.  0.
        -13    1    4    4    0    0 -0.26000798040E+03  0.90700975317E+02 -0.25349598860E+03  0.37428738183E+03  0.10566000000E+00 0.  1.
          4    1    4    4  501    0  0.20211226636E+03 -0.50789362226E+03  0.49938218393E+03  0.74039709978E+03  0.00000000000E+00 0.  1.
         13    1    3    3    0    0 -0.38094881717E+03  0.30597226779E+03  0.17008638803E+03  0.51736874714E+03  0.10566000000E+00 0. -1.
         -4    1    3    3    0  503  0.43884453122E+03  0.11122037915E+03 -0.35772421698E+03  0.57699316350E+03  0.00000000000E+00 0. -1.
<mgrwt>
<rscale>  2 0.10849517E+04</rscale>
<asrwt>0</asrwt>
<pdfrwt beam="1">  1       21 0.17440729E+00 0.10872265E+04</pdfrwt>
<pdfrwt beam="2">  1       21 0.16544600E+00 0.10872265E+04</pdfrwt>
<totfact> 0.21078343E+01</totfact>
</mgrwt>
</event>
<event>
 8    1  0.1094795E-005  0.1067872E+04  0.7818608E-02  0.8718029E-01
         21   -1    0    0  503  502  0.00000000000E+00  0.00000000000E+00  0.53799567578E+03  0.53799567578E+03  0.00000000000E+00 0.  1.
         21   -1    0    0  501  503 -0.00000000000E+00 -0.00000000000E+00 -0.21895334198E+04  0.21895334198E+04  0.00000000000E+00 0.  1.
    9000010    2    1    2  501    0  0.12154773090E+03 -0.39148149563E+03 -0.52475021059E+03  0.11898374565E+04  0.98606225817E+03 0.  0.
   -9000010    2    1    2    0  502 -0.12154773090E+03  0.39148149563E+03 -0.11267875334E+04  0.15376916391E+04  0.96271170097E+03 0.  0.
        -13    1    3    3    0    0  0.43911261135E+02 -0.72409430399E+03 -0.37932420530E+03  0.81861323213E+03  0.10566000000E+00 0.  1.
          4    1    3    3  501    0  0.77636469764E+02  0.33261280836E+03 -0.14542600529E+03  0.37122422434E+03  0.00000000000E+00 0.  1.
         13    1    4    4    0    0 -0.22358762486E+03  0.14814911947E+03  0.97428473016E+02  0.28536276230E+03  0.10566000000E+00 0. -1.
         -4    1    4    4    0  502  0.10203989396E+03  0.24333237615E+03 -0.12242160064E+04  0.12523288768E+04  0.00000000000E+00 0. -1.
<mgrwt>
<rscale>  2 0.10624499E+04</rscale>
<asrwt>0</asrwt>
<pdfrwt beam="1">  1       21 0.82768567E-01 0.10678719E+04</pdfrwt>
<pdfrwt beam="2">  1       21 0.33685129E+00 0.10678719E+04</pdfrwt>
<totfact> 0.93495657E+00</totfact>
</mgrwt>
</event>
<event>
 8    1  0.1094795E-005  0.1051264E+04  0.7818608E-02  0.8751261E-01
         21   -1    0    0  503  502  0.00000000000E+00  0.00000000000E+00  0.25790819259E+04  0.25790819259E+04  0.00000000000E+00 0. -1.
         21   -1    0    0  501  503 -0.00000000000E+00 -0.00000000000E+00 -0.38862637740E+03  0.38862637740E+03  0.00000000000E+00 0. -1.
    9000010    2    1    2  501    0 -0.33893933721E+03 -0.10854083105E+03  0.10603260484E+04  0.14242223849E+04  0.88173527008E+03 0.  0.
   -9000010    2    1    2    0  502  0.33893933721E+03  0.10854083105E+03  0.11301295001E+04  0.15434859184E+04  0.98918911583E+03 0.  0.
        -13    1    3    3    0    0  0.27190758558E+03  0.99760333382E+02  0.45512661885E+03  0.53946835826E+03  0.10566000000E+00 0.  1.
          4    1    3    3  501    0 -0.61084692279E+03 -0.20830116443E+03  0.60519942954E+03  0.88475402667E+03  0.00000000000E+00 0.  1.
         13    1    4    4    0    0 -0.13461990980E+03 -0.36038136636E+03  0.42472890005E+03  0.57305488309E+03  0.10566000000E+00 0. -1.
         -4    1    4    4    0  502  0.47355924701E+03  0.46892219741E+03  0.70540060004E+03  0.97043103526E+03  0.00000000000E+00 0. -1.
<mgrwt>
<rscale>  2 0.10252080E+04</rscale>
<asrwt>0</asrwt>
<pdfrwt beam="1">  1       21 0.39678182E+00 0.10512640E+04</pdfrwt>
<pdfrwt beam="2">  1       21 0.59788675E-01 0.10512640E+04</pdfrwt>
<totfact> 0.77226984E+00</totfact>
</mgrwt>
</event>
<event>
 8    1  0.1094795E-005  0.1143195E+04  0.7818608E-02  0.8651967E-01
         21   -1    0    0  503  502  0.00000000000E+00  0.00000000000E+00  0.99141869314E+03  0.99141869314E+03  0.00000000000E+00 0.  1.
         21   -1    0    0  501  503 -0.00000000000E+00 -0.00000000000E+00 -0.13282594671E+04  0.13282594671E+04  0.00000000000E+00 0.  1.
    9000010    2    1    2  501    0  0.30425403757E+03 -0.44457451969E+03 -0.30336335234E+03  0.11827616844E+04  0.10083049418E+04 0.  0.
   -9000010    2    1    2    0  502 -0.30425403757E+03  0.44457451969E+03 -0.33477421667E+02  0.11369164758E+04  0.10006204637E+04 0.  0.
        -13    1    3    3    0    0 -0.11583948387E+03 -0.60819147528E+03 -0.37858004414E+03  0.72569864105E+03  0.10566000000E+00 0.  1.
          4    1    3    3  501    0  0.42009352144E+03  0.16361695559E+03  0.75216691803E+02  0.45706304339E+03  0.00000000000E+00 0.  1.
         13    1    4    4    0    0  0.28612121518E+03  0.18721858621E+03  0.25962460809E+03  0.42932632937E+03  0.10566000000E+00 0. -1.
         -4    1    4    4    0  502 -0.59037525274E+03  0.25735593348E+03 -0.29310202976E+03  0.70759014648E+03  0.00000000000E+00 0. -1.
<mgrwt>
<rscale>  2 0.11414987E+04</rscale>
<asrwt>0</asrwt>
<pdfrwt beam="1">  1       21 0.15252595E+00 0.11431955E+04</pdfrwt>
<pdfrwt beam="2">  1       21 0.20434761E+00 0.11431955E+04</pdfrwt>
<totfact> 0.15528283E+01</totfact>
</mgrwt>
</event>
<event>
 8    1  0.1094795E-005  0.1194806E+04  0.7818608E-02  0.8621391E-01
         21   -1    0    0  503  502  0.00000000000E+00  0.00000000000E+00  0.25764945488E+04  0.25764945488E+04  0.00000000000E+00 0.  1.
         21   -1    0    0  501  503 -0.00000000000E+00 -0.00000000000E+00 -0.53587181854E+03  0.53587181854E+03  0.00000000000E+00 0.  1.
    9000010    2    1    2  501    0  0.60543040890E+03 -0.57649089177E+02  0.81137682287E+03  0.13981299555E+04  0.96258278937E+03 0.  0.
   -9000010    2    1    2    0  502 -0.60543040890E+03  0.57649089177E+02  0.12292459074E+04  0.17142364118E+04  0.10284413338E+04 0.  0.
        -13    1    3    3    0    0  0.86453346273E+03 -0.87551175713E+02  0.54721313575E+03  0.10269009415E+04  0.10566000000E+00 0.  1.
          4    1    3    3  501    0 -0.25910305382E+03  0.29902086536E+02  0.26416368711E+03  0.37122901405E+03  0.00000000000E+00 0.  1.
         13    1    4    4    0    0 -0.48951057763E+03 -0.95601810383E+02  0.29963882540E+02  0.49965804025E+03  0.10566000000E+00 0. -1.
         -4    1    4    4    0  502 -0.11591983127E+03  0.15325089956E+03  0.11992820248E+04  0.12145783715E+04  0.00000000000E+00 0. -1.
<mgrwt>
<rscale>  2 0.11805023E+04</rscale>
<asrwt>0</asrwt>
<pdfrwt beam="1">  1       21 0.39638377E+00 0.11948058E+04</pdfrwt>
<pdfrwt beam="2">  1       21 0.82441820E-01 0.11948058E+04</pdfrwt>
<totfact> 0.35193453E+00</totfact>
</mgrwt>
</event>
<event>
 8    1  0.1094795E-005  0.1306223E+04  0.7818608E-02  0.8532057E-01
         21   -1    0    0  501  502  0.00000000000E+00  0.00000000000E+00  0.14388425406E+04  0.14388425406E+04  0.00000000000E+00 0. -1.
         21   -1    0    0  502  503 -0.00000000000E+00 -0.00000000000E+00 -0.13504876440E+04  0.13504876440E+04  0.00000000000E+00 0. -1.
   -9000010    2    1    2    0  503  0.77953126213E+03 -0.29442696161E+03 -0.45402630794E+03  0.13828808285E+04  0.10059141480E+04 0.  0.
    9000010    2    1    2  501    0 -0.77953126213E+03  0.29442696161E+03  0.54238120454E+03  0.14064493562E+04  0.99476941855E+03 0.  0.
        -13    1    4    4    0    0 -0.72960808320E+03  0.11942572864E+03 -0.93346570480E+02  0.74518726043E+03  0.10566000000E+00 0.  1.
          4    1    4    4  501    0 -0.49923178932E+02  0.17500123297E+03  0.63572777502E+03  0.66126209574E+03  0.00000000000E+00 0.  1.
         13    1    3    3    0    0  0.70036631678E+03 -0.63031680517E+03 -0.43350512491E+03  0.10371783632E+04  0.10566000000E+00 0. -1.
         -4    1    3    3    0  503  0.79164945348E+02  0.33588984356E+03 -0.20521183026E+02  0.34570246533E+03  0.00000000000E+00 0. -1.
<mgrwt>
<rscale>  2 0.13040773E+04</rscale>
<asrwt>0</asrwt>
<pdfrwt beam="1">  1       21 0.22136039E+00 0.13062234E+04</pdfrwt>
<pdfrwt beam="2">  1       21 0.20776733E+00 0.13062234E+04</pdfrwt>
<totfact> 0.39149638E+00</totfact>
</mgrwt>
</event>
<event>
 8    1  0.1094795E-005  0.1292769E+04  0.7818608E-02  0.8572408E-01
         21   -1    0    0  503  502  0.00000000000E+00  0.00000000000E+00  0.15004444864E+04  0.15004444864E+04  0.00000000000E+00 0. -1.
         21   -1    0    0  501  503 -0.00000000000E+00 -0.00000000000E+00 -0.11581388034E+04  0.11581388034E+04  0.00000000000E+00 0. -1.
    9000010    2    1    2  501    0  0.55199546574E+02 -0.53257878123E+03 -0.37723414439E+03  0.11790596885E+04  0.98040246903E+03 0.  0.
   -9000010    2    1    2    0  502 -0.55199546574E+02  0.53257878123E+03  0.71953982736E+03  0.14795236012E+04  0.11766755607E+04 0.  0.
        -13    1    3    3    0    0  0.37873319233E+02  0.19681822932E+03  0.17337273978E+03  0.26500928618E+03  0.10566000000E+00 0.  1.
          4    1    3    3  501    0  0.17326227341E+02 -0.72939701055E+03 -0.55060688417E+03  0.91405040236E+03  0.00000000000E+00 0.  1.
         13    1    4    4    0    0 -0.28119230877E+03  0.79613824540E+03  0.22236901718E+03  0.87312840480E+03  0.10566000000E+00 0. -1.
         -4    1    4    4    0  502  0.22599276220E+03 -0.26355946417E+03  0.49717081018E+03  0.60639519640E+03  0.00000000000E+00 0. -1.
<mgrwt>
<rscale>  2 0.12464137E+04</rscale>
<asrwt>0</asrwt>
<pdfrwt beam="1">  1       21 0.23083761E+00 0.12927693E+04</pdfrwt>
<pdfrwt beam="2">  1       21 0.17817520E+00 0.12927693E+04</pdfrwt>
<totfact> 0.57317750E+00</totfact>
</mgrwt>
</event>
<event>
 8    1  0.1094795E-005  0.1262705E+04  0.7818608E-02  0.8570088E-01
         21   -1    0    0  501  502  0.00000000000E+00  0.00000000000E+00  0.71752893450E+03  0.71752893450E+03  0.00000000000E+00 0. -1.
         21   -1    0    0  502  503 -0.00000000000E+00 -0.00000000000E+00 -0.21325890618E+04  0.21325890618E+04  0.00000000000E+00 0. -1.
   -9000010    2    1    2    0  503 -0.64468321006E+03 -0.27206035371E+03 -0.71329614660E+03  0.14502463597E+04  0.10510898313E+04 0.  0.
    9000010    2    1    2  501    0  0.64468321006E+03  0.27206035371E+03 -0.70176398072E+03  0.13998716367E+04  0.98870351325E+03 0.  0.
        -13    1    4    4    0    0  0.64163464504E+03 -0.14546633395E+03 -0.72833103552E+03  0.98148947040E+03  0.10566000000E+00 0.  1.
          4    1    4    4  501    0  0.30485650183E+01  0.41752668765E+03  0.26567054803E+02  0.41838216627E+03  0.00000000000E+00 0.  1.
         13    1    3    3    0    0 -0.25145159138E+03 -0.44865174159E+03 -0.85390492595E+03  0.99682993623E+03  0.10566000000E+00 0. -1.
         -4    1    3    3    0  503 -0.39323161868E+03  0.17659138788E+03  0.14060877935E+03  0.45341642343E+03  0.00000000000E+00 0. -1.
<mgrwt>
<rscale>  2 0.12496440E+04</rscale>
<asrwt>0</asrwt>
<pdfrwt beam="1">  1       21 0.11038907E+00 0.12627047E+04</pdfrwt>
<pdfrwt beam="2">  1       21 0.32809062E+00 0.12627047E+04</pdfrwt>
<totfact> 0.48988725E+00</totfact>
</mgrwt>
</event>
<event>
 8    1  0.1094795E-005  0.1140571E+04  0.7818608E-02  0.8668427E-01
         21   -1    0    0  503  502  0.00000000000E+00  0.00000000000E+00  0.46907574323E+03  0.46907574323E+03  0.00000000000E+00 0. -1.
         21   -1    0    0  501  503 -0.00000000000E+00 -0.00000000000E+00 -0.25992436805E+04  0.25992436805E+04  0.00000000000E+00 0. -1.
    9000010    2    1    2  501    0 -0.49602494979E+02  0.35973079615E+03 -0.94923789562E+03  0.14265224290E+04  0.10010229791E+04 0.  0.
   -9000010    2    1    2    0  502  0.49602494979E+02 -0.35973079615E+03 -0.11809300417E+04  0.16417969948E+04  0.10812191987E+04 0.  0.
        -13    1    3    3    0    0 -0.47049298377E+03  0.33816215899E+03 -0.29994364684E+03  0.65244424742E+03  0.10566000000E+00 0.  1.
          4    1    3    3  501    0  0.42089048879E+03  0.21568637167E+02 -0.64929424878E+03  0.77407818155E+03  0.00000000000E+00 0.  1.
         13    1    4    4    0    0  0.21458573257E+03  0.32014170245E+03 -0.67902640700E+03  0.78077821360E+03  0.10566000000E+00 0. -1.
         -4    1    4    4    0  502 -0.16498323759E+03 -0.67987249861E+03 -0.50190363466E+03  0.86101878117E+03  0.00000000000E+00 0. -1.
<mgrwt>
<rscale>  2 0.11211512E+04</rscale>
<asrwt>0</asrwt>
<pdfrwt beam="1">  1       21 0.72165498E-01 0.11405707E+04</pdfrwt>
<pdfrwt beam="2">  1       21 0.39988365E+00 0.11405707E+04</pdfrwt>
<totfact> 0.46444908E+00</totfact>
</mgrwt>
</event>
<event>
 8    1  0.1094795E-005  0.1112597E+04  0.7818608E-02  0.8679090E-01
         21   -1    0    0  503  502  0.00000000000E+00  0.00000000000E+00  0.14031326410E+04  0.14031326410E+04  0.00000000000E+00 0.  1.
         21   -1    0    0  501  503 -0.00000000000E+00 -0.00000000000E+00 -0.11273276816E+04  0.11273276816E+04  0.00000000000E+00 0.  1.
    9000010    2    1    2  501    0 -0.18788781232E+03 -0.38763841394E+03 -0.46757547610E+03  0.12068553749E+04  0.10258205009E+04 0.  0.
   -9000010    2    1    2    0  502  0.18788781232E+03  0.38763841394E+03  0.74338043541E+03  0.13236049477E+04  0.10068516355E+04 0.  0.
        -13    1    3    3    0    0 -0.49237631032E+03 -0.53294917335E+03 -0.14470330112E+03  0.73987046762E+03  0.10566000000E+00 0.  1.
          4    1    3    3  501    0  0.30448849800E+03  0.14531075941E+03 -0.32287217498E+03  0.46698490724E+03  0.00000000000E+00 0.  1.
         13    1    4    4    0    0  0.10391968269E+03  0.72337167140E+03  0.38741024600E+03  0.82713516749E+03  0.10566000000E+00 0. -1.
         -4    1    4    4    0  502  0.83968129627E+02 -0.33573325746E+03  0.35597018941E+03  0.49646978025E+03  0.00000000000E+00 0. -1.
<mgrwt>
<rscale>  2 0.11082053E+04</rscale>
<asrwt>0</asrwt>
<pdfrwt beam="1">  1       21 0.21586656E+00 0.11125974E+04</pdfrwt>
<pdfrwt beam="2">  1       21 0.17343503E+00 0.11125974E+04</pdfrwt>
<totfact> 0.84424352E+00</totfact>
</mgrwt>
</event>
<event>
 8    1  0.1094795E-005  0.1425478E+04  0.7818608E-02  0.8453967E-01
         21   -1    0    0  503  502  0.00000000000E+00  0.00000000000E+00  0.14727494905E+04  0.14727494905E+04  0.00000000000E+00 0. -1.
         21   -1    0    0  501  503 -0.00000000000E+00 -0.00000000000E+00 -0.20054730529E+04  0.20054730529E+04  0.00000000000E+00 0.  1.
    9000010    2    1    2  501    0  0.33015722523E+03 -0.95219675739E+03 -0.12391149773E+04  0.18887542258E+04  0.10081191102E+04 0.  0.
   -9000010    2    1    2    0  502 -0.33015722523E+03  0.95219675739E+03  0.70639141488E+03  0.15894683176E+04  0.10058519988E+04 0.  0.
        -13    1    3    3    0    0  0.31740264735E+03  0.41306654356E+02 -0.26657006665E+02  0.32118730892E+03  0.10566000000E+00 0.  1.
          4    1    3    3  501    0  0.12754577883E+02 -0.99350341175E+03 -0.12124579707E+04  0.15675669169E+04  0.00000000000E+00 0.  1.
         13    1    4    4    0    0 -0.39395764435E+03  0.71935257543E+03 -0.23687009648E+02  0.82050706207E+03  0.10566000000E+00 0. -1.
         -4    1    4    4    0  502  0.63800419113E+02  0.23284418196E+03  0.73007842453E+03  0.76896125554E+03  0.00000000000E+00 0. -1.
<mgrwt>
<rscale>  2 0.14250769E+04</rscale>
<asrwt>0</asrwt>
<pdfrwt beam="1">  1       21 0.22657685E+00 0.14254777E+04</pdfrwt>
<pdfrwt beam="2">  1       21 0.30853431E+00 0.14254777E+04</pdfrwt>
<totfact> 0.64259138E-01</totfact>
</mgrwt>
</event>
<event>
 8    1  0.1094795E-005  0.1197937E+04  0.7818608E-02  0.8615134E-01
         21   -1    0    0  503  502  0.00000000000E+00  0.00000000000E+00  0.10788012637E+04  0.10788012637E+04  0.00000000000E+00 0. -1.
         21   -1    0    0  501  503 -0.00000000000E+00 -0.00000000000E+00 -0.14773671222E+04  0.14773671222E+04  0.00000000000E+00 0. -1.
    9000010    2    1    2  501    0 -0.65875137029E+03 -0.13501727497E+03 -0.65181074909E+03  0.13317556123E+04  0.94685412071E+03 0.  0.
   -9000010    2    1    2    0  502  0.65875137029E+03  0.13501727497E+03  0.25324489063E+03  0.12244127736E+04  0.99139832207E+03 0.  0.
        -13    1    3    3    0    0 -0.59843261817E+03 -0.13428023866E+03 -0.89289305485E+03  0.10832408779E+04  0.10566000000E+00 0.  1.
          4    1    3    3  501    0 -0.60318752120E+02 -0.73703631350E+00  0.24108230575E+03  0.24851473443E+03  0.00000000000E+00 0.  1.
         13    1    4    4    0    0 -0.21109569055E+02  0.14201527165E+03  0.48523156202E+03  0.50602730285E+03  0.10566000000E+00 0. -1.
         -4    1    4    4    0  502  0.67986093934E+03 -0.69979966757E+01 -0.23198667139E+03  0.71838547070E+03  0.00000000000E+00 0. -1.
<mgrwt>
<rscale>  2 0.11886818E+04</rscale>
<asrwt>0</asrwt>
<pdfrwt beam="1">  1       21 0.16596943E+00 0.11979373E+04</pdfrwt>
<pdfrwt beam="2">  1       21 0.22728725E+00 0.11979373E+04</pdfrwt>
<totfact> 0.78548742E+00</totfact>
</mgrwt>
</event>
<event>
 8    1  0.1094795E-005  0.1058186E+04  0.7818608E-02  0.8722173E-01
         21   -1    0    0  501  502  0.00000000000E+00  0.00000000000E+00  0.75192490328E+03  0.75192490328E+03  0.00000000000E+00 0. -1.
         21   -1    0    0  502  503 -0.00000000000E+00 -0.00000000000E+00 -0.14948855706E+04  0.14948855706E+04  0.00000000000E+00 0. -1.
   -9000010    2    1    2    0  503  0.31578250146E+03 -0.11805924057E+03 -0.45502982496E+03  0.11501507499E+04  0.10010684459E+04 0.  0.
    9000010    2    1    2  501    0 -0.31578250146E+03  0.11805924057E+03 -0.28793084231E+03  0.10966597240E+04  0.10030462640E+04 0.  0.
        -13    1    4    4    0    0 -0.27736296187E+02  0.53979082986E+03 -0.21079807112E+03  0.58015453120E+03  0.10566000000E+00 0.  1.
          4    1    4    4  501    0 -0.28804620527E+03 -0.42173158929E+03 -0.77132771190E+02  0.51650519278E+03  0.00000000000E+00 0.  1.
         13    1    3    3    0    0 -0.33811541195E+03 -0.10803974394E+02 -0.33621352024E+03  0.47694685240E+03  0.10566000000E+00 0. -1.
         -4    1    3    3    0  503  0.65389791341E+03 -0.10725526618E+03 -0.11881630472E+03  0.67320389746E+03  0.00000000000E+00 0. -1.
<mgrwt>
<rscale>  2 0.10577174E+04</rscale>
<asrwt>0</asrwt>
<pdfrwt beam="1">  1       21 0.11568076E+00 0.10581864E+04</pdfrwt>
<pdfrwt beam="2">  1       21 0.22998239E+00 0.10581864E+04</pdfrwt>
<totfact> 0.22688324E+01</totfact>
</mgrwt>
</event>
<event>
 8    1  0.1094795E-005  0.1113970E+04  0.7818608E-02  0.8675560E-01
         21   -1    0    0  503  502  0.00000000000E+00  0.00000000000E+00  0.14467550134E+04  0.14467550134E+04  0.00000000000E+00 0. -1.
         21   -1    0    0  501  503 -0.00000000000E+00 -0.00000000000E+00 -0.86678251074E+03  0.86678251074E+03  0.00000000000E+00 0. -1.
    9000010    2    1    2  501    0 -0.33296175823E+03  0.35257812972E+03  0.14403897395E+03  0.11173071245E+04  0.99621941076E+03 0.  0.
   -9000010    2    1    2    0  502  0.33296175823E+03 -0.35257812972E+03  0.43593352868E+03  0.11962303996E+04  0.10028730017E+04 0.  0.
        -13    1    3    3    0    0 -0.52306280410E+03  0.44053301501E+03 -0.20177264166E+03  0.71300508023E+03  0.10566000000E+00 0.  1.
          4    1    3    3  501    0  0.19010104587E+03 -0.87954885289E+02  0.34581161561E+03  0.40430204424E+03  0.00000000000E+00 0.  1.
         13    1    4    4    0    0  0.63604662990E+03 -0.41578897414E+03  0.45558932306E+03  0.88600080636E+03  0.10566000000E+00 0. -1.
         -4    1    4    4    0  502 -0.30308487167E+03  0.63210844412E+02 -0.19655794379E+02  0.31022959327E+03  0.00000000000E+00 0. -1.
<mgrwt>
<rscale>  2 0.11124704E+04</rscale>
<asrwt>0</asrwt>
<pdfrwt beam="1">  1       21 0.22257769E+00 0.11139700E+04</pdfrwt>
<pdfrwt beam="2">  1       21 0.13335116E+00 0.11139700E+04</pdfrwt>
<totfact> 0.17008808E+01</totfact>
</mgrwt>
</event>
<event>
 8    1  0.1094795E-005  0.1051418E+04  0.7818608E-02  0.8727944E-01
         21   -1    0    0  501  502  0.00000000000E+00  0.00000000000E+00  0.82746823578E+03  0.82746823578E+03  0.00000000000E+00 0. -1.
         21   -1    0    0  502  503 -0.00000000000E+00 -0.00000000000E+00 -0.13354485122E+04  0.13354485122E+04  0.00000000000E+00 0. -1.
   -9000010    2    1    2    0  503 -0.10925066877E+03  0.31724809895E+03 -0.27920983363E+03  0.10868986818E+04  0.99539366505E+03 0.  0.
    9000010    2    1    2  501    0  0.10925066877E+03 -0.31724809895E+03 -0.22877044282E+03  0.10760180662E+04  0.99644211992E+03 0.  0.
        -13    1    4    4    0    0  0.13410034679E+03  0.35320326837E+03 -0.11960025826E+03  0.39628232958E+03  0.10566000000E+00 0.  1.
          4    1    4    4  501    0 -0.24849678011E+02 -0.67045136732E+03 -0.10917018455E+03  0.67973573662E+03  0.00000000000E+00 0.  1.
         13    1    3    3    0    0 -0.21853090666E+03  0.65709143376E+03 -0.16207944610E+03  0.71119242649E+03  0.10566000000E+00 0. -1.
         -4    1    3    3    0  503  0.10928023789E+03 -0.33984333481E+03 -0.11713038753E+03  0.37570625532E+03  0.00000000000E+00 0. -1.
<mgrwt>
<rscale>  2 0.10511691E+04</rscale>
<asrwt>0</asrwt>
<pdfrwt beam="1">  1       21 0.12730281E+00 0.10514176E+04</pdfrwt>
<pdfrwt beam="2">  1       21 0.20545362E+00 0.10514176E+04</pdfrwt>
<totfact> 0.26622968E+01</totfact>
</mgrwt>
</event>
<event>
 8    1  0.1094795E-005  0.1229121E+04  0.7818608E-02  0.8600791E-01
         21   -1    0    0  501  502  0.00000000000E+00  0.00000000000E+00  0.15903792800E+04  0.15903792800E+04  0.00000000000E+00 0.  1.
         21   -1    0    0  502  503 -0.00000000000E+00 -0.00000000000E+00 -0.12701611095E+04  0.12701611095E+04  0.00000000000E+00 0.  1.
   -9000010    2    1    2    0  503 -0.38470556802E+03 -0.43630738660E+03 -0.62956079991E+03  0.13072151195E+04  0.98696608762E+03 0.  0.
    9000010    2    1    2  501    0  0.38470556802E+03  0.43630738660E+03  0.94977897039E+03  0.15533252700E+04  0.10827634978E+04 0.  0.
        -13    1    4    4    0    0  0.39722472389E+03  0.13400309322E+03 -0.12444920218E+03  0.43730072645E+03  0.10566000000E+00 0.  1.
          4    1    4    4  501    0 -0.12519155869E+02  0.30230429338E+03  0.10742281726E+04  0.11160245435E+04  0.00000000000E+00 0.  1.
         13    1    3    3    0    0 -0.67195856774E+03 -0.31914307308E+03 -0.18750270897E+03  0.76716223505E+03  0.10566000000E+00 0. -1.
         -4    1    3    3    0  503  0.28725299971E+03 -0.11716431352E+03 -0.44205809094E+03  0.54005288443E+03  0.00000000000E+00 0. -1.
<mgrwt>
<rscale>  2 0.12076943E+04</rscale>
<asrwt>0</asrwt>
<pdfrwt beam="1">  1       21 0.24467374E+00 0.12291214E+04</pdfrwt>
<pdfrwt beam="2">  1       21 0.19540940E+00 0.12291214E+04</pdfrwt>
<totfact> 0.33332315E+00</totfact>
</mgrwt>
</event>
<event>
 8    1  0.1094795E-005  0.1028918E+04  0.7818608E-02  0.8752308E-01
         21   -1    0    0  503  502  0.00000000000E+00  0.00000000000E+00  0.87726636746E+03  0.87726636746E+03  0.00000000000E+00 0. -1.
         21   -1    0    0  501  503 -0.00000000000E+00 -0.00000000000E+00 -0.11917551046E+04  0.11917551046E+04  0.00000000000E+00 0. -1.
    9000010    2    1    2  501    0  0.17646657524E+02 -0.15212599676E+03 -0.24074036621E+03  0.10567058528E+04  0.10174564423E+04 0.  0.
   -9000010    2    1    2    0  502 -0.17646657524E+02  0.15212599676E+03 -0.73748370913E+02  0.10123156192E+04  0.99794306816E+03 0.  0.
        -13    1    3    3    0    0 -0.33183263695E+01  0.10965328169E+03 -0.60097552192E+03  0.61090624696E+03  0.10566000000E+00 0.  1.
          4    1    3    3  501    0  0.20964983893E+02 -0.26177927845E+03  0.36023515570E+03  0.44579960586E+03  0.00000000000E+00 0.  1.
         13    1    4    4    0    0  0.34006609863E+03 -0.29071977897E+02  0.30721817996E+03  0.45920926885E+03  0.10566000000E+00 0. -1.
         -4    1    4    4    0  502 -0.35771275615E+03  0.18119797466E+03 -0.38096655087E+03  0.55310635037E+03  0.00000000000E+00 0. -1.
<mgrwt>
<rscale>  2 0.10240603E+04</rscale>
<asrwt>0</asrwt>
<pdfrwt beam="1">  1       21 0.13496406E+00 0.10289176E+04</pdfrwt>
<pdfrwt beam="2">  1       21 0.18334694E+00 0.10289176E+04</pdfrwt>
<totfact> 0.33771252E+01</totfact>
</mgrwt>
</event>
<event>
 8    1  0.1094795E-005  0.1249697E+04  0.7818608E-02  0.8570595E-01
         21   -1    0    0  501  502  0.00000000000E+00  0.00000000000E+00  0.15569324852E+04  0.15569324852E+04  0.00000000000E+00 0.  1.
         21   -1    0    0  502  503 -0.00000000000E+00 -0.00000000000E+00 -0.11709106717E+04  0.11709106717E+04  0.00000000000E+00 0.  1.
   -9000010    2    1    2    0  503  0.26625285000E+03 -0.70001414893E+03 -0.32727825475E+03  0.12889064198E+04  0.99662345659E+03 0.  0.
    9000010    2    1    2  501    0 -0.26625285000E+03  0.70001414893E+03  0.71330006832E+03  0.14389367371E+04  0.10004156921E+04 0.  0.
        -13    1    4    4    0    0  0.15249160137E+02  0.81177751324E+03  0.78319451537E+03  0.11280996977E+04  0.10566000000E+00 0.  1.
          4    1    4    4  501    0 -0.28150201014E+03 -0.11176336432E+03 -0.69894447052E+02  0.31083703937E+03  0.00000000000E+00 0.  1.
         13    1    3    3    0    0  0.14349586236E+03 -0.23963708226E+03 -0.65402338480E+03  0.71117057921E+03  0.10566000000E+00 0. -1.
         -4    1    3    3    0  503  0.12275698765E+03 -0.46037706667E+03  0.32674513005E+03  0.57773584062E+03  0.00000000000E+00 0. -1.
<mgrwt>
<rscale>  2 0.12489376E+04</rscale>
<asrwt>0</asrwt>
<pdfrwt beam="1">  1       21 0.23952808E+00 0.12496967E+04</pdfrwt>
<pdfrwt beam="2">  1       21 0.18014010E+00 0.12496967E+04</pdfrwt>
<totfact> 0.48031043E+00</totfact>
</mgrwt>
</event>
<event>
 8    1  0.1094795E-005  0.1247017E+04  0.7818608E-02  0.8572239E-01
         21   -1    0    0  503  502  0.00000000000E+00  0.00000000000E+00  0.85362351691E+03  0.85362351691E+03  0.00000000000E+00 0. -1.
         21   -1    0    0  501  503 -0.00000000000E+00 -0.00000000000E+00 -0.18228854546E+04  0.18228854546E+04  0.00000000000E+00 0. -1.
    9000010    2    1    2  501    0  0.15799020309E+03 -0.71736002408E+03 -0.42713689894E+03  0.13167474630E+04  0.10058884841E+04 0.  0.
   -9000010    2    1    2    0  502 -0.15799020309E+03  0.71736002408E+03 -0.54212503875E+03  0.13597615085E+04  0.10077130018E+04 0.  0.
        -13    1    3    3    0    0  0.35718039377E+03 -0.85179006655E+03 -0.12711967649E+03  0.93235378183E+03  0.10566000000E+00 0.  1.
          4    1    3    3  501    0 -0.19919019068E+03  0.13443004247E+03 -0.30001722245E+03  0.38439368120E+03  0.00000000000E+00 0.  1.
         13    1    4    4    0    0  0.28123420130E+03 -0.53556152606E+02 -0.34958244515E+03  0.45185045600E+03  0.10566000000E+00 0. -1.
         -4    1    4    4    0  502 -0.43922440439E+03  0.77091617668E+03 -0.19254259360E+03  0.90791105249E+03  0.00000000000E+00 0. -1.
<mgrwt>
<rscale>  2 0.12466485E+04</rscale>
<asrwt>0</asrwt>
<pdfrwt beam="1">  1       21 0.13132669E+00 0.12470172E+04</pdfrwt>
<pdfrwt beam="2">  1       21 0.28044392E+00 0.12470172E+04</pdfrwt>
<totfact> 0.65490107E+00</totfact>
</mgrwt>
</event>
<event>
 8    1  0.1094795E-005  0.1211552E+04  0.7818608E-02  0.8606550E-01
         21   -1    0    0  501  502  0.00000000000E+00  0.00000000000E+00  0.13981844887E+04  0.13981844887E+04  0.00000000000E+00 0.  1.
         21   -1    0    0  502  503 -0.00000000000E+00 -0.00000000000E+00 -0.10311729156E+04  0.10311729156E+04  0.00000000000E+00 0.  1.
   -9000010    2    1    2    0  503  0.59325229725E+03  0.10387750348E+03  0.16180212170E+02  0.12116598915E+04  0.10512464361E+04 0.  0.
    9000010    2    1    2  501    0 -0.59325229725E+03 -0.10387750348E+03  0.35083136096E+03  0.12176975129E+04  0.99848172995E+03 0.  0.
        -13    1    4    4    0    0 -0.66876603524E+03 -0.13856568953E+03  0.62832353392E+03  0.92802959794E+03  0.10566000000E+00 0.  1.
          4    1    4    4  501    0  0.75513737988E+02  0.34688186049E+02 -0.27749217296E+03  0.28966791492E+03  0.00000000000E+00 0.  1.
         13    1    3    3    0    0  0.15523548525E+02  0.10369375057E+03 -0.45451942558E+03  0.46645610067E+03  0.10566000000E+00 0. -1.
         -4    1    3    3    0  503  0.57772874873E+03  0.18375290977E+00  0.47069963775E+03  0.74520379082E+03  0.00000000000E+00 0. -1.
<mgrwt>
<rscale>  2 0.12000161E+04</rscale>
<asrwt>0</asrwt>
<pdfrwt beam="1">  1       21 0.21510531E+00 0.12115519E+04</pdfrwt>
<pdfrwt beam="2">  1       21 0.15864199E+00 0.12115519E+04</pdfrwt>
<totfact> 0.11189246E+01</totfact>
</mgrwt>
</event>
<event>
 8    1  0.1094795E-005  0.1083331E+04  0.7818608E-02  0.8704787E-01
         21   -1    0    0  503  502  0.00000000000E+00  0.00000000000E+00  0.94642392509E+03  0.94642392509E+03  0.00000000000E+00 0. -1.
         21   -1    0    0  501  503 -0.00000000000E+00 -0.00000000000E+00 -0.12523580104E+04  0.12523580104E+04  0.00000000000E+00 0. -1.
    9000010    2    1    2  501    0  0.29906421031E+03  0.19133959119E+03  0.38954474963E+02  0.10618760860E+04  0.10000065649E+04 0.  0.
   -9000010    2    1    2    0  502 -0.29906421031E+03 -0.19133959119E+03 -0.34488856031E+03  0.11369058495E+04  0.10235021009E+04 0.  0.
        -13    1    3    3    0    0  0.26361202248E+03  0.35930501156E+03 -0.39481428142E+03  0.59537359507E+03  0.10566000000E+00 0.  1.
          4    1    3    3  501    0  0.35452187830E+02 -0.16796542036E+03  0.43376875638E+03  0.46650249096E+03  0.00000000000E+00 0.  1.
         13    1    4    4    0    0 -0.23554757679E+03 -0.41167567834E+03 -0.61881190430E+03  0.77967153926E+03  0.10566000000E+00 0. -1.
         -4    1    4    4    0  502 -0.63516633522E+02  0.22033608715E+03  0.27392334399E+03  0.35723431025E+03  0.00000000000E+00 0. -1.
<mgrwt>
<rscale>  2 0.10777458E+04</rscale>
<asrwt>0</asrwt>
<pdfrwt beam="1">  1       21 0.14560368E+00 0.10833313E+04</pdfrwt>
<pdfrwt beam="2">  1       21 0.19267046E+00 0.10833313E+04</pdfrwt>
<totfact> 0.22400310E+01</totfact>
</mgrwt>
</event>
<event>
 8    1  0.1094795E-005  0.1140496E+04  0.7818608E-02  0.8652882E-01
         21   -1    0    0  503  502  0.00000000000E+00  0.00000000000E+00  0.42447943976E+03  0.42447943976E+03  0.00000000000E+00 0.  1.
         21   -1    0    0  501  503 -0.00000000000E+00 -0.00000000000E+00 -0.30718820148E+04  0.30718820148E+04  0.00000000000E+00 0.  1.
    9000010    2    1    2  501    0  0.54794486609E+03  0.94589879571E+02 -0.12289553257E+04  0.16766223788E+04  0.99576131013E+03 0.  0.
   -9000010    2    1    2    0  502 -0.54794486609E+03 -0.94589879571E+02 -0.14184472493E+04  0.18197390758E+04  0.99512154197E+03 0.  0.
        -13    1    3    3    0    0  0.15617940872E+03 -0.35377536163E+03 -0.93662932801E+03  0.10133230104E+04  0.10566000000E+00 0.  1.
          4    1    3    3  501    0  0.39176545737E+03  0.44836524120E+03 -0.29232599771E+03  0.66329936834E+03  0.00000000000E+00 0.  1.
         13    1    4    4    0    0 -0.74409060910E+03 -0.33342065002E+03 -0.88594551100E+03  0.12040513378E+04  0.10566000000E+00 0. -1.
         -4    1    4    4    0  502  0.19614574301E+03  0.23883077045E+03 -0.53250173833E+03  0.61568773801E+03  0.00000000000E+00 0. -1.
<mgrwt>
<rscale>  2 0.11403565E+04</rscale>
<asrwt>0</asrwt>
<pdfrwt beam="1">  1       21 0.65304529E-01 0.11404961E+04</pdfrwt>
<pdfrwt beam="2">  1       21 0.47259723E+00 0.11404961E+04</pdfrwt>
<totfact> 0.18441581E+00</totfact>
</mgrwt>
</event>
<event>
 8    1  0.1094795E-005  0.1021062E+04  0.7818608E-02  0.8755635E-01
         21   -1    0    0  503  502  0.00000000000E+00  0.00000000000E+00  0.87836573763E+03  0.87836573763E+03  0.00000000000E+00 0.  1.
         21   -1    0    0  501  503 -0.00000000000E+00 -0.00000000000E+00 -0.11948770510E+04  0.11948770510E+04  0.00000000000E+00 0.  1.
    9000010    2    1    2  501    0 -0.19916896546E+03  0.68898449815E+02 -0.25705795225E+03  0.10504512038E+04  0.99647060551E+03 0.  0.
   -9000010    2    1    2    0  502  0.19916896546E+03 -0.68898449815E+02 -0.59453361102E+02  0.10227915848E+04  0.99907589830E+03 0.  0.
        -13    1    3    3    0    0 -0.27500909396E+03  0.14622997547E+03 -0.60801987488E+03  0.68315546320E+03  0.10566000000E+00 0.  1.
          4    1    3    3  501    0  0.75840128501E+02 -0.77331525660E+02  0.35096192263E+03  0.36729574063E+03  0.00000000000E+00 0.  1.
         13    1    4    4    0    0  0.36918127302E+03  0.29391670019E+03  0.23344435165E+03  0.52647707973E+03  0.10566000000E+00 0. -1.
         -4    1    4    4    0  502 -0.17001230756E+03 -0.36281515000E+03 -0.29289771275E+03  0.49631450505E+03  0.00000000000E+00 0. -1.
<mgrwt>
<rscale>  2 0.10204243E+04</rscale>
<asrwt>0</asrwt>
<pdfrwt beam="1">  1       21 0.13513319E+00 0.10210622E+04</pdfrwt>
<pdfrwt beam="2">  1       21 0.18382724E+00 0.10210622E+04</pdfrwt>
<totfact> 0.33405998E+01</totfact>
</mgrwt>
</event>
<event>
 8    1  0.1094795E-005  0.1082192E+04  0.7818608E-02  0.8702866E-01
         21   -1    0    0  503  502  0.00000000000E+00  0.00000000000E+00  0.89397646871E+03  0.89397646871E+03  0.00000000000E+00 0. -1.
         21   -1    0    0  501  503 -0.00000000000E+00 -0.00000000000E+00 -0.14103836710E+04  0.14103836710E+04  0.00000000000E+00 0. -1.
    9000010    2    1    2  501    0  0.36823657260E+03 -0.87537799535E+02  0.64008420018E+02  0.10840830156E+04  0.10138431176E+04 0.  0.
   -9000010    2    1    2    0  502 -0.36823657260E+03  0.87537799535E+02 -0.58041562228E+03  0.12202771240E+04  0.10044565322E+04 0.  0.
        -13    1    3    3    0    0  0.34899750993E+03  0.28735515783E+03 -0.31472122448E+03  0.55083727994E+03  0.10566000000E+00 0.  1.
          4    1    3    3  501    0  0.19239062680E+02 -0.37489295737E+03  0.37872964449E+03  0.53324573570E+03  0.00000000000E+00 0.  1.
         13    1    4    4    0    0 -0.73911899488E+02 -0.45034720004E+03 -0.19666546980E+03  0.49694354574E+03  0.10566000000E+00 0. -1.
         -4    1    4    4    0  502 -0.29432467312E+03  0.53788499958E+03 -0.38375015248E+03  0.72333357831E+03  0.00000000000E+00 0. -1.
<mgrwt>
<rscale>  2 0.10799878E+04</rscale>
<asrwt>0</asrwt>
<pdfrwt beam="1">  1       21 0.13753484E+00 0.10821917E+04</pdfrwt>
<pdfrwt beam="2">  1       21 0.21698210E+00 0.10821917E+04</pdfrwt>
<totfact> 0.17234024E+01</totfact>
</mgrwt>
</event>
<event>
 8    1  0.1094795E-005  0.1106232E+04  0.7818608E-02  0.8681303E-01
         21   -1    0    0  501  502  0.00000000000E+00  0.00000000000E+00  0.14664021242E+04  0.14664021242E+04  0.00000000000E+00 0.  1.
         21   -1    0    0  502  503 -0.00000000000E+00 -0.00000000000E+00 -0.92279873012E+03  0.92279873012E+03  0.00000000000E+00 0.  1.
   -9000010    2    1    2    0  503 -0.25101989362E+03  0.37779487621E+03 -0.10169515019E+03  0.11108961032E+04  0.10089639701E+04 0.  0.
    9000010    2    1    2  501    0  0.25101989362E+03 -0.37779487621E+03  0.64529854431E+03  0.12783047512E+04  0.10059388004E+04 0.  0.
        -13    1    4    4    0    0  0.13740758110E+03 -0.65666984883E+03  0.70293758372E+03  0.97170849100E+03  0.10566000000E+00 0.  1.
          4    1    4    4  501    0  0.11361231252E+03  0.27887497262E+03 -0.57639039403E+02  0.30659626021E+03  0.00000000000E+00 0.  1.
         13    1    3    3    0    0  0.29264391719E+02 -0.25885715937E+03  0.22329053523E+03  0.34310655469E+03  0.10566000000E+00 0. -1.
         -4    1    3    3    0  503 -0.28028428534E+03  0.63665203558E+03 -0.32498568543E+03  0.76778954848E+03  0.00000000000E+00 0. -1.
<mgrwt>
<rscale>  2 0.11055413E+04</rscale>
<asrwt>0</asrwt>
<pdfrwt beam="1">  1       21 0.22560033E+00 0.11062316E+04</pdfrwt>
<pdfrwt beam="2">  1       21 0.14196904E+00 0.11062316E+04</pdfrwt>
<totfact> 0.13430104E+01</totfact>
</mgrwt>
</event>
<event>
 8    1  0.1094795E-005  0.1084405E+04  0.7818608E-02  0.8701483E-01
         21   -1    0    0  501  502  0.00000000000E+00  0.00000000000E+00  0.14687872936E+04  0.14687872936E+04  0.00000000000E+00 0.  1.
         21   -1    0    0  502  503 -0.00000000000E+00 -0.00000000000E+00 -0.96376771769E+03  0.96376771769E+03  0.00000000000E+00 0.  1.
   -9000010    2    1    2    0  503 -0.16037829325E+03 -0.31293169558E+03 -0.25928645340E+03  0.11149720449E+04  0.10258098035E+04 0.  0.
    9000010    2    1    2  501    0  0.16037829325E+03  0.31293169558E+03  0.76430602937E+03  0.13175829664E+04  0.10140087395E+04 0.  0.
        -13    1    4    4    0    0  0.10707527495E+03  0.67437434514E+03  0.35731870482E+03  0.77066370089E+03  0.10566000000E+00 0.  1.
          4    1    4    4  501    0  0.53303018303E+02 -0.36144264956E+03  0.40698732455E+03  0.54691926555E+03  0.00000000000E+00 0.  1.
         13    1    3    3    0    0  0.28178753418E+03 -0.51174474861E+03 -0.48130114941E+02  0.58617695389E+03  0.10566000000E+00 0. -1.
         -4    1    3    3    0  503 -0.44216582743E+03  0.19881305303E+03 -0.21115633846E+03  0.52879509101E+03  0.00000000000E+00 0. -1.
<mgrwt>
<rscale>  2 0.10816046E+04</rscale>
<asrwt>0</asrwt>
<pdfrwt beam="1">  1       21 0.22596728E+00 0.10844045E+04</pdfrwt>
<pdfrwt beam="2">  1       21 0.14827196E+00 0.10844045E+04</pdfrwt>
<totfact> 0.11754704E+01</totfact>
</mgrwt>
</event>
<event>
 8    1  0.1094795E-005  0.1100812E+04  0.7818608E-02  0.8686570E-01
         21   -1    0    0  503  502  0.00000000000E+00  0.00000000000E+00  0.89477518231E+03  0.89477518231E+03  0.00000000000E+00 0. -1.
         21   -1    0    0  501  503 -0.00000000000E+00 -0.00000000000E+00 -0.15003615553E+04  0.15003615553E+04  0.00000000000E+00 0.  1.
    9000010    2    1    2  501    0 -0.18351347233E+03  0.41341431889E+03  0.79871326809E+02  0.11037057246E+04  0.10035926983E+04 0.  0.
   -9000010    2    1    2    0  502  0.18351347233E+03 -0.41341431889E+03 -0.68545769976E+03  0.12914310130E+04  0.99667106387E+03 0.  0.
        -13    1    3    3    0    0 -0.57123016366E+03  0.36146706330E+03 -0.80823158535E+02  0.68080447402E+03  0.10566000000E+00 0.  1.
          4    1    3    3  501    0  0.38771669133E+03  0.51947255593E+02  0.16069448534E+03  0.42290125055E+03  0.00000000000E+00 0.  1.
         13    1    4    4    0    0 -0.28696614054E+03 -0.25129495738E+03 -0.69602176703E+03  0.79369076646E+03  0.10566000000E+00 0. -1.
         -4    1    4    4    0  502  0.47047961287E+03 -0.16211936151E+03  0.10564067269E+02  0.49774024653E+03  0.00000000000E+00 0. -1.
<mgrwt>
<rscale>  2 0.10992319E+04</rscale>
<asrwt>0</asrwt>
<pdfrwt beam="1">  1       21 0.13765772E+00 0.11008119E+04</pdfrwt>
<pdfrwt beam="2">  1       21 0.23082485E+00 0.11008119E+04</pdfrwt>
<totfact> 0.13477914E+01</totfact>
</mgrwt>
</event>
<event>
 8    1  0.1094795E-005  0.1020740E+04  0.7818608E-02  0.8764565E-01
         21   -1    0    0  501  502  0.00000000000E+00  0.00000000000E+00  0.14217014904E+04  0.14217014904E+04  0.00000000000E+00 0. -1.
         21   -1    0    0  502  503 -0.00000000000E+00 -0.00000000000E+00 -0.71049084680E+03  0.71049084680E+03  0.00000000000E+00 0. -1.
   -9000010    2    1    2    0  503 -0.87240441494E+02 -0.24760943814E+03  0.45764301095E+03  0.11186359565E+04  0.98640151525E+03 0.  0.
    9000010    2    1    2  501    0  0.87240441494E+02  0.24760943814E+03  0.25356763264E+03  0.10135563807E+04  0.94555732982E+03 0.  0.
        -13    1    4    4    0    0 -0.42433287638E+03  0.12434430779E+03  0.19777934407E+03  0.48439299846E+03  0.10566000000E+00 0.  1.
          4    1    4    4  501    0  0.51157331787E+03  0.12326513035E+03  0.55788288572E+02  0.52916338220E+03  0.00000000000E+00 0.  1.
         13    1    3    3    0    0 -0.30764300841E+03  0.59553826911E+02 -0.19163779503E+03  0.36730904505E+03  0.10566000000E+00 0. -1.
         -4    1    3    3    0  503  0.22040256692E+03 -0.30716326505E+03  0.64928080598E+03  0.75132691148E+03  0.00000000000E+00 0. -1.
<mgrwt>
<rscale>  2 0.10107401E+04</rscale>
<asrwt>0</asrwt>
<pdfrwt beam="1">  1       21 0.21872331E+00 0.10207396E+04</pdfrwt>
<pdfrwt beam="2">  1       21 0.10930628E+00 0.10207396E+04</pdfrwt>
<totfact> 0.32435417E+01</totfact>
</mgrwt>
</event>
<event>
 8    1  0.1094795E-005  0.1165933E+04  0.7818608E-02  0.8654384E-01
         21   -1    0    0  503  502  0.00000000000E+00  0.00000000000E+00  0.86801098770E+03  0.86801098770E+03  0.00000000000E+00 0. -1.
         21   -1    0    0  501  503 -0.00000000000E+00 -0.00000000000E+00 -0.14294418788E+04  0.14294418788E+04  0.00000000000E+00 0. -1.
    9000010    2    1    2  501    0  0.39246049095E+03  0.61317081681E+01 -0.31495044062E+03  0.11057515970E+04  0.98459635352E+03 0.  0.
   -9000010    2    1    2    0  502 -0.39246049095E+03 -0.61317081681E+01 -0.24648045050E+03  0.11917012695E+04  0.10978781665E+04 0.  0.
        -13    1    3    3    0    0  0.34984999327E+03 -0.31504251227E+03 -0.53610326696E+03  0.71347987101E+03  0.10566000000E+00 0.  1.
          4    1    3    3  501    0  0.42610497673E+02  0.32117422044E+03  0.22115282634E+03  0.39227172596E+03  0.00000000000E+00 0.  1.
         13    1    4    4    0    0 -0.87841216631E+02 -0.15566776579E+03  0.41300875225E+03  0.45002752499E+03  0.10566000000E+00 0. -1.
         -4    1    4    4    0  502 -0.30461927432E+03  0.14953605763E+03 -0.65948920276E+03  0.74167374456E+03  0.00000000000E+00 0. -1.
<mgrwt>
<rscale>  2 0.11384827E+04</rscale>
<asrwt>0</asrwt>
<pdfrwt beam="1">  1       21 0.13354015E+00 0.11659328E+04</pdfrwt>
<pdfrwt beam="2">  1       21 0.21991413E+00 0.11659328E+04</pdfrwt>
<totfact> 0.17549885E+01</totfact>
</mgrwt>
</event>
<event>
 8    1  0.1094795E-005  0.1086201E+04  0.7818608E-02  0.8699531E-01
         21   -1    0    0  503  502  0.00000000000E+00  0.00000000000E+00  0.15387747554E+04  0.15387747554E+04  0.00000000000E+00 0.  1.
         21   -1    0    0  501  503 -0.00000000000E+00 -0.00000000000E+00 -0.76945707955E+03  0.76945707955E+03  0.00000000000E+00 0.  1.
    9000010    2    1    2  501    0 -0.34980826937E+03 -0.23251576799E+03  0.26004322467E+03  0.11168956934E+04  0.10017006058E+04 0.  0.
   -9000010    2    1    2    0  502  0.34980826937E+03  0.23251576799E+03  0.50927445115E+03  0.11913361415E+04  0.99171161519E+03 0.  0.
        -13    1    3    3    0    0 -0.60542201078E+03 -0.37401302576E+03 -0.20387511315E+02  0.71192500754E+03  0.10566000000E+00 0.  1.
          4    1    3    3  501    0  0.25561374141E+03  0.14149725776E+03  0.28043073599E+03  0.40497068590E+03  0.00000000000E+00 0.  1.
         13    1    4    4    0    0  0.51558928009E+03  0.51355739019E+03  0.23393660582E+03  0.76439508467E+03  0.10566000000E+00 0. -1.
         -4    1    4    4    0  502 -0.16578101072E+03 -0.28104162219E+03  0.27533784533E+03  0.42694105681E+03  0.00000000000E+00 0. -1.
<mgrwt>
<rscale>  2 0.10838928E+04</rscale>
<asrwt>0</asrwt>
<pdfrwt beam="1">  1       21 0.23673458E+00 0.10862014E+04</pdfrwt>
<pdfrwt beam="2">  1       21 0.11837801E+00 0.10862014E+04</pdfrwt>
<totfact> 0.18853684E+01</totfact>
</mgrwt>
</event>
<event>
 8    1  0.1094795E-005  0.1147015E+04  0.7818608E-02  0.8647906E-01
         21   -1    0    0  501  502  0.00000000000E+00  0.00000000000E+00  0.69099795153E+03  0.69099795153E+03  0.00000000000E+00 0.  1.
         21   -1    0    0  502  503 -0.00000000000E+00 -0.00000000000E+00 -0.20849814508E+04  0.20849814508E+04  0.00000000000E+00 0. -1.
   -9000010    2    1    2    0  503 -0.58369081944E+02  0.54973065201E+03 -0.28531594438E+03  0.11819684517E+04  0.10050042255E+04 0.  0.
    9000010    2    1    2  501    0  0.58369081944E+02 -0.54973065201E+03 -0.11086675549E+04  0.15940109506E+04  0.10030535498E+04 0.  0.
        -13    1    4    4    0    0 -0.18914644279E+03  0.23362495994E+03 -0.16521336571E+03  0.34300505259E+03  0.10566000000E+00 0.  1.
          4    1    4    4  501    0  0.24751552473E+03 -0.78335561195E+03 -0.94345418923E+03  0.12510058980E+04  0.00000000000E+00 0.  1.
         13    1    3    3    0    0  0.35120669247E+02  0.18386587298E+03 -0.63822530071E+03  0.66511026626E+03  0.10566000000E+00 0. -1.
         -4    1    3    3    0  503 -0.93489751191E+02  0.36586477903E+03  0.35290935633E+03  0.51685818548E+03  0.00000000000E+00 0. -1.
<mgrwt>
<rscale>  2 0.11465879E+04</rscale>
<asrwt>0</asrwt>
<pdfrwt beam="1">  1       21 0.10630738E+00 0.11470154E+04</pdfrwt>
<pdfrwt beam="2">  1       21 0.32076637E+00 0.11470154E+04</pdfrwt>
<totfact> 0.62504666E+00</totfact>
</mgrwt>
</event>
<event>
 8    1  0.1094795E-005  0.1278456E+04  0.7818608E-02  0.8550632E-01
         21   -1    0    0  501  502  0.00000000000E+00  0.00000000000E+00  0.32912294292E+04  0.32912294292E+04  0.00000000000E+00 0. -1.
         21   -1    0    0  502  503 -0.00000000000E+00 -0.00000000000E+00 -0.55748657120E+03  0.55748657120E+03  0.00000000000E+00 0.  1.
   -9000010    2    1    2    0  503  0.76928052750E+03 -0.18460363124E+03  0.20108504379E+04  0.23800353183E+04  0.99758588698E+03 0.  0.
    9000010    2    1    2  501    0 -0.76928052750E+03  0.18460363124E+03  0.72289242006E+03  0.14686806821E+04  0.10042800727E+04 0.  0.
        -13    1    4    4    0    0  0.16536591528E+03  0.25278946113E+03  0.30699536634E+02  0.30362949513E+03  0.10566000000E+00 0.  1.
          4    1    4    4  501    0 -0.93464644278E+03 -0.68185829898E+02  0.69219288342E+03  0.11650511870E+04  0.00000000000E+00 0.  1.
         13    1    3    3    0    0  0.98129982511E+03 -0.19692479229E+03  0.18821179295E+04  0.21316886809E+04  0.10566000000E+00 0. -1.
         -4    1    3    3    0  503 -0.21201929761E+03  0.12321161049E+02  0.12873250842E+03  0.24834663737E+03  0.00000000000E+00 0. -1.
<mgrwt>
<rscale>  2 0.12771409E+04</rscale>
<asrwt>0</asrwt>
<pdfrwt beam="1">  1       21 0.50634298E+00 0.12784559E+04</pdfrwt>
<pdfrwt beam="2">  1       21 0.85767167E-01 0.12784559E+04</pdfrwt>
<totfact> 0.54111445E-01</totfact>
</mgrwt>
</event>
<event>
 8    1  0.1094795E-005  0.1021984E+04  0.7818608E-02  0.8769802E-01
         21   -1    0    0  501  502  0.00000000000E+00  0.00000000000E+00  0.20092340421E+04  0.20092340421E+04  0.00000000000E+00 0.  1.
         21   -1    0    0  502  503 -0.00000000000E+00 -0.00000000000E+00 -0.49831061527E+03  0.49831061527E+03  0.00000000000E+00 0.  1.
   -9000010    2    1    2    0  503 -0.21883374527E+03  0.34996778966E+02  0.59024199455E+03  0.11801847840E+04  0.99766604118E+03 0.  0.
    9000010    2    1    2  501    0  0.21883374527E+03 -0.34996778966E+02  0.92068143224E+03  0.13273598733E+04  0.93011663297E+03 0.  0.
        -13    1    4    4    0    0  0.63020938239E+02  0.30005449242E+03  0.90719482486E+03  0.95760471934E+03  0.10566000000E+00 0.  1.
          4    1    4    4  501    0  0.15581280703E+03 -0.33505127139E+03  0.13486607381E+02  0.36975515395E+03  0.00000000000E+00 0.  1.
         13    1    3    3    0    0 -0.86499809465E+02  0.91751986643E+02  0.86278060948E+03  0.87194669295E+03  0.10566000000E+00 0. -1.
         -4    1    3    3    0  503 -0.13233393580E+03 -0.56755207677E+02 -0.27253861493E+03  0.30823809108E+03  0.00000000000E+00 0. -1.
<mgrwt>
<rscale>  2 0.10051130E+04</rscale>
<asrwt>0</asrwt>
<pdfrwt beam="1">  1       21 0.30911293E+00 0.10219836E+04</pdfrwt>
<pdfrwt beam="2">  1       21 0.76663173E-01 0.10219836E+04</pdfrwt>
<totfact> 0.17836315E+01</totfact>
</mgrwt>
</event>
<event>
 8    1  0.1094795E-005  0.1107052E+04  0.7818608E-02  0.8681083E-01
         21   -1    0    0  503  502  0.00000000000E+00  0.00000000000E+00  0.20436978204E+04  0.20436978204E+04  0.00000000000E+00 0.  1.
         21   -1    0    0  501  503 -0.00000000000E+00 -0.00000000000E+00 -0.76907562986E+03  0.76907562986E+03  0.00000000000E+00 0.  1.
    9000010    2    1    2  501    0  0.47034672891E+03 -0.86665049502E+01 -0.26841291100E+02  0.11073770696E+04  0.10021289167E+04 0.  0.
   -9000010    2    1    2    0  502 -0.47034672891E+03  0.86665049502E+01  0.13014634817E+04  0.17053963807E+04  0.99662855039E+03 0.  0.
        -13    1    3    3    0    0  0.60403631416E+03 -0.22520174504E+03 -0.31955611738E+03  0.71950803895E+03  0.10566000000E+00 0.  1.
          4    1    3    3  501    0 -0.13368958525E+03  0.21653524009E+03  0.29271482628E+03  0.38786903064E+03  0.00000000000E+00 0.  1.
         13    1    4    4    0    0 -0.70088301878E+03 -0.18599085124E+03  0.59784348905E+03  0.93981192338E+03  0.10566000000E+00 0. -1.
         -4    1    4    4    0  502  0.23053628987E+03  0.19465735619E+03  0.70361999261E+03  0.76558445730E+03  0.00000000000E+00 0. -1.
<mgrwt>
<rscale>  2 0.11058055E+04</rscale>
<asrwt>0</asrwt>
<pdfrwt beam="1">  1       21 0.31441505E+00 0.11070517E+04</pdfrwt>
<pdfrwt beam="2">  1       21 0.11831933E+00 0.11070517E+04</pdfrwt>
<totfact> 0.52159210E+00</totfact>
</mgrwt>
</event>
<event>
 8    1  0.1094795E-005  0.1310258E+04  0.7818608E-02  0.8535281E-01
         21   -1    0    0  503  502  0.00000000000E+00  0.00000000000E+00  0.12526938244E+04  0.12526938244E+04  0.00000000000E+00 0. -1.
         21   -1    0    0  501  503 -0.00000000000E+00 -0.00000000000E+00 -0.22316032911E+04  0.22316032911E+04  0.00000000000E+00 0.  1.
    9000010    2    1    2  501    0  0.76935605137E+03 -0.28484632236E+03 -0.15944384747E+04  0.20366603416E+04  0.96576660537E+03 0.  0.
   -9000010    2    1    2    0  502 -0.76935605137E+03  0.28484632236E+03  0.61552900802E+03  0.14476367740E+04  0.10216311020E+04 0.  0.
        -13    1    3    3    0    0 -0.10138908046E+03  0.22268552830E+03 -0.44584155209E+03  0.50856984858E+03  0.10566000000E+00 0.  1.
          4    1    3    3  501    0  0.87074513183E+03 -0.50753185066E+03 -0.11485969226E+04  0.15280904930E+04  0.00000000000E+00 0.  1.
         13    1    4    4    0    0 -0.84933525827E+03  0.23001692137E+03  0.83165432296E+03  0.12107547601E+04  0.10566000000E+00 0. -1.
         -4    1    4    4    0  502  0.79979206900E+02  0.54829400987E+02 -0.21612531494E+03  0.23688201390E+03  0.00000000000E+00 0. -1.
<mgrwt>
<rscale>  2 0.12993538E+04</rscale>
<asrwt>0</asrwt>
<pdfrwt beam="1">  1       21 0.19272213E+00 0.13102581E+04</pdfrwt>
<pdfrwt beam="2">  1       21 0.34332358E+00 0.13102581E+04</pdfrwt>
<totfact> 0.68287900E-01</totfact>
</mgrwt>
</event>
<event>
 8    1  0.1094795E-005  0.1073834E+04  0.7818608E-02  0.8714062E-01
         21   -1    0    0  503  502  0.00000000000E+00  0.00000000000E+00  0.22486954305E+04  0.22486954305E+04  0.00000000000E+00 0. -1.
         21   -1    0    0  501  503 -0.00000000000E+00 -0.00000000000E+00 -0.50788004265E+03  0.50788004265E+03  0.00000000000E+00 0. -1.
    9000010    2    1    2  501    0  0.18886197367E+03 -0.33543237736E+03  0.68730452905E+03  0.12522465057E+04  0.97342183579E+03 0.  0.
   -9000010    2    1    2    0  502 -0.18886197367E+03  0.33543237736E+03  0.10535108588E+04  0.15043289675E+04  0.10024653550E+04 0.  0.
        -13    1    3    3    0    0 -0.18197387386E+03 -0.17488352002E+03  0.79495313884E+03  0.83405589768E+03  0.10566000000E+00 0.  1.
          4    1    3    3  501    0  0.37083584753E+03 -0.16054885733E+03 -0.10764860979E+03  0.41819060797E+03  0.00000000000E+00 0.  1.
         13    1    4    4    0    0  0.27055180626E+03 -0.22266747390E+03  0.36710895165E+03  0.50749194807E+03  0.10566000000E+00 0. -1.
         -4    1    4    4    0  502 -0.45941377994E+03  0.55809985126E+03  0.68640190718E+03  0.99683701945E+03  0.00000000000E+00 0. -1.
<mgrwt>
<rscale>  2 0.10670042E+04</rscale>
<asrwt>0</asrwt>
<pdfrwt beam="1">  1       21 0.34595314E+00 0.10738345E+04</pdfrwt>
<pdfrwt beam="2">  1       21 0.78135393E-01 0.10738345E+04</pdfrwt>
<totfact> 0.92825251E+00</totfact>
</mgrwt>
</event>
<event>
 8    1  0.1094795E-005  0.1063956E+04  0.7818608E-02  0.8717828E-01
         21   -1    0    0  503  502  0.00000000000E+00  0.00000000000E+00  0.14694494461E+04  0.14694494461E+04  0.00000000000E+00 0.  1.
         21   -1    0    0  501  503 -0.00000000000E+00 -0.00000000000E+00 -0.76686299446E+03  0.76686299446E+03  0.00000000000E+00 0.  1.
    9000010    2    1    2  501    0  0.29030683800E+03 -0.23973554198E+03  0.33286420433E+03  0.11099482420E+04  0.98966425167E+03 0.  0.
   -9000010    2    1    2    0  502 -0.29030683800E+03  0.23973554198E+03  0.36972224727E+03  0.11263641986E+04  0.99511334902E+03 0.  0.
        -13    1    3    3    0    0  0.39983810740E+03 -0.54812874718E+03  0.55103790997E+02  0.68069969484E+03  0.10566000000E+00 0.  1.
          4    1    3    3  501    0 -0.10953126939E+03  0.30839320520E+03  0.27776041333E+03  0.42924854712E+03  0.00000000000E+00 0.  1.
         13    1    4    4    0    0  0.66884597245E+02  0.32946945259E+03 -0.24068060072E+03  0.41346200825E+03  0.10566000000E+00 0. -1.
         -4    1    4    4    0  502 -0.35719143525E+03 -0.89733910611E+02  0.61040284798E+03  0.71290219032E+03  0.00000000000E+00 0. -1.
<mgrwt>
<rscale>  2 0.10626797E+04</rscale>
<asrwt>0</asrwt>
<pdfrwt beam="1">  1       21 0.22606914E+00 0.10639557E+04</pdfrwt>
<pdfrwt beam="2">  1       21 0.11797892E+00 0.10639557E+04</pdfrwt>
<totfact> 0.22949127E+01</totfact>
</mgrwt>
</event>
<event>
 8    1  0.1094795E-005  0.1186078E+04  0.7818608E-02  0.8629394E-01
         21   -1    0    0  501  502  0.00000000000E+00  0.00000000000E+00  0.74138174958E+03  0.74138174958E+03  0.00000000000E+00 0.  1.
         21   -1    0    0  502  503 -0.00000000000E+00 -0.00000000000E+00 -0.19299063493E+04  0.19299063493E+04  0.00000000000E+00 0.  1.
   -9000010    2    1    2    0  503  0.38901212136E+03  0.43506489194E+03 -0.95716128089E+03  0.15241192108E+04  0.10325549672E+04 0.  0.
    9000010    2    1    2  501    0 -0.38901212136E+03 -0.43506489194E+03 -0.23136331880E+03  0.11471688880E+04  0.96013310619E+03 0.  0.
        -13    1    4    4    0    0 -0.28663147193E+03 -0.42235055630E+03 -0.58640780448E+03  0.77743920497E+03  0.10566000000E+00 0.  1.
          4    1    4    4  501    0 -0.10238064942E+03 -0.12714335641E+02  0.35504448569E+03  0.36972968304E+03  0.00000000000E+00 0.  1.
         13    1    3    3    0    0  0.22090354891E+03  0.69702154639E+03 -0.28754521663E+03  0.78569693701E+03  0.10566000000E+00 0. -1.
         -4    1    3    3    0  503  0.16810857244E+03 -0.26195665445E+03 -0.66961606426E+03  0.73842227381E+03  0.00000000000E+00 0. -1.
<mgrwt>
<rscale>  2 0.11701392E+04</rscale>
<asrwt>0</asrwt>
<pdfrwt beam="1">  1       21 0.11405873E+00 0.11860783E+04</pdfrwt>
<pdfrwt beam="2">  1       21 0.29690866E+00 0.11860783E+04</pdfrwt>
<totfact> 0.75448216E+00</totfact>
</mgrwt>
</event>
<event>
 8    1  0.1094795E-005  0.1485588E+04  0.7818608E-02  0.8429096E-01
         21   -1    0    0  501  502  0.00000000000E+00  0.00000000000E+00  0.73558004366E+03  0.73558004366E+03  0.00000000000E+00 0.  1.
         21   -1    0    0  502  503 -0.00000000000E+00 -0.00000000000E+00 -0.28513017752E+04  0.28513017752E+04  0.00000000000E+00 0. -1.
   -9000010    2    1    2    0  503  0.41645535157E+03 -0.90498934352E+03 -0.10517079069E+04  0.18201818223E+04  0.11020578809E+04 0.  0.
    9000010    2    1    2  501    0 -0.41645535157E+03  0.90498934352E+03 -0.10640138246E+04  0.17666999966E+04  0.99832994914E+03 0.  0.
        -13    1    4    4    0    0 -0.34486522705E+03  0.49232711906E+03  0.23260604903E+02  0.60154724161E+03  0.10566000000E+00 0.  1.
          4    1    4    4  501    0 -0.71590124516E+02  0.41266222446E+03 -0.10872744295E+04  0.11651527550E+04  0.00000000000E+00 0.  1.
         13    1    3    3    0    0 -0.51173729313E+02  0.18591897136E+03  0.51659822864E+02  0.19963307077E+03  0.10566000000E+00 0. -1.
         -4    1    3    3    0  503  0.46762908088E+03 -0.10909083149E+04 -0.11033677298E+04  0.16205487515E+04  0.00000000000E+00 0. -1.
<mgrwt>
<rscale>  2 0.14664120E+04</rscale>
<asrwt>0</asrwt>
<pdfrwt beam="1">  1       21 0.11316616E+00 0.14855882E+04</pdfrwt>
<pdfrwt beam="2">  1       21 0.43866181E+00 0.14855882E+04</pdfrwt>
<totfact> 0.74527950E-01</totfact>
</mgrwt>
</event>
<event>
 8    1  0.1094795E-005  0.1665663E+04  0.7818608E-02  0.8320535E-01
         21   -1    0    0  501  502  0.00000000000E+00  0.00000000000E+00  0.17518909067E+04  0.17518909067E+04  0.00000000000E+00 0.  1.
         21   -1    0    0  502  503 -0.00000000000E+00 -0.00000000000E+00 -0.19187191490E+04  0.19187191490E+04  0.00000000000E+00 0. -1.
   -9000010    2    1    2    0  503  0.39165354989E+03  0.12735479176E+04 -0.85433530845E+03  0.18686392237E+04  0.99328089058E+03 0.  0.
    9000010    2    1    2  501    0 -0.39165354989E+03 -0.12735479176E+04  0.68750706618E+03  0.18019708320E+04  0.99955795814E+03 0.  0.
        -13    1    4    4    0    0  0.16083317107E+03 -0.77351758286E+03  0.29062470584E+01  0.79006659044E+03  0.10566000000E+00 0.  1.
          4    1    4    4  501    0 -0.55248672096E+03 -0.50003033478E+03  0.68460081912E+03  0.10119042416E+04  0.00000000000E+00 0.  1.
         13    1    3    3    0    0  0.14334404542E+03 -0.11834984155E+03 -0.29388163257E+03  0.34773643105E+03  0.10566000000E+00 0. -1.
         -4    1    3    3    0  503  0.24830950447E+03  0.13918977592E+04 -0.56045367588E+03  0.15209027927E+04  0.00000000000E+00 0. -1.
<mgrwt>
<rscale>  2 0.16647223E+04</rscale>
<asrwt>0</asrwt>
<pdfrwt beam="1">  1       21 0.26952168E+00 0.16656629E+04</pdfrwt>
<pdfrwt beam="2">  1       21 0.29518756E+00 0.16656629E+04</pdfrwt>
<totfact> 0.37053462E-01</totfact>
</mgrwt>
</event>
<event>
 8    1  0.1094795E-005  0.1084272E+04  0.7818608E-02  0.8744213E-01
         21   -1    0    0  501  502  0.00000000000E+00  0.00000000000E+00  0.69860237588E+03  0.69860237588E+03  0.00000000000E+00 0. -1.
         21   -1    0    0  502  503 -0.00000000000E+00 -0.00000000000E+00 -0.15745476726E+04  0.15745476726E+04  0.00000000000E+00 0. -1.
   -9000010    2    1    2    0  503  0.44654216715E+03 -0.18256331699E+03 -0.77792088123E+03  0.11844564092E+04  0.75169595989E+03 0.  0.
    9000010    2    1    2  501    0 -0.44654216715E+03  0.18256331699E+03 -0.98024415487E+02  0.10886936393E+04  0.97103850717E+03 0.  0.
        -13    1    4    4    0    0 -0.64153878561E+03 -0.17820998712E+03 -0.12597518159E+03  0.67764339478E+03  0.10566000000E+00 0.  1.
          4    1    4    4  501    0  0.19499661846E+03  0.36077330411E+03  0.27950766105E+02  0.41105024449E+03  0.00000000000E+00 0.  1.
         13    1    3    3    0    0  0.16420958901E+03  0.11585682631E+03  0.93049827886E+02  0.22146303294E+03  0.10566000000E+00 0. -1.
         -4    1    3    3    0  503  0.28233257814E+03 -0.29842014329E+03 -0.87097070912E+03  0.96299337627E+03  0.00000000000E+00 0. -1.
<mgrwt>
<rscale>  2 0.10329724E+04</rscale>
<asrwt>0</asrwt>
<pdfrwt beam="1">  1       21 0.10747729E+00 0.10842717E+04</pdfrwt>
<pdfrwt beam="2">  1       21 0.24223810E+00 0.10842717E+04</pdfrwt>
<totfact> 0.22383675E+01</totfact>
</mgrwt>
</event>
<event>
 8    1  0.1094795E-005  0.1122819E+04  0.7818608E-02  0.8689769E-01
         21   -1    0    0  503  502  0.00000000000E+00  0.00000000000E+00  0.59367453457E+03  0.59367453457E+03  0.00000000000E+00 0. -1.
         21   -1    0    0  501  503 -0.00000000000E+00 -0.00000000000E+00 -0.22411929066E+04  0.22411929066E+04  0.00000000000E+00 0. -1.
    9000010    2    1    2  501    0  0.16736848360E+02  0.43465280380E+03 -0.32984498272E+03  0.11702654863E+04  0.10351427022E+04 0.  0.
   -9000010    2    1    2    0  502 -0.16736848360E+02 -0.43465280380E+03 -0.13176733893E+04  0.16646019549E+04  0.91947448321E+03 0.  0.
        -13    1    3    3    0    0  0.53948058509E+02 -0.74627019806E+02  0.32618022811E+03  0.33892939896E+03  0.10566000000E+00 0.  1.
          4    1    3    3  501    0 -0.37211210149E+02  0.50927982361E+03 -0.65602521083E+03  0.83133608736E+03  0.00000000000E+00 0.  1.
         13    1    4    4    0    0 -0.11095685485E+03 -0.70827034302E+03 -0.10429349478E+04  0.12655716570E+04  0.10566000000E+00 0. -1.
         -4    1    4    4    0  502  0.94220006489E+02  0.27361753922E+03 -0.27473844156E+03  0.39903029793E+03  0.00000000000E+00 0. -1.
<mgrwt>
<rscale>  2 0.10954207E+04</rscale>
<asrwt>0</asrwt>
<pdfrwt beam="1">  1       21 0.91334544E-01 0.11228195E+04</pdfrwt>
<pdfrwt beam="2">  1       21 0.34479891E+00 0.11228195E+04</pdfrwt>
<totfact> 0.63270002E+00</totfact>
</mgrwt>
</event>
<event>
 8    1  0.1094795E-005  0.1399835E+04  0.7818608E-02  0.8476196E-01
         21   -1    0    0  503  502  0.00000000000E+00  0.00000000000E+00  0.10103793002E+04  0.10103793002E+04  0.00000000000E+00 0. -1.
         21   -1    0    0  501  503 -0.00000000000E+00 -0.00000000000E+00 -0.21337808059E+04  0.21337808059E+04  0.00000000000E+00 0.  1.
    9000010    2    1    2  501    0  0.54504192497E+03 -0.79503780157E+03 -0.11089873472E+04  0.17858868325E+04  0.10150778475E+04 0.  0.
   -9000010    2    1    2    0  502 -0.54504192497E+03  0.79503780157E+03 -0.14414158492E+02  0.13582732736E+04  0.95683996148E+03 0.  0.
        -13    1    3    3    0    0  0.31488837451E+02 -0.48714589882E+03 -0.10813965266E+04  0.11864742444E+04  0.10566000000E+00 0.  1.
          4    1    3    3  501    0  0.51355308752E+03 -0.30789190275E+03 -0.27590820632E+02  0.59941258817E+03  0.00000000000E+00 0.  1.
         13    1    4    4    0    0  0.63654839456E+01  0.20521967655E+03  0.40080993138E+03  0.45033792566E+03  0.10566000000E+00 0. -1.
         -4    1    4    4    0  502 -0.55140740891E+03  0.58981812501E+03 -0.41522408987E+03  0.90793534792E+03  0.00000000000E+00 0. -1.
<mgrwt>
<rscale>  2 0.13893075E+04</rscale>
<asrwt>0</asrwt>
<pdfrwt beam="1">  1       21 0.15544297E+00 0.13998353E+04</pdfrwt>
<pdfrwt beam="2">  1       21 0.32827397E+00 0.13998353E+04</pdfrwt>
<totfact> 0.17518728E+00</totfact>
</mgrwt>
</event>
<event>
 8    1  0.1094795E-005  0.1032204E+04  0.7818608E-02  0.8752094E-01
         21   -1    0    0  501  502  0.00000000000E+00  0.00000000000E+00  0.11312338180E+04  0.11312338180E+04  0.00000000000E+00 0. -1.
         21   -1    0    0  502  503 -0.00000000000E+00 -0.00000000000E+00 -0.10730668425E+04  0.10730668425E+04  0.00000000000E+00 0. -1.
   -9000010    2    1    2    0  503 -0.20054180456E+03 -0.19639615590E+03 -0.39623648708E+03  0.10765030405E+04  0.96076374672E+03 0.  0.
    9000010    2    1    2  501    0  0.20054180456E+03  0.19639615590E+03  0.45440346259E+03  0.11277976200E+04  0.99330584383E+03 0.  0.
        -13    1    4    4    0    0 -0.31132552727E+02  0.57991444420E+03  0.30161556342E+03  0.65440198479E+03  0.10566000000E+00 0.  1.
          4    1    4    4  501    0  0.23167435729E+03 -0.38351828830E+03  0.15278789917E+03  0.47339563519E+03  0.00000000000E+00 0.  1.
         13    1    3    3    0    0 -0.98354913613E+02 -0.58071785285E+03 -0.14656889041E+03  0.60695087482E+03  0.10566000000E+00 0. -1.
         -4    1    3    3    0  503 -0.10218689095E+03  0.38432169695E+03 -0.24966759667E+03  0.46955216564E+03  0.00000000000E+00 0. -1.
<mgrwt>
<rscale>  2 0.10242943E+04</rscale>
<asrwt>0</asrwt>
<pdfrwt beam="1">  1       21 0.17403597E+00 0.10322039E+04</pdfrwt>
<pdfrwt beam="2">  1       21 0.16508721E+00 0.10322039E+04</pdfrwt>
<totfact> 0.21642771E+01</totfact>
</mgrwt>
</event>
<event>
 8    1  0.1094795E-005  0.1069887E+04  0.7818608E-02  0.8716460E-01
         21   -1    0    0  501  502  0.00000000000E+00  0.00000000000E+00  0.10295582447E+04  0.10295582447E+04  0.00000000000E+00 0. -1.
         21   -1    0    0  502  503 -0.00000000000E+00 -0.00000000000E+00 -0.10915377234E+04  0.10915377234E+04  0.00000000000E+00 0. -1.
   -9000010    2    1    2    0  503 -0.32108854434E+03  0.91300434114E+02 -0.85107815423E+02  0.10509589138E+04  0.99289358731E+03 0.  0.
    9000010    2    1    2  501    0  0.32108854434E+03 -0.91300434114E+02  0.23128336683E+02  0.10701370543E+04  0.10164766463E+04 0.  0.
        -13    1    4    4    0    0  0.58692318568E+02 -0.35798201618E+03  0.39938008243E+03  0.53953718461E+03  0.10566000000E+00 0.  1.
          4    1    4    4  501    0  0.26239622577E+03  0.26668158207E+03 -0.37625174575E+03  0.53059986967E+03  0.00000000000E+00 0.  1.
         13    1    3    3    0    0  0.27908693203E+02  0.34039855990E+03 -0.39480406488E+03  0.52203480300E+03  0.10566000000E+00 0. -1.
         -4    1    3    3    0  503 -0.34899723754E+03 -0.24909812578E+03  0.30969624945E+03  0.52892411082E+03  0.00000000000E+00 0. -1.
<mgrwt>
<rscale>  2 0.10642477E+04</rscale>
<asrwt>0</asrwt>
<pdfrwt beam="1">  1       21 0.15839358E+00 0.10698871E+04</pdfrwt>
<pdfrwt beam="2">  1       21 0.16792888E+00 0.10698871E+04</pdfrwt>
<totfact> 0.27557658E+01</totfact>
</mgrwt>
</event>
<event>
 8    1  0.1094795E-005  0.1142007E+04  0.7818608E-02  0.8657066E-01
         21   -1    0    0  501  502  0.00000000000E+00  0.00000000000E+00  0.15809790397E+04  0.15809790397E+04  0.00000000000E+00 0. -1.
         21   -1    0    0  502  503 -0.00000000000E+00 -0.00000000000E+00 -0.81475859319E+03  0.81475859319E+03  0.00000000000E+00 0.  1.
   -9000010    2    1    2    0  503 -0.18638629686E+03 -0.50947399825E+03  0.51609227080E+03  0.12532086530E+04  0.10049264099E+04 0.  0.
    9000010    2    1    2  501    0  0.18638629686E+03  0.50947399825E+03  0.25012817573E+03  0.11425289800E+04  0.97391209007E+03 0.  0.
        -13    1    4    4    0    0 -0.39453063173E+03  0.19491245243E+03  0.18955661029E+03  0.47914194468E+03  0.10566000000E+00 0.  1.
          4    1    4    4  501    0  0.58091692859E+03  0.31456154582E+03  0.60571565441E+02  0.66338703527E+03  0.00000000000E+00 0.  1.
         13    1    3    3    0    0 -0.10874836645E+03  0.29807046993E+03  0.61289428605E+02  0.32315416982E+03  0.10566000000E+00 0. -1.
         -4    1    3    3    0  503 -0.77637930406E+02 -0.80754446818E+03  0.45480284220E+03  0.93005448314E+03  0.00000000000E+00 0. -1.
<mgrwt>
<rscale>  2 0.11351472E+04</rscale>
<asrwt>0</asrwt>
<pdfrwt beam="1">  1       21 0.24322754E+00 0.11420073E+04</pdfrwt>
<pdfrwt beam="2">  1       21 0.12534748E+00 0.11420073E+04</pdfrwt>
<totfact> 0.14207285E+01</totfact>
</mgrwt>
</event>
<event>
 8    1  0.1094795E-005  0.1092109E+04  0.7818608E-02  0.8693094E-01
         21   -1    0    0  501  502  0.00000000000E+00  0.00000000000E+00  0.27817157764E+04  0.27817157764E+04  0.00000000000E+00 0. -1.
         21   -1    0    0  502  503 -0.00000000000E+00 -0.00000000000E+00 -0.48519801134E+03  0.48519801134E+03  0.00000000000E+00 0. -1.
   -9000010    2    1    2    0  503  0.42537497916E+03 -0.28506618178E+02  0.58748562580E+03  0.12400971245E+04  0.10054576160E+04 0.  0.
    9000010    2    1    2  501    0 -0.42537497916E+03  0.28506618178E+02  0.17090321392E+04  0.20268166632E+04  0.10027155296E+04 0.  0.
        -13    1    4    4    0    0  0.21690366817E+03  0.11351684369E+03  0.55690845930E+02  0.25106723512E+03  0.10566000000E+00 0.  1.
          4    1    4    4  501    0 -0.64227864733E+03 -0.85010225513E+02  0.16533412933E+04  0.17757494281E+04  0.00000000000E+00 0.  1.
         13    1    3    3    0    0  0.30427021228E+03  0.31795365468E+03 -0.10850633555E+03  0.45326429886E+03  0.10566000000E+00 0. -1.
         -4    1    3    3    0  503  0.12110476688E+03 -0.34646027286E+03  0.69599196136E+03  0.78683282564E+03  0.00000000000E+00 0. -1.
<mgrwt>
<rscale>  2 0.10914772E+04</rscale>
<asrwt>0</asrwt>
<pdfrwt beam="1">  1       21 0.42795627E+00 0.10921087E+04</pdfrwt>
<pdfrwt beam="2">  1       21 0.74645849E-01 0.10921087E+04</pdfrwt>
<totfact> 0.27682935E+00</totfact>
</mgrwt>
</event>
<event>
 8    1  0.1094795E-005  0.1086087E+04  0.7818608E-02  0.8698595E-01
         21   -1    0    0  503  502  0.00000000000E+00  0.00000000000E+00  0.10157648948E+04  0.10157648948E+04  0.00000000000E+00 0.  1.
         21   -1    0    0  501  503 -0.00000000000E+00 -0.00000000000E+00 -0.12668995342E+04  0.12668995342E+04  0.00000000000E+00 0.  1.
    9000010    2    1    2  501    0  0.19865214247E+03 -0.37443049898E+03 -0.46209672736E+03  0.11762786225E+04  0.99520708396E+03 0.  0.
   -9000010    2    1    2    0  502 -0.19865214247E+03  0.37443049898E+03  0.21096208793E+03  0.11063858066E+04  0.99996183834E+03 0.  0.
        -13    1    3    3    0    0  0.27611723679E+03 -0.61324207780E+03 -0.25955439934E+02  0.67303808990E+03  0.10566000000E+00 0.  1.
          4    1    3    3  501    0 -0.77465094322E+02  0.23881157882E+03 -0.43614128743E+03  0.50324053257E+03  0.00000000000E+00 0.  1.
         13    1    4    4    0    0 -0.33982347705E+03  0.30088959423E+03 -0.31786387413E+03  0.55412272748E+03  0.10566000000E+00 0. -1.
         -4    1    4    4    0  502  0.14117133458E+03  0.73540904747E+02  0.52882596205E+03  0.55226307908E+03  0.00000000000E+00 0. -1.
<mgrwt>
<rscale>  2 0.10849911E+04</rscale>
<asrwt>0</asrwt>
<pdfrwt beam="1">  1       21 0.15627152E+00 0.10860868E+04</pdfrwt>
<pdfrwt beam="2">  1       21 0.19490762E+00 0.10860868E+04</pdfrwt>
<totfact> 0.17273011E+01</totfact>
</mgrwt>
</event>
<event>
 8    1  0.1094795E-005  0.1017008E+04  0.7818608E-02  0.8760828E-01
         21   -1    0    0  503  502  0.00000000000E+00  0.00000000000E+00  0.10380827721E+04  0.10380827721E+04  0.00000000000E+00 0.  1.
         21   -1    0    0  501  503 -0.00000000000E+00 -0.00000000000E+00 -0.98789065959E+03  0.98789065959E+03  0.00000000000E+00 0.  1.
    9000010    2    1    2  501    0  0.11345238576E+03  0.15375530688E+03  0.40192879121E+02  0.10178014737E+04  0.99889550713E+03 0.  0.
   -9000010    2    1    2    0  502 -0.11345238576E+03 -0.15375530688E+03  0.99992334118E+01  0.10081719580E+04  0.98984775293E+03 0.  0.
        -13    1    3    3    0    0 -0.63280678482E+02  0.54005512533E+03 -0.13180120293E+03  0.55949580064E+03  0.10566000000E+00 0.  1.
          4    1    3    3  501    0  0.17673306425E+03 -0.38629981845E+03  0.17199408206E+03  0.45830567310E+03  0.00000000000E+00 0.  1.
         13    1    4    4    0    0 -0.30944316428E+03 -0.46733459808E+03 -0.18484527669E+03  0.59019021168E+03  0.10566000000E+00 0. -1.
         -4    1    4    4    0  502  0.19599077851E+03  0.31357929120E+03  0.19484451010E+03  0.41798174631E+03  0.00000000000E+00 0. -1.
<mgrwt>
<rscale>  2 0.10147789E+04</rscale>
<asrwt>0</asrwt>
<pdfrwt beam="1">  1       21 0.15970504E+00 0.10170076E+04</pdfrwt>
<pdfrwt beam="2">  1       21 0.15198318E+00 0.10170076E+04</pdfrwt>
<totfact> 0.37292853E+01</totfact>
</mgrwt>
</event>
<event>
 8    1  0.1094795E-005  0.1083543E+04  0.7818608E-02  0.8701138E-01
         21   -1    0    0  501  502  0.00000000000E+00  0.00000000000E+00  0.15900436359E+04  0.15900436359E+04  0.00000000000E+00 0.  1.
         21   -1    0    0  502  503 -0.00000000000E+00 -0.00000000000E+00 -0.83548605822E+03  0.83548605822E+03  0.00000000000E+00 0.  1.
   -9000010    2    1    2    0  503  0.23194279146E+01  0.38750154303E+03  0.79856283996E+03  0.13410934149E+04  0.10053189109E+04 0.  0.
    9000010    2    1    2  501    0 -0.23194279146E+01 -0.38750154303E+03 -0.44005262297E+02  0.10844362792E+04  0.10118808008E+04 0.  0.
        -13    1    4    4    0    0 -0.65864513279E+02  0.77495997002E+01 -0.48460969155E+03  0.48912652219E+03  0.10566000000E+00 0.  1.
          4    1    4    4  501    0  0.63545085364E+02 -0.39525114273E+03  0.44060442925E+03  0.59530975700E+03  0.00000000000E+00 0.  1.
         13    1    3    3    0    0  0.43419224476E+03  0.35124807079E+03  0.18187351174E+03  0.58734665921E+03  0.10566000000E+00 0. -1.
         -4    1    3    3    0  503 -0.43187281685E+03  0.36253472245E+02  0.61668932822E+03  0.75374675569E+03  0.00000000000E+00 0. -1.
<mgrwt>
<rscale>  2 0.10820085E+04</rscale>
<asrwt>0</asrwt>
<pdfrwt beam="1">  1       21 0.24462210E+00 0.10835431E+04</pdfrwt>
<pdfrwt beam="2">  1       21 0.12853632E+00 0.10835431E+04</pdfrwt>
<totfact> 0.13077834E+01</totfact>
</mgrwt>
</event>
<event>
 8    1  0.1094795E-005  0.1409263E+04  0.7818608E-02  0.8469856E-01
         21   -1    0    0  503  502  0.00000000000E+00  0.00000000000E+00  0.21137501822E+04  0.21137501822E+04  0.00000000000E+00 0.  1.
         21   -1    0    0  501  503 -0.00000000000E+00 -0.00000000000E+00 -0.13699411968E+04  0.13699411968E+04  0.00000000000E+00 0.  1.
    9000010    2    1    2  501    0  0.49188248087E+03  0.77465505804E+03 -0.63670056687E+03  0.15109196994E+04  0.10175715661E+04 0.  0.
   -9000010    2    1    2    0  502 -0.49188248087E+03 -0.77465505804E+03  0.13805095522E+04  0.19727716796E+04  0.10695712421E+04 0.  0.
        -13    1    3    3    0    0  0.58936514719E+02 -0.23066280289E+03  0.12315403614E+02  0.23839153033E+03  0.10566000000E+00 0.  1.
          4    1    3    3  501    0  0.43294596615E+03  0.10053178609E+04 -0.64901597048E+03  0.12725281691E+04  0.00000000000E+00 0.  1.
         13    1    4    4    0    0 -0.63473715550E+03 -0.75098657197E+03  0.54385146701E+03  0.11236754501E+04  0.10566000000E+00 0. -1.
         -4    1    4    4    0  502  0.14285467462E+03 -0.23668486068E+02  0.83665808523E+03  0.84909622946E+03  0.00000000000E+00 0. -1.
<mgrwt>
<rscale>  2 0.13993979E+04</rscale>
<asrwt>0</asrwt>
<pdfrwt beam="1">  1       21 0.32519234E+00 0.14092627E+04</pdfrwt>
<pdfrwt beam="2">  1       21 0.21076018E+00 0.14092627E+04</pdfrwt>
<totfact> 0.64877451E-01</totfact>
</mgrwt>
</event>
<event>
 8    1  0.1094795E-005  0.1000505E+04  0.7818608E-02  0.8809278E-01
         21   -1    0    0  503  502  0.00000000000E+00  0.00000000000E+00  0.21807775809E+04  0.21807775809E+04  0.00000000000E+00 0.  1.
         21   -1    0    0  501  503 -0.00000000000E+00 -0.00000000000E+00 -0.39768768302E+03  0.39768768302E+03  0.00000000000E+00 0.  1.
    9000010    2    1    2  501    0 -0.94729798416E+02 -0.10636540810E+03  0.94184906640E+03  0.13740780111E+04  0.99031478934E+03 0.  0.
   -9000010    2    1    2    0  502  0.94729798416E+02  0.10636540810E+03  0.84124083152E+03  0.12043872529E+04  0.85004422442E+03 0.  0.
        -13    1    3    3    0    0  0.23054829572E+03 -0.29314126840E+03  0.92642502423E+03  0.99867294776E+03  0.10566000000E+00 0.  1.
          4    1    3    3  501    0 -0.32527809413E+03  0.18677586030E+03  0.15424042173E+02  0.37540506335E+03  0.00000000000E+00 0.  1.
         13    1    4    4    0    0 -0.54974923589E+02 -0.33349515336E+03  0.58012125676E+03  0.67140296637E+03  0.10566000000E+00 0. -1.
         -4    1    4    4    0  502  0.14970472201E+03  0.43986056146E+03  0.26111957476E+03  0.53298428649E+03  0.00000000000E+00 0. -1.
<mgrwt>
<rscale>  2 0.96389134E+03</rscale>
<asrwt>0</asrwt>
<pdfrwt beam="1">  1       21 0.33550424E+00 0.10005052E+04</pdfrwt>
<pdfrwt beam="2">  1       21 0.61182722E-01 0.10005052E+04</pdfrwt>
<totfact> 0.19909719E+01</totfact>
</mgrwt>
</event>
<event>
 8    1  0.1094795E-005  0.1281500E+04  0.7818608E-02  0.8547801E-01
         21   -1    0    0  501  502  0.00000000000E+00  0.00000000000E+00  0.88044038398E+03  0.88044038398E+03  0.00000000000E+00 0.  1.
         21   -1    0    0  502  503 -0.00000000000E+00 -0.00000000000E+00 -0.22316389838E+04  0.22316389838E+04  0.00000000000E+00 0.  1.
   -9000010    2    1    2    0  503 -0.38775021897E+01 -0.80200199549E+03 -0.13073165165E+04  0.18298286714E+04  0.99798509844E+03 0.  0.
    9000010    2    1    2  501    0  0.38775021897E+01  0.80200199549E+03 -0.43882083291E+02  0.12822506963E+04  0.99950936723E+03 0.  0.
        -13    1    4    4    0    0 -0.13923383182E+02  0.80405943162E+03 -0.41894245728E+03  0.90676249583E+03  0.10566000000E+00 0.  1.
          4    1    4    4  501    0  0.17800885372E+02 -0.20574361291E+01  0.37506037399E+03  0.37548820048E+03  0.00000000000E+00 0.  1.
         13    1    3    3    0    0  0.26437368195E+03 -0.16770247850E+03 -0.10482806240E+04  0.10940337485E+04  0.10566000000E+00 0. -1.
         -4    1    3    3    0  503 -0.26825118414E+03 -0.63429951699E+03 -0.25903589250E+03  0.73579492295E+03  0.00000000000E+00 0. -1.
<mgrwt>
<rscale>  2 0.12812024E+04</rscale>
<asrwt>0</asrwt>
<pdfrwt beam="1">  1       21 0.13545237E+00 0.12814996E+04</pdfrwt>
<pdfrwt beam="2">  1       21 0.34332907E+00 0.12814996E+04</pdfrwt>
<totfact> 0.21370796E+00</totfact>
</mgrwt>
</event>
<event>
 8    1  0.1094795E-005  0.1446240E+04  0.7818608E-02  0.8442198E-01
         21   -1    0    0  503  502  0.00000000000E+00  0.00000000000E+00  0.74564695748E+03  0.74564695748E+03  0.00000000000E+00 0. -1.
         21   -1    0    0  501  503 -0.00000000000E+00 -0.00000000000E+00 -0.27946049718E+04  0.27946049718E+04  0.00000000000E+00 0.  1.
    9000010    2    1    2  501    0  0.95524949625E+03  0.42312075840E+03 -0.96643510137E+03  0.17394270396E+04  0.10000384216E+04 0.  0.
   -9000010    2    1    2    0  502 -0.95524949625E+03 -0.42312075840E+03 -0.10825229129E+04  0.18008248897E+04  0.98973817243E+03 0.  0.
        -13    1    3    3    0    0  0.72795922042E+03 -0.53855856834E+02 -0.11727885118E+03  0.73931009732E+03  0.10566000000E+00 0.  1.
          4    1    3    3  501    0  0.22729027583E+03  0.47697661523E+03 -0.84915625019E+03  0.10001169423E+04  0.00000000000E+00 0.  1.
         13    1    4    4    0    0 -0.69351243146E+03 -0.51140496157E+03 -0.21178858314E+03  0.88732685208E+03  0.10566000000E+00 0. -1.
         -4    1    4    4    0  502 -0.26173706479E+03  0.88284203173E+02 -0.87073432978E+03  0.91349803758E+03  0.00000000000E+00 0. -1.
<mgrwt>
<rscale>  2 0.14444608E+04</rscale>
<asrwt>0</asrwt>
<pdfrwt beam="1">  1       21 0.11471492E+00 0.14462398E+04</pdfrwt>
<pdfrwt beam="2">  1       21 0.42993923E+00 0.14462398E+04</pdfrwt>
<totfact> 0.83017254E-01</totfact>
</mgrwt>
</event>
<event>
 8    1  0.1094795E-005  0.1118641E+04  0.7818608E-02  0.8685002E-01
         21   -1    0    0  501  502  0.00000000000E+00  0.00000000000E+00  0.41578299946E+03  0.41578299946E+03  0.00000000000E+00 0.  1.
         21   -1    0    0  502  503 -0.00000000000E+00 -0.00000000000E+00 -0.28585074220E+04  0.28585074220E+04  0.00000000000E+00 0.  1.
   -9000010    2    1    2    0  503  0.20997206302E+03  0.29675340626E+03 -0.13518496854E+04  0.17118036982E+04  0.98520225215E+03 0.  0.
    9000010    2    1    2  501    0 -0.20997206302E+03 -0.29675340626E+03 -0.10908747371E+04  0.15624867233E+04  0.10579254308E+04 0.  0.
        -13    1    4    4    0    0 -0.61292660353E+03 -0.25165292989E+03 -0.43905621511E+03  0.79484500982E+03  0.10566000000E+00 0.  1.
          4    1    4    4  501    0  0.40295454051E+03 -0.45100476376E+02 -0.65181852198E+03  0.76764171349E+03  0.00000000000E+00 0.  1.
         13    1    3    3    0    0 -0.24349337461E+03 -0.23265973976E+03 -0.30659900222E+03  0.45543664467E+03  0.10566000000E+00 0. -1.
         -4    1    3    3    0  503  0.45346543764E+03  0.52941314603E+03 -0.10452506832E+04  0.12563670535E+04  0.00000000000E+00 0. -1.
<mgrwt>
<rscale>  2 0.11011052E+04</rscale>
<asrwt>0</asrwt>
<pdfrwt beam="1">  1       21 0.63966614E-01 0.11186407E+04</pdfrwt>
<pdfrwt beam="2">  1       21 0.43977038E+00 0.11186407E+04</pdfrwt>
<totfact> 0.32885201E+00</totfact>
</mgrwt>
</event>
<event>
 8    1  0.1094795E-005  0.1045530E+04  0.7818608E-02  0.8734781E-01
         21   -1    0    0  501  502  0.00000000000E+00  0.00000000000E+00  0.97363589415E+03  0.97363589415E+03  0.00000000000E+00 0. -1.
         21   -1    0    0  502  503 -0.00000000000E+00 -0.00000000000E+00 -0.12261486696E+04  0.12261486696E+04  0.00000000000E+00 0. -1.
   -9000010    2    1    2    0  503 -0.21050538796E+03  0.14695259152E+03 -0.45851700734E+03  0.11341528010E+04  0.10050657429E+04 0.  0.
    9000010    2    1    2  501    0  0.21050538796E+03 -0.14695259152E+03  0.20600423187E+03  0.10656317627E+04  0.10135214491E+04 0.  0.
        -13    1    4    4    0    0  0.45477471827E+03  0.25889663593E+03  0.26793994223E+03  0.58791099350E+03  0.10566000000E+00 0.  1.
          4    1    4    4  501    0 -0.24426933031E+03 -0.40584922745E+03 -0.61935710358E+02  0.47772076924E+03  0.00000000000E+00 0.  1.
         13    1    3    3    0    0  0.18220370838E+03 -0.23704063585E+03  0.13276646252E+03  0.32712902520E+03  0.10566000000E+00 0. -1.
         -4    1    3    3    0  503 -0.39270909633E+03  0.38399322737E+03 -0.59128346986E+03  0.80702377582E+03  0.00000000000E+00 0. -1.
<mgrwt>
<rscale>  2 0.10434754E+04</rscale>
<asrwt>0</asrwt>
<pdfrwt beam="1">  1       21 0.14979014E+00 0.10455302E+04</pdfrwt>
<pdfrwt beam="2">  1       21 0.18863825E+00 0.10455302E+04</pdfrwt>
<totfact> 0.22299054E+01</totfact>
</mgrwt>
</event>
<event>
 8    1  0.1094795E-005  0.1083530E+04  0.7818608E-02  0.8723758E-01
         21   -1    0    0  501  502  0.00000000000E+00  0.00000000000E+00  0.19416357314E+04  0.19416357314E+04  0.00000000000E+00 0. -1.
         21   -1    0    0  502  503 -0.00000000000E+00 -0.00000000000E+00 -0.58867907738E+03  0.58867907738E+03  0.00000000000E+00 0. -1.
   -9000010    2    1    2    0  503  0.38495232909E+02 -0.29292748554E+03  0.10459543188E+04  0.15060070462E+04  0.10424722497E+04 0.  0.
    9000010    2    1    2  501    0 -0.38495232909E+02  0.29292748554E+03  0.30700233526E+03  0.10243077626E+04  0.93148674920E+03 0.  0.
        -13    1    4    4    0    0 -0.45720290800E+03  0.15039747330E+03  0.32646438382E+03  0.58157794330E+03  0.10566000000E+00 0.  1.
          4    1    4    4  501    0  0.41870767509E+03  0.14253001223E+03 -0.19462048553E+02  0.44272981931E+03  0.00000000000E+00 0.  1.
         13    1    3    3    0    0 -0.48243753315E+03 -0.26824405745E+03  0.63965784688E+03  0.84490414840E+03  0.10566000000E+00 0. -1.
         -4    1    3    3    0  503  0.52093276606E+03 -0.24683428090E+02  0.40629647189E+03  0.66110289777E+03  0.00000000000E+00 0. -1.
<mgrwt>
<rscale>  2 0.10559140E+04</rscale>
<asrwt>0</asrwt>
<pdfrwt beam="1">  1       21 0.29871319E+00 0.10835298E+04</pdfrwt>
<pdfrwt beam="2">  1       21 0.90566013E-01 0.10835298E+04</pdfrwt>
<totfact> 0.13756053E+01</totfact>
</mgrwt>
</event>
<event>
 8    1  0.1094795E-005  0.1054983E+04  0.7818608E-02  0.8744555E-01
         21   -1    0    0  503  502  0.00000000000E+00  0.00000000000E+00  0.17989051516E+04  0.17989051516E+04  0.00000000000E+00 0.  1.
         21   -1    0    0  501  503 -0.00000000000E+00 -0.00000000000E+00 -0.66573327968E+03  0.66573327968E+03  0.00000000000E+00 0.  1.
    9000010    2    1    2  501    0  0.10943658043E+03 -0.33406222611E+03  0.11767362020E+03  0.10615253172E+04  0.99469341116E+03 0.  0.
   -9000010    2    1    2    0  502 -0.10943658043E+03  0.33406222611E+03  0.10154982517E+04  0.14031131141E+04  0.90217280802E+03 0.  0.
        -13    1    3    3    0    0 -0.10714731068E+03  0.29045575921E+03  0.23692806288E+03  0.38984613938E+03  0.10566000000E+00 0.  1.
          4    1    3    3  501    0  0.21658389111E+03 -0.62451798532E+03 -0.11925444268E+03  0.67167917786E+03  0.00000000000E+00 0.  1.
         13    1    4    4    0    0  0.25739396497E+03  0.47925786329E+03  0.75414027069E+03  0.92987489039E+03  0.10566000000E+00 0. -1.
         -4    1    4    4    0  502 -0.36683054540E+03 -0.14519563718E+03  0.26135798104E+03  0.47323822367E+03  0.00000000000E+00 0. -1.
<mgrwt>
<rscale>  2 0.10325947E+04</rscale>
<asrwt>0</asrwt>
<pdfrwt beam="1">  1       21 0.27675464E+00 0.10549829E+04</pdfrwt>
<pdfrwt beam="2">  1       21 0.10242051E+00 0.10549829E+04</pdfrwt>
<totfact> 0.14424321E+01</totfact>
</mgrwt>
</event>
<event>
 8    1  0.1094795E-005  0.1073875E+04  0.7818608E-02  0.8716312E-01
         21   -1    0    0  503  502  0.00000000000E+00  0.00000000000E+00  0.60499882649E+03  0.60499882649E+03  0.00000000000E+00 0.  1.
         21   -1    0    0  501  503 -0.00000000000E+00 -0.00000000000E+00 -0.18496912291E+04  0.18496912291E+04  0.00000000000E+00 0.  1.
    9000010    2    1    2  501    0  0.46900979051E+02 -0.34419583799E+03 -0.69815279956E+03  0.12497368965E+04  0.97660355425E+03 0.  0.
   -9000010    2    1    2    0  502 -0.46900979051E+02  0.34419583799E+03 -0.54653960302E+03  0.12049531591E+04  0.10161378357E+04 0.  0.
        -13    1    3    3    0    0  0.30493251799E+03  0.21253618303E+03 -0.46028865828E+03  0.59162583592E+03  0.10566000000E+00 0.  1.
          4    1    3    3  501    0 -0.25803153894E+03 -0.55673202102E+03 -0.23786414128E+03  0.65811106056E+03  0.00000000000E+00 0.  1.
         13    1    4    4    0    0  0.18539263232E+03 -0.33017024929E+02 -0.70863444211E+03  0.73322802440E+03  0.10566000000E+00 0. -1.
         -4    1    4    4    0  502 -0.23229361137E+03  0.37721286292E+03  0.16209483909E+03  0.47172513469E+03  0.00000000000E+00 0. -1.
<mgrwt>
<rscale>  2 0.10644179E+04</rscale>
<asrwt>0</asrwt>
<pdfrwt beam="1">  1       21 0.93076744E-01 0.10738746E+04</pdfrwt>
<pdfrwt beam="2">  1       21 0.28456788E+00 0.10738746E+04</pdfrwt>
<totfact> 0.16192775E+01</totfact>
</mgrwt>
</event>
<event>
 8    1  0.1094795E-005  0.1013154E+04  0.7818608E-02  0.8771861E-01
         21   -1    0    0  503  502  0.00000000000E+00  0.00000000000E+00  0.12991836894E+04  0.12991836894E+04  0.00000000000E+00 0.  1.
         21   -1    0    0  501  503 -0.00000000000E+00 -0.00000000000E+00 -0.78577834492E+03  0.78577834492E+03  0.00000000000E+00 0.  1.
    9000010    2    1    2  501    0  0.12649001293E+03  0.20960624619E+03  0.44428287965E+03  0.10694525320E+04  0.94149186893E+03 0.  0.
   -9000010    2    1    2    0  502 -0.12649001293E+03 -0.20960624619E+03  0.69122464845E+02  0.10155095023E+04  0.98313128949E+03 0.  0.
        -13    1    3    3    0    0 -0.31310029460E+03  0.30037213729E+03 -0.56315187326E+01  0.43392043107E+03  0.10566000000E+00 0.  1.
          4    1    3    3  501    0  0.43959030752E+03 -0.90765891092E+02  0.44991439838E+03  0.63553210094E+03  0.00000000000E+00 0.  1.
         13    1    4    4    0    0 -0.54716455671E+03 -0.53802857332E+02  0.12386048462E+03  0.56358249653E+03  0.10566000000E+00 0. -1.
         -4    1    4    4    0  502  0.42067454378E+03 -0.15580338886E+03 -0.54738019770E+02  0.45192700581E+03  0.00000000000E+00 0. -1.
<mgrwt>
<rscale>  2 0.10029116E+04</rscale>
<asrwt>0</asrwt>
<pdfrwt beam="1">  1       21 0.19987441E+00 0.10131543E+04</pdfrwt>
<pdfrwt beam="2">  1       21 0.12088898E+00 0.10131543E+04</pdfrwt>
<totfact> 0.34348899E+01</totfact>
</mgrwt>
</event>
<event>
 8    1  0.1094795E-005  0.1041029E+04  0.7818608E-02  0.8741299E-01
         21   -1    0    0  503  502  0.00000000000E+00  0.00000000000E+00  0.14495435231E+04  0.14495435231E+04  0.00000000000E+00 0. -1.
         21   -1    0    0  501  503 -0.00000000000E+00 -0.00000000000E+00 -0.75281286097E+03  0.75281286097E+03  0.00000000000E+00 0. -1.
    9000010    2    1    2  501    0 -0.22050848112E+03 -0.20733025653E+02  0.51954600483E+03  0.11463564869E+04  0.99757270173E+03 0.  0.
   -9000010    2    1    2    0  502  0.22050848112E+03  0.20733025653E+02  0.17718465734E+03  0.10559998973E+04  0.10171959160E+04 0.  0.
        -13    1    3    3    0    0  0.22318684044E+03  0.81367766921E+02  0.63387726284E+03  0.67692944591E+03  0.10566000000E+00 0.  1.
          4    1    3    3  501    0 -0.44369532156E+03 -0.10210079257E+03 -0.11433125801E+03  0.46942704095E+03  0.00000000000E+00 0.  1.
         13    1    4    4    0    0  0.59977474612E+03  0.15107054646E+03  0.23575557932E+01  0.61851242940E+03  0.10566000000E+00 0. -1.
         -4    1    4    4    0  502 -0.37926626500E+03 -0.13033752080E+03  0.17482710154E+03  0.43748746785E+03  0.00000000000E+00 0. -1.
<mgrwt>
<rscale>  2 0.10362042E+04</rscale>
<asrwt>0</asrwt>
<pdfrwt beam="1">  1       21 0.22300670E+00 0.10410290E+04</pdfrwt>
<pdfrwt beam="2">  1       21 0.11581736E+00 0.10410290E+04</pdfrwt>
<totfact> 0.25592925E+01</totfact>
</mgrwt>
</event>
<event>
 8    1  0.1094795E-005  0.1050064E+04  0.7818608E-02  0.8737434E-01
         21   -1    0    0  503  502  0.00000000000E+00  0.00000000000E+00  0.11866827019E+04  0.11866827019E+04  0.00000000000E+00 0.  1.
         21   -1    0    0  501  503 -0.00000000000E+00 -0.00000000000E+00 -0.90088727650E+03  0.90088727650E+03  0.00000000000E+00 0.  1.
    9000010    2    1    2  501    0 -0.60604063918E+01 -0.16231825598E+03  0.69492953558E+02  0.10523612574E+04  0.10374251784E+04 0.  0.
   -9000010    2    1    2    0  502  0.60604063918E+01  0.16231825598E+03  0.21630247182E+03  0.10352087209E+04  0.99924290932E+03 0.  0.
        -13    1    3    3    0    0  0.13780505329E+03 -0.19204063378E+03 -0.45227024146E+03  0.51031188523E+03  0.10566000000E+00 0.  1.
          4    1    3    3  501    0 -0.14386545968E+03  0.29722377794E+02  0.52176319502E+03  0.54204937221E+03  0.00000000000E+00 0.  1.
         13    1    4    4    0    0  0.38006938573E+03 -0.22604394952E+03 -0.28368235325E+02  0.44311778685E+03  0.10566000000E+00 0. -1.
         -4    1    4    4    0  502 -0.37400897933E+03  0.38836220550E+03  0.24467070714E+03  0.59209093408E+03  0.00000000000E+00 0. -1.
<mgrwt>
<rscale>  2 0.10405082E+04</rscale>
<asrwt>0</asrwt>
<pdfrwt beam="1">  1       21 0.18256657E+00 0.10500643E+04</pdfrwt>
<pdfrwt beam="2">  1       21 0.13859804E+00 0.10500643E+04</pdfrwt>
<totfact> 0.31530579E+01</totfact>
</mgrwt>
</event>
<event>
 8    1  0.1094795E-005  0.1108297E+04  0.7818608E-02  0.8684032E-01
         21   -1    0    0  501  502  0.00000000000E+00  0.00000000000E+00  0.81745908733E+03  0.81745908733E+03  0.00000000000E+00 0. -1.
         21   -1    0    0  502  503 -0.00000000000E+00 -0.00000000000E+00 -0.15176802454E+04  0.15176802454E+04  0.00000000000E+00 0. -1.
   -9000010    2    1    2    0  503 -0.43550290903E+03  0.28678175807E+03 -0.56000174588E+03  0.12417426017E+04  0.97796532298E+03 0.  0.
    9000010    2    1    2  501    0  0.43550290903E+03 -0.28678175807E+03 -0.14021941217E+03  0.10933967310E+04  0.95076199299E+03 0.  0.
        -13    1    4    4    0    0  0.43249057392E+03  0.28057820098E+03 -0.95181852222E+02  0.52424404579E+03  0.10566000000E+00 0.  1.
          4    1    4    4  501    0  0.30123351176E+01 -0.56735995905E+03 -0.45037559947E+02  0.56915268523E+03  0.00000000000E+00 0.  1.
         13    1    3    3    0    0 -0.16260240994E+03  0.33536204470E+03  0.20690249637E+03  0.42628147850E+03  0.10566000000E+00 0. -1.
         -4    1    3    3    0  503 -0.27290049910E+03 -0.48580286634E+02 -0.76690424226E+03  0.81546112320E+03  0.00000000000E+00 0. -1.
<mgrwt>
<rscale>  2 0.11022660E+04</rscale>
<asrwt>0</asrwt>
<pdfrwt beam="1">  1       21 0.12576294E+00 0.11082972E+04</pdfrwt>
<pdfrwt beam="2">  1       21 0.23348927E+00 0.11082972E+04</pdfrwt>
<totfact> 0.16720094E+01</totfact>
</mgrwt>
</event>
<event>
 8    1  0.1094795E-005  0.1033912E+04  0.7818608E-02  0.8746425E-01
         21   -1    0    0  501  502  0.00000000000E+00  0.00000000000E+00  0.10537186149E+04  0.10537186149E+04  0.00000000000E+00 0. -1.
         21   -1    0    0  502  503 -0.00000000000E+00 -0.00000000000E+00 -0.10079426346E+04  0.10079426346E+04  0.00000000000E+00 0. -1.
   -9000010    2    1    2    0  503 -0.24691476600E+03 -0.53138228725E+02 -0.60911212265E+02  0.10222594702E+04  0.98869291270E+03 0.  0.
    9000010    2    1    2  501    0  0.24691476600E+03  0.53138228725E+02  0.10668719259E+03  0.10394017792E+04  0.10025883146E+04 0.  0.
        -13    1    4    4    0    0  0.63875111863E+03  0.56490468579E+02  0.46154186043E+02  0.64290309117E+03  0.10566000000E+00 0.  1.
          4    1    4    4  501    0 -0.39183635262E+03 -0.33522398547E+01  0.60533006545E+02  0.39649868805E+03  0.00000000000E+00 0.  1.
         13    1    3    3    0    0 -0.14229408243E+03 -0.30118753544E+02 -0.52561543525E+03  0.54536807951E+03  0.10566000000E+00 0. -1.
         -4    1    3    3    0  503 -0.10462068358E+03 -0.23019475180E+02  0.46470422298E+03  0.47689139070E+03  0.00000000000E+00 0. -1.
<mgrwt>
<rscale>  2 0.10305282E+04</rscale>
<asrwt>0</asrwt>
<pdfrwt beam="1">  1       21 0.16211056E+00 0.10339119E+04</pdfrwt>
<pdfrwt beam="2">  1       21 0.15506810E+00 0.10339119E+04</pdfrwt>
<totfact> 0.33274263E+01</totfact>
</mgrwt>
</event>
<event>
 8    1  0.1094795E-005  0.1317189E+04  0.7818608E-02  0.8569116E-01
         21   -1    0    0  503  502  0.00000000000E+00  0.00000000000E+00  0.11539956927E+04  0.11539956927E+04  0.00000000000E+00 0.  1.
         21   -1    0    0  501  503 -0.00000000000E+00 -0.00000000000E+00 -0.12671165991E+04  0.12671165991E+04  0.00000000000E+00 0.  1.
    9000010    2    1    2  501    0  0.28707548176E+03  0.30866615856E+03 -0.23855678890E+03  0.10979646079E+04  0.98535770608E+03 0.  0.
   -9000010    2    1    2    0  502 -0.28707548176E+03 -0.30866615856E+03  0.12543588251E+03  0.13231476839E+04  0.12479176668E+04 0.  0.
        -13    1    3    3    0    0 -0.77775919275E+02 -0.32424891345E+03 -0.13658473348E+03  0.36033574909E+03  0.10566000000E+00 0.  1.
          4    1    3    3  501    0  0.36485140103E+03  0.63291507201E+03 -0.10197205542E+03  0.73762885877E+03  0.00000000000E+00 0.  1.
         13    1    4    4    0    0 -0.16572875017E+02 -0.54472761652E+03  0.54514337815E+03  0.77083341280E+03  0.10566000000E+00 0. -1.
         -4    1    4    4    0  502 -0.27050260674E+03  0.23606145796E+03 -0.41970749564E+03  0.55231427112E+03  0.00000000000E+00 0. -1.
<mgrwt>
<rscale>  2 0.12510016E+04</rscale>
<asrwt>0</asrwt>
<pdfrwt beam="1">  1       21 0.17753780E+00 0.13171885E+04</pdfrwt>
<pdfrwt beam="2">  1       21 0.19494101E+00 0.13171885E+04</pdfrwt>
<totfact> 0.10877371E+01</totfact>
</mgrwt>
</event>
<event>
 8    1  0.1094795E-005  0.1327811E+04  0.7818608E-02  0.8522259E-01
         21   -1    0    0  503  502  0.00000000000E+00  0.00000000000E+00  0.13294063931E+04  0.13294063931E+04  0.00000000000E+00 0. -1.
         21   -1    0    0  501  503 -0.00000000000E+00 -0.00000000000E+00 -0.16563315282E+04  0.16563315282E+04  0.00000000000E+00 0. -1.
    9000010    2    1    2  501    0 -0.17208219605E+03  0.80125809574E+03  0.53687441717E+03  0.14322414163E+04  0.10447270057E+04 0.  0.
   -9000010    2    1    2    0  502  0.17208219605E+03 -0.80125809574E+03 -0.86379955225E+03  0.15534965051E+04  0.99778500024E+03 0.  0.
        -13    1    3    3    0    0 -0.54549483981E+03  0.67013562921E+03  0.56990071692E+03  0.10351005845E+04  0.10566000000E+00 0.  1.
          4    1    3    3  501    0  0.37341264376E+03  0.13112246652E+03 -0.33026299751E+02  0.39714083172E+03  0.00000000000E+00 0.  1.
         13    1    4    4    0    0  0.54236319323E+03 -0.70385324334E+03 -0.47394865987E+03  0.10070722739E+04  0.10566000000E+00 0. -1.
         -4    1    4    4    0  502 -0.37028099717E+03 -0.97404852394E+02 -0.38985089239E+03  0.54642423119E+03  0.00000000000E+00 0. -1.
<mgrwt>
<rscale>  2 0.13185623E+04</rscale>
<asrwt>0</asrwt>
<pdfrwt beam="1">  1       21 0.20452406E+00 0.13278107E+04</pdfrwt>
<pdfrwt beam="2">  1       21 0.25482023E+00 0.13278107E+04</pdfrwt>
<totfact> 0.23365669E+00</totfact>
</mgrwt>
</event>
<event>
 8    1  0.1094795E-005  0.1121991E+04  0.7818608E-02  0.8680635E-01
         21   -1    0    0  503  502  0.00000000000E+00  0.00000000000E+00  0.65827588949E+03  0.65827588949E+03  0.00000000000E+00 0.  1.
         21   -1    0    0  501  503 -0.00000000000E+00 -0.00000000000E+00 -0.18096020771E+04  0.18096020771E+04  0.00000000000E+00 0.  1.
    9000010    2    1    2  501    0 -0.22476748656E+03 -0.19502488387E+03 -0.60710091852E+03  0.12757096897E+04  0.10818080045E+04 0.  0.
   -9000010    2    1    2    0  502  0.22476748656E+03  0.19502488387E+03 -0.54422526905E+03  0.11921682769E+04  0.10181006476E+04 0.  0.
        -13    1    3    3    0    0  0.23861372417E+03 -0.50440036502E+03 -0.23349585467E+03  0.60487731228E+03  0.10566000000E+00 0.  1.
          4    1    3    3  501    0 -0.46338121073E+03  0.30937548115E+03 -0.37360506385E+03  0.67083237737E+03  0.00000000000E+00 0.  1.
         13    1    4    4    0    0  0.14430131334E+02  0.56193527561E+03 -0.52444813323E+03  0.76878172343E+03  0.10566000000E+00 0. -1.
         -4    1    4    4    0  502  0.21033735523E+03 -0.36691039174E+03 -0.19777135820E+02  0.42338655348E+03  0.00000000000E+00 0. -1.
<mgrwt>
<rscale>  2 0.11063439E+04</rscale>
<asrwt>0</asrwt>
<pdfrwt beam="1">  1       21 0.10127321E+00 0.11219909E+04</pdfrwt>
<pdfrwt beam="2">  1       21 0.27840032E+00 0.11219909E+04</pdfrwt>
<totfact> 0.14254413E+01</totfact>
</mgrwt>
</event>
<event>
 8    1  0.1094795E-005  0.1197345E+04  0.7818608E-02  0.8614515E-01
         21   -1    0    0  503  502  0.00000000000E+00  0.00000000000E+00  0.11266948728E+04  0.11266948728E+04  0.00000000000E+00 0.  1.
         21   -1    0    0  501  503 -0.00000000000E+00 -0.00000000000E+00 -0.12855335382E+04  0.12855335382E+04  0.00000000000E+00 0. -1.
    9000010    2    1    2  501    0  0.37176221680E+03 -0.54489542528E+03 -0.30637969022E+03  0.12058275789E+04  0.96178660067E+03 0.  0.
   -9000010    2    1    2    0  502 -0.37176221680E+03  0.54489542528E+03  0.14754102476E+03  0.12064008321E+04  0.99925794636E+03 0.  0.
        -13    1    3    3    0    0 -0.40529541994E+02 -0.40078706812E+02  0.30613795778E+03  0.31139911186E+03  0.10566000000E+00 0.  1.
          4    1    3    3  501    0  0.41229175879E+03 -0.50481671847E+03 -0.61251764799E+03  0.89442846708E+03  0.00000000000E+00 0.  1.
         13    1    4    4    0    0  0.22147188849E+03  0.52642906790E+03  0.21242062528E+03  0.60934382259E+03  0.10566000000E+00 0. -1.
         -4    1    4    4    0  502 -0.59323410529E+03  0.18466357378E+02 -0.64879600517E+02  0.59705700950E+03  0.00000000000E+00 0. -1.
<mgrwt>
<rscale>  2 0.11894956E+04</rscale>
<asrwt>0</asrwt>
<pdfrwt beam="1">  1       21 0.17333767E+00 0.11973448E+04</pdfrwt>
<pdfrwt beam="2">  1       21 0.19777439E+00 0.11973448E+04</pdfrwt>
<totfact> 0.11455744E+01</totfact>
</mgrwt>
</event>
<event>
 8    1  0.1094795E-005  0.1128734E+04  0.7818608E-02  0.8666005E-01
         21   -1    0    0  503  502  0.00000000000E+00  0.00000000000E+00  0.37000726205E+03  0.37000726205E+03  0.00000000000E+00 0.  1.
         21   -1    0    0  501  503 -0.00000000000E+00 -0.00000000000E+00 -0.33997124139E+04  0.33997124139E+04  0.00000000000E+00 0.  1.
    9000010    2    1    2  501    0  0.32586567533E+03  0.29836865888E+03 -0.16401180910E+04  0.19909867190E+04  0.10386666780E+04 0.  0.
   -9000010    2    1    2    0  502 -0.32586567533E+03 -0.29836865888E+03 -0.13895870608E+04  0.17787329569E+04  0.10186885871E+04 0.  0.
        -13    1    3    3    0    0  0.12558754454E+03  0.37248647080E+03 -0.61357239884E+02  0.39784811716E+03  0.10566000000E+00 0.  1.
          4    1    3    3  501    0  0.20027813078E+03 -0.74117811923E+02 -0.15787608511E+04  0.15931386019E+04  0.00000000000E+00 0.  1.
         13    1    4    4    0    0  0.33670248056E+03 -0.29512677926E+03 -0.56978958877E+03  0.72465754870E+03  0.10566000000E+00 0. -1.
         -4    1    4    4    0  502 -0.66256815589E+03 -0.32418796153E+01 -0.81979747205E+03  0.10540754082E+04  0.00000000000E+00 0. -1.
<mgrwt>
<rscale>  2 0.11241168E+04</rscale>
<asrwt>0</asrwt>
<pdfrwt beam="1">  1       21 0.56924194E-01 0.11287341E+04</pdfrwt>
<pdfrwt beam="2">  1       21 0.52303268E+00 0.11287341E+04</pdfrwt>
<totfact> 0.11270756E+00</totfact>
</mgrwt>
</event>
<event>
 8    1  0.1094795E-005  0.1103509E+04  0.7818608E-02  0.8693668E-01
         21   -1    0    0  503  502  0.00000000000E+00  0.00000000000E+00  0.17735564697E+04  0.17735564697E+04  0.00000000000E+00 0.  1.
         21   -1    0    0  501  503 -0.00000000000E+00 -0.00000000000E+00 -0.65592733177E+03  0.65592733177E+03  0.00000000000E+00 0.  1.
    9000010    2    1    2  501    0  0.43257983900E+03 -0.10627771343E+03  0.56001274518E+03  0.12374756622E+04  0.10096095633E+04 0.  0.
   -9000010    2    1    2    0  502 -0.43257983900E+03  0.10627771343E+03  0.55761639273E+03  0.11920081392E+04  0.95473928015E+03 0.  0.
        -13    1    3    3    0    0  0.74147074550E+02  0.16441597840E+03  0.73396659430E+03  0.75580247110E+03  0.10566000000E+00 0.  1.
          4    1    3    3  501    0  0.35843276445E+03 -0.27069369183E+03 -0.17395384912E+03  0.48167319113E+03  0.00000000000E+00 0.  1.
         13    1    4    4    0    0 -0.24034329494E+03  0.50093651120E+03  0.50329492240E+03  0.74967198010E+03  0.10566000000E+00 0. -1.
         -4    1    4    4    0  502 -0.19223654406E+03 -0.39465879777E+03  0.54321470331E+02  0.44233615913E+03  0.00000000000E+00 0. -1.
<mgrwt>
<rscale>  2 0.10907988E+04</rscale>
<asrwt>0</asrwt>
<pdfrwt beam="1">  1       21 0.27285484E+00 0.11035088E+04</pdfrwt>
<pdfrwt beam="2">  1       21 0.10091190E+00 0.11035088E+04</pdfrwt>
<totfact> 0.15825318E+01</totfact>
</mgrwt>
</event>
<event>
 8    1  0.1094795E-005  0.1081229E+04  0.7818608E-02  0.8708335E-01
         21   -1    0    0  501  502  0.00000000000E+00  0.00000000000E+00  0.96340396052E+03  0.96340396052E+03  0.00000000000E+00 0.  1.
         21   -1    0    0  502  503 -0.00000000000E+00 -0.00000000000E+00 -0.12882304961E+04  0.12882304961E+04  0.00000000000E+00 0.  1.
   -9000010    2    1    2    0  503  0.27631270892E+03 -0.13393786227E+03 -0.48674001424E+03  0.11583498694E+04  0.10052713636E+04 0.  0.
    9000010    2    1    2  501    0 -0.27631270892E+03  0.13393786227E+03  0.16191347866E+03  0.10932845872E+04  0.10367097714E+04 0.  0.
        -13    1    4    4    0    0  0.27223069844E+03 -0.15809821665E+03 -0.20112809407E+03  0.37357344749E+03  0.10566000000E+00 0.  1.
          4    1    4    4  501    0 -0.54854340736E+03  0.29203607892E+03  0.36304157273E+03  0.71971113975E+03  0.00000000000E+00 0.  1.
         13    1    3    3    0    0 -0.19911969633E+03 -0.43994824821E+03 -0.18212791375E+03  0.51611404041E+03  0.10566000000E+00 0. -1.
         -4    1    3    3    0  503  0.47543240525E+03  0.30601038594E+03 -0.30461210049E+03  0.64223582898E+03  0.00000000000E+00 0. -1.
<mgrwt>
<rscale>  2 0.10736222E+04</rscale>
<asrwt>0</asrwt>
<pdfrwt beam="1">  1       21 0.14821599E+00 0.10812286E+04</pdfrwt>
<pdfrwt beam="2">  1       21 0.19818931E+00 0.10812286E+04</pdfrwt>
<totfact> 0.19201865E+01</totfact>
</mgrwt>
</event>
<event>
 8    1  0.1094795E-005  0.1177160E+04  0.7818608E-02  0.8629980E-01
         21   -1    0    0  503  502  0.00000000000E+00  0.00000000000E+00  0.10775014728E+04  0.10775014728E+04  0.00000000000E+00 0. -1.
         21   -1    0    0  501  503 -0.00000000000E+00 -0.00000000000E+00 -0.16471284578E+04  0.16471284578E+04  0.00000000000E+00 0. -1.
    9000010    2    1    2  501    0  0.52366902910E+03 -0.30987594151E+03 -0.95436241522E+03  0.15154251366E+04  0.10076970646E+04 0.  0.
   -9000010    2    1    2    0  502 -0.52366902910E+03  0.30987594151E+03  0.38473543025E+03  0.12092047940E+04  0.97154646377E+03 0.  0.
        -13    1    3    3    0    0 -0.22272458708E+03 -0.31668738531E+02 -0.60528064197E+03  0.64573509848E+03  0.10566000000E+00 0.  1.
          4    1    3    3  501    0  0.74639361618E+03 -0.27820720298E+03 -0.34908177324E+03  0.86969003816E+03  0.00000000000E+00 0.  1.
         13    1    4    4    0    0  0.22969940690E+03  0.31060924476E+03  0.19288218183E+03  0.43179100001E+03  0.10566000000E+00 0. -1.
         -4    1    4    4    0  502 -0.75336843599E+03 -0.73330325284E+00  0.19185324842E+03  0.77741379394E+03  0.00000000000E+00 0. -1.
<mgrwt>
<rscale>  2 0.11693848E+04</rscale>
<asrwt>0</asrwt>
<pdfrwt beam="1">  1       21 0.16576946E+00 0.11771600E+04</pdfrwt>
<pdfrwt beam="2">  1       21 0.25340438E+00 0.11771600E+04</pdfrwt>
<totfact> 0.50876372E+00</totfact>
</mgrwt>
</event>
<event>
 8    1  0.1094795E-005  0.1134890E+04  0.7818608E-02  0.8662825E-01
         21   -1    0    0  503  502  0.00000000000E+00  0.00000000000E+00  0.11560509029E+04  0.11560509029E+04  0.00000000000E+00 0. -1.
         21   -1    0    0  501  503 -0.00000000000E+00 -0.00000000000E+00 -0.10988320612E+04  0.10988320612E+04  0.00000000000E+00 0. -1.
    9000010    2    1    2  501    0  0.38703150473E+03  0.31155391604E+03 -0.85888299647E+02  0.11110055975E+04  0.98999869167E+03 0.  0.
   -9000010    2    1    2    0  502 -0.38703150473E+03 -0.31155391604E+03  0.14310714142E+03  0.11438773665E+04  0.10203511883E+04 0.  0.
        -13    1    3    3    0    0 -0.50093706367E+02  0.50883142331E+03  0.20415083913E+03  0.55054189036E+03  0.10566000000E+00 0.  1.
          4    1    3    3  501    0  0.43712521109E+03 -0.19727750727E+03 -0.29003913878E+03  0.56046370718E+03  0.00000000000E+00 0.  1.
         13    1    4    4    0    0  0.18423880199E+03  0.26138426693E+03 -0.12222207115E+02  0.32002353767E+03  0.10566000000E+00 0. -1.
         -4    1    4    4    0  502 -0.57127030671E+03 -0.57293818297E+03  0.15532934853E+03  0.82385382887E+03  0.00000000000E+00 0. -1.
<mgrwt>
<rscale>  2 0.11280258E+04</rscale>
<asrwt>0</asrwt>
<pdfrwt beam="1">  1       21 0.17785399E+00 0.11348902E+04</pdfrwt>
<pdfrwt beam="2">  1       21 0.16905109E+00 0.11348902E+04</pdfrwt>
<totfact> 0.18218532E+01</totfact>
</mgrwt>
</event>
<event>
 8    1  0.1094795E-005  0.1095332E+04  0.7818608E-02  0.8692052E-01
         21   -1    0    0  501  502  0.00000000000E+00  0.00000000000E+00  0.71260122560E+03  0.71260122560E+03  0.00000000000E+00 0.  1.
         21   -1    0    0  502  503 -0.00000000000E+00 -0.00000000000E+00 -0.16676442887E+04  0.16676442887E+04  0.00000000000E+00 0.  1.
   -9000010    2    1    2    0  503 -0.32795208925E+03 -0.24092301011E+03 -0.48494887796E+03  0.11978842727E+04  0.10169340425E+04 0.  0.
    9000010    2    1    2  501    0  0.32795208925E+03  0.24092301011E+03 -0.47009418519E+03  0.11823612417E+04  0.10056804130E+04 0.  0.
        -13    1    4    4    0    0  0.33744784923E+03 -0.25423791738E+03  0.92839583778E+02  0.43258197959E+03  0.10566000000E+00 0.  1.
          4    1    4    4  501    0 -0.94957599764E+01  0.49516092749E+03 -0.56293376897E+03  0.74977926206E+03  0.00000000000E+00 0.  1.
         13    1    3    3    0    0 -0.69820667549E+03 -0.15990987493E+03 -0.32155447480E+03  0.78515031760E+03  0.10566000000E+00 0. -1.
         -4    1    3    3    0  503  0.37025458624E+03 -0.81013135179E+02 -0.16339440316E+03  0.41273395509E+03  0.00000000000E+00 0. -1.
<mgrwt>
<rscale>  2 0.10927122E+04</rscale>
<asrwt>0</asrwt>
<pdfrwt beam="1">  1       21 0.10963096E+00 0.10953316E+04</pdfrwt>
<pdfrwt beam="2">  1       21 0.25656066E+00 0.10953316E+04</pdfrwt>
<totfact> 0.16647599E+01</totfact>
</mgrwt>
</event>
<event>
 8    1  0.1094795E-005  0.1071517E+04  0.7818608E-02  0.8714932E-01
         21   -1    0    0  503  502  0.00000000000E+00  0.00000000000E+00  0.15124922028E+04  0.15124922028E+04  0.00000000000E+00 0.  1.
         21   -1    0    0  501  503 -0.00000000000E+00 -0.00000000000E+00 -0.74474874841E+03  0.74474874841E+03  0.00000000000E+00 0.  1.
    9000010    2    1    2  501    0  0.36574260330E+03  0.63412483668E+02  0.42257771766E+03  0.11315019332E+04  0.98180237444E+03 0.  0.
   -9000010    2    1    2    0  502 -0.36574260330E+03 -0.63412483668E+02  0.34516573669E+03  0.11257390180E+04  0.10051667304E+04 0.  0.
        -13    1    3    3    0    0 -0.10231120771E+03 -0.23587710281E+02  0.61066304302E+03  0.61962353617E+03  0.10566000000E+00 0.  1.
          4    1    3    3  501    0  0.46805381102E+03  0.87000193949E+02 -0.18808532536E+03  0.51187839705E+03  0.00000000000E+00 0.  1.
         13    1    4    4    0    0  0.11411756251E+03 -0.40276815718E+02  0.57894672213E+03  0.59145951525E+03  0.10566000000E+00 0. -1.
         -4    1    4    4    0  502 -0.47986016581E+03 -0.23135667950E+02 -0.23378098544E+03  0.53427950271E+03  0.00000000000E+00 0. -1.
<mgrwt>
<rscale>  2 0.10660031E+04</rscale>
<asrwt>0</asrwt>
<pdfrwt beam="1">  1       21 0.23269111E+00 0.10715171E+04</pdfrwt>
<pdfrwt beam="2">  1       21 0.11457673E+00 0.10715171E+04</pdfrwt>
<totfact> 0.22176660E+01</totfact>
</mgrwt>
</event>
<event>
 8    1  0.1094795E-005  0.1100094E+04  0.7818608E-02  0.8690594E-01
         21   -1    0    0  501  502  0.00000000000E+00  0.00000000000E+00  0.15994794167E+04  0.15994794167E+04  0.00000000000E+00 0. -1.
         21   -1    0    0  502  503 -0.00000000000E+00 -0.00000000000E+00 -0.74171497978E+03  0.74171497978E+03  0.00000000000E+00 0. -1.
   -9000010    2    1    2    0  503  0.15799704958E+03 -0.40288445481E+03  0.39584589267E+03  0.11480571652E+04  0.98694596211E+03 0.  0.
    9000010    2    1    2  501    0 -0.15799704958E+03  0.40288445481E+03  0.46191854427E+03  0.11931372314E+04  0.10113994066E+04 0.  0.
        -13    1    4    4    0    0  0.24552136972E+03  0.44499690214E+03 -0.81756754776E+02  0.51476903949E+03  0.10566000000E+00 0.  1.
          4    1    4    4  501    0 -0.40351841930E+03 -0.42112447332E+02  0.54367529905E+03  0.67836819186E+03  0.00000000000E+00 0.  1.
         13    1    3    3    0    0 -0.30607830993E+03  0.13033809229E+03 -0.10234063348E+02  0.33283133465E+03  0.10566000000E+00 0. -1.
         -4    1    3    3    0  503  0.46407535951E+03 -0.53322254710E+03  0.40607995602E+03  0.81522583050E+03  0.00000000000E+00 0. -1.
<mgrwt>
<rscale>  2 0.10944412E+04</rscale>
<asrwt>0</asrwt>
<pdfrwt beam="1">  1       21 0.24607375E+00 0.11000944E+04</pdfrwt>
<pdfrwt beam="2">  1       21 0.11411000E+00 0.11000944E+04</pdfrwt>
<totfact> 0.17768341E+01</totfact>
</mgrwt>
</event>
<event>
 8    1  0.1094795E-005  0.1095709E+04  0.7818608E-02  0.8693098E-01
         21   -1    0    0  503  502  0.00000000000E+00  0.00000000000E+00  0.44853983893E+03  0.44853983893E+03  0.00000000000E+00 0.  1.
         21   -1    0    0  501  503 -0.00000000000E+00 -0.00000000000E+00 -0.26576678377E+04  0.26576678377E+04  0.00000000000E+00 0.  1.
    9000010    2    1    2  501    0  0.13066339317E+03 -0.42360450365E+03 -0.97167777461E+03  0.14644917334E+04  0.10020302599E+04 0.  0.
   -9000010    2    1    2    0  502 -0.13066339317E+03  0.42360450365E+03 -0.12374502242E+04  0.16417159433E+04  0.98358247399E+03 0.  0.
        -13    1    3    3    0    0 -0.20718314933E+02  0.32407487230E+03 -0.21144984224E+03  0.38751105581E+03  0.10566000000E+00 0.  1.
          4    1    3    3  501    0  0.15138170810E+03 -0.74767937595E+03 -0.76022793238E+03  0.10769806776E+04  0.00000000000E+00 0.  1.
         13    1    4    4    0    0  0.15770964081E+03  0.37419221364E+03 -0.38849523205E+02  0.40792332634E+03  0.10566000000E+00 0. -1.
         -4    1    4    4    0  502 -0.28837303397E+03  0.49412290010E+02 -0.11986007010E+04  0.12337926169E+04  0.00000000000E+00 0. -1.
<mgrwt>
<rscale>  2 0.10914734E+04</rscale>
<asrwt>0</asrwt>
<pdfrwt beam="1">  1       21 0.69006129E-01 0.10957091E+04</pdfrwt>
<pdfrwt beam="2">  1       21 0.40887198E+00 0.10957091E+04</pdfrwt>
<totfact> 0.45176403E+00</totfact>
</mgrwt>
</event>
<event>
 8    1  0.1094795E-005  0.1101215E+04  0.7818608E-02  0.8688625E-01
         21   -1    0    0  503  502  0.00000000000E+00  0.00000000000E+00  0.13966922098E+04  0.13966922098E+04  0.00000000000E+00 0.  1.
         21   -1    0    0  501  503 -0.00000000000E+00 -0.00000000000E+00 -0.87407970055E+03  0.87407970055E+03  0.00000000000E+00 0.  1.
    9000010    2    1    2  501    0  0.34445707130E+03 -0.28451177908E+03  0.43369973255E+03  0.11835415434E+04  0.10065175112E+04 0.  0.
   -9000010    2    1    2    0  502 -0.34445707130E+03  0.28451177908E+03  0.88912776667E+02  0.10872303670E+04  0.98720148024E+03 0.  0.
        -13    1    3    3    0    0  0.20737915261E+03 -0.50720200492E+03 -0.12909537865E+03  0.56296146820E+03  0.10566000000E+00 0.  1.
          4    1    3    3  501    0  0.13707791869E+03  0.22269022584E+03  0.56279511120E+03  0.62058007515E+03  0.00000000000E+00 0.  1.
         13    1    4    4    0    0  0.28896978271E+03 -0.11183743706E+03  0.13632112052E+03  0.33851825167E+03  0.10566000000E+00 0. -1.
         -4    1    4    4    0  502 -0.63342685401E+03  0.39634921614E+03 -0.47408343851E+02  0.74871211529E+03  0.00000000000E+00 0. -1.
<mgrwt>
<rscale>  2 0.10967819E+04</rscale>
<asrwt>0</asrwt>
<pdfrwt beam="1">  1       21 0.21487572E+00 0.11012153E+04</pdfrwt>
<pdfrwt beam="2">  1       21 0.13447380E+00 0.11012153E+04</pdfrwt>
<totfact> 0.19028950E+01</totfact>
</mgrwt>
</event>
<event>
 8    1  0.1094795E-005  0.1283324E+04  0.7818608E-02  0.8564091E-01
         21   -1    0    0  501  502  0.00000000000E+00  0.00000000000E+00  0.10600948331E+04  0.10600948331E+04  0.00000000000E+00 0.  1.
         21   -1    0    0  502  503 -0.00000000000E+00 -0.00000000000E+00 -0.15887824402E+04  0.15887824402E+04  0.00000000000E+00 0. -1.
   -9000010    2    1    2    0  503  0.70829669500E+03 -0.78478931297E+02 -0.68294058805E+03  0.14537286943E+04  0.10672750906E+04 0.  0.
    9000010    2    1    2  501    0 -0.70829669500E+03  0.78478931297E+02  0.15425298099E+03  0.11951485790E+04  0.94696514871E+03 0.  0.
        -13    1    4    4    0    0 -0.15234588146E+03  0.41328471261E+03 -0.16692807653E+03  0.47103982334E+03  0.10566000000E+00 0.  1.
          4    1    4    4  501    0 -0.55595081354E+03 -0.33480578131E+03  0.32118105752E+03  0.72410875563E+03  0.00000000000E+00 0.  1.
         13    1    3    3    0    0  0.46838280237E+03  0.37136603226E+03  0.46375506538E+01  0.59775973226E+03  0.10566000000E+00 0. -1.
         -4    1    3    3    0  503  0.23991389263E+03 -0.44984496356E+03 -0.68757813870E+03  0.85596896202E+03  0.00000000000E+00 0. -1.
<mgrwt>
<rscale>  2 0.12580435E+04</rscale>
<asrwt>0</asrwt>
<pdfrwt beam="1">  1       21 0.16309151E+00 0.12833235E+04</pdfrwt>
<pdfrwt beam="2">  1       21 0.24442807E+00 0.12833235E+04</pdfrwt>
<totfact> 0.61008181E+00</totfact>
</mgrwt>
</event>
<event>
 8    1  0.1094795E-005  0.1121419E+04  0.7818608E-02  0.8669764E-01
         21   -1    0    0  501  502  0.00000000000E+00  0.00000000000E+00  0.86397155415E+03  0.86397155415E+03  0.00000000000E+00 0.  1.
         21   -1    0    0  502  503 -0.00000000000E+00 -0.00000000000E+00 -0.14983594598E+04  0.14983594598E+04  0.00000000000E+00 0.  1.
   -9000010    2    1    2    0  503  0.32723431954E+03  0.35154262902E+03 -0.94829570405E+02  0.11178613445E+04  0.10049660781E+04 0.  0.
    9000010    2    1    2  501    0 -0.32723431954E+03 -0.35154262902E+03 -0.53955833526E+03  0.12444696694E+04  0.10133691534E+04 0.  0.
        -13    1    4    4    0    0 -0.55724460494E+03  0.12872646224E+03 -0.38696329031E+03  0.69053070245E+03  0.10566000000E+00 0.  1.
          4    1    4    4  501    0  0.23001028540E+03 -0.48026909126E+03 -0.15259504495E+03  0.55393896699E+03  0.00000000000E+00 0.  1.
         13    1    3    3    0    0  0.40717708782E+03  0.37012651548E+02 -0.46924311331E+03  0.62237627507E+03  0.10566000000E+00 0. -1.
         -4    1    3    3    0  503 -0.79942768278E+02  0.31452997747E+03  0.37441354290E+03  0.49548506944E+03  0.00000000000E+00 0. -1.
<mgrwt>
<rscale>  2 0.11195177E+04</rscale>
<asrwt>0</asrwt>
<pdfrwt beam="1">  1       21 0.13291870E+00 0.11214194E+04</pdfrwt>
<pdfrwt beam="2">  1       21 0.23051684E+00 0.11214194E+04</pdfrwt>
<totfact> 0.14954450E+01</totfact>
</mgrwt>
</event>
<event>
 8    1  0.1094795E-005  0.1100472E+04  0.7818608E-02  0.8690741E-01
         21   -1    0    0  503  502  0.00000000000E+00  0.00000000000E+00  0.29028262474E+04  0.29028262474E+04  0.00000000000E+00 0. -1.
         21   -1    0    0  501  503 -0.00000000000E+00 -0.00000000000E+00 -0.41737135345E+03  0.41737135345E+03  0.00000000000E+00 0. -1.
    9000010    2    1    2  501    0  0.10103287793E+03 -0.43681725827E+03  0.10065972268E+04  0.14914007379E+04  0.10049981216E+04 0.  0.
   -9000010    2    1    2    0  502 -0.10103287793E+03  0.43681725827E+03  0.14788576671E+04  0.18287968629E+04  0.97798824474E+03 0.  0.
        -13    1    3    3    0    0 -0.20113015613E+02 -0.26871265887E+03 -0.15540688125E+03  0.31106645003E+03  0.10566000000E+00 0.  1.
          4    1    3    3  501    0  0.12114589354E+03 -0.16810459940E+03  0.11620041081E+04  0.11803342879E+04  0.00000000000E+00 0.  1.
         13    1    4    4    0    0 -0.11388323319E+03  0.33976749745E+03  0.11865336492E+02  0.35854168586E+03  0.10566000000E+00 0. -1.
         -4    1    4    4    0  502  0.12850355262E+02  0.97049760817E+02  0.14669923306E+04  0.14702551771E+04  0.00000000000E+00 0. -1.
<mgrwt>
<rscale>  2 0.10942669E+04</rscale>
<asrwt>0</asrwt>
<pdfrwt beam="1">  1       21 0.44658864E+00 0.11004718E+04</pdfrwt>
<pdfrwt beam="2">  1       21 0.64210979E-01 0.11004718E+04</pdfrwt>
<totfact> 0.29334805E+00</totfact>
</mgrwt>
</event>
<event>
 8    1  0.1094795E-005  0.1159811E+04  0.7818608E-02  0.8643924E-01
         21   -1    0    0  501  502  0.00000000000E+00  0.00000000000E+00  0.73423804569E+03  0.73423804569E+03  0.00000000000E+00 0. -1.
         21   -1    0    0  502  503 -0.00000000000E+00 -0.00000000000E+00 -0.18030381031E+04  0.18030381031E+04  0.00000000000E+00 0. -1.
   -9000010    2    1    2    0  503  0.37476820349E+03 -0.48790907988E+03 -0.68178822777E+03  0.13453615032E+04  0.98318661011E+03 0.  0.
    9000010    2    1    2  501    0 -0.37476820349E+03  0.48790907988E+03 -0.38701182967E+03  0.11919146456E+04  0.94465649283E+03 0.  0.
        -13    1    4    4    0    0  0.62682757026E+02  0.65102214023E+03 -0.28812550306E+03  0.71468543554E+03  0.10566000000E+00 0.  1.
          4    1    4    4  501    0 -0.43745096052E+03 -0.16311306035E+03 -0.98886326615E+02  0.47722921003E+03  0.00000000000E+00 0.  1.
         13    1    3    3    0    0  0.36745841975E+02 -0.37304954673E+03 -0.86598882287E+03  0.94363810527E+03  0.10566000000E+00 0. -1.
         -4    1    3    3    0  503  0.33802236152E+03 -0.11485953315E+03  0.18420059510E+03  0.40172339797E+03  0.00000000000E+00 0. -1.
<mgrwt>
<rscale>  2 0.11516054E+04</rscale>
<asrwt>0</asrwt>
<pdfrwt beam="1">  1       21 0.11295970E+00 0.11598114E+04</pdfrwt>
<pdfrwt beam="2">  1       21 0.27739048E+00 0.11598114E+04</pdfrwt>
<totfact> 0.10722775E+01</totfact>
</mgrwt>
</event>
<event>
 8    1  0.1094795E-005  0.1127239E+04  0.7818608E-02  0.8678991E-01
         21   -1    0    0  503  502  0.00000000000E+00  0.00000000000E+00  0.78546823553E+03  0.78546823553E+03  0.00000000000E+00 0.  1.
         21   -1    0    0  501  503 -0.00000000000E+00 -0.00000000000E+00 -0.17628254978E+04  0.17628254978E+04  0.00000000000E+00 0.  1.
    9000010    2    1    2  501    0 -0.28437650091E+03 -0.25213309411E+03 -0.98174821716E+03  0.14948234218E+04  0.10612381491E+04 0.  0.
   -9000010    2    1    2    0  502  0.28437650091E+03  0.25213309411E+03  0.43909548891E+01  0.10534703115E+04  0.98251683211E+03 0.  0.
        -13    1    3    3    0    0 -0.59871089467E+02  0.41572574230E+03 -0.31777347593E+03  0.52668057999E+03  0.10566000000E+00 0.  1.
          4    1    3    3  501    0 -0.22450541144E+03 -0.66785883641E+03 -0.66397474123E+03  0.96814284180E+03  0.00000000000E+00 0.  1.
         13    1    4    4    0    0 -0.73389689063E+02 -0.55606725797E+02 -0.41319420680E+03  0.42332920772E+03  0.10566000000E+00 0. -1.
         -4    1    4    4    0  502  0.35776618997E+03  0.30773981991E+03  0.41758516169E+03  0.63014110381E+03  0.00000000000E+00 0. -1.
<mgrwt>
<rscale>  2 0.11083237E+04</rscale>
<asrwt>0</asrwt>
<pdfrwt beam="1">  1       21 0.12084127E+00 0.11272389E+04</pdfrwt>
<pdfrwt beam="2">  1       21 0.27120392E+00 0.11272389E+04</pdfrwt>
<totfact> 0.99160544E+00</totfact>
</mgrwt>
</event>
<event>
 8    1  0.1094795E-005  0.1133118E+04  0.7818608E-02  0.8660380E-01
         21   -1    0    0  501  502  0.00000000000E+00  0.00000000000E+00  0.86576958739E+03  0.86576958739E+03  0.00000000000E+00 0.  1.
         21   -1    0    0  502  503 -0.00000000000E+00 -0.00000000000E+00 -0.15090090981E+04  0.15090090981E+04  0.00000000000E+00 0.  1.
   -9000010    2    1    2    0  503  0.11179920210E+03 -0.50733159892E+03 -0.50588918279E+03  0.12333666646E+04  0.99768985722E+03 0.  0.
    9000010    2    1    2  501    0 -0.11179920210E+03  0.50733159892E+03 -0.13735032796E+03  0.11414120209E+04  0.10070113585E+04 0.  0.
        -13    1    4    4    0    0  0.13052819696E+03  0.85624096212E+02 -0.50701406086E+03  0.53050199351E+03  0.10566000000E+00 0.  1.
          4    1    4    4  501    0 -0.24232739906E+03  0.42170750271E+03  0.36966373290E+03  0.61091002741E+03  0.00000000000E+00 0.  1.
         13    1    3    3    0    0  0.14128461312E+03  0.14475970021E+03  0.19121725244E+03  0.27835366264E+03  0.10566000000E+00 0. -1.
         -4    1    3    3    0  503 -0.29485411022E+02 -0.65209129913E+03 -0.69710643523E+03  0.95501300195E+03  0.00000000000E+00 0. -1.
<mgrwt>
<rscale>  2 0.11310433E+04</rscale>
<asrwt>0</asrwt>
<pdfrwt beam="1">  1       21 0.13319532E+00 0.11331180E+04</pdfrwt>
<pdfrwt beam="2">  1       21 0.23215524E+00 0.11331180E+04</pdfrwt>
<totfact> 0.14417178E+01</totfact>
</mgrwt>
</event>
<event>
 8    1  0.1094795E-005  0.1053573E+04  0.7818608E-02  0.8727779E-01
         21   -1    0    0  501  502  0.00000000000E+00  0.00000000000E+00  0.15280674121E+04  0.15280674121E+04  0.00000000000E+00 0.  1.
         21   -1    0    0  502  503 -0.00000000000E+00 -0.00000000000E+00 -0.85133968564E+03  0.85133968564E+03  0.00000000000E+00 0.  1.
   -9000010    2    1    2    0  503 -0.15475762581E+02  0.32770956682E+03 -0.12953003694E+03  0.10527317433E+04  0.99188357858E+03 0.  0.
    9000010    2    1    2  501    0  0.15475762581E+02 -0.32770956682E+03  0.80625776342E+03  0.13266753545E+04  0.10011907189E+04 0.  0.
        -13    1    4    4    0    0 -0.24094679742E+03 -0.25796334211E+03  0.95779202348E+03  0.10207673665E+04  0.10566000000E+00 0.  1.
          4    1    4    4  501    0  0.25642256000E+03 -0.69746224708E+02 -0.15153426006E+03  0.30590798798E+03  0.00000000000E+00 0.  1.
         13    1    3    3    0    0  0.47268770652E+03  0.26850463116E+03 -0.13819219664E+03  0.56091487699E+03  0.10566000000E+00 0. -1.
         -4    1    3    3    0  503 -0.48816346911E+03  0.59204935666E+02  0.86621596971E+01  0.49181686631E+03  0.00000000000E+00 0. -1.
<mgrwt>
<rscale>  2 0.10513558E+04</rscale>
<asrwt>0</asrwt>
<pdfrwt beam="1">  1       21 0.23508729E+00 0.10535729E+04</pdfrwt>
<pdfrwt beam="2">  1       21 0.13097534E+00 0.10535729E+04</pdfrwt>
<totfact> 0.14654944E+01</totfact>
</mgrwt>
</event>
<event>
 8    1  0.1094795E-005  0.1087398E+04  0.7818608E-02  0.8697503E-01
         21   -1    0    0  503  502  0.00000000000E+00  0.00000000000E+00  0.14308479449E+04  0.14308479449E+04  0.00000000000E+00 0. -1.
         21   -1    0    0  501  503 -0.00000000000E+00 -0.00000000000E+00 -0.83939910174E+03  0.83939910174E+03  0.00000000000E+00 0. -1.
    9000010    2    1    2  501    0  0.15040770129E+03  0.39478226512E+03  0.13757910668E+03  0.10960672197E+04  0.10019779569E+04 0.  0.
   -9000010    2    1    2    0  502 -0.15040770129E+03 -0.39478226512E+03  0.45386973648E+03  0.11741798269E+04  0.99710832653E+03 0.  0.
        -13    1    3    3    0    0 -0.42460584951E+03  0.93426052583E+02  0.12569777307E+02  0.43494432426E+03  0.10566000000E+00 0.  1.
          4    1    3    3  501    0  0.57501355080E+03  0.30135621254E+03  0.12500932937E+03  0.66112289543E+03  0.00000000000E+00 0.  1.
         13    1    4    4    0    0  0.16533309775E+03 -0.45696062957E+03 -0.13391819720E+03  0.50406561566E+03  0.10566000000E+00 0. -1.
         -4    1    4    4    0  502 -0.31574079904E+03  0.62178364447E+02  0.58778793367E+03  0.67011421128E+03  0.00000000000E+00 0. -1.
<mgrwt>
<rscale>  2 0.10862753E+04</rscale>
<asrwt>0</asrwt>
<pdfrwt beam="1">  1       21 0.22013045E+00 0.10873984E+04</pdfrwt>
<pdfrwt beam="2">  1       21 0.12913832E+00 0.10873984E+04</pdfrwt>
<totfact> 0.19590151E+01</totfact>
</mgrwt>
</event>
<event>
 8    1  0.1094795E-005  0.1115876E+04  0.7818608E-02  0.8675904E-01
         21   -1    0    0  503  502  0.00000000000E+00  0.00000000000E+00  0.46998637979E+03  0.46998637979E+03  0.00000000000E+00 0.  1.
         21   -1    0    0  501  503 -0.00000000000E+00 -0.00000000000E+00 -0.28499655776E+04  0.28499655776E+04  0.00000000000E+00 0.  1.
    9000010    2    1    2  501    0 -0.22498729057E+03 -0.40561881702E+03 -0.16607418030E+04  0.19923671561E+04  0.99815712332E+03 0.  0.
   -9000010    2    1    2    0  502  0.22498729057E+03  0.40561881702E+03 -0.71923739481E+03  0.13275848013E+04  0.10149054482E+04 0.  0.
        -13    1    3    3    0    0 -0.41454279644E+03 -0.66205489632E+03 -0.11479157666E+04  0.13884786762E+04  0.10566000000E+00 0.  1.
          4    1    3    3  501    0  0.18955550588E+03  0.25643607930E+03 -0.51282603642E+03  0.60388847994E+03  0.00000000000E+00 0.  1.
         13    1    4    4    0    0 -0.34180969340E+03  0.24473707641E+03 -0.58989722296E+03  0.72436789540E+03  0.10566000000E+00 0. -1.
         -4    1    4    4    0  502  0.56679698397E+03  0.16088174061E+03 -0.12934017186E+03  0.60321690589E+03  0.00000000000E+00 0. -1.
<mgrwt>
<rscale>  2 0.11120536E+04</rscale>
<asrwt>0</asrwt>
<pdfrwt beam="1">  1       21 0.72305598E-01 0.11158759E+04</pdfrwt>
<pdfrwt beam="2">  1       21 0.43845624E+00 0.11158759E+04</pdfrwt>
<totfact> 0.25151989E+00</totfact>
</mgrwt>
</event>
<event>
 8    1  0.1094795E-005  0.1136792E+04  0.7818608E-02  0.8661578E-01
         21   -1    0    0  501  502  0.00000000000E+00  0.00000000000E+00  0.19056670499E+04  0.19056670499E+04  0.00000000000E+00 0. -1.
         21   -1    0    0  502  503 -0.00000000000E+00 -0.00000000000E+00 -0.10990674139E+04  0.10990674139E+04  0.00000000000E+00 0. -1.
   -9000010    2    1    2    0  503 -0.55567916768E+03 -0.34570135387E+02 -0.54807406797E+03  0.12362785322E+04  0.95813620829E+03 0.  0.
    9000010    2    1    2  501    0  0.55567916768E+03  0.34570135387E+02  0.13546737040E+04  0.17684559315E+04  0.99112113574E+03 0.  0.
        -13    1    4    4    0    0 -0.61849073212E+02  0.39185231614E+03  0.31023371342E+03  0.50360551390E+03  0.10566000000E+00 0.  1.
          4    1    4    4  501    0  0.61752824089E+03 -0.35728218076E+03  0.10444399906E+04  0.12648504176E+04  0.00000000000E+00 0.  1.
         13    1    3    3    0    0  0.17171626328E+03  0.25451313627E+03 -0.25964614930E+03  0.40209395123E+03  0.10566000000E+00 0. -1.
         -4    1    3    3    0  503 -0.72739543095E+03 -0.28908327165E+03 -0.28842791867E+03  0.83418458101E+03  0.00000000000E+00 0. -1.
<mgrwt>
<rscale>  2 0.11295630E+04</rscale>
<asrwt>0</asrwt>
<pdfrwt beam="1">  1       21 0.29317955E+00 0.11367918E+04</pdfrwt>
<pdfrwt beam="2">  1       21 0.16908729E+00 0.11367918E+04</pdfrwt>
<totfact> 0.24977882E+00</totfact>
</mgrwt>
</event>
<event>
 8    1  0.1094795E-005  0.1089541E+04  0.7818608E-02  0.8699982E-01
         21   -1    0    0  503  502  0.00000000000E+00  0.00000000000E+00  0.10553533576E+04  0.10553533576E+04  0.00000000000E+00 0.  1.
         21   -1    0    0  501  503 -0.00000000000E+00 -0.00000000000E+00 -0.11734013117E+04  0.11734013117E+04  0.00000000000E+00 0.  1.
    9000010    2    1    2  501    0  0.39518257087E+03 -0.16486323009E+03 -0.33769594074E+03  0.11172936217E+04  0.97517041571E+03 0.  0.
   -9000010    2    1    2    0  502 -0.39518257087E+03  0.16486323009E+03  0.21964798656E+03  0.11114610476E+04  0.10018738810E+04 0.  0.
        -13    1    3    3    0    0  0.88090345465E+02  0.18870185934E+03 -0.56104658296E+03  0.59844931289E+03  0.10566000000E+00 0.  1.
          4    1    3    3  501    0  0.30709222541E+03 -0.35356508943E+03  0.22335064223E+03  0.51884430878E+03  0.00000000000E+00 0.  1.
         13    1    4    4    0    0 -0.42838718571E+03 -0.47189280479E+02 -0.31599749754E+03  0.53441261090E+03  0.10566000000E+00 0. -1.
         -4    1    4    4    0  502  0.33204614835E+02  0.21205251057E+03  0.53564548410E+03  0.57704843672E+03  0.00000000000E+00 0. -1.
<mgrwt>
<rscale>  2 0.10833633E+04</rscale>
<asrwt>0</asrwt>
<pdfrwt beam="1">  1       21 0.16236206E+00 0.10895414E+04</pdfrwt>
<pdfrwt beam="2">  1       21 0.18052328E+00 0.10895414E+04</pdfrwt>
<totfact> 0.19937647E+01</totfact>
</mgrwt>
</event>
<event>
 8    1  0.1094795E-005  0.1271854E+04  0.7818608E-02  0.8560181E-01
         21   -1    0    0  503  502  0.00000000000E+00  0.00000000000E+00  0.14344255577E+04  0.14344255577E+04  0.00000000000E+00 0.  1.
         21   -1    0    0  501  503 -0.00000000000E+00 -0.00000000000E+00 -0.12096129885E+04  0.12096129885E+04  0.00000000000E+00 0.  1.
    9000010    2    1    2  501    0 -0.10936329793E+03 -0.72588154591E+03  0.51126998572E+03  0.13403240718E+04  0.99810183323E+03 0.  0.
   -9000010    2    1    2    0  502  0.10936329793E+03  0.72588154591E+03 -0.28645741653E+03  0.13037144744E+04  0.10386285331E+04 0.  0.
        -13    1    3    3    0    0  0.16335094378E+03  0.15032017895E+03  0.34116498156E+03  0.40702978127E+03  0.10566000000E+00 0.  1.
          4    1    3    3  501    0 -0.27271424172E+03 -0.87620172486E+03  0.17010500416E+03  0.93329429052E+03  0.00000000000E+00 0.  1.
         13    1    4    4    0    0  0.32925837439E+03  0.26463136077E+03 -0.57761704645E+03  0.71559925777E+03  0.10566000000E+00 0. -1.
         -4    1    4    4    0  502 -0.21989507646E+03  0.46125018514E+03  0.29115962992E+03  0.58811521664E+03  0.00000000000E+00 0. -1.
<mgrwt>
<rscale>  2 0.12635549E+04</rscale>
<asrwt>0</asrwt>
<pdfrwt beam="1">  1       21 0.22068085E+00 0.12718544E+04</pdfrwt>
<pdfrwt beam="2">  1       21 0.18609431E+00 0.12718544E+04</pdfrwt>
<totfact> 0.59116470E+00</totfact>
</mgrwt>
</event>
<event>
 8    1  0.1094795E-005  0.1315643E+04  0.7818608E-02  0.8536208E-01
         21   -1    0    0  501  502  0.00000000000E+00  0.00000000000E+00  0.14229888474E+04  0.14229888474E+04  0.00000000000E+00 0. -1.
         21   -1    0    0  502  503 -0.00000000000E+00 -0.00000000000E+00 -0.11536575646E+04  0.11536575646E+04  0.00000000000E+00 0.  1.
   -9000010    2    1    2    0  503  0.31930987035E+03 -0.78862685864E+03  0.15422303371E+03  0.12559775162E+04  0.91093559683E+03 0.  0.
    9000010    2    1    2  501    0 -0.31930987035E+03  0.78862685864E+03  0.11510824916E+03  0.13206688958E+04  0.10035065061E+04 0.  0.
        -13    1    4    4    0    0 -0.56564980172E+02  0.23159364659E+03  0.52790263642E+03  0.57923779126E+03  0.10566000000E+00 0.  1.
          4    1    4    4  501    0 -0.26274489017E+03  0.55703321205E+03 -0.41279438726E+03  0.74143110455E+03  0.00000000000E+00 0.  1.
         13    1    3    3    0    0  0.14129116334E+03 -0.81195406997E+03 -0.20949049307E+03  0.85036397056E+03  0.10566000000E+00 0. -1.
         -4    1    3    3    0  503  0.17801870701E+03  0.23327211336E+02  0.36371352678E+03  0.40561354562E+03  0.00000000000E+00 0. -1.
<mgrwt>
<rscale>  2 0.12979987E+04</rscale>
<asrwt>0</asrwt>
<pdfrwt beam="1">  1       21 0.21892136E+00 0.13156430E+04</pdfrwt>
<pdfrwt beam="2">  1       21 0.17748578E+00 0.13156430E+04</pdfrwt>
<totfact> 0.71050676E+00</totfact>
</mgrwt>
</event>
<event>
 8    1  0.1094795E-005  0.1353476E+04  0.7818608E-02  0.8499685E-01
         21   -1    0    0  503  502  0.00000000000E+00  0.00000000000E+00  0.19765411908E+04  0.19765411908E+04  0.00000000000E+00 0.  1.
         21   -1    0    0  501  503 -0.00000000000E+00 -0.00000000000E+00 -0.93812914404E+03  0.93812914404E+03  0.00000000000E+00 0. -1.
    9000010    2    1    2  501    0 -0.91710758220E+03 -0.10870057536E+03  0.69339527628E+03  0.15179119626E+04  0.98506729951E+03 0.  0.
   -9000010    2    1    2    0  502  0.91710758220E+03  0.10870057536E+03  0.34501677052E+03  0.13967583723E+04  0.98944188623E+03 0.  0.
        -13    1    3    3    0    0  0.12574654907E+03  0.41936796734E+02 -0.12618745307E+03  0.18301413607E+03  0.10566000000E+00 0.  1.
          4    1    3    3  501    0 -0.10428541313E+04 -0.15063737210E+03  0.81958272935E+03  0.13348978265E+04  0.00000000000E+00 0.  1.
         13    1    4    4    0    0  0.11203686874E+04  0.18654310233E+03  0.29275265889E+03  0.11729145132E+04  0.10566000000E+00 0. -1.
         -4    1    4    4    0  502 -0.20326110522E+03 -0.77842526973E+02  0.52264111631E+02  0.22384385912E+03  0.00000000000E+00 0. -1.
<mgrwt>
<rscale>  2 0.13526767E+04</rscale>
<asrwt>0</asrwt>
<pdfrwt beam="1">  1       21 0.30408326E+00 0.13534760E+04</pdfrwt>
<pdfrwt beam="2">  1       21 0.14432756E+00 0.13534760E+04</pdfrwt>
<totfact> 0.32915263E+00</totfact>
</mgrwt>
</event>
<event>
 8    1  0.1094795E-005  0.1020327E+04  0.7818608E-02  0.8766647E-01
         21   -1    0    0  501  502  0.00000000000E+00  0.00000000000E+00  0.47095444080E+03  0.47095444080E+03  0.00000000000E+00 0. -1.
         21   -1    0    0  502  503 -0.00000000000E+00 -0.00000000000E+00 -0.21168159503E+04  0.21168159503E+04  0.00000000000E+00 0. -1.
   -9000010    2    1    2    0  503  0.13934989864E+03  0.14243567263E+03 -0.73576431398E+03  0.12205306458E+04  0.95322590002E+03 0.  0.
    9000010    2    1    2  501    0 -0.13934989864E+03 -0.14243567263E+03 -0.91009719548E+03  0.13672397453E+04  0.10006804189E+04 0.  0.
        -13    1    4    4    0    0 -0.98284694959E+02  0.35678828050E+03 -0.52102321237E+02  0.37372773701E+03  0.10566000000E+00 0.  1.
          4    1    4    4  501    0 -0.41065203678E+02 -0.49922395313E+03 -0.85799487425E+03  0.99351200827E+03  0.00000000000E+00 0.  1.
         13    1    3    3    0    0  0.51737782844E+03 -0.11962301681E+02 -0.21910806647E+03  0.56198867424E+03  0.10566000000E+00 0. -1.
         -4    1    3    3    0  503 -0.37802792980E+03  0.15439797431E+03 -0.51665624751E+03  0.65854197153E+03  0.00000000000E+00 0. -1.
<mgrwt>
<rscale>  2 0.10084989E+04</rscale>
<asrwt>0</asrwt>
<pdfrwt beam="1">  1       21 0.72454530E-01 0.10203272E+04</pdfrwt>
<pdfrwt beam="2">  1       21 0.32566399E+00 0.10203272E+04</pdfrwt>
<totfact> 0.15629739E+01</totfact>
</mgrwt>
</event>
<event>
 8    1  0.1094795E-005  0.1122187E+04  0.7818608E-02  0.8668214E-01
         21   -1    0    0  501  502  0.00000000000E+00  0.00000000000E+00  0.49366384441E+03  0.49366384441E+03  0.00000000000E+00 0. -1.
         21   -1    0    0  502  503 -0.00000000000E+00 -0.00000000000E+00 -0.25859184144E+04  0.25859184144E+04  0.00000000000E+00 0. -1.
   -9000010    2    1    2    0  503  0.38270405347E+03  0.24211917578E+03 -0.84841393179E+03  0.14043383444E+04  0.10233649877E+04 0.  0.
    9000010    2    1    2  501    0 -0.38270405347E+03 -0.24211917578E+03 -0.12438406382E+04  0.16752439144E+04  0.10267514556E+04 0.  0.
        -13    1    4    4    0    0 -0.25515872643E+03 -0.64684431827E+03 -0.71767970437E+03  0.99928860545E+03  0.10566000000E+00 0.  1.
          4    1    4    4  501    0 -0.12754532703E+03  0.40472514248E+03 -0.52616093379E+03  0.67595530891E+03  0.00000000000E+00 0.  1.
         13    1    3    3    0    0  0.19240519031E+03 -0.65778849320E+02  0.20604527635E+03  0.28948450968E+03  0.10566000000E+00 0. -1.
         -4    1    3    3    0  503  0.19029886315E+03  0.30789802510E+03 -0.10544592081E+04  0.11148538347E+04  0.00000000000E+00 0. -1.
<mgrwt>
<rscale>  2 0.11214113E+04</rscale>
<asrwt>0</asrwt>
<pdfrwt beam="1">  1       21 0.75948285E-01 0.11221865E+04</pdfrwt>
<pdfrwt beam="2">  1       21 0.39783360E+00 0.11221865E+04</pdfrwt>
<totfact> 0.42615052E+00</totfact>
</mgrwt>
</event>
<event>
 8    1  0.1094795E-005  0.1147844E+04  0.7818608E-02  0.8648749E-01
         21   -1    0    0  503  502  0.00000000000E+00  0.00000000000E+00  0.70232023738E+03  0.70232023738E+03  0.00000000000E+00 0. -1.
         21   -1    0    0  501  503 -0.00000000000E+00 -0.00000000000E+00 -0.18794510420E+04  0.18794510420E+04  0.00000000000E+00 0.  1.
    9000010    2    1    2  501    0  0.50098643205E+03  0.25449809572E+03 -0.71906623945E+03  0.13544749897E+04  0.10008943777E+04 0.  0.
   -9000010    2    1    2    0  502 -0.50098643205E+03 -0.25449809572E+03 -0.45806456513E+03  0.12272962896E+04  0.99029104353E+03 0.  0.
        -13    1    3    3    0    0 -0.67698566116E+02  0.11454205559E+03 -0.75603698404E+03  0.76765546358E+03  0.10566000000E+00 0.  1.
          4    1    3    3  501    0  0.56868499817E+03  0.13995604013E+03  0.36970744589E+02  0.58681952614E+03  0.00000000000E+00 0.  1.
         13    1    4    4    0    0 -0.35685114560E+03  0.28814970276E+03 -0.48195791780E+03  0.66532430965E+03  0.10566000000E+00 0. -1.
         -4    1    4    4    0  502 -0.14413528645E+03 -0.54264779848E+03  0.23893352666E+02  0.56197197999E+03  0.00000000000E+00 0. -1.
<mgrwt>
<rscale>  2 0.11455287E+04</rscale>
<asrwt>0</asrwt>
<pdfrwt beam="1">  1       21 0.10804927E+00 0.11478442E+04</pdfrwt>
<pdfrwt beam="2">  1       21 0.28914631E+00 0.11478442E+04</pdfrwt>
<totfact> 0.10005313E+01</totfact>
</mgrwt>
</event>
<event>
 8    1  0.1094795E-005  0.1073448E+04  0.7818608E-02  0.8710823E-01
         21   -1    0    0  503  502  0.00000000000E+00  0.00000000000E+00  0.22509040631E+04  0.22509040631E+04  0.00000000000E+00 0. -1.
         21   -1    0    0  501  503 -0.00000000000E+00 -0.00000000000E+00 -0.51833162017E+03  0.51833162017E+03  0.00000000000E+00 0. -1.
    9000010    2    1    2  501    0 -0.88916881193E+02 -0.36179317239E+03  0.66396267761E+03  0.12621950876E+04  0.10067221516E+04 0.  0.
   -9000010    2    1    2    0  502  0.88916881193E+02  0.36179317239E+03  0.10686097653E+04  0.15070405957E+04  0.99521053817E+03 0.  0.
        -13    1    3    3    0    0  0.62244630938E+02  0.10083533433E+03  0.75739588776E+03  0.76660987516E+03  0.10566000000E+00 0.  1.
          4    1    3    3  501    0 -0.15116151213E+03 -0.46262850672E+03 -0.93433210153E+02  0.49558521239E+03  0.00000000000E+00 0.  1.
         13    1    4    4    0    0 -0.40582584209E+03  0.42150731917E+02  0.19201259890E+03  0.45093253110E+03  0.10566000000E+00 0. -1.
         -4    1    4    4    0  502  0.49474272328E+03  0.31964244048E+03  0.87659716643E+03  0.10561080646E+04  0.00000000000E+00 0. -1.
<mgrwt>
<rscale>  2 0.10707404E+04</rscale>
<asrwt>0</asrwt>
<pdfrwt beam="1">  1       21 0.34629293E+00 0.10734477E+04</pdfrwt>
<pdfrwt beam="2">  1       21 0.79743328E-01 0.10734477E+04</pdfrwt>
<totfact> 0.87861299E+00</totfact>
</mgrwt>
</event>
<event>
 8    1  0.1094795E-005  0.1860514E+04  0.7818608E-02  0.8232443E-01
         21   -1    0    0  501  502  0.00000000000E+00  0.00000000000E+00  0.14758936226E+04  0.14758936226E+04  0.00000000000E+00 0. -1.
         21   -1    0    0  502  503 -0.00000000000E+00 -0.00000000000E+00 -0.24639093205E+04  0.24639093205E+04  0.00000000000E+00 0.  1.
   -9000010    2    1    2    0  503  0.79900511626E+03 -0.12939365899E+04  0.31355391798E+02  0.18183339318E+04  0.99633029277E+03 0.  0.
    9000010    2    1    2  501    0 -0.79900511626E+03  0.12939365899E+04 -0.10193710897E+04  0.21214690112E+04  0.10718359354E+04 0.  0.
        -13    1    4    4    0    0  0.20863789878E+03  0.25823018429E+03 -0.47029065904E+03  0.57566128586E+03  0.10566000000E+00 0.  1.
          4    1    4    4  501    0 -0.10076430150E+04  0.10357064057E+04 -0.54908043066E+03  0.15458077254E+04  0.00000000000E+00 0.  1.
         13    1    3    3    0    0  0.45768785309E+03 -0.93006381380E+03  0.48462862844E+03  0.11442734757E+04  0.10566000000E+00 0. -1.
         -4    1    3    3    0  503  0.34131726317E+03 -0.36387277615E+03 -0.45327323664E+03  0.67406045606E+03  0.00000000000E+00 0. -1.
<mgrwt>
<rscale>  2 0.18498096E+04</rscale>
<asrwt>0</asrwt>
<pdfrwt beam="1">  1       21 0.22706056E+00 0.18605143E+04</pdfrwt>
<pdfrwt beam="2">  1       21 0.37906297E+00 0.18605143E+04</pdfrwt>
<totfact> 0.18923000E-01</totfact>
</mgrwt>
</event>
<event>
 8    1  0.1094795E-005  0.1038302E+04  0.7818608E-02  0.8745371E-01
         21   -1    0    0  503  502  0.00000000000E+00  0.00000000000E+00  0.13923555182E+04  0.13923555182E+04  0.00000000000E+00 0. -1.
         21   -1    0    0  501  503 -0.00000000000E+00 -0.00000000000E+00 -0.75536836221E+03  0.75536836221E+03  0.00000000000E+00 0. -1.
    9000010    2    1    2  501    0 -0.16458184406E+03 -0.16356636589E+03  0.35001536555E+03  0.10957104606E+04  0.10120422511E+04 0.  0.
   -9000010    2    1    2    0  502  0.16458184406E+03  0.16356636589E+03  0.28697179046E+03  0.10520134198E+04  0.98515901632E+03 0.  0.
        -13    1    3    3    0    0  0.19346595960E+03  0.27236965157E+02 -0.28296894880E+03  0.34386387851E+03  0.10566000000E+00 0.  1.
          4    1    3    3  501    0 -0.35804780366E+03 -0.19080333105E+03  0.63298431435E+03  0.75184658213E+03  0.00000000000E+00 0.  1.
         13    1    4    4    0    0  0.32422180037E+03  0.26973820806E+03  0.57066981804E+03  0.70960730626E+03  0.10566000000E+00 0. -1.
         -4    1    4    4    0  502 -0.15963995630E+03 -0.10617184217E+03 -0.28369802758E+03  0.34240611351E+03  0.00000000000E+00 0. -1.
<mgrwt>
<rscale>  2 0.10316926E+04</rscale>
<asrwt>0</asrwt>
<pdfrwt beam="1">  1       21 0.21420854E+00 0.10383018E+04</pdfrwt>
<pdfrwt beam="2">  1       21 0.11621052E+00 0.10383018E+04</pdfrwt>
<totfact> 0.29564306E+01</totfact>
</mgrwt>
</event>
<event>
 8    1  0.1094795E-005  0.1157709E+04  0.7818608E-02  0.8644029E-01
         21   -1    0    0  501  502  0.00000000000E+00  0.00000000000E+00  0.11895156404E+04  0.11895156404E+04  0.00000000000E+00 0.  1.
         21   -1    0    0  502  503 -0.00000000000E+00 -0.00000000000E+00 -0.11312995568E+04  0.11312995568E+04  0.00000000000E+00 0.  1.
   -9000010    2    1    2    0  503 -0.58816366279E+03  0.37693270403E+02 -0.15537251545E+03  0.11435679596E+04  0.96760001180E+03 0.  0.
    9000010    2    1    2  501    0  0.58816366279E+03 -0.37693270403E+02  0.21358859901E+03  0.11772472376E+04  0.99646058227E+03 0.  0.
        -13    1    4    4    0    0  0.41802153455E+02 -0.43832567318E+02 -0.37167102742E+03  0.37657413318E+03  0.10566000000E+00 0.  1.
          4    1    4    4  501    0  0.54636150933E+03  0.61392969148E+01  0.58525962644E+03  0.80067310445E+03  0.00000000000E+00 0.  1.
         13    1    3    3    0    0 -0.23550590763E+03  0.29577696251E+03 -0.47138228725E+03  0.60427503338E+03  0.10566000000E+00 0. -1.
         -4    1    3    3    0  503 -0.35265775516E+03 -0.25808369210E+03  0.31600977180E+03  0.53929292623E+03  0.00000000000E+00 0. -1.
<mgrwt>
<rscale>  2 0.11514728E+04</rscale>
<asrwt>0</asrwt>
<pdfrwt beam="1">  1       21 0.18300241E+00 0.11577094E+04</pdfrwt>
<pdfrwt beam="2">  1       21 0.17404608E+00 0.11577094E+04</pdfrwt>
<totfact> 0.14949688E+01</totfact>
</mgrwt>
</event>
<event>
 8    1  0.1094795E-005  0.1535334E+04  0.7818608E-02  0.8392761E-01
         21   -1    0    0  503  502  0.00000000000E+00  0.00000000000E+00  0.26371951934E+04  0.26371951934E+04  0.00000000000E+00 0. -1.
         21   -1    0    0  501  503 -0.00000000000E+00 -0.00000000000E+00 -0.96205671597E+03  0.96205671597E+03  0.00000000000E+00 0.  1.
    9000010    2    1    2  501    0 -0.37265690913E+03 -0.10653460291E+04  0.31864180260E+03  0.15680509133E+04  0.10408725834E+04 0.  0.
   -9000010    2    1    2    0  502  0.37265690913E+03  0.10653460291E+04  0.13564966748E+04  0.20312009960E+04  0.10059119861E+04 0.  0.
        -13    1    3    3    0    0 -0.63744834056E+03 -0.27518049300E+03  0.67000008087E+02  0.69753401555E+03  0.10566000000E+00 0.  1.
          4    1    3    3  501    0  0.26479143143E+03 -0.79016553609E+03  0.25164179451E+03  0.87051689778E+03  0.00000000000E+00 0.  1.
         13    1    4    4    0    0  0.61932630570E+03  0.10799377200E+04  0.99685342869E+03  0.15948502505E+04  0.10566000000E+00 0. -1.
         -4    1    4    4    0  502 -0.24666939657E+03 -0.14591690913E+02  0.35964324614E+03  0.43635074555E+03  0.00000000000E+00 0. -1.
<mgrwt>
<rscale>  2 0.15294295E+04</rscale>
<asrwt>0</asrwt>
<pdfrwt beam="1">  1       21 0.40572233E+00 0.15353342E+04</pdfrwt>
<pdfrwt beam="2">  1       21 0.14800873E+00 0.15353342E+04</pdfrwt>
<totfact> 0.57179565E-01</totfact>
</mgrwt>
</event>
<event>
 8    1  0.1094795E-005  0.1176525E+04  0.7818608E-02  0.8629855E-01
         21   -1    0    0  503  502  0.00000000000E+00  0.00000000000E+00  0.13075316421E+04  0.13075316421E+04  0.00000000000E+00 0.  1.
         21   -1    0    0  501  503 -0.00000000000E+00 -0.00000000000E+00 -0.12166502437E+04  0.12166502437E+04  0.00000000000E+00 0.  1.
    9000010    2    1    2  501    0 -0.42635635969E+03  0.46258012496E+03 -0.44414428134E+03  0.12317176326E+04  0.96130331648E+03 0.  0.
   -9000010    2    1    2    0  502  0.42635635969E+03 -0.46258012496E+03  0.53502567972E+03  0.12924642532E+04  0.99420885647E+03 0.  0.
        -13    1    3    3    0    0  0.23368396653E+03  0.65476933428E+02  0.12594084854E+03  0.27341641047E+03  0.10566000000E+00 0.  1.
          4    1    3    3  501    0 -0.66004032622E+03  0.39710319153E+03 -0.57008512988E+03  0.95830122210E+03  0.00000000000E+00 0.  1.
         13    1    4    4    0    0 -0.54868997480E+02 -0.24972295463E+03 -0.24330975638E+03  0.35294731854E+03  0.10566000000E+00 0. -1.
         -4    1    4    4    0  502  0.48122535717E+03 -0.21285717034E+03  0.77833543611E+03  0.93951693462E+03  0.00000000000E+00 0. -1.
<mgrwt>
<rscale>  2 0.11695453E+04</rscale>
<asrwt>0</asrwt>
<pdfrwt beam="1">  1       21 0.20115871E+00 0.11765251E+04</pdfrwt>
<pdfrwt beam="2">  1       21 0.18717696E+00 0.11765251E+04</pdfrwt>
<totfact> 0.83405393E+00</totfact>
</mgrwt>
</event>
<event>
 8    1  0.1094795E-005  0.1086334E+04  0.7818608E-02  0.8702590E-01
         21   -1    0    0  503  502  0.00000000000E+00  0.00000000000E+00  0.10839910929E+04  0.10839910929E+04  0.00000000000E+00 0.  1.
         21   -1    0    0  501  503 -0.00000000000E+00 -0.00000000000E+00 -0.10650980523E+04  0.10650980523E+04  0.00000000000E+00 0.  1.
    9000010    2    1    2  501    0 -0.39597483227E+03 -0.14310522263E+03 -0.64749113336E+01  0.10624587963E+04  0.97544943323E+03 0.  0.
   -9000010    2    1    2    0  502  0.39597483227E+03  0.14310522263E+03  0.25367951966E+02  0.10866303489E+04  0.10014223933E+04 0.  0.
        -13    1    3    3    0    0 -0.43456714913E+03  0.35451103705E+03 -0.39797945463E+02  0.56223711201E+03  0.10566000000E+00 0.  1.
          4    1    3    3  501    0  0.38592316861E+02 -0.49761625968E+03  0.33323034129E+02  0.50022168428E+03  0.00000000000E+00 0.  1.
         13    1    4    4    0    0  0.27080011221E+03 -0.19550391636E+03  0.42992735526E+03  0.54441897841E+03  0.10566000000E+00 0. -1.
         -4    1    4    4    0  502  0.12517472006E+03  0.33860913899E+03 -0.40455940329E+03  0.54221137054E+03  0.00000000000E+00 0. -1.
<mgrwt>
<rscale>  2 0.10803105E+04</rscale>
<asrwt>0</asrwt>
<pdfrwt beam="1">  1       21 0.16676786E+00 0.10863342E+04</pdfrwt>
<pdfrwt beam="2">  1       21 0.16386124E+00 0.10863342E+04</pdfrwt>
<totfact> 0.25200152E+01</totfact>
</mgrwt>
</event>
<event>
 8    1  0.1094795E-005  0.1062037E+04  0.7818608E-02  0.8721658E-01
         21   -1    0    0  503  502  0.00000000000E+00  0.00000000000E+00  0.12868046501E+04  0.12868046501E+04  0.00000000000E+00 0. -1.
         21   -1    0    0  501  503 -0.00000000000E+00 -0.00000000000E+00 -0.87849223804E+03  0.87849223804E+03  0.00000000000E+00 0. -1.
    9000010    2    1    2  501    0 -0.36476270653E+03 -0.33896821134E+02  0.68025675585E+02  0.10642134491E+04  0.99685603084E+03 0.  0.
   -9000010    2    1    2    0  502  0.36476270653E+03  0.33896821134E+02  0.34028673645E+03  0.11010834390E+04  0.98101419462E+03 0.  0.
        -13    1    3    3    0    0 -0.53562598161E+03  0.30556204073E+03  0.22027423810E+03  0.65481608414E+03  0.10566000000E+00 0.  1.
          4    1    3    3  501    0  0.17086327509E+03 -0.33945886186E+03 -0.15224856252E+03  0.40939736499E+03  0.00000000000E+00 0.  1.
         13    1    4    4    0    0 -0.13401053522E+03 -0.31927369976E+03 -0.84978891583E+02  0.35653322718E+03  0.10566000000E+00 0. -1.
         -4    1    4    4    0  502  0.49877324175E+03  0.35317052089E+03  0.42526562803E+03  0.74455021180E+03  0.00000000000E+00 0. -1.
<mgrwt>
<rscale>  2 0.10583036E+04</rscale>
<asrwt>0</asrwt>
<pdfrwt beam="1">  1       21 0.19796995E+00 0.10620371E+04</pdfrwt>
<pdfrwt beam="2">  1       21 0.13515265E+00 0.10620371E+04</pdfrwt>
<totfact> 0.25533957E+01</totfact>
</mgrwt>
</event>
<event>
 8    1  0.1094795E-005  0.1209727E+04  0.7818608E-02  0.8600555E-01
         21   -1    0    0  503  502  0.00000000000E+00  0.00000000000E+00  0.12511345338E+04  0.12511345338E+04  0.00000000000E+00 0. -1.
         21   -1    0    0  501  503 -0.00000000000E+00 -0.00000000000E+00 -0.13544438281E+04  0.13544438281E+04  0.00000000000E+00 0.  1.
    9000010    2    1    2  501    0  0.12599760205E+03  0.66565352215E+03  0.43792291164E+03  0.12865517516E+04  0.10022319721E+04 0.  0.
   -9000010    2    1    2    0  502 -0.12599760205E+03 -0.66565352215E+03 -0.54123220601E+03  0.13190266102E+04  0.99394612049E+03 0.  0.
        -13    1    3    3    0    0  0.43532578887E+03  0.37680362229E+03 -0.11814277916E+03  0.58774759860E+03  0.10566000000E+00 0.  1.
          4    1    3    3  501    0 -0.30932818682E+03  0.28884989985E+03  0.55606569080E+03  0.69880415303E+03  0.00000000000E+00 0.  1.
         13    1    4    4    0    0  0.12215272398E+02 -0.72781896450E+03  0.29497189421E+02  0.72851887643E+03  0.10566000000E+00 0. -1.
         -4    1    4    4    0  502 -0.13821287445E+03  0.62165442355E+02 -0.57072939543E+03  0.59050773382E+03  0.00000000000E+00 0. -1.
<mgrwt>
<rscale>  2 0.12080092E+04</rscale>
<asrwt>0</asrwt>
<pdfrwt beam="1">  1       21 0.19248224E+00 0.12097268E+04</pdfrwt>
<pdfrwt beam="2">  1       21 0.20837597E+00 0.12097268E+04</pdfrwt>
<totfact> 0.66048791E+00</totfact>
</mgrwt>
</event>
<event>
 8    1  0.1094795E-005  0.1081736E+04  0.7818608E-02  0.8704829E-01
         21   -1    0    0  501  502  0.00000000000E+00  0.00000000000E+00  0.64506613138E+03  0.64506613138E+03  0.00000000000E+00 0.  1.
         21   -1    0    0  502  503 -0.00000000000E+00 -0.00000000000E+00 -0.19079318164E+04  0.19079318164E+04  0.00000000000E+00 0.  1.
   -9000010    2    1    2    0  503 -0.18414726125E+03  0.34180663505E+03 -0.95699921313E+03  0.14442990966E+04  0.10096585546E+04 0.  0.
    9000010    2    1    2  501    0  0.18414726125E+03 -0.34180663505E+03 -0.30586647185E+03  0.11086988511E+04  0.99242977297E+03 0.  0.
        -13    1    4    4    0    0 -0.15178378617E+03  0.10755101949E+03 -0.48524054003E+03  0.51967675760E+03  0.10566000000E+00 0.  1.
          4    1    4    4  501    0  0.33593104742E+03 -0.44935765454E+03  0.17937406818E+03  0.58902209351E+03  0.00000000000E+00 0.  1.
         13    1    3    3    0    0 -0.27829330982E+02  0.54936661798E+03 -0.11346479635E+03  0.56165151455E+03  0.10566000000E+00 0. -1.
         -4    1    3    3    0  503 -0.15631793027E+03 -0.20755998293E+03 -0.84353441678E+03  0.88264758207E+03  0.00000000000E+00 0. -1.
<mgrwt>
<rscale>  2 0.10776975E+04</rscale>
<asrwt>0</asrwt>
<pdfrwt beam="1">  1       21 0.99240944E-01 0.10817358E+04</pdfrwt>
<pdfrwt beam="2">  1       21 0.29352797E+00 0.10817358E+04</pdfrwt>
<totfact> 0.11840989E+01</totfact>
</mgrwt>
</event>
<event>
 8    1  0.1094795E-005  0.1061219E+04  0.7818608E-02  0.8724813E-01
         21   -1    0    0  501  502  0.00000000000E+00  0.00000000000E+00  0.73528569296E+03  0.73528569296E+03  0.00000000000E+00 0.  1.
         21   -1    0    0  502  503 -0.00000000000E+00 -0.00000000000E+00 -0.14947249722E+04  0.14947249722E+04  0.00000000000E+00 0.  1.
   -9000010    2    1    2    0  503  0.31548901283E+03  0.17093930091E+03 -0.38259646040E+03  0.11038682767E+04  0.97128345964E+03 0.  0.
    9000010    2    1    2  501    0 -0.31548901283E+03 -0.17093930091E+03 -0.37684281886E+03  0.11261423885E+04  0.99871547859E+03 0.  0.
        -13    1    4    4    0    0 -0.79544013360E+01 -0.54824364648E+03 -0.32311408001E+03  0.63642524170E+03  0.10566000000E+00 0.  1.
          4    1    4    4  501    0 -0.30753461150E+03  0.37730434557E+03 -0.53728738840E+02  0.48971714676E+03  0.00000000000E+00 0.  1.
         13    1    3    3    0    0  0.12131084800E+03  0.55442281796E+03 -0.36275722194E+03  0.67356795956E+03  0.10566000000E+00 0. -1.
         -4    1    3    3    0  503  0.19417816483E+03 -0.38348351705E+03 -0.19839238457E+02  0.43030031713E+03  0.00000000000E+00 0. -1.
<mgrwt>
<rscale>  2 0.10547160E+04</rscale>
<asrwt>0</asrwt>
<pdfrwt beam="1">  1       21 0.11312088E+00 0.10612192E+04</pdfrwt>
<pdfrwt beam="2">  1       21 0.22995769E+00 0.10612192E+04</pdfrwt>
<totfact> 0.24122144E+01</totfact>
</mgrwt>
</event>
<event>
 8    1  0.1094795E-005  0.1132256E+04  0.7818608E-02  0.8667708E-01
         21   -1    0    0  501  502  0.00000000000E+00  0.00000000000E+00  0.76875001481E+03  0.76875001481E+03  0.00000000000E+00 0.  1.
         21   -1    0    0  502  503 -0.00000000000E+00 -0.00000000000E+00 -0.16254008053E+04  0.16254008053E+04  0.00000000000E+00 0.  1.
   -9000010    2    1    2    0  503 -0.44445320236E+03  0.26915854826E+02 -0.31484813395E+03  0.11752161026E+04  0.10410285434E+04 0.  0.
    9000010    2    1    2  501    0  0.44445320236E+03 -0.26915854826E+02 -0.54180265653E+03  0.12189347175E+04  0.99698977655E+03 0.  0.
        -13    1    4    4    0    0  0.43386635238E+03 -0.11270163404E+03  0.18650483972E+03  0.48551594870E+03  0.10566000000E+00 0.  1.
          4    1    4    4  501    0  0.10586849987E+02  0.85785779217E+02 -0.72830749625E+03  0.73341876878E+03  0.00000000000E+00 0.  1.
         13    1    3    3    0    0 -0.94411538956E+02 -0.18798649148E+03  0.34140999347E+03  0.40101527960E+03  0.10566000000E+00 0. -1.
         -4    1    3    3    0  503 -0.35004166341E+03  0.21490234630E+03 -0.65625812741E+03  0.77420082302E+03  0.00000000000E+00 0. -1.
<mgrwt>
<rscale>  2 0.11220300E+04</rscale>
<asrwt>0</asrwt>
<pdfrwt beam="1">  1       21 0.11826924E+00 0.11322560E+04</pdfrwt>
<pdfrwt beam="2">  1       21 0.25006166E+00 0.11322560E+04</pdfrwt>
<totfact> 0.14948547E+01</totfact>
</mgrwt>
</event>
<event>
 8    1  0.1094795E-005  0.1056677E+04  0.7818608E-02  0.8730488E-01
         21   -1    0    0  501  502  0.00000000000E+00  0.00000000000E+00  0.53220851879E+03  0.53220851879E+03  0.00000000000E+00 0.  1.
         21   -1    0    0  502  503 -0.00000000000E+00 -0.00000000000E+00 -0.20346426144E+04  0.20346426144E+04  0.00000000000E+00 0.  1.
   -9000010    2    1    2    0  503 -0.25983450153E+03 -0.14664639763E+03 -0.77839031201E+03  0.12859114782E+04  0.97911067694E+03 0.  0.
    9000010    2    1    2  501    0  0.25983450153E+03  0.14664639763E+03 -0.72404378356E+03  0.12809396550E+04  0.10136803565E+04 0.  0.
        -13    1    4    4    0    0  0.27494783117E+03 -0.14817074371E+03  0.15856107203E+03  0.35027489759E+03  0.10566000000E+00 0.  1.
          4    1    4    4  501    0 -0.15113329641E+02  0.29481714133E+03 -0.88260485559E+03  0.93066475740E+03  0.00000000000E+00 0.  1.
         13    1    3    3    0    0  0.37037514423E+03  0.72640937267E+01 -0.22663616077E+03  0.43427465394E+03  0.10566000000E+00 0. -1.
         -4    1    3    3    0  503 -0.63020964576E+03 -0.15391049135E+03 -0.55175415124E+03  0.85163682422E+03  0.00000000000E+00 0. -1.
<mgrwt>
<rscale>  2 0.10482991E+04</rscale>
<asrwt>0</asrwt>
<pdfrwt beam="1">  1       21 0.81878234E-01 0.10566773E+04</pdfrwt>
<pdfrwt beam="2">  1       21 0.31302194E+00 0.10566773E+04</pdfrwt>
<totfact> 0.14154306E+01</totfact>
</mgrwt>
</event>
<event>
 8    1  0.1094795E-005  0.1121871E+04  0.7818608E-02  0.8670097E-01
         21   -1    0    0  503  502  0.00000000000E+00  0.00000000000E+00  0.74701349064E+03  0.74701349064E+03  0.00000000000E+00 0.  1.
         21   -1    0    0  501  503 -0.00000000000E+00 -0.00000000000E+00 -0.17249578821E+04  0.17249578821E+04  0.00000000000E+00 0.  1.
    9000010    2    1    2  501    0  0.91356201711E+02 -0.47369225422E+03 -0.71053279886E+03  0.13186704881E+04  0.10006521326E+04 0.  0.
   -9000010    2    1    2    0  502 -0.91356201711E+02  0.47369225422E+03 -0.26741159260E+03  0.11533008847E+04  0.10128492797E+04 0.  0.
        -13    1    3    3    0    0  0.45945304688E+03 -0.15239782749E+03 -0.67249568672E+03  0.82859680179E+03  0.10566000000E+00 0.  1.
          4    1    3    3  501    0 -0.36809684517E+03 -0.32129442673E+03 -0.38037112140E+02  0.49007368627E+03  0.00000000000E+00 0.  1.
         13    1    4    4    0    0  0.44343889100E+03  0.20861770999E+03  0.20746804047E+02  0.49049958208E+03  0.10566000000E+00 0. -1.
         -4    1    4    4    0  502 -0.53479509271E+03  0.26507454423E+03 -0.28815839665E+03  0.66280130262E+03  0.00000000000E+00 0. -1.
<mgrwt>
<rscale>  2 0.11191107E+04</rscale>
<asrwt>0</asrwt>
<pdfrwt beam="1">  1       21 0.11492515E+00 0.11218707E+04</pdfrwt>
<pdfrwt beam="2">  1       21 0.26537814E+00 0.11218707E+04</pdfrwt>
<totfact> 0.12567549E+01</totfact>
</mgrwt>
</event>
<event>
 8    1  0.1094795E-005  0.1107187E+04  0.7818608E-02  0.8682698E-01
         21   -1    0    0  503  502  0.00000000000E+00  0.00000000000E+00  0.14149844548E+04  0.14149844548E+04  0.00000000000E+00 0.  1.
         21   -1    0    0  501  503 -0.00000000000E+00 -0.00000000000E+00 -0.85808200527E+03  0.85808200527E+03  0.00000000000E+00 0.  1.
    9000010    2    1    2  501    0 -0.44772948025E+03 -0.14139449496E+02  0.22447941453E+03  0.11297145286E+04  0.10125227391E+04 0.  0.
   -9000010    2    1    2    0  502  0.44772948025E+03  0.14139449496E+02  0.33242303503E+03  0.11433519315E+04  0.99804155899E+03 0.  0.
        -13    1    3    3    0    0 -0.73795458017E+02 -0.30932898410E+03 -0.28868541556E+03  0.42949909237E+03  0.10566000000E+00 0.  1.
          4    1    3    3  501    0 -0.37393402223E+03  0.29518953461E+03  0.51316483008E+03  0.70021543625E+03  0.00000000000E+00 0.  1.
         13    1    4    4    0    0  0.11137088573E+03 -0.19078650743E+03 -0.31547195964E+03  0.38513054162E+03  0.10566000000E+00 0. -1.
         -4    1    4    4    0  502  0.33635859452E+03  0.20492595692E+03  0.64789499467E+03  0.75822138986E+03  0.00000000000E+00 0. -1.
<mgrwt>
<rscale>  2 0.11038656E+04</rscale>
<asrwt>0</asrwt>
<pdfrwt beam="1">  1       21 0.21768992E+00 0.11071874E+04</pdfrwt>
<pdfrwt beam="2">  1       21 0.13201262E+00 0.11071874E+04</pdfrwt>
<totfact> 0.19096815E+01</totfact>
</mgrwt>
</event>
<event>
 8    1  0.1094795E-005  0.1555182E+04  0.7818608E-02  0.8379608E-01
         21   -1    0    0  501  502  0.00000000000E+00  0.00000000000E+00  0.20318423424E+04  0.20318423424E+04  0.00000000000E+00 0.  1.
         21   -1    0    0  502  503 -0.00000000000E+00 -0.00000000000E+00 -0.12782555558E+04  0.12782555558E+04  0.00000000000E+00 0. -1.
   -9000010    2    1    2    0  503  0.78669407184E+03  0.87857064095E+03 -0.73990484314E+02  0.15484294579E+04  0.10006923905E+04 0.  0.
    9000010    2    1    2  501    0 -0.78669407184E+03 -0.87857064095E+03  0.82757727085E+03  0.17616684403E+04  0.10138134052E+04 0.  0.
        -13    1    4    4    0    0 -0.73258729243E+02  0.15825396348E+03  0.39339060662E+03  0.43031074691E+03  0.10566000000E+00 0.  1.
          4    1    4    4  501    0 -0.71343534259E+03 -0.10368246044E+04  0.43418666423E+03  0.13313576934E+04  0.00000000000E+00 0.  1.
         13    1    3    3    0    0 -0.11626564960E+03  0.45063578939E+03 -0.25841041727E+03  0.53232158595E+03  0.10566000000E+00 0. -1.
         -4    1    3    3    0  503  0.90295972144E+03  0.42793485156E+03  0.18441993295E+03  0.10161078719E+04  0.00000000000E+00 0. -1.
<mgrwt>
<rscale>  2 0.15530474E+04</rscale>
<asrwt>0</asrwt>
<pdfrwt beam="1">  1       21 0.31259113E+00 0.15551822E+04</pdfrwt>
<pdfrwt beam="2">  1       21 0.19665470E+00 0.15551822E+04</pdfrwt>
<totfact> 0.99802766E-01</totfact>
</mgrwt>
</event>
<event>
 8    1  0.1094795E-005  0.1264194E+04  0.7818608E-02  0.8563316E-01
         21   -1    0    0  503  502  0.00000000000E+00  0.00000000000E+00  0.25658425611E+04  0.25658425611E+04  0.00000000000E+00 0.  1.
         21   -1    0    0  501  503 -0.00000000000E+00 -0.00000000000E+00 -0.71792082422E+03  0.71792082422E+03  0.00000000000E+00 0.  1.
    9000010    2    1    2  501    0 -0.18682812735E+03  0.74150417779E+03  0.15453035995E+04  0.19838541945E+04  0.98131598143E+03 0.  0.
   -9000010    2    1    2    0  502  0.18682812735E+03 -0.74150417779E+03  0.30261813731E+03  0.12999091908E+04  0.10067040143E+04 0.  0.
        -13    1    3    3    0    0  0.67464968888E+02 -0.17231909615E+03  0.66321177594E+03  0.68854576016E+03  0.10566000000E+00 0.  1.
          4    1    3    3  501    0 -0.25429309624E+03  0.91382327394E+03  0.88209182357E+03  0.12953084343E+04  0.00000000000E+00 0.  1.
         13    1    4    4    0    0 -0.34330174118E+03 -0.29368722827E+03  0.39464300041E+03  0.59987613929E+03  0.10566000000E+00 0. -1.
         -4    1    4    4    0  502  0.53012986853E+03 -0.44781694952E+03 -0.92024863101E+02  0.70003305152E+03  0.00000000000E+00 0. -1.
<mgrwt>
<rscale>  2 0.12591330E+04</rscale>
<asrwt>0</asrwt>
<pdfrwt beam="1">  1       21 0.39474501E+00 0.12641939E+04</pdfrwt>
<pdfrwt beam="2">  1       21 0.11044936E+00 0.12641939E+04</pdfrwt>
<totfact> 0.16668177E+00</totfact>
</mgrwt>
</event>
<event>
 8    1  0.1094795E-005  0.1141053E+04  0.7818608E-02  0.8657971E-01
         21   -1    0    0  501  502  0.00000000000E+00  0.00000000000E+00  0.83355131018E+03  0.83355131018E+03  0.00000000000E+00 0.  1.
         21   -1    0    0  502  503 -0.00000000000E+00 -0.00000000000E+00 -0.15361388833E+04  0.15361388833E+04  0.00000000000E+00 0.  1.
   -9000010    2    1    2    0  503  0.22845711151E+03 -0.48220293034E+03 -0.46047965003E+03  0.12304647018E+04  0.10086077317E+04 0.  0.
    9000010    2    1    2  501    0 -0.22845711151E+03  0.48220293034E+03 -0.24210792308E+03  0.11392254917E+04  0.97698830940E+03 0.  0.
        -13    1    4    4    0    0  0.12831497569E+01  0.55791773530E+03  0.23414682131E+03  0.60506081589E+03  0.10566000000E+00 0.  1.
          4    1    4    4  501    0 -0.22974026127E+03 -0.75714804954E+02 -0.47625474439E+03  0.53416467581E+03  0.00000000000E+00 0.  1.
         13    1    3    3    0    0  0.29392267433E+03  0.15796753322E+03  0.12902221441E+03  0.35775833046E+03  0.10566000000E+00 0. -1.
         -4    1    3    3    0  503 -0.65465562826E+02 -0.64017046357E+03 -0.58950186444E+03  0.87270637130E+03  0.00000000000E+00 0. -1.
<mgrwt>
<rscale>  2 0.11340255E+04</rscale>
<asrwt>0</asrwt>
<pdfrwt beam="1">  1       21 0.12823866E+00 0.11410530E+04</pdfrwt>
<pdfrwt beam="2">  1       21 0.23632906E+00 0.11410530E+04</pdfrwt>
<totfact> 0.14960334E+01</totfact>
</mgrwt>
</event>
<event>
 8    1  0.1094795E-005  0.1176479E+04  0.7818608E-02  0.8629182E-01
         21   -1    0    0  501  502  0.00000000000E+00  0.00000000000E+00  0.55765166423E+03  0.55765166423E+03  0.00000000000E+00 0.  1.
         21   -1    0    0  502  503 -0.00000000000E+00 -0.00000000000E+00 -0.26112835514E+04  0.26112835514E+04  0.00000000000E+00 0.  1.
   -9000010    2    1    2    0  503 -0.58050131721E+03 -0.17897298627E+03 -0.62094446314E+03  0.13302913056E+04  0.10075166610E+04 0.  0.
    9000010    2    1    2  501    0  0.58050131721E+03  0.17897298627E+03 -0.14326874240E+04  0.18386439101E+04  0.97928803933E+03 0.  0.
        -13    1    4    4    0    0  0.77615196922E+03 -0.68096308741E+02 -0.72636850677E+03  0.10652043022E+04  0.10566000000E+00 0.  1.
          4    1    4    4  501    0 -0.19565065202E+03  0.24706929501E+03 -0.70631891728E+03  0.77343960790E+03  0.00000000000E+00 0.  1.
         13    1    3    3    0    0 -0.78208214241E+03 -0.48236415763E+02 -0.14462203201E+03  0.79680284424E+03  0.10566000000E+00 0. -1.
         -4    1    3    3    0  503  0.20158082520E+03 -0.13073657051E+03 -0.47632243113E+03  0.53348846131E+03  0.00000000000E+00 0. -1.
<mgrwt>
<rscale>  2 0.11704117E+04</rscale>
<asrwt>0</asrwt>
<pdfrwt beam="1">  1       21 0.85792564E-01 0.11764790E+04</pdfrwt>
<pdfrwt beam="2">  1       21 0.40173593E+00 0.11764790E+04</pdfrwt>
<totfact> 0.29343159E+00</totfact>
</mgrwt>
</event>
<event>
 8    1  0.1094795E-005  0.1118324E+04  0.7818608E-02  0.8674939E-01
         21   -1    0    0  501  502  0.00000000000E+00  0.00000000000E+00  0.17387815048E+04  0.17387815048E+04  0.00000000000E+00 0. -1.
         21   -1    0    0  502  503 -0.00000000000E+00 -0.00000000000E+00 -0.72611100364E+03  0.72611100364E+03  0.00000000000E+00 0. -1.
   -9000010    2    1    2    0  503 -0.41351723808E+03 -0.14254590789E+03  0.29823331091E+03  0.11378400330E+04  0.10071846856E+04 0.  0.
    9000010    2    1    2  501    0  0.41351723808E+03  0.14254590789E+03  0.71443719026E+03  0.13270524755E+04  0.10292385204E+04 0.  0.
        -13    1    4    4    0    0 -0.28827549307E+02  0.39449343870E+03 -0.60217129406E+02  0.40010275507E+03  0.10566000000E+00 0.  1.
          4    1    4    4  501    0  0.44234478739E+03 -0.25194753081E+03  0.77465431966E+03  0.92694972042E+03  0.00000000000E+00 0.  1.
         13    1    3    3    0    0  0.32759475272E+03 -0.14098026656E+03  0.84370946907E+02  0.36648632364E+03  0.10566000000E+00 0. -1.
         -4    1    3    3    0  503 -0.74111199080E+03 -0.15656413354E+01  0.21386236401E+03  0.77135370932E+03  0.00000000000E+00 0. -1.
<mgrwt>
<rscale>  2 0.11132231E+04</rscale>
<asrwt>0</asrwt>
<pdfrwt beam="1">  1       21 0.26750485E+00 0.11183236E+04</pdfrwt>
<pdfrwt beam="2">  1       21 0.11170939E+00 0.11183236E+04</pdfrwt>
<totfact> 0.13126529E+01</totfact>
</mgrwt>
</event>
<event>
 8    1  0.1094795E-005  0.1023913E+04  0.7818608E-02  0.8756266E-01
         21   -1    0    0  501  502  0.00000000000E+00  0.00000000000E+00  0.84366522460E+03  0.84366522460E+03  0.00000000000E+00 0.  1.
         21   -1    0    0  502  503 -0.00000000000E+00 -0.00000000000E+00 -0.14080313368E+04  0.14080313368E+04  0.00000000000E+00 0.  1.
   -9000010    2    1    2    0  503  0.26653185523E+03 -0.16131367588E+03 -0.69274167018E+03  0.12362396421E+04  0.97536459813E+03 0.  0.
    9000010    2    1    2  501    0 -0.26653185523E+03  0.16131367588E+03  0.12837555797E+03  0.10154569193E+04  0.95792021545E+03 0.  0.
        -13    1    4    4    0    0 -0.37095031436E+03  0.50155882211E+03 -0.32934684585E+02  0.62470000190E+03  0.10566000000E+00 0.  1.
          4    1    4    4  501    0  0.10441845913E+03 -0.34024514623E+03  0.16131024255E+03  0.39075691739E+03  0.00000000000E+00 0.  1.
         13    1    3    3    0    0 -0.69892929709E+02 -0.10270884965E+03 -0.85088599584E+03  0.85990762207E+03  0.10566000000E+00 0. -1.
         -4    1    3    3    0  503  0.33642478494E+03 -0.58604826231E+02  0.15814432566E+03  0.37633202005E+03  0.00000000000E+00 0. -1.
<mgrwt>
<rscale>  2 0.10197365E+04</rscale>
<asrwt>0</asrwt>
<pdfrwt beam="1">  1       21 0.12979465E+00 0.10239128E+04</pdfrwt>
<pdfrwt beam="2">  1       21 0.21662020E+00 0.10239128E+04</pdfrwt>
<totfact> 0.20815627E+01</totfact>
</mgrwt>
</event>
<event>
 8    1  0.1094795E-005  0.1094890E+04  0.7818608E-02  0.8701205E-01
         21   -1    0    0  501  502  0.00000000000E+00  0.00000000000E+00  0.17045253451E+04  0.17045253451E+04  0.00000000000E+00 0. -1.
         21   -1    0    0  502  503 -0.00000000000E+00 -0.00000000000E+00 -0.71868724453E+03  0.71868724453E+03  0.00000000000E+00 0. -1.
   -9000010    2    1    2    0  503 -0.40152305296E+03  0.80220070476E+02  0.81600700763E+03  0.13655223429E+04  0.10154446370E+04 0.  0.
    9000010    2    1    2  501    0  0.40152305296E+03 -0.80220070476E+02  0.16983109297E+03  0.10576902467E+04  0.96031767456E+03 0.  0.
        -13    1    4    4    0    0  0.13983760974E+03 -0.24270656760E+03  0.52041516098E+03  0.59101014035E+03  0.10566000000E+00 0.  1.
          4    1    4    4  501    0  0.26168544321E+03  0.16248649712E+03 -0.35058406800E+03  0.46668010636E+03  0.00000000000E+00 0.  1.
         13    1    3    3    0    0 -0.14783292661E+03  0.23659405371E+03  0.98443831625E+03  0.10232058102E+04  0.10566000000E+00 0. -1.
         -4    1    3    3    0  503 -0.25369012635E+03 -0.15637398323E+03 -0.16843130863E+03  0.34231653271E+03  0.00000000000E+00 0. -1.
<mgrwt>
<rscale>  2 0.10819308E+04</rscale>
<asrwt>0</asrwt>
<pdfrwt beam="1">  1       21 0.26223467E+00 0.10948899E+04</pdfrwt>
<pdfrwt beam="2">  1       21 0.11056727E+00 0.10948899E+04</pdfrwt>
<totfact> 0.14804038E+01</totfact>
</mgrwt>
</event>
<event>
 8    1  0.1094795E-005  0.1054811E+04  0.7818608E-02  0.8727481E-01
         21   -1    0    0  503  502  0.00000000000E+00  0.00000000000E+00  0.92752543347E+03  0.92752543347E+03  0.00000000000E+00 0. -1.
         21   -1    0    0  501  503 -0.00000000000E+00 -0.00000000000E+00 -0.12371996208E+04  0.12371996208E+04  0.00000000000E+00 0. -1.
    9000010    2    1    2  501    0 -0.32291992834E+03  0.32398952690E+02 -0.37700269967E+03  0.11201590946E+04  0.10036425605E+04 0.  0.
   -9000010    2    1    2    0  502  0.32291992834E+03 -0.32398952690E+02  0.67328512338E+02  0.10445659597E+04  0.99058464724E+03 0.  0.
        -13    1    3    3    0    0 -0.26162916557E+02  0.31898689693E+03 -0.57842095016E+03  0.66106576478E+03  0.10566000000E+00 0.  1.
          4    1    3    3  501    0 -0.29675701179E+03 -0.28658794424E+03  0.20141825049E+03  0.45909332979E+03  0.00000000000E+00 0.  1.
         13    1    4    4    0    0 -0.21920599021E+03  0.16344144859E+03  0.31506434575E+03  0.41716894226E+03  0.10566000000E+00 0. -1.
         -4    1    4    4    0  502  0.54212591856E+03 -0.19584040128E+03 -0.24773583341E+03  0.62739701745E+03  0.00000000000E+00 0. -1.
<mgrwt>
<rscale>  2 0.10516926E+04</rscale>
<asrwt>0</asrwt>
<pdfrwt beam="1">  1       21 0.14269622E+00 0.10548106E+04</pdfrwt>
<pdfrwt beam="2">  1       21 0.19033840E+00 0.10548106E+04</pdfrwt>
<totfact> 0.25001140E+01</totfact>
</mgrwt>
</event>
<event>
 8    1  0.1094795E-005  0.1097072E+04  0.7818608E-02  0.8691501E-01
         21   -1    0    0  501  502  0.00000000000E+00  0.00000000000E+00  0.62428359843E+03  0.62428359843E+03  0.00000000000E+00 0. -1.
         21   -1    0    0  502  503 -0.00000000000E+00 -0.00000000000E+00 -0.19310523449E+04  0.19310523449E+04  0.00000000000E+00 0. -1.
   -9000010    2    1    2    0  503 -0.41434996006E+03 -0.94984527266E+02 -0.81424504798E+03  0.13662214605E+04  0.10113644898E+04 0.  0.
    9000010    2    1    2  501    0  0.41434996006E+03  0.94984527266E+02 -0.49252369852E+03  0.11891144828E+04  0.99534200646E+03 0.  0.
        -13    1    4    4    0    0 -0.15154725552E+03 -0.23674820240E+03  0.10669017808E+03  0.30066440969E+03  0.10566000000E+00 0.  1.
          4    1    4    4  501    0  0.56589721557E+03  0.33173272966E+03 -0.59921387660E+03  0.88845007313E+03  0.00000000000E+00 0.  1.
         13    1    3    3    0    0 -0.51995484723E+03 -0.47171173999E+03 -0.46773035312E+03  0.84358562292E+03  0.10566000000E+00 0. -1.
         -4    1    3    3    0  503  0.10560488717E+03  0.37672721273E+03 -0.34651469486E+03  0.52263583761E+03  0.00000000000E+00 0. -1.
<mgrwt>
<rscale>  2 0.10933646E+04</rscale>
<asrwt>0</asrwt>
<pdfrwt beam="1">  1       21 0.96043631E-01 0.10970716E+04</pdfrwt>
<pdfrwt beam="2">  1       21 0.29708497E+00 0.10970716E+04</pdfrwt>
<totfact> 0.12120441E+01</totfact>
</mgrwt>
</event>
<event>
 8    1  0.1094795E-005  0.1075428E+04  0.7818608E-02  0.8708449E-01
         21   -1    0    0  503  502  0.00000000000E+00  0.00000000000E+00  0.64388664953E+03  0.64388664953E+03  0.00000000000E+00 0.  1.
         21   -1    0    0  501  503 -0.00000000000E+00 -0.00000000000E+00 -0.19529978450E+04  0.19529978450E+04  0.00000000000E+00 0. -1.
    9000010    2    1    2  501    0  0.80710229149E+02  0.37364786628E+03 -0.10394522588E+04  0.14956623225E+04  0.10051954614E+04 0.  0.
   -9000010    2    1    2    0  502 -0.80710229149E+02 -0.37364786628E+03 -0.26965893667E+03  0.11012221720E+04  0.99691898418E+03 0.  0.
        -13    1    3    3    0    0  0.10688285617E+03  0.52368522067E+03 -0.11755875950E+04  0.12913854421E+04  0.10566000000E+00 0.  1.
          4    1    3    3  501    0 -0.26172627024E+02 -0.15003735439E+03  0.13613533619E+03  0.20427688043E+03  0.00000000000E+00 0.  1.
         13    1    4    4    0    0  0.33328948906E+03 -0.22693024314E+03 -0.46932146837E+03  0.61874216812E+03  0.10566000000E+00 0. -1.
         -4    1    4    4    0  502 -0.41399971821E+03 -0.14671762314E+03  0.19966253170E+03  0.48248000392E+03  0.00000000000E+00 0. -1.
<mgrwt>
<rscale>  2 0.10734895E+04</rscale>
<asrwt>0</asrwt>
<pdfrwt beam="1">  1       21 0.99059484E-01 0.10754277E+04</pdfrwt>
<pdfrwt beam="2">  1       21 0.30046121E+00 0.10754277E+04</pdfrwt>
<totfact> 0.10639403E+01</totfact>
</mgrwt>
</event>
<event>
 8    1  0.1094795E-005  0.1023361E+04  0.7818608E-02  0.8753951E-01
         21   -1    0    0  503  502  0.00000000000E+00  0.00000000000E+00  0.17374684466E+04  0.17374684466E+04  0.00000000000E+00 0.  1.
         21   -1    0    0  501  503 -0.00000000000E+00 -0.00000000000E+00 -0.60018253462E+03  0.60018253462E+03  0.00000000000E+00 0.  1.
    9000010    2    1    2  501    0  0.25591730470E+03 -0.12547963792E+03  0.56523453297E+03  0.11690842998E+04  0.98286785297E+03 0.  0.
   -9000010    2    1    2    0  502 -0.25591730470E+03  0.12547963792E+03  0.57205137898E+03  0.11685666814E+04  0.97829775747E+03 0.  0.
        -13    1    3    3    0    0  0.50492949338E+03 -0.25091964718E+03  0.66599006464E+03  0.87261517291E+03  0.10566000000E+00 0.  1.
          4    1    3    3  501    0 -0.24901218868E+03  0.12544000926E+03 -0.10075553167E+03  0.29646912689E+03  0.00000000000E+00 0.  1.
         13    1    4    4    0    0 -0.56861139613E+03  0.29762157888E+03  0.25315323502E+03  0.68991600618E+03  0.10566000000E+00 0. -1.
         -4    1    4    4    0  502  0.31269409143E+03 -0.17214194097E+03  0.31889814396E+03  0.47865067520E+03  0.00000000000E+00 0. -1.
<mgrwt>
<rscale>  2 0.10222623E+04</rscale>
<asrwt>0</asrwt>
<pdfrwt beam="1">  1       21 0.26730284E+00 0.10233611E+04</pdfrwt>
<pdfrwt beam="2">  1       21 0.92335775E-01 0.10233611E+04</pdfrwt>
<totfact> 0.22200138E+01</totfact>
</mgrwt>
</event>
<event>
 8    1  0.1094795E-005  0.1261979E+04  0.7818608E-02  0.8575266E-01
         21   -1    0    0  501  502  0.00000000000E+00  0.00000000000E+00  0.16055777896E+04  0.16055777896E+04  0.00000000000E+00 0.  1.
         21   -1    0    0  502  503 -0.00000000000E+00 -0.00000000000E+00 -0.95597313286E+03  0.95597313286E+03  0.00000000000E+00 0.  1.
   -9000010    2    1    2    0  503 -0.70563203952E+03  0.33028025373E+03  0.51413953902E+03  0.12923222783E+04  0.89373138262E+03 0.  0.
    9000010    2    1    2  501    0  0.70563203952E+03 -0.33028025373E+03  0.13546511766E+03  0.12692286441E+04  0.99276831721E+03 0.  0.
        -13    1    4    4    0    0  0.36330979820E+03 -0.62049516882E+03 -0.15379841056E+03  0.73529737267E+03  0.10566000000E+00 0.  1.
          4    1    4    4  501    0  0.34232224132E+03  0.29021491509E+03  0.28926352822E+03  0.53393127142E+03  0.00000000000E+00 0.  1.
         13    1    3    3    0    0 -0.20016314996E+02  0.31099670302E+02  0.54247702098E+03  0.54373630725E+03  0.10566000000E+00 0. -1.
         -4    1    3    3    0  503 -0.68561572453E+03  0.29918058343E+03 -0.28337481961E+02  0.74858597108E+03  0.00000000000E+00 0. -1.
<mgrwt>
<rscale>  2 0.12424469E+04</rscale>
<asrwt>0</asrwt>
<pdfrwt beam="1">  1       21 0.24701197E+00 0.12619788E+04</pdfrwt>
<pdfrwt beam="2">  1       21 0.14707279E+00 0.12619788E+04</pdfrwt>
<totfact> 0.81155616E+00</totfact>
</mgrwt>
</event>
<event>
 8    1  0.1094795E-005  0.1126873E+04  0.7818608E-02  0.8663841E-01
         21   -1    0    0  501  502  0.00000000000E+00  0.00000000000E+00  0.60258111554E+03  0.60258111554E+03  0.00000000000E+00 0.  1.
         21   -1    0    0  502  503 -0.00000000000E+00 -0.00000000000E+00 -0.21393398663E+04  0.21393398663E+04  0.00000000000E+00 0.  1.
   -9000010    2    1    2    0  503 -0.45039522354E+03  0.24177943376E+03 -0.93808811895E+03  0.14662377487E+04  0.10042562745E+04 0.  0.
    9000010    2    1    2  501    0  0.45039522354E+03 -0.24177943376E+03 -0.59867063177E+03  0.12756832331E+04  0.10038167332E+04 0.  0.
        -13    1    4    4    0    0  0.22347399871E+03  0.32042065338E+03 -0.54012754813E+03  0.66659418136E+03  0.10566000000E+00 0.  1.
          4    1    4    4  501    0  0.22692122483E+03 -0.56220008714E+03 -0.58543083639E+02  0.60908905170E+03  0.00000000000E+00 0.  1.
         13    1    3    3    0    0 -0.38580116478E+03  0.47186695044E+03 -0.10407850154E+04  0.12061237155E+04  0.10566000000E+00 0. -1.
         -4    1    3    3    0  503 -0.64594058768E+02 -0.23008751668E+03  0.10269689641E+03  0.26011403325E+03  0.00000000000E+00 0. -1.
<mgrwt>
<rscale>  2 0.11267755E+04</rscale>
<asrwt>0</asrwt>
<pdfrwt beam="1">  1       21 0.92704786E-01 0.11268735E+04</pdfrwt>
<pdfrwt beam="2">  1       21 0.32912922E+00 0.11268735E+04</pdfrwt>
<totfact> 0.78398435E+00</totfact>
</mgrwt>
</event>
<event>
 8    1  0.1094795E-005  0.1172084E+04  0.7818608E-02  0.8629320E-01
         21   -1    0    0  501  502  0.00000000000E+00  0.00000000000E+00  0.16843725866E+04  0.16843725866E+04  0.00000000000E+00 0.  1.
         21   -1    0    0  502  503 -0.00000000000E+00 -0.00000000000E+00 -0.81154690563E+03  0.81154690563E+03  0.00000000000E+00 0.  1.
   -9000010    2    1    2    0  503  0.52461588103E+03 -0.28491481858E+03  0.38968343122E+03  0.12281629530E+04  0.10000663909E+04 0.  0.
    9000010    2    1    2  501    0 -0.52461588103E+03  0.28491481858E+03  0.48314224971E+03  0.12677565392E+04  0.10086535246E+04 0.  0.
        -13    1    4    4    0    0 -0.78257902990E+03  0.36404366190E+03  0.49987259540E+03  0.99741182498E+03  0.10566000000E+00 0.  1.
          4    1    4    4  501    0  0.25796314886E+03 -0.79128843318E+02 -0.16730345699E+02  0.27034471418E+03  0.00000000000E+00 0.  1.
         13    1    3    3    0    0  0.77788565820E+03 -0.13229781650E+03  0.47425016871E+03  0.92060960410E+03  0.10566000000E+00 0. -1.
         -4    1    3    3    0  503 -0.25326977717E+03 -0.15261700209E+03 -0.84566737493E+02  0.30755334894E+03  0.00000000000E+00 0. -1.
<mgrwt>
<rscale>  2 0.11702339E+04</rscale>
<asrwt>0</asrwt>
<pdfrwt beam="1">  1       21 0.25913424E+00 0.11720837E+04</pdfrwt>
<pdfrwt beam="2">  1       21 0.12485337E+00 0.11720837E+04</pdfrwt>
<totfact> 0.10937075E+01</totfact>
</mgrwt>
</event>
<event>
 8    1  0.1094795E-005  0.1041988E+04  0.7818608E-02  0.8738163E-01
         21   -1    0    0  503  502  0.00000000000E+00  0.00000000000E+00  0.10263318244E+04  0.10263318244E+04  0.00000000000E+00 0. -1.
         21   -1    0    0  501  503 -0.00000000000E+00 -0.00000000000E+00 -0.10489520549E+04  0.10489520549E+04  0.00000000000E+00 0. -1.
    9000010    2    1    2  501    0 -0.13614941733E+03  0.26484031278E+03  0.72117071872E+01  0.10328685130E+04  0.98898346864E+03 0.  0.
   -9000010    2    1    2    0  502  0.13614941733E+03 -0.26484031278E+03 -0.29831937699E+02  0.10424153663E+04  0.99853031815E+03 0.  0.
        -13    1    3    3    0    0  0.26443598664E+03  0.46211805300E+03  0.16795274198E+03  0.55828990734E+03  0.10566000000E+00 0.  1.
          4    1    3    3  501    0 -0.40058540396E+03 -0.19727774021E+03 -0.16074103480E+03  0.47457860563E+03  0.00000000000E+00 0.  1.
         13    1    4    4    0    0 -0.33616119208E+03 -0.40731287367E+03  0.87515325419E+02  0.53531959376E+03  0.10566000000E+00 0. -1.
         -4    1    4    4    0  502  0.47231060940E+03  0.14247256089E+03 -0.11734726312E+03  0.50709577254E+03  0.00000000000E+00 0. -1.
<mgrwt>
<rscale>  2 0.10396946E+04</rscale>
<asrwt>0</asrwt>
<pdfrwt beam="1">  1       21 0.15789720E+00 0.10419884E+04</pdfrwt>
<pdfrwt beam="2">  1       21 0.16137724E+00 0.10419884E+04</pdfrwt>
<totfact> 0.31839526E+01</totfact>
</mgrwt>
</event>
<event>
 8    1  0.1094795E-005  0.1090513E+04  0.7818608E-02  0.8696056E-01
         21   -1    0    0  503  502  0.00000000000E+00  0.00000000000E+00  0.11913238831E+04  0.11913238831E+04  0.00000000000E+00 0. -1.
         21   -1    0    0  501  503 -0.00000000000E+00 -0.00000000000E+00 -0.13420472121E+04  0.13420472121E+04  0.00000000000E+00 0. -1.
    9000010    2    1    2  501    0 -0.77484493532E+02 -0.39067019701E+03 -0.72477205511E+03  0.13009951033E+04  0.10043239902E+04 0.  0.
   -9000010    2    1    2    0  502  0.77484493532E+02  0.39067019701E+03  0.57404872612E+03  0.12323759920E+04  0.10151805732E+04 0.  0.
        -13    1    3    3    0    0  0.32026660877E+03 -0.24242054739E+03 -0.77564386783E+03  0.87347687053E+03  0.10566000000E+00 0.  1.
          4    1    3    3  501    0 -0.39775110230E+03 -0.14824964963E+03  0.50871812718E+02  0.42751823274E+03  0.00000000000E+00 0.  1.
         13    1    4    4    0    0  0.17745138547E+02 -0.28074756295E+03  0.47362359015E+03  0.55086604574E+03  0.10566000000E+00 0. -1.
         -4    1    4    4    0  502  0.59739354985E+02  0.67141775997E+03  0.10042513597E+03  0.68150994627E+03  0.00000000000E+00 0. -1.
<mgrwt>
<rscale>  2 0.10879794E+04</rscale>
<asrwt>0</asrwt>
<pdfrwt beam="1">  1       21 0.18328060E+00 0.10905130E+04</pdfrwt>
<pdfrwt beam="2">  1       21 0.20646880E+00 0.10905130E+04</pdfrwt>
<totfact> 0.83139391E+00</totfact>
</mgrwt>
</event>
<event>
 8    1  0.1094795E-005  0.1187632E+04  0.7818608E-02  0.8651428E-01
         21   -1    0    0  501  502  0.00000000000E+00  0.00000000000E+00  0.49654393093E+03  0.49654393093E+03  0.00000000000E+00 0. -1.
         21   -1    0    0  502  503 -0.00000000000E+00 -0.00000000000E+00 -0.24638695377E+04  0.24638695377E+04  0.00000000000E+00 0. -1.
   -9000010    2    1    2    0  503  0.11332374136E+03 -0.62911803097E+03 -0.11894208493E+04  0.16808307399E+04  0.10009187040E+04 0.  0.
    9000010    2    1    2  501    0 -0.11332374136E+03  0.62911803097E+03 -0.77790475744E+03  0.12795827287E+04  0.78966092774E+03 0.  0.
        -13    1    4    4    0    0  0.33829118758E+03  0.29088793007E+03 -0.27747332489E+03  0.52540286699E+03  0.10566000000E+00 0.  1.
          4    1    4    4  501    0 -0.45161492893E+03  0.33823010090E+03 -0.50043143255E+03  0.75417986175E+03  0.00000000000E+00 0.  1.
         13    1    3    3    0    0  0.39977777014E+03  0.25754548279E+02 -0.72531469296E+03  0.82859337267E+03  0.10566000000E+00 0. -1.
         -4    1    3    3    0  503 -0.28645402879E+03 -0.65487257925E+03 -0.46410615635E+03  0.85223736718E+03  0.00000000000E+00 0. -1.
<mgrwt>
<rscale>  2 0.11421726E+04</rscale>
<asrwt>0</asrwt>
<pdfrwt beam="1">  1       21 0.76391372E-01 0.11876321E+04</pdfrwt>
<pdfrwt beam="2">  1       21 0.37905686E+00 0.11876321E+04</pdfrwt>
<totfact> 0.56127483E+00</totfact>
</mgrwt>
</event>
<event>
 8    1  0.1094795E-005  0.1079439E+04  0.7818608E-02  0.8706205E-01
         21   -1    0    0  503  502  0.00000000000E+00  0.00000000000E+00  0.10316903024E+04  0.10316903024E+04  0.00000000000E+00 0.  1.
         21   -1    0    0  501  503 -0.00000000000E+00 -0.00000000000E+00 -0.15181142913E+04  0.15181142913E+04  0.00000000000E+00 0.  1.
    9000010    2    1    2  501    0 -0.20160915319E+03 -0.30644442885E+03 -0.89863437923E+03  0.13943369342E+04  0.10010381111E+04 0.  0.
   -9000010    2    1    2    0  502  0.20160915319E+03  0.30644442885E+03  0.41221039037E+03  0.11554676594E+04  0.10152012940E+04 0.  0.
        -13    1    3    3    0    0  0.13165904732E+03  0.66995375583E+02  0.16339332491E+03  0.22027227442E+03  0.10566000000E+00 0.  1.
          4    1    3    3  501    0 -0.33326820051E+03 -0.37343980444E+03 -0.10620277041E+04  0.11740646598E+04  0.00000000000E+00 0.  1.
         13    1    4    4    0    0  0.46447174377E+03 -0.17776248769E+03  0.58528332204E+02  0.50075850429E+03  0.10566000000E+00 0. -1.
         -4    1    4    4    0  502 -0.26286259057E+03  0.48420691654E+03  0.35368205817E+03  0.65470915514E+03  0.00000000000E+00 0. -1.
<mgrwt>
<rscale>  2 0.10760959E+04</rscale>
<asrwt>0</asrwt>
<pdfrwt beam="1">  1       21 0.15872159E+00 0.10794388E+04</pdfrwt>
<pdfrwt beam="2">  1       21 0.23355604E+00 0.10794388E+04</pdfrwt>
<totfact> 0.83579148E+00</totfact>
</mgrwt>
</event>
<event>
 8    1  0.1094795E-005  0.1075937E+04  0.7818608E-02  0.8708548E-01
         21   -1    0    0  501  502  0.00000000000E+00  0.00000000000E+00  0.39774113749E+03  0.39774113749E+03  0.00000000000E+00 0.  1.
         21   -1    0    0  502  503 -0.00000000000E+00 -0.00000000000E+00 -0.29974242598E+04  0.29974242598E+04  0.00000000000E+00 0.  1.
   -9000010    2    1    2    0  503  0.20748704925E+03 -0.33106099608E+03 -0.96217447151E+03  0.14358093763E+04  0.99152236125E+03 0.  0.
    9000010    2    1    2  501    0 -0.20748704925E+03  0.33106099608E+03 -0.16375086508E+04  0.19593560210E+04  0.10024914846E+04 0.  0.
        -13    1    4    4    0    0  0.27107948873E+03 -0.11679330642E+03 -0.14414173495E+03  0.32848381475E+03  0.10566000000E+00 0.  1.
          4    1    4    4  501    0 -0.47856653798E+03  0.44785430251E+03 -0.14933669159E+04  0.16308722062E+04  0.00000000000E+00 0.  1.
         13    1    3    3    0    0  0.13207875299E+03  0.49590917130E+02  0.18046976461E+03  0.22907073832E+03  0.10566000000E+00 0. -1.
         -4    1    3    3    0  503  0.75408296252E+02 -0.38065191321E+03 -0.11426442361E+04  0.12067386380E+04  0.00000000000E+00 0. -1.
<mgrwt>
<rscale>  2 0.10733751E+04</rscale>
<asrwt>0</asrwt>
<pdfrwt beam="1">  1       21 0.61190946E-01 0.10759375E+04</pdfrwt>
<pdfrwt beam="2">  1       21 0.46114218E+00 0.10759375E+04</pdfrwt>
<totfact> 0.26106320E+00</totfact>
</mgrwt>
</event>
<event>
 8    1  0.1094795E-005  0.1142007E+04  0.7818608E-02  0.8656185E-01
         21   -1    0    0  503  502  0.00000000000E+00  0.00000000000E+00  0.21742536277E+04  0.21742536277E+04  0.00000000000E+00 0. -1.
         21   -1    0    0  501  503 -0.00000000000E+00 -0.00000000000E+00 -0.64095150036E+03  0.64095150036E+03  0.00000000000E+00 0. -1.
    9000010    2    1    2  501    0  0.34649448423E+03 -0.39860220288E+03  0.35446698001E+03  0.11739153865E+04  0.98665513281E+03 0.  0.
   -9000010    2    1    2    0  502 -0.34649448423E+03  0.39860220288E+03  0.11788351473E+04  0.16412897415E+04  0.10125401559E+04 0.  0.
        -13    1    3    3    0    0 -0.28439142098E+03  0.81892899743E+02 -0.20603288972E+02  0.29666384012E+03  0.10566000000E+00 0.  1.
          4    1    3    3  501    0  0.63088590521E+03 -0.48049510262E+03  0.37507026898E+03  0.87725154643E+03  0.00000000000E+00 0.  1.
         13    1    4    4    0    0 -0.58299240304E+03  0.57265745775E+03  0.68305068521E+03  0.10650703994E+04  0.10566000000E+00 0. -1.
         -4    1    4    4    0  502  0.23649791881E+03 -0.17405525487E+03  0.49578446208E+03  0.57621934208E+03  0.00000000000E+00 0. -1.
<mgrwt>
<rscale>  2 0.11362418E+04</rscale>
<asrwt>0</asrwt>
<pdfrwt beam="1">  1       21 0.33450055E+00 0.11420069E+04</pdfrwt>
<pdfrwt beam="2">  1       21 0.98607925E-01 0.11420069E+04</pdfrwt>
<totfact> 0.61125250E+00</totfact>
</mgrwt>
</event>
<event>
 8    1  0.1094795E-005  0.1103100E+04  0.7818608E-02  0.8685718E-01
         21   -1    0    0  503  502  0.00000000000E+00  0.00000000000E+00  0.15050025174E+04  0.15050025174E+04  0.00000000000E+00 0. -1.
         21   -1    0    0  501  503 -0.00000000000E+00 -0.00000000000E+00 -0.80073829785E+03  0.80073829785E+03  0.00000000000E+00 0. -1.
    9000010    2    1    2  501    0 -0.27481186803E+03  0.29126548795E+03  0.32099457915E+03  0.11379546511E+04  0.10156505899E+04 0.  0.
   -9000010    2    1    2    0  502  0.27481186803E+03 -0.29126548795E+03  0.38326964039E+03  0.11677861642E+04  0.10278481214E+04 0.  0.
        -13    1    3    3    0    0 -0.31549337328E+03  0.23765082022E+03 -0.31078864523E+03  0.50259683058E+03  0.10566000000E+00 0.  1.
          4    1    3    3  501    0  0.40681505249E+02  0.53614667726E+02  0.63178322438E+03  0.63535782051E+03  0.00000000000E+00 0.  1.
         13    1    4    4    0    0  0.10675175057E+03 -0.74989778836E+02  0.72113852610E+03  0.73284390437E+03  0.10566000000E+00 0. -1.
         -4    1    4    4    0  502  0.16806011746E+03 -0.21627570911E+03 -0.33786888571E+03  0.43494225980E+03  0.00000000000E+00 0. -1.
<mgrwt>
<rscale>  2 0.11002495E+04</rscale>
<asrwt>0</asrwt>
<pdfrwt beam="1">  1       21 0.23153885E+00 0.11030997E+04</pdfrwt>
<pdfrwt beam="2">  1       21 0.12319051E+00 0.11030997E+04</pdfrwt>
<totfact> 0.18354751E+01</totfact>
</mgrwt>
</event>
<event>
 8    1  0.1094795E-005  0.1051376E+04  0.7818608E-02  0.8743682E-01
         21   -1    0    0  503  502  0.00000000000E+00  0.00000000000E+00  0.13066671052E+04  0.13066671052E+04  0.00000000000E+00 0. -1.
         21   -1    0    0  501  503 -0.00000000000E+00 -0.00000000000E+00 -0.85245454800E+03  0.85245454800E+03  0.00000000000E+00 0. -1.
    9000010    2    1    2  501    0 -0.32515746561E+03  0.74286001681E+01 -0.55420439121E+02  0.10528353856E+04  0.99980416205E+03 0.  0.
   -9000010    2    1    2    0  502  0.32515746561E+03 -0.74286001681E+01  0.50963299627E+03  0.11062862676E+04  0.92647771341E+03 0.  0.
        -13    1    3    3    0    0 -0.17800797067E+03  0.12135075061E+03 -0.51433100237E+03  0.55762822154E+03  0.10566000000E+00 0.  1.
          4    1    3    3  501    0 -0.14714949494E+03 -0.11392215045E+03  0.45891056325E+03  0.49520716401E+03  0.00000000000E+00 0.  1.
         13    1    4    4    0    0  0.57450861410E+03  0.14428988036E+03  0.55400782476E+03  0.81105141533E+03  0.10566000000E+00 0. -1.
         -4    1    4    4    0  502 -0.24935114849E+03 -0.15171848053E+03 -0.44374828485E+02  0.29523485226E+03  0.00000000000E+00 0. -1.
<mgrwt>
<rscale>  2 0.10335611E+04</rscale>
<asrwt>0</asrwt>
<pdfrwt beam="1">  1       21 0.20102571E+00 0.10513757E+04</pdfrwt>
<pdfrwt beam="2">  1       21 0.13114685E+00 0.10513757E+04</pdfrwt>
<totfact> 0.26446843E+01</totfact>
</mgrwt>
</event>
<event>
 8    1  0.1094795E-005  0.1270155E+04  0.7818608E-02  0.8560565E-01
         21   -1    0    0  503  502  0.00000000000E+00  0.00000000000E+00  0.69146821036E+03  0.69146821036E+03  0.00000000000E+00 0.  1.
         21   -1    0    0  501  503 -0.00000000000E+00 -0.00000000000E+00 -0.22831504065E+04  0.22831504065E+04  0.00000000000E+00 0.  1.
    9000010    2    1    2  501    0  0.77040115539E+02  0.71973376150E+03 -0.82811448597E+03  0.14926164985E+04  0.10090483352E+04 0.  0.
   -9000010    2    1    2    0  502 -0.77040115539E+02 -0.71973376150E+03 -0.76356771012E+03  0.14820021183E+04  0.10437158445E+04 0.  0.
        -13    1    3    3    0    0  0.36228823091E+03  0.25355488600E+03 -0.83631951666E+03  0.94603022551E+03  0.10566000000E+00 0.  1.
          4    1    3    3  501    0 -0.28524811537E+03  0.46617887549E+03  0.82050306891E+01  0.54658627298E+03  0.00000000000E+00 0.  1.
         13    1    4    4    0    0 -0.32684414850E+03 -0.70934043762E+03 -0.11822021964E+03  0.78991580902E+03  0.10566000000E+00 0. -1.
         -4    1    4    4    0  502  0.24980403296E+03 -0.10393323877E+02 -0.64534749048E+03  0.69208630931E+03  0.00000000000E+00 0. -1.
<mgrwt>
<rscale>  2 0.12630129E+04</rscale>
<asrwt>0</asrwt>
<pdfrwt beam="1">  1       21 0.10637973E+00 0.12701554E+04</pdfrwt>
<pdfrwt beam="2">  1       21 0.35125390E+00 0.12701554E+04</pdfrwt>
<totfact> 0.37177676E+00</totfact>
</mgrwt>
</event>
<event>
 8    1  0.1094795E-005  0.1082028E+04  0.7818608E-02  0.8713815E-01
         21   -1    0    0  501  502  0.00000000000E+00  0.00000000000E+00  0.12510055102E+04  0.12510055102E+04  0.00000000000E+00 0. -1.
         21   -1    0    0  502  503 -0.00000000000E+00 -0.00000000000E+00 -0.88755859548E+03  0.88755859548E+03  0.00000000000E+00 0. -1.
   -9000010    2    1    2    0  503 -0.28320729975E+03 -0.23259027601E+03  0.21226106332E+03  0.10460245564E+04  0.95645595946E+03 0.  0.
    9000010    2    1    2  501    0  0.28320729975E+03  0.23259027601E+03  0.15118585137E+03  0.10925395493E+04  0.10180770570E+04 0.  0.
        -13    1    4    4    0    0  0.10066343996E+03  0.62058203335E+03  0.20294643247E+03  0.66063791435E+03  0.10566000000E+00 0.  1.
          4    1    4    4  501    0  0.18254385979E+03 -0.38799175734E+03 -0.51760581099E+02  0.43190163495E+03  0.00000000000E+00 0.  1.
         13    1    3    3    0    0 -0.45062128864E+03 -0.35167469202E+03 -0.18331222610E+03  0.60028161573E+03  0.10566000000E+00 0. -1.
         -4    1    3    3    0  503  0.16741398890E+03  0.11908441601E+03  0.39557328942E+03  0.44574294063E+03  0.00000000000E+00 0. -1.
<mgrwt>
<rscale>  2 0.10672883E+04</rscale>
<asrwt>0</asrwt>
<pdfrwt beam="1">  1       21 0.19246239E+00 0.10820284E+04</pdfrwt>
<pdfrwt beam="2">  1       21 0.13654748E+00 0.10820284E+04</pdfrwt>
<totfact> 0.27260459E+01</totfact>
</mgrwt>
</event>
<event>
 8    1  0.1094795E-005  0.1043653E+04  0.7818608E-02  0.8735842E-01
         21   -1    0    0  501  502  0.00000000000E+00  0.00000000000E+00  0.19903007221E+04  0.19903007221E+04  0.00000000000E+00 0. -1.
         21   -1    0    0  502  503 -0.00000000000E+00 -0.00000000000E+00 -0.72379136956E+03  0.72379136956E+03  0.00000000000E+00 0. -1.
   -9000010    2    1    2    0  503 -0.24630565266E+02  0.25768103598E+03 -0.43578900186E+02  0.10391165632E+04  0.10054143078E+04 0.  0.
    9000010    2    1    2  501    0  0.24630565266E+02 -0.25768103598E+03  0.13100882527E+04  0.16749755285E+04  0.10110418438E+04 0.  0.
        -13    1    4    4    0    0  0.19469251139E+03 -0.56086269271E+03  0.44286746502E+03  0.74067789004E+03  0.10566000000E+00 0.  1.
          4    1    4    4  501    0 -0.17006194612E+03  0.30318165673E+03  0.86722078772E+03  0.93429763841E+03  0.00000000000E+00 0.  1.
         13    1    3    3    0    0 -0.13034830026E+03 -0.37035255355E+03  0.48573481834E+02  0.39561482227E+03  0.10566000000E+00 0. -1.
         -4    1    3    3    0  503  0.10571773499E+03  0.62803358953E+03 -0.92152382019E+02  0.64350174093E+03  0.00000000000E+00 0. -1.
<mgrwt>
<rscale>  2 0.10422877E+04</rscale>
<asrwt>0</asrwt>
<pdfrwt beam="1">  1       21 0.30620011E+00 0.10436531E+04</pdfrwt>
<pdfrwt beam="2">  1       21 0.11135252E+00 0.10436531E+04</pdfrwt>
<totfact> 0.71459906E+00</totfact>
</mgrwt>
</event>
<event>
 8    1  0.1094795E-005  0.1033316E+04  0.7818608E-02  0.8746555E-01
         21   -1    0    0  503  502  0.00000000000E+00  0.00000000000E+00  0.20632222578E+04  0.20632222578E+04  0.00000000000E+00 0. -1.
         21   -1    0    0  501  503 -0.00000000000E+00 -0.00000000000E+00 -0.51196342116E+03  0.51196342116E+03  0.00000000000E+00 0. -1.
    9000010    2    1    2  501    0 -0.85530260748E+02  0.25270704248E+03  0.81024659500E+03  0.13131037634E+04  0.99828136005E+03 0.  0.
   -9000010    2    1    2    0  502  0.85530260748E+02 -0.25270704248E+03  0.74101224166E+03  0.12620819156E+04  0.98619234665E+03 0.  0.
        -13    1    3    3    0    0  0.35863917029E+03 -0.82396454577E+02  0.62754041630E+03  0.72747385895E+03  0.10566000000E+00 0.  1.
          4    1    3    3  501    0 -0.44416943104E+03  0.33510349706E+03  0.18270617870E+03  0.58562990441E+03  0.00000000000E+00 0.  1.
         13    1    4    4    0    0  0.26219967366E+03 -0.37461877915E+03 -0.33392759503E+02  0.45847899201E+03  0.10566000000E+00 0. -1.
         -4    1    4    4    0  502 -0.17666941291E+03  0.12191173667E+03  0.77440500116E+03  0.80360292360E+03  0.00000000000E+00 0. -1.
<mgrwt>
<rscale>  2 0.10303850E+04</rscale>
<asrwt>0</asrwt>
<pdfrwt beam="1">  1       21 0.31741880E+00 0.10333160E+04</pdfrwt>
<pdfrwt beam="2">  1       21 0.78763604E-01 0.10333160E+04</pdfrwt>
<totfact> 0.14571111E+01</totfact>
</mgrwt>
</event>
<event>
 8    1  0.1094795E-005  0.1519941E+04  0.7818608E-02  0.8399338E-01
         21   -1    0    0  501  502  0.00000000000E+00  0.00000000000E+00  0.96332015957E+03  0.96332015957E+03  0.00000000000E+00 0. -1.
         21   -1    0    0  502  503 -0.00000000000E+00 -0.00000000000E+00 -0.28205684155E+04  0.28205684155E+04  0.00000000000E+00 0. -1.
   -9000010    2    1    2    0  503 -0.10583471489E+04 -0.41672415549E+03 -0.16746631979E+04  0.22615741095E+04  0.10081978561E+04 0.  0.
    9000010    2    1    2  501    0  0.10583471489E+04  0.41672415549E+03 -0.18258505801E+03  0.15223144655E+04  0.99516145387E+03 0.  0.
        -13    1    4    4    0    0  0.98439596875E+03  0.32173063705E+03 -0.52374258174E+03  0.11605396715E+04  0.10566000000E+00 0.  1.
          4    1    4    4  501    0  0.73951180144E+02  0.94993518442E+02  0.34115752373E+03  0.36177479402E+03  0.00000000000E+00 0.  1.
         13    1    3    3    0    0 -0.55152741174E+03  0.17759210445E+03 -0.23815629420E+03  0.62645021597E+03  0.10566000000E+00 0. -1.
         -4    1    3    3    0  503 -0.50681973715E+03 -0.59431625994E+03 -0.14365069037E+04  0.16351238936E+04  0.00000000000E+00 0. -1.
<mgrwt>
<rscale>  2 0.15177825E+04</rscale>
<asrwt>0</asrwt>
<pdfrwt beam="1">  1       21 0.14820310E+00 0.15199410E+04</pdfrwt>
<pdfrwt beam="2">  1       21 0.43393360E+00 0.15199410E+04</pdfrwt>
<totfact> 0.36458451E-01</totfact>
</mgrwt>
</event>
<event>
 8    1  0.1094795E-005  0.1052903E+04  0.7818608E-02  0.8726416E-01
         21   -1    0    0  503  502  0.00000000000E+00  0.00000000000E+00  0.12645849627E+04  0.12645849627E+04  0.00000000000E+00 0.  1.
         21   -1    0    0  501  503 -0.00000000000E+00 -0.00000000000E+00 -0.95992221980E+03  0.95992221980E+03  0.00000000000E+00 0.  1.
    9000010    2    1    2  501    0 -0.95891173201E+02 -0.32077087201E+03  0.47994303759E+03  0.11571139379E+04  0.99823758522E+03 0.  0.
   -9000010    2    1    2    0  502  0.95891173201E+02  0.32077087201E+03 -0.17528029464E+03  0.10673932446E+04  0.99825652393E+03 0.  0.
        -13    1    3    3    0    0 -0.54863633341E+03 -0.16299687864E+03  0.23478823695E+03  0.61862374361E+03  0.10566000000E+00 0.  1.
          4    1    3    3  501    0  0.45274516021E+03 -0.15777399337E+03  0.24515480064E+03  0.53849019430E+03  0.00000000000E+00 0.  1.
         13    1    4    4    0    0  0.79450136917E+02 -0.32232216473E+03  0.12849871692E+03  0.35597167520E+03  0.10566000000E+00 0. -1.
         -4    1    4    4    0  502  0.16441036284E+02  0.64309303674E+03 -0.30377901157E+03  0.71142156943E+03  0.00000000000E+00 0. -1.
<mgrwt>
<rscale>  2 0.10528987E+04</rscale>
<asrwt>0</asrwt>
<pdfrwt beam="1">  1       21 0.19455153E+00 0.10529032E+04</pdfrwt>
<pdfrwt beam="2">  1       21 0.14768034E+00 0.10529032E+04</pdfrwt>
<totfact> 0.20871049E+01</totfact>
</mgrwt>
</event>
<event>
 8    1  0.1094795E-005  0.1192807E+04  0.7818608E-02  0.8619439E-01
         21   -1    0    0  501  502  0.00000000000E+00  0.00000000000E+00  0.59481375775E+03  0.59481375775E+03  0.00000000000E+00 0.  1.
         21   -1    0    0  502  503 -0.00000000000E+00 -0.00000000000E+00 -0.23320242719E+04  0.23320242719E+04  0.00000000000E+00 0.  1.
   -9000010    2    1    2    0  503 -0.53607080148E+03  0.38082764654E+03 -0.73045434762E+03  0.13659579422E+04  0.94861791319E+03 0.  0.
    9000010    2    1    2  501    0  0.53607080148E+03 -0.38082764654E+03 -0.10067561665E+04  0.15608800875E+04  0.99518192714E+03 0.  0.
        -13    1    4    4    0    0  0.37249808452E+03 -0.58643612508E+02 -0.11203569452E+04  0.11821140351E+04  0.10566000000E+00 0.  1.
          4    1    4    4  501    0  0.16357271695E+03 -0.32218403403E+03  0.11360077865E+03  0.37876605237E+03  0.00000000000E+00 0.  1.
         13    1    3    3    0    0 -0.41684771941E+02  0.52850990231E+03 -0.65788047196E+03  0.84490654134E+03  0.10566000000E+00 0. -1.
         -4    1    3    3    0  503 -0.49438602954E+03 -0.14768225577E+03 -0.72573875660E+02  0.52105140082E+03  0.00000000000E+00 0. -1.
<mgrwt>
<rscale>  2 0.11830470E+04</rscale>
<asrwt>0</asrwt>
<pdfrwt beam="1">  1       21 0.91509810E-01 0.11928071E+04</pdfrwt>
<pdfrwt beam="2">  1       21 0.35877296E+00 0.11928071E+04</pdfrwt>
<totfact> 0.49526966E+00</totfact>
</mgrwt>
</event>
<event>
 8    1  0.1094795E-005  0.1041243E+04  0.7818608E-02  0.8737179E-01
         21   -1    0    0  503  502  0.00000000000E+00  0.00000000000E+00  0.68297330082E+03  0.68297330082E+03  0.00000000000E+00 0.  1.
         21   -1    0    0  501  503 -0.00000000000E+00 -0.00000000000E+00 -0.17580219885E+04  0.17580219885E+04  0.00000000000E+00 0.  1.
    9000010    2    1    2  501    0 -0.12036342929E+02  0.29348094529E+03 -0.15389935829E+03  0.10507782524E+04  0.99708273704E+03 0.  0.
   -9000010    2    1    2    0  502  0.12036342929E+02 -0.29348094529E+03 -0.92114932935E+03  0.13902170368E+04  0.99895514602E+03 0.  0.
        -13    1    3    3    0    0  0.90308365515E+02  0.56862341006E+03  0.18280150876E+03  0.60407332842E+03  0.10566000000E+00 0.  1.
          4    1    3    3  501    0 -0.10234470844E+03 -0.27514246476E+03 -0.33670086704E+03  0.44670492401E+03  0.00000000000E+00 0.  1.
         13    1    4    4    0    0 -0.26964226432E+03  0.17872750984E+03 -0.71477127651E+01  0.32357622663E+03  0.10566000000E+00 0. -1.
         -4    1    4    4    0  502  0.28167860725E+03 -0.47220845513E+03 -0.91400161658E+03  0.10666408102E+04  0.00000000000E+00 0. -1.
<mgrwt>
<rscale>  2 0.10407938E+04</rscale>
<asrwt>0</asrwt>
<pdfrwt beam="1">  1       21 0.10507282E+00 0.10412432E+04</pdfrwt>
<pdfrwt beam="2">  1       21 0.27046492E+00 0.10412432E+04</pdfrwt>
<totfact> 0.14996136E+01</totfact>
</mgrwt>
</event>
<event>
 8    1  0.1094795E-005  0.1205271E+04  0.7818608E-02  0.8612522E-01
         21   -1    0    0  503  502  0.00000000000E+00  0.00000000000E+00  0.13416029647E+04  0.13416029647E+04  0.00000000000E+00 0. -1.
         21   -1    0    0  501  503 -0.00000000000E+00 -0.00000000000E+00 -0.15873773378E+04  0.15873773378E+04  0.00000000000E+00 0. -1.
    9000010    2    1    2  501    0 -0.52872253206E+03  0.40648697630E+03 -0.98348997562E+03  0.15158623094E+04  0.94117311439E+03 0.  0.
   -9000010    2    1    2    0  502  0.52872253206E+03 -0.40648697630E+03  0.73771560243E+03  0.14131179931E+04  0.10039417186E+04 0.  0.
        -13    1    3    3    0    0 -0.29906027779E+03  0.51616641274E+03 -0.10879381473E+04  0.12407555113E+04  0.10566000000E+00 0.  1.
          4    1    3    3  501    0 -0.22966225426E+03 -0.10967943644E+03  0.10444817167E+03  0.27510679813E+03  0.00000000000E+00 0.  1.
         13    1    4    4    0    0  0.16868094631E+03 -0.83278024751E+02 -0.25023205556E+03  0.31305683805E+03  0.10566000000E+00 0. -1.
         -4    1    4    4    0  502  0.36004158574E+03 -0.32320895155E+03  0.98794765799E+03  0.11000611550E+04  0.00000000000E+00 0. -1.
<mgrwt>
<rscale>  2 0.11921170E+04</rscale>
<asrwt>0</asrwt>
<pdfrwt beam="1">  1       21 0.20640046E+00 0.12052710E+04</pdfrwt>
<pdfrwt beam="2">  1       21 0.24421190E+00 0.12052710E+04</pdfrwt>
<totfact> 0.27710750E+00</totfact>
</mgrwt>
</event>
<event>
 8    1  0.1094795E-005  0.1085069E+04  0.7818608E-02  0.8703558E-01
         21   -1    0    0  501  502  0.00000000000E+00  0.00000000000E+00  0.11092355409E+04  0.11092355409E+04  0.00000000000E+00 0. -1.
         21   -1    0    0  502  503 -0.00000000000E+00 -0.00000000000E+00 -0.10537292799E+04  0.10537292799E+04  0.00000000000E+00 0. -1.
   -9000010    2    1    2    0  503 -0.23960971791E+03  0.23859761664E+03 -0.10171920106E+03  0.10665641593E+04  0.10064147606E+04 0.  0.
    9000010    2    1    2  501    0  0.23960971791E+03 -0.23859761664E+03  0.15722546204E+03  0.10964006615E+04  0.10310348806E+04 0.  0.
        -13    1    4    4    0    0 -0.35260468791E+02 -0.36369968593E+03  0.51293584392E+03  0.62978087724E+03  0.10566000000E+00 0.  1.
          4    1    4    4  501    0  0.27487018670E+03  0.12510206928E+03 -0.35571038187E+03  0.46661978424E+03  0.00000000000E+00 0.  1.
         13    1    3    3    0    0  0.38517541745E+03  0.46175681479E+02  0.61434138235E+02  0.39276769250E+03  0.10566000000E+00 0. -1.
         -4    1    3    3    0  503 -0.62478513535E+03  0.19242193516E+03 -0.16315333929E+03  0.67379646676E+03  0.00000000000E+00 0. -1.
<mgrwt>
<rscale>  2 0.10791796E+04</rscale>
<asrwt>0</asrwt>
<pdfrwt beam="1">  1       21 0.17065162E+00 0.10850689E+04</pdfrwt>
<pdfrwt beam="2">  1       21 0.16211220E+00 0.10850689E+04</pdfrwt>
<totfact> 0.24200472E+01</totfact>
</mgrwt>
</event>
<event>
 8    1  0.1094795E-005  0.1116729E+04  0.7818608E-02  0.8673242E-01
         21   -1    0    0  503  502  0.00000000000E+00  0.00000000000E+00  0.13951018070E+04  0.13951018070E+04  0.00000000000E+00 0. -1.
         21   -1    0    0  501  503 -0.00000000000E+00 -0.00000000000E+00 -0.10231304586E+04  0.10231304586E+04  0.00000000000E+00 0. -1.
    9000010    2    1    2  501    0  0.49223845662E+03  0.68342182353E+02 -0.25176020419E+03  0.11391211275E+04  0.99360172635E+03 0.  0.
   -9000010    2    1    2    0  502 -0.49223845662E+03 -0.68342182353E+02  0.62373155260E+03  0.12791111381E+04  0.10000574493E+04 0.  0.
        -13    1    3    3    0    0 -0.75450730208E+02 -0.36531617022E+03  0.22988231759E+02  0.37373411254E+03  0.10566000000E+00 0.  1.
          4    1    3    3  501    0  0.56768918682E+03  0.43365835257E+03 -0.27474843595E+03  0.76538701495E+03  0.00000000000E+00 0.  1.
         13    1    4    4    0    0  0.27492457005E+03 -0.62322853024E+02 -0.12875443456E+02  0.28219398547E+03  0.10566000000E+00 0. -1.
         -4    1    4    4    0  502 -0.76716302667E+03 -0.60193293289E+01  0.63660699606E+03  0.99691715265E+03  0.00000000000E+00 0. -1.
<mgrwt>
<rscale>  2 0.11152821E+04</rscale>
<asrwt>0</asrwt>
<pdfrwt beam="1">  1       21 0.21463105E+00 0.11167293E+04</pdfrwt>
<pdfrwt beam="2">  1       21 0.15740469E+00 0.11167293E+04</pdfrwt>
<totfact> 0.11798266E+01</totfact>
</mgrwt>
</event>
<event>
 8    1  0.1094795E-005  0.1122164E+04  0.7818608E-02  0.8682274E-01
         21   -1    0    0  501  502  0.00000000000E+00  0.00000000000E+00  0.98994520272E+03  0.98994520272E+03  0.00000000000E+00 0. -1.
         21   -1    0    0  502  503 -0.00000000000E+00 -0.00000000000E+00 -0.12067707258E+04  0.12067707258E+04  0.00000000000E+00 0. -1.
   -9000010    2    1    2    0  503  0.33450059410E+02  0.49735424674E+03  0.57277681546E+01  0.10526953310E+04  0.92717554934E+03 0.  0.
    9000010    2    1    2  501    0 -0.33450059410E+02 -0.49735424674E+03 -0.22255329122E+03  0.11440205975E+04  0.10053720739E+04 0.  0.
        -13    1    4    4    0    0  0.21459618944E+03 -0.59690502875E+03  0.18132076572E+03  0.65971536977E+03  0.10566000000E+00 0.  1.
          4    1    4    4  501    0 -0.24804624885E+03  0.99550782006E+02 -0.40387405694E+03  0.48430522777E+03  0.00000000000E+00 0.  1.
         13    1    3    3    0    0 -0.36375113734E+03 -0.10065560945E+02  0.14790933166E+03  0.39280196918E+03  0.10566000000E+00 0. -1.
         -4    1    3    3    0  503  0.39720119675E+03  0.50741980769E+03 -0.14218156351E+03  0.65989336179E+03  0.00000000000E+00 0. -1.
<mgrwt>
<rscale>  2 0.11043747E+04</rscale>
<asrwt>0</asrwt>
<pdfrwt beam="1">  1       21 0.15229926E+00 0.11221645E+04</pdfrwt>
<pdfrwt beam="2">  1       21 0.18565703E+00 0.11221645E+04</pdfrwt>
<totfact> 0.22013308E+01</totfact>
</mgrwt>
</event>
<event>
 8    1  0.1094795E-005  0.1045900E+04  0.7818608E-02  0.8734850E-01
         21   -1    0    0  501  502  0.00000000000E+00  0.00000000000E+00  0.70224228667E+03  0.70224228667E+03  0.00000000000E+00 0.  1.
         21   -1    0    0  502  503 -0.00000000000E+00 -0.00000000000E+00 -0.16441008022E+04  0.16441008022E+04  0.00000000000E+00 0.  1.
   -9000010    2    1    2    0  503 -0.23920704470E+03 -0.11282072692E+03 -0.18201412536E+03  0.10616196820E+04  0.10119084350E+04 0.  0.
    9000010    2    1    2  501    0  0.23920704470E+03  0.11282072692E+03 -0.75984439016E+03  0.12847234068E+04  0.10015998244E+04 0.  0.
        -13    1    4    4    0    0  0.50293719675E+03  0.22802428266E+02 -0.30983772234E+02  0.50440636387E+03  0.10566000000E+00 0.  1.
          4    1    4    4  501    0 -0.26373015204E+03  0.90018298651E+02 -0.72886061792E+03  0.78031704297E+03  0.00000000000E+00 0.  1.
         13    1    3    3    0    0  0.29868256954E+03 -0.32658498807E+03  0.33859318861E+02  0.44386427703E+03  0.10566000000E+00 0. -1.
         -4    1    3    3    0  503 -0.53788961425E+03  0.21376426115E+03 -0.21587344422E+03  0.61775540498E+03  0.00000000000E+00 0. -1.
<mgrwt>
<rscale>  2 0.10433987E+04</rscale>
<asrwt>0</asrwt>
<pdfrwt beam="1">  1       21 0.10803728E+00 0.10459002E+04</pdfrwt>
<pdfrwt beam="2">  1       21 0.25293858E+00 0.10459002E+04</pdfrwt>
<totfact> 0.18598638E+01</totfact>
</mgrwt>
</event>
<event>
 8    1  0.1094795E-005  0.1169979E+04  0.7818608E-02  0.8630761E-01
         21   -1    0    0  501  502  0.00000000000E+00  0.00000000000E+00  0.14856291414E+04  0.14856291414E+04  0.00000000000E+00 0. -1.
         21   -1    0    0  502  503 -0.00000000000E+00 -0.00000000000E+00 -0.11188782787E+04  0.11188782787E+04  0.00000000000E+00 0. -1.
   -9000010    2    1    2    0  503  0.54618737763E+03 -0.25463719841E+03 -0.37104913790E+03  0.12213224936E+04  0.99538455705E+03 0.  0.
    9000010    2    1    2  501    0 -0.54618737763E+03  0.25463719841E+03  0.73780000059E+03  0.13831849265E+04  0.10028414360E+04 0.  0.
        -13    1    4    4    0    0 -0.49399219312E+03 -0.32285129244E+03  0.37259246394E+03  0.69791575369E+03  0.10566000000E+00 0.  1.
          4    1    4    4  501    0 -0.52195184503E+02  0.57748849085E+03  0.36520753665E+03  0.68526917279E+03  0.00000000000E+00 0.  1.
         13    1    3    3    0    0 -0.21240029011E+03  0.76688211773E+02 -0.32040470464E+03  0.39198743728E+03  0.10566000000E+00 0. -1.
         -4    1    3    3    0  503  0.75858766774E+03 -0.33132541018E+03 -0.50644433266E+02  0.82933505635E+03  0.00000000000E+00 0. -1.
<mgrwt>
<rscale>  2 0.11683798E+04</rscale>
<asrwt>0</asrwt>
<pdfrwt beam="1">  1       21 0.22855833E+00 0.11699794E+04</pdfrwt>
<pdfrwt beam="2">  1       21 0.17213512E+00 0.11699794E+04</pdfrwt>
<totfact> 0.68598577E+00</totfact>
</mgrwt>
</event>
<event>
 8    1  0.1094795E-005  0.1208143E+04  0.7818608E-02  0.8602144E-01
         21   -1    0    0  501  502  0.00000000000E+00  0.00000000000E+00  0.11150445704E+04  0.11150445704E+04  0.00000000000E+00 0. -1.
         21   -1    0    0  502  503 -0.00000000000E+00 -0.00000000000E+00 -0.12996635586E+04  0.12996635586E+04  0.00000000000E+00 0. -1.
   -9000010    2    1    2    0  503 -0.63927792942E+03  0.21441023547E+03 -0.71799707759E+02  0.12102744715E+04  0.10024774701E+04 0.  0.
    9000010    2    1    2  501    0  0.63927792942E+03 -0.21441023547E+03 -0.11281928046E+03  0.12044336575E+04  0.99160689040E+03 0.  0.
        -13    1    4    4    0    0  0.71389878972E+03 -0.48962183308E+03  0.65461520662E+02  0.86813952982E+03  0.10566000000E+00 0.  1.
          4    1    4    4  501    0 -0.74620860297E+02  0.27521159760E+03 -0.17828080112E+03  0.33629412766E+03  0.00000000000E+00 0.  1.
         13    1    3    3    0    0 -0.61034629378E+00  0.43215464601E+03 -0.26682349628E+03  0.50789053931E+03  0.10566000000E+00 0. -1.
         -4    1    3    3    0  503 -0.63866758313E+03 -0.21774441054E+03  0.19502378852E+03  0.70238393215E+03  0.00000000000E+00 0. -1.
<mgrwt>
<rscale>  2 0.12058853E+04</rscale>
<asrwt>0</asrwt>
<pdfrwt beam="1">  1       21 0.17154532E+00 0.12081428E+04</pdfrwt>
<pdfrwt beam="2">  1       21 0.19994824E+00 0.12081428E+04</pdfrwt>
<totfact> 0.11376194E+01</totfact>
</mgrwt>
</event>
<event>
 8    1  0.1094795E-005  0.1099364E+04  0.7818608E-02  0.8700690E-01
         21   -1    0    0  503  502  0.00000000000E+00  0.00000000000E+00  0.55610390015E+03  0.55610390015E+03  0.00000000000E+00 0.  1.
         21   -1    0    0  501  503 -0.00000000000E+00 -0.00000000000E+00 -0.20748080761E+04  0.20748080761E+04  0.00000000000E+00 0.  1.
    9000010    2    1    2  501    0 -0.77554326458E+02  0.33378981117E+03 -0.89328859535E+03  0.13661012663E+04  0.97510914442E+03 0.  0.
   -9000010    2    1    2    0  502  0.77554326458E+02 -0.33378981117E+03 -0.62541558063E+03  0.12648107100E+04  0.10445913900E+04 0.  0.
        -13    1    3    3    0    0  0.28877537029E+03  0.11374784360E+03  0.64770988369E+02  0.31705690106E+03  0.10566000000E+00 0.  1.
          4    1    3    3  501    0 -0.36632969675E+03  0.22004196756E+03 -0.95805958372E+03  0.10490443652E+04  0.00000000000E+00 0.  1.
         13    1    4    4    0    0  0.23924817250E+03  0.28010725793E+03  0.73958222360E+01  0.36844873910E+03  0.10566000000E+00 0. -1.
         -4    1    4    4    0  502 -0.16169384604E+03 -0.61389706910E+03 -0.63281140287E+03  0.89636197091E+03  0.00000000000E+00 0. -1.
<mgrwt>
<rscale>  2 0.10825332E+04</rscale>
<asrwt>0</asrwt>
<pdfrwt beam="1">  1       21 0.85554447E-01 0.10993641E+04</pdfrwt>
<pdfrwt beam="2">  1       21 0.31920124E+00 0.10993641E+04</pdfrwt>
<totfact> 0.11373723E+01</totfact>
</mgrwt>
</event>
<event>
 8    1  0.1094795E-005  0.1100068E+04  0.7818608E-02  0.8693481E-01
         21   -1    0    0  501  502  0.00000000000E+00  0.00000000000E+00  0.15022072385E+04  0.15022072385E+04  0.00000000000E+00 0. -1.
         21   -1    0    0  502  503 -0.00000000000E+00 -0.00000000000E+00 -0.78686357567E+03  0.78686357567E+03  0.00000000000E+00 0. -1.
   -9000010    2    1    2    0  503 -0.41820427659E+03  0.31837107263E+01  0.47335854419E+03  0.11975882973E+04  0.10174696387E+04 0.  0.
    9000010    2    1    2  501    0  0.41820427659E+03 -0.31837107263E+01  0.24198511863E+03  0.10914825168E+04  0.97870952478E+03 0.  0.
        -13    1    4    4    0    0  0.37991263623E+03 -0.21020290447E+03 -0.28812947527E+03  0.52109258092E+03  0.10566000000E+00 0.  1.
          4    1    4    4  501    0  0.38291640362E+02  0.20701919374E+03  0.53011459390E+03  0.57038993589E+03  0.00000000000E+00 0.  1.
         13    1    3    3    0    0 -0.39963947666E+02 -0.46227350445E+03  0.57031874723E+02  0.46748963189E+03  0.10566000000E+00 0. -1.
         -4    1    3    3    0  503 -0.37824032892E+03  0.46545721517E+03  0.41632666946E+03  0.73009866545E+03  0.00000000000E+00 0. -1.
<mgrwt>
<rscale>  2 0.10910199E+04</rscale>
<asrwt>0</asrwt>
<pdfrwt beam="1">  1       21 0.23110881E+00 0.11000679E+04</pdfrwt>
<pdfrwt beam="2">  1       21 0.12105593E+00 0.11000679E+04</pdfrwt>
<totfact> 0.19437080E+01</totfact>
</mgrwt>
</event>
<event>
 8    1  0.1094795E-005  0.1158742E+04  0.7818608E-02  0.8640840E-01
         21   -1    0    0  503  502  0.00000000000E+00  0.00000000000E+00  0.71280732264E+03  0.71280732264E+03  0.00000000000E+00 0.  1.
         21   -1    0    0  501  503 -0.00000000000E+00 -0.00000000000E+00 -0.18920891112E+04  0.18920891112E+04  0.00000000000E+00 0.  1.
    9000010    2    1    2  501    0 -0.36387646747E+03 -0.42131808184E+03 -0.42429538361E+03  0.12218970417E+04  0.10015442069E+04 0.  0.
   -9000010    2    1    2    0  502  0.36387646747E+03  0.42131808184E+03 -0.75498640497E+03  0.13829993921E+04  0.10162518572E+04 0.  0.
        -13    1    3    3    0    0 -0.26347207807E+03  0.29632481311E+03 -0.27363045309E+03  0.48176712924E+03  0.10566000000E+00 0.  1.
          4    1    3    3  501    0 -0.10040438940E+03 -0.71764289495E+03 -0.15066493052E+03  0.74012991250E+03  0.00000000000E+00 0.  1.
         13    1    4    4    0    0 -0.14821735158E+03 -0.14100979858E+03  0.10911571191E+03  0.23185856973E+03  0.10566000000E+00 0. -1.
         -4    1    4    4    0  502  0.51209381905E+03  0.56232788042E+03 -0.86410211688E+03  0.11511408224E+04  0.00000000000E+00 0. -1.
<mgrwt>
<rscale>  2 0.11555091E+04</rscale>
<asrwt>0</asrwt>
<pdfrwt beam="1">  1       21 0.10966266E+00 0.11587419E+04</pdfrwt>
<pdfrwt beam="2">  1       21 0.29109063E+00 0.11587419E+04</pdfrwt>
<totfact> 0.92912023E+00</totfact>
</mgrwt>
</event>
<event>
 8    1  0.1094795E-005  0.1081242E+04  0.7818608E-02  0.8709882E-01
         21   -1    0    0  501  502  0.00000000000E+00  0.00000000000E+00  0.12343506561E+04  0.12343506561E+04  0.00000000000E+00 0. -1.
         21   -1    0    0  502  503 -0.00000000000E+00 -0.00000000000E+00 -0.91752699447E+03  0.91752699447E+03  0.00000000000E+00 0. -1.
   -9000010    2    1    2    0  503 -0.28027905344E+03 -0.26079200023E+03  0.10309748862E+03  0.10861459873E+04  0.10111949358E+04 0.  0.
    9000010    2    1    2  501    0  0.28027905344E+03  0.26079200023E+03  0.21372617298E+03  0.10657316633E+04  0.97135795974E+03 0.  0.
        -13    1    4    4    0    0  0.14944643787E+03  0.33820976477E+03  0.56940469003E+03  0.67892694376E+03  0.10566000000E+00 0.  1.
          4    1    4    4  501    0  0.13083261557E+03 -0.77417764536E+02 -0.35567851705E+03  0.38680471953E+03  0.00000000000E+00 0.  1.
         13    1    3    3    0    0 -0.25532668613E+03 -0.59563590462E+03 -0.15058110095E+03  0.66531836489E+03  0.10566000000E+00 0. -1.
         -4    1    3    3    0  503 -0.24952367315E+02  0.33484390439E+03  0.25367858957E+03  0.42082762237E+03  0.00000000000E+00 0. -1.
<mgrwt>
<rscale>  2 0.10718295E+04</rscale>
<asrwt>0</asrwt>
<pdfrwt beam="1">  1       21 0.18990010E+00 0.10812419E+04</pdfrwt>
<pdfrwt beam="2">  1       21 0.14115800E+00 0.10812419E+04</pdfrwt>
<totfact> 0.25886020E+01</totfact>
</mgrwt>
</event>
<event>
 8    1  0.1094795E-005  0.1195643E+04  0.7818608E-02  0.8618894E-01
         21   -1    0    0  503  502  0.00000000000E+00  0.00000000000E+00  0.89245103840E+03  0.89245103840E+03  0.00000000000E+00 0.  1.
         21   -1    0    0  501  503 -0.00000000000E+00 -0.00000000000E+00 -0.16408441436E+04  0.16408441436E+04  0.00000000000E+00 0.  1.
    9000010    2    1    2  501    0  0.39355726094E+03 -0.37601035915E+03 -0.68159678668E+03  0.13357874426E+04  0.10116732696E+04 0.  0.
   -9000010    2    1    2    0  502 -0.39355726094E+03  0.37601035915E+03 -0.66796318555E+02  0.11975077394E+04  0.10645618488E+04 0.  0.
        -13    1    3    3    0    0  0.19961658433E+02 -0.48992033142E+02 -0.81893378717E+03  0.82064075334E+03  0.10566000000E+00 0.  1.
          4    1    3    3  501    0  0.37359560250E+03 -0.32701832601E+03  0.13733700049E+03  0.51514668926E+03  0.00000000000E+00 0.  1.
         13    1    4    4    0    0  0.15912488461E+02  0.63918132179E+03 -0.23695301093E+03  0.68187440923E+03  0.10566000000E+00 0. -1.
         -4    1    4    4    0  502 -0.40946974940E+03 -0.26317096263E+03  0.17015669237E+03  0.51563333019E+03  0.00000000000E+00 0. -1.
<mgrwt>
<rscale>  2 0.11837578E+04</rscale>
<asrwt>0</asrwt>
<pdfrwt beam="1">  1       21 0.13730016E+00 0.11956434E+04</pdfrwt>
<pdfrwt beam="2">  1       21 0.25243756E+00 0.11956434E+04</pdfrwt>
<totfact> 0.92353646E+00</totfact>
</mgrwt>
</event>
<event>
 8    1  0.1094795E-005  0.1274916E+04  0.7818608E-02  0.8553808E-01
         21   -1    0    0  503  502  0.00000000000E+00  0.00000000000E+00  0.19515272923E+04  0.19515272923E+04  0.00000000000E+00 0.  1.
         21   -1    0    0  501  503 -0.00000000000E+00 -0.00000000000E+00 -0.13040231976E+04  0.13040231976E+04  0.00000000000E+00 0.  1.
    9000010    2    1    2  501    0 -0.22243108206E+02  0.79141128952E+03 -0.66163022771E+03  0.14281911282E+04  0.98749620533E+03 0.  0.
   -9000010    2    1    2    0  502  0.22243108206E+02 -0.79141128952E+03  0.13091343224E+04  0.18273593616E+04  0.99929123748E+03 0.  0.
        -13    1    3    3    0    0 -0.34345269509E+03  0.50775743476E+03 -0.77190300661E+03  0.98570362132E+03  0.10566000000E+00 0.  1.
          4    1    3    3  501    0  0.32120958688E+03  0.28365385476E+03  0.11027277889E+03  0.44248750693E+03  0.00000000000E+00 0.  1.
         13    1    4    4    0    0 -0.19847536763E+03  0.96629585141E+01  0.86032001428E+03  0.88297020473E+03  0.10566000000E+00 0. -1.
         -4    1    4    4    0  502  0.22071847583E+03 -0.80107424803E+03  0.44881430813E+03  0.94438915687E+03  0.00000000000E+00 0. -1.
<mgrwt>
<rscale>  2 0.12726033E+04</rscale>
<asrwt>0</asrwt>
<pdfrwt beam="1">  1       21 0.30023497E+00 0.12749155E+04</pdfrwt>
<pdfrwt beam="2">  1       21 0.20061895E+00 0.12749155E+04</pdfrwt>
<totfact> 0.11985564E+00</totfact>
</mgrwt>
</event>
<event>
 8    1  0.1094795E-005  0.1108325E+04  0.7818608E-02  0.8683693E-01
         21   -1    0    0  503  502  0.00000000000E+00  0.00000000000E+00  0.66948904063E+03  0.66948904063E+03  0.00000000000E+00 0.  1.
         21   -1    0    0  501  503 -0.00000000000E+00 -0.00000000000E+00 -0.18012321998E+04  0.18012321998E+04  0.00000000000E+00 0.  1.
    9000010    2    1    2  501    0 -0.33837175383E+03  0.27475531666E+03 -0.51810905359E+03  0.12234467679E+04  0.10190186822E+04 0.  0.
   -9000010    2    1    2    0  502  0.33837175383E+03 -0.27475531666E+03 -0.61363410556E+03  0.12472744725E+04  0.99456566723E+03 0.  0.
        -13    1    3    3    0    0 -0.34073415642E+03 -0.26285417196E+03 -0.53372519428E+03  0.68560533490E+03  0.10566000000E+00 0.  1.
          4    1    3    3  501    0  0.23624025888E+01  0.53760948862E+03  0.15616140689E+02  0.53784143300E+03  0.00000000000E+00 0.  1.
         13    1    4    4    0    0  0.31643263227E+03  0.23778816530E+03  0.60206914554E+02  0.40037195961E+03  0.10566000000E+00 0. -1.
         -4    1    4    4    0  502  0.21939121562E+02 -0.51254348196E+03 -0.67384102011E+03  0.84690251289E+03  0.00000000000E+00 0. -1.
<mgrwt>
<rscale>  2 0.11026722E+04</rscale>
<asrwt>0</asrwt>
<pdfrwt beam="1">  1       21 0.10299831E+00 0.11083253E+04</pdfrwt>
<pdfrwt beam="2">  1       21 0.27711265E+00 0.11083253E+04</pdfrwt>
<totfact> 0.13963634E+01</totfact>
</mgrwt>
</event>
<event>
 8    1  0.1094795E-005  0.1210206E+04  0.7818608E-02  0.8608973E-01
         21   -1    0    0  501  502  0.00000000000E+00  0.00000000000E+00  0.26296888237E+04  0.26296888237E+04  0.00000000000E+00 0. -1.
         21   -1    0    0  502  503 -0.00000000000E+00 -0.00000000000E+00 -0.76772866028E+03  0.76772866028E+03  0.00000000000E+00 0. -1.
   -9000010    2    1    2    0  503  0.39504113397E+03  0.57949846946E+03 -0.22642419255E+02  0.11577020582E+04  0.92080693029E+03 0.  0.
    9000010    2    1    2  501    0 -0.39504113397E+03 -0.57949846946E+03  0.18846025827E+04  0.22397154258E+04  0.98626686047E+03 0.  0.
        -13    1    4    4    0    0 -0.21061083734E+03 -0.83299264274E+03  0.16009815127E+04  0.18169687622E+04  0.10566000000E+00 0.  1.
          4    1    4    4  501    0 -0.18443029663E+03  0.25349417327E+03  0.28362106996E+03  0.42274666353E+03  0.00000000000E+00 0.  1.
         13    1    3    3    0    0 -0.15413459185E+03  0.58091969041E+03  0.52942561883E+02  0.60334740004E+03  0.10566000000E+00 0. -1.
         -4    1    3    3    0  503  0.54917572582E+03 -0.14212209445E+01 -0.75584981137E+02  0.55435465821E+03  0.00000000000E+00 0. -1.
<mgrwt>
<rscale>  2 0.11968036E+04</rscale>
<asrwt>0</asrwt>
<pdfrwt beam="1">  1       21 0.40456751E+00 0.12102059E+04</pdfrwt>
<pdfrwt beam="2">  1       21 0.11811210E+00 0.12102059E+04</pdfrwt>
<totfact> 0.11968411E+00</totfact>
</mgrwt>
</event>
<event>
 8    1  0.1094795E-005  0.1243936E+04  0.7818608E-02  0.8609423E-01
         21   -1    0    0  503  502  0.00000000000E+00  0.00000000000E+00  0.12199866917E+04  0.12199866917E+04  0.00000000000E+00 0. -1.
         21   -1    0    0  501  503 -0.00000000000E+00 -0.00000000000E+00 -0.10982781494E+04  0.10982781494E+04  0.00000000000E+00 0. -1.
    9000010    2    1    2  501    0 -0.22205041714E+03 -0.24240729993E+03 -0.26746736596E+02  0.12442237260E+04  0.11997123012E+04 0.  0.
   -9000010    2    1    2    0  502  0.22205041714E+03  0.24240729993E+03  0.14845527896E+03  0.10740411151E+04  0.10116608425E+04 0.  0.
        -13    1    3    3    0    0  0.35225098301E+03  0.29344437325E+03 -0.84277319468E+01  0.45854268400E+03  0.10566000000E+00 0.  1.
          4    1    3    3  501    0 -0.57430140014E+03 -0.53585167317E+03 -0.18319004649E+02  0.78568104201E+03  0.00000000000E+00 0.  1.
         13    1    4    4    0    0 -0.14563371539E+03  0.54936062533E+03 -0.13309078581E+02  0.56849223254E+03  0.10566000000E+00 0. -1.
         -4    1    4    4    0  502  0.36768413253E+03 -0.30695332540E+03  0.16176435754E+03  0.50554888256E+03  0.00000000000E+00 0. -1.
<mgrwt>
<rscale>  2 0.11962078E+04</rscale>
<asrwt>0</asrwt>
<pdfrwt beam="1">  1       21 0.18769026E+00 0.12439362E+04</pdfrwt>
<pdfrwt beam="2">  1       21 0.16896587E+00 0.12439362E+04</pdfrwt>
<totfact> 0.14852439E+01</totfact>
</mgrwt>
</event>
<event>
 8    1  0.1094795E-005  0.1013249E+04  0.7818608E-02  0.8763313E-01
         21   -1    0    0  501  502  0.00000000000E+00  0.00000000000E+00  0.15888649706E+04  0.15888649706E+04  0.00000000000E+00 0. -1.
         21   -1    0    0  502  503 -0.00000000000E+00 -0.00000000000E+00 -0.64328090773E+03  0.64328090773E+03  0.00000000000E+00 0. -1.
   -9000010    2    1    2    0  503  0.23875298443E+02  0.23540489211E+03  0.46110336927E+03  0.11090271136E+04  0.98047913209E+03 0.  0.
    9000010    2    1    2  501    0 -0.23875298443E+02 -0.23540489211E+03  0.48448069358E+03  0.11231187647E+04  0.98523536480E+03 0.  0.
        -13    1    4    4    0    0 -0.43861681634E+03 -0.15600539130E+03 -0.19094116504E+02  0.46592594920E+03  0.10566000000E+00 0.  1.
          4    1    4    4  501    0  0.41474151789E+03 -0.79399500805E+02  0.50357481008E+03  0.65719281550E+03  0.00000000000E+00 0.  1.
         13    1    3    3    0    0 -0.41343984843E+03  0.21655280959E+03  0.48183532887E+03  0.67081511828E+03  0.10566000000E+00 0. -1.
         -4    1    3    3    0  503  0.43731514687E+03  0.18852082518E+02 -0.20731959601E+02  0.43821199532E+03  0.00000000000E+00 0. -1.
<mgrwt>
<rscale>  2 0.10120913E+04</rscale>
<asrwt>0</asrwt>
<pdfrwt beam="1">  1       21 0.24444076E+00 0.10132493E+04</pdfrwt>
<pdfrwt beam="2">  1       21 0.98966294E-01 0.10132493E+04</pdfrwt>
<totfact> 0.27256898E+01</totfact>
</mgrwt>
</event>
<event>
 8    1  0.1094795E-005  0.1035525E+04  0.7818608E-02  0.8743375E-01
         21   -1    0    0  503  502  0.00000000000E+00  0.00000000000E+00  0.10805279822E+04  0.10805279822E+04  0.00000000000E+00 0. -1.
         21   -1    0    0  501  503 -0.00000000000E+00 -0.00000000000E+00 -0.98630319028E+03  0.98630319028E+03  0.00000000000E+00 0. -1.
    9000010    2    1    2  501    0 -0.23875066593E+03  0.29362208410E+02  0.57921142661E+02  0.10306698142E+04  0.10005305530E+04 0.  0.
   -9000010    2    1    2    0  502  0.23875066593E+03 -0.29362208410E+02  0.36303649296E+02  0.10361613583E+04  0.10071982852E+04 0.  0.
        -13    1    3    3    0    0 -0.61438641923E+03  0.67552217818E+02  0.16209462794E+03  0.63899033939E+03  0.10566000000E+00 0.  1.
          4    1    3    3  501    0  0.37563575330E+03 -0.38190009408E+02 -0.10417348528E+03  0.39167947484E+03  0.00000000000E+00 0.  1.
         13    1    4    4    0    0  0.16288411431E+02 -0.33527922424E+03  0.39259063479E+03  0.51653159463E+03  0.10566000000E+00 0. -1.
         -4    1    4    4    0  502  0.22246225450E+03  0.30591701583E+03 -0.35628698550E+03  0.51962976366E+03  0.00000000000E+00 0. -1.
<mgrwt>
<rscale>  2 0.10339003E+04</rscale>
<asrwt>0</asrwt>
<pdfrwt beam="1">  1       21 0.16623507E+00 0.10355252E+04</pdfrwt>
<pdfrwt beam="2">  1       21 0.15173895E+00 0.10355252E+04</pdfrwt>
<totfact> 0.32819567E+01</totfact>
</mgrwt>
</event>
<event>
 8    1  0.1094795E-005  0.1088345E+04  0.7818608E-02  0.8696160E-01
         21   -1    0    0  501  502  0.00000000000E+00  0.00000000000E+00  0.20193503636E+04  0.20193503636E+04  0.00000000000E+00 0.  1.
         21   -1    0    0  502  503 -0.00000000000E+00 -0.00000000000E+00 -0.85691902870E+03  0.85691902870E+03  0.00000000000E+00 0.  1.
   -9000010    2    1    2    0  503  0.12444261602E+03  0.41971727115E+03 -0.22777106874E+03  0.11119233570E+04  0.99641624827E+03 0.  0.
    9000010    2    1    2  501    0 -0.12444261602E+03 -0.41971727115E+03  0.13902024037E+04  0.17643460353E+04  0.99428650634E+03 0.  0.
        -13    1    4    4    0    0 -0.47087002724E+03  0.48067841435E+02  0.83561393090E+03  0.96035397256E+03  0.10566000000E+00 0.  1.
          4    1    4    4  501    0  0.34642741122E+03 -0.46778511258E+03  0.55458847278E+03  0.80399206274E+03  0.00000000000E+00 0.  1.
         13    1    3    3    0    0  0.47651980572E+03  0.47828849309E+03  0.23285241304E+02  0.67555401079E+03  0.10566000000E+00 0. -1.
         -4    1    3    3    0  503 -0.35207718969E+03 -0.58571221946E+02 -0.25105631005E+03  0.43636934626E+03  0.00000000000E+00 0. -1.
<mgrwt>
<rscale>  2 0.10878569E+04</rscale>
<asrwt>0</asrwt>
<pdfrwt beam="1">  1       21 0.31066929E+00 0.10883446E+04</pdfrwt>
<pdfrwt beam="2">  1       21 0.13183370E+00 0.10883446E+04</pdfrwt>
<totfact> 0.40913765E+00</totfact>
</mgrwt>
</event>
<event>
 8    1  0.1094795E-005  0.1363920E+04  0.7818608E-02  0.8526986E-01
         21   -1    0    0  503  502  0.00000000000E+00  0.00000000000E+00  0.17660796728E+04  0.17660796728E+04  0.00000000000E+00 0. -1.
         21   -1    0    0  501  503 -0.00000000000E+00 -0.00000000000E+00 -0.91763593481E+03  0.91763593481E+03  0.00000000000E+00 0. -1.
    9000010    2    1    2  501    0  0.43784751951E+03  0.51009337069E+03  0.24196393233E+03  0.11910350129E+04  0.95294919075E+03 0.  0.
   -9000010    2    1    2    0  502 -0.43784751951E+03 -0.51009337069E+03  0.60647980561E+03  0.14926805947E+04  0.11867484595E+04 0.  0.
        -13    1    3    3    0    0  0.38014853403E+03  0.12381601133E+03 -0.31624522501E+03  0.50975912556E+03  0.10566000000E+00 0.  1.
          4    1    3    3  501    0  0.57698985480E+02  0.38627735936E+03  0.55820915734E+03  0.68127588730E+03  0.00000000000E+00 0.  1.
         13    1    4    4    0    0 -0.27585039744E+03  0.27055475224E+03  0.57754630376E+03  0.69487629106E+03  0.10566000000E+00 0. -1.
         -4    1    4    4    0  502 -0.16199712207E+03 -0.78064812293E+03  0.28933501848E+02  0.79780430365E+03  0.00000000000E+00 0. -1.
<mgrwt>
<rscale>  2 0.13115496E+04</rscale>
<asrwt>0</asrwt>
<pdfrwt beam="1">  1       21 0.27170457E+00 0.13639199E+04</pdfrwt>
<pdfrwt beam="2">  1       21 0.14117476E+00 0.13639199E+04</pdfrwt>
<totfact> 0.59722527E+00</totfact>
</mgrwt>
</event>
<event>
 8    1  0.1094795E-005  0.1016159E+04  0.7818608E-02  0.8759752E-01
         21   -1    0    0  503  502  0.00000000000E+00  0.00000000000E+00  0.12167104076E+04  0.12167104076E+04  0.00000000000E+00 0. -1.
         21   -1    0    0  501  503 -0.00000000000E+00 -0.00000000000E+00 -0.84915628346E+03  0.84915628346E+03  0.00000000000E+00 0. -1.
    9000010    2    1    2  501    0 -0.13583188766E+03 -0.75801680344E+02  0.22274172852E+03  0.10402852592E+04  0.10041829248E+04 0.  0.
   -9000010    2    1    2    0  502  0.13583188766E+03  0.75801680344E+02  0.14481239566E+03  0.10255814319E+04  0.10033197133E+04 0.  0.
        -13    1    3    3    0    0  0.35897690831E+03 -0.27558673059E+03 -0.22260030742E+02  0.45310924390E+03  0.10566000000E+00 0.  1.
          4    1    3    3  501    0 -0.49480879597E+03  0.19978505024E+03  0.24500175926E+03  0.58717601527E+03  0.00000000000E+00 0.  1.
         13    1    4    4    0    0  0.53617311129E+03  0.20392700699E+03 -0.20220998414E+02  0.57400063536E+03  0.10566000000E+00 0. -1.
         -4    1    4    4    0  502 -0.40034122364E+03 -0.12812532665E+03  0.16503339408E+03  0.45158079657E+03  0.00000000000E+00 0. -1.
<mgrwt>
<rscale>  2 0.10159459E+04</rscale>
<asrwt>0</asrwt>
<pdfrwt beam="1">  1       21 0.18718622E+00 0.10161592E+04</pdfrwt>
<pdfrwt beam="2">  1       21 0.13063943E+00 0.10161592E+04</pdfrwt>
<totfact> 0.34674020E+01</totfact>
</mgrwt>
</event>
<event>
 8    1  0.1094795E-005  0.1081855E+04  0.7818608E-02  0.8706321E-01
         21   -1    0    0  501  502  0.00000000000E+00  0.00000000000E+00  0.15353343772E+04  0.15353343772E+04  0.00000000000E+00 0. -1.
         21   -1    0    0  502  503 -0.00000000000E+00 -0.00000000000E+00 -0.74610896186E+03  0.74610896186E+03  0.00000000000E+00 0. -1.
   -9000010    2    1    2    0  503  0.43191105928E+02  0.35954521391E+03  0.41675150068E+03  0.11593498412E+04  0.10194469130E+04 0.  0.
    9000010    2    1    2  501    0 -0.43191105928E+02 -0.35954521391E+03  0.37247391462E+03  0.11220934978E+04  0.99459477595E+03 0.  0.
        -13    1    4    4    0    0  0.45297544382E+03 -0.36419908073E+02  0.24555220610E+03  0.51653563235E+03  0.10566000000E+00 0.  1.
          4    1    4    4  501    0 -0.49616654974E+03 -0.32312530584E+03  0.12692170851E+03  0.60555786548E+03  0.00000000000E+00 0.  1.
         13    1    3    3    0    0 -0.88316322171E+02  0.39681482501E+03 -0.25098915964E+03  0.47776285700E+03  0.10566000000E+00 0. -1.
         -4    1    3    3    0  503  0.13150742810E+03 -0.37269611101E+02  0.66774066032E+03  0.68158698418E+03  0.00000000000E+00 0. -1.
<mgrwt>
<rscale>  2 0.10759605E+04</rscale>
<asrwt>0</asrwt>
<pdfrwt beam="1">  1       21 0.23620529E+00 0.10818550E+04</pdfrwt>
<pdfrwt beam="2">  1       21 0.11478599E+00 0.10818550E+04</pdfrwt>
<totfact> 0.20736045E+01</totfact>
</mgrwt>
</event>
<event>
 8    1  0.1094795E-005  0.1147254E+04  0.7818608E-02  0.8648255E-01
         21   -1    0    0  501  502  0.00000000000E+00  0.00000000000E+00  0.73256542866E+03  0.73256542866E+03  0.00000000000E+00 0. -1.
         21   -1    0    0  502  503 -0.00000000000E+00 -0.00000000000E+00 -0.17910713650E+04  0.17910713650E+04  0.00000000000E+00 0. -1.
   -9000010    2    1    2    0  503  0.54834663092E+03  0.43578088496E+02 -0.49643895007E+03  0.12500575269E+04  0.10067815612E+04 0.  0.
    9000010    2    1    2  501    0 -0.54834663092E+03 -0.43578088496E+02 -0.56206698629E+03  0.12735792668E+04  0.10017493570E+04 0.  0.
        -13    1    4    4    0    0 -0.16779935722E+03  0.40623280592E+03  0.27093784117E+02  0.44035871876E+03  0.10566000000E+00 0.  1.
          4    1    4    4  501    0 -0.38054727370E+03 -0.44981089441E+03 -0.58916077041E+03  0.83322054802E+03  0.00000000000E+00 0.  1.
         13    1    3    3    0    0  0.90832392081E+01 -0.41779457428E+03 -0.29760383886E+03  0.51303300829E+03  0.10566000000E+00 0. -1.
         -4    1    3    3    0  503  0.53926339171E+03  0.46137266277E+03 -0.19883511121E+03  0.73702451862E+03  0.00000000000E+00 0. -1.
<mgrwt>
<rscale>  2 0.11461492E+04</rscale>
<asrwt>0</asrwt>
<pdfrwt beam="1">  1       21 0.11270237E+00 0.11472542E+04</pdfrwt>
<pdfrwt beam="2">  1       21 0.27554944E+00 0.11472542E+04</pdfrwt>
<totfact> 0.11150862E+01</totfact>
</mgrwt>
</event>
<event>
 8    1  0.1094795E-005  0.1059244E+04  0.7818608E-02  0.8723405E-01
         21   -1    0    0  501  502  0.00000000000E+00  0.00000000000E+00  0.71370023739E+03  0.71370023739E+03  0.00000000000E+00 0. -1.
         21   -1    0    0  502  503 -0.00000000000E+00 -0.00000000000E+00 -0.15815450208E+04  0.15815450208E+04  0.00000000000E+00 0. -1.
   -9000010    2    1    2    0  503  0.37174009123E+03  0.14008212934E+02 -0.58074172273E+03  0.11977815532E+04  0.97930218794E+03 0.  0.
    9000010    2    1    2  501    0 -0.37174009123E+03 -0.14008212934E+02 -0.28710306072E+03  0.10974637050E+04  0.99177189455E+03 0.  0.
        -13    1    4    4    0    0 -0.13691153071E+03 -0.48967769755E+03 -0.33708452706E+02  0.50957363125E+03  0.10566000000E+00 0.  1.
          4    1    4    4  501    0 -0.23482856052E+03  0.47566948461E+03 -0.25339460801E+03  0.58789007373E+03  0.00000000000E+00 0.  1.
         13    1    3    3    0    0 -0.34614339756E+02  0.28030109730E+03  0.15037026950E+03  0.31996575876E+03  0.10566000000E+00 0. -1.
         -4    1    3    3    0  503  0.40635443099E+03 -0.26629288437E+03 -0.73111199223E+03  0.87781579448E+03  0.00000000000E+00 0. -1.
<mgrwt>
<rscale>  2 0.10563156E+04</rscale>
<asrwt>0</asrwt>
<pdfrwt beam="1">  1       21 0.10980004E+00 0.10592443E+04</pdfrwt>
<pdfrwt beam="2">  1       21 0.24331462E+00 0.10592443E+04</pdfrwt>
<totfact> 0.20862910E+01</totfact>
</mgrwt>
</event>
<event>
 8    1  0.1094795E-005  0.1176405E+04  0.7818608E-02  0.8629169E-01
         21   -1    0    0  501  502  0.00000000000E+00  0.00000000000E+00  0.18800008009E+04  0.18800008009E+04  0.00000000000E+00 0. -1.
         21   -1    0    0  502  503 -0.00000000000E+00 -0.00000000000E+00 -0.10992289408E+04  0.10992289408E+04  0.00000000000E+00 0.  1.
   -9000010    2    1    2    0  503 -0.53191416646E+03  0.30360148241E+03 -0.48556740325E+03  0.12507783374E+04  0.97650612170E+03 0.  0.
    9000010    2    1    2  501    0  0.53191416646E+03 -0.30360148241E+03  0.12663392633E+04  0.17284514043E+04  0.10044016063E+04 0.  0.
        -13    1    4    4    0    0 -0.25097832209E+03  0.12449080544E+03  0.24433417649E+03  0.37173549705E+03  0.10566000000E+00 0.  1.
          4    1    4    4  501    0  0.78289248855E+03 -0.42809228785E+03  0.10220050868E+04  0.13567159073E+04  0.00000000000E+00 0.  1.
         13    1    3    3    0    0 -0.55272197701E+03  0.22731738373E+03  0.14523868179E+03  0.61503582227E+03  0.10566000000E+00 0. -1.
         -4    1    3    3    0  503  0.20807810550E+02  0.76284098681E+02 -0.63080608504E+03  0.63574251518E+03  0.00000000000E+00 0. -1.
<mgrwt>
<rscale>  2 0.11704284E+04</rscale>
<asrwt>0</asrwt>
<pdfrwt beam="1">  1       21 0.28923089E+00 0.11764052E+04</pdfrwt>
<pdfrwt beam="2">  1       21 0.16911214E+00 0.11764052E+04</pdfrwt>
<totfact> 0.26386595E+00</totfact>
</mgrwt>
</event>
<event>
 8    1  0.1094795E-005  0.1054058E+04  0.7818608E-02  0.8733481E-01
         21   -1    0    0  503  502  0.00000000000E+00  0.00000000000E+00  0.16261842566E+04  0.16261842566E+04  0.00000000000E+00 0.  1.
         21   -1    0    0  501  503 -0.00000000000E+00 -0.00000000000E+00 -0.66591661527E+03  0.66591661527E+03  0.00000000000E+00 0.  1.
    9000010    2    1    2  501    0  0.51188900312E+02 -0.25529193796E+03  0.38098639027E+03  0.11207986793E+04  0.10213935445E+04 0.  0.
   -9000010    2    1    2    0  502 -0.51188900312E+02  0.25529193796E+03  0.57928125105E+03  0.11713021926E+04  0.98416857369E+03 0.  0.
        -13    1    3    3    0    0 -0.16180107514E+03 -0.33700540698E+03  0.66114022130E+03  0.75951210368E+03  0.10566000000E+00 0.  1.
          4    1    3    3  501    0  0.21298997545E+03  0.81713469015E+02 -0.28015383103E+03  0.36128657559E+03  0.00000000000E+00 0.  1.
         13    1    4    4    0    0 -0.38523054721E+03  0.47891721974E+03  0.38027354170E+03  0.72275324666E+03  0.10566000000E+00 0. -1.
         -4    1    4    4    0  502  0.33404164690E+03 -0.22362528178E+03  0.19900770935E+03  0.44854894593E+03  0.00000000000E+00 0. -1.
<mgrwt>
<rscale>  2 0.10449331E+04</rscale>
<asrwt>0</asrwt>
<pdfrwt beam="1">  1       21 0.25018219E+00 0.10540584E+04</pdfrwt>
<pdfrwt beam="2">  1       21 0.10244871E+00 0.10540584E+04</pdfrwt>
<totfact> 0.22394904E+01</totfact>
</mgrwt>
</event>
<event>
 8    1  0.1094795E-005  0.1203286E+04  0.7818608E-02  0.8606400E-01
         21   -1    0    0  501  502  0.00000000000E+00  0.00000000000E+00  0.17647362439E+04  0.17647362439E+04  0.00000000000E+00 0.  1.
         21   -1    0    0  502  503 -0.00000000000E+00 -0.00000000000E+00 -0.96584222635E+03  0.96584222635E+03  0.00000000000E+00 0.  1.
   -9000010    2    1    2    0  503 -0.61544275553E+03  0.17127651634E+03  0.94579852286E+03  0.15305002489E+04  0.10197012972E+04 0.  0.
    9000010    2    1    2  501    0  0.61544275553E+03 -0.17127651634E+03 -0.14690450530E+03  0.12000782214E+04  0.10052369738E+04 0.  0.
        -13    1    4    4    0    0  0.88086996113E+03 -0.24353510003E+03 -0.14248386679E+03  0.92495561884E+03  0.10566000000E+00 0.  1.
          4    1    4    4  501    0 -0.26542720561E+03  0.72258583687E+02 -0.44206385173E+01  0.27512260256E+03  0.00000000000E+00 0.  1.
         13    1    3    3    0    0 -0.53884185748E+03  0.56329887367E+03  0.47399745005E+03  0.91232108507E+03  0.10566000000E+00 0. -1.
         -4    1    3    3    0  503 -0.76600898048E+02 -0.39202235733E+03  0.47180107281E+03  0.61817916378E+03  0.00000000000E+00 0. -1.
<mgrwt>
<rscale>  2 0.12002157E+04</rscale>
<asrwt>0</asrwt>
<pdfrwt beam="1">  1       21 0.27149789E+00 0.12032856E+04</pdfrwt>
<pdfrwt beam="2">  1       21 0.14859111E+00 0.12032856E+04</pdfrwt>
<totfact> 0.52918822E+00</totfact>
</mgrwt>
</event>
<event>
 8    1  0.1094795E-005  0.1174935E+04  0.7818608E-02  0.8628997E-01
         21   -1    0    0  501  502  0.00000000000E+00  0.00000000000E+00  0.10431410780E+04  0.10431410780E+04  0.00000000000E+00 0.  1.
         21   -1    0    0  502  503 -0.00000000000E+00 -0.00000000000E+00 -0.13043617828E+04  0.13043617828E+04  0.00000000000E+00 0.  1.
   -9000010    2    1    2    0  503 -0.29486906288E+03 -0.51257262268E+03 -0.14033224734E+03  0.11663655059E+04  0.99550836051E+03 0.  0.
    9000010    2    1    2  501    0  0.29486906288E+03  0.51257262268E+03 -0.12088845749E+03  0.11811373549E+04  0.10152797517E+04 0.  0.
        -13    1    4    4    0    0  0.35821388924E+03 -0.20858400644E+03 -0.18589295546E+03  0.45429140455E+03  0.10566000000E+00 0.  1.
          4    1    4    4  501    0 -0.63344826360E+02  0.72115662913E+03  0.65004497969E+02  0.72684595033E+03  0.00000000000E+00 0.  1.
         13    1    3    3    0    0  0.13137450613E+03 -0.55561261579E+03  0.21469497849E+03  0.60996605204E+03  0.10566000000E+00 0. -1.
         -4    1    3    3    0  503 -0.42624356902E+03  0.43039993102E+02 -0.35502722583E+03  0.55639945382E+03  0.00000000000E+00 0. -1.
<mgrwt>
<rscale>  2 0.11706508E+04</rscale>
<asrwt>0</asrwt>
<pdfrwt beam="1">  1       21 0.16048324E+00 0.11749347E+04</pdfrwt>
<pdfrwt beam="2">  1       21 0.20067104E+00 0.11749347E+04</pdfrwt>
<totfact> 0.14037480E+01</totfact>
</mgrwt>
</event>
<event>
 8    1  0.1094795E-005  0.1155498E+04  0.7818608E-02  0.8642496E-01
         21   -1    0    0  503  502  0.00000000000E+00  0.00000000000E+00  0.73784491329E+03  0.73784491329E+03  0.00000000000E+00 0. -1.
         21   -1    0    0  501  503 -0.00000000000E+00 -0.00000000000E+00 -0.19454106596E+04  0.19454106596E+04  0.00000000000E+00 0.  1.
    9000010    2    1    2  501    0  0.21715428335E+03 -0.53103272742E+03 -0.97289509969E+03  0.15041689913E+04  0.99340210335E+03 0.  0.
   -9000010    2    1    2    0  502 -0.21715428335E+03  0.53103272742E+03 -0.23467064667E+03  0.11790865817E+04  0.10030070360E+04 0.  0.
        -13    1    3    3    0    0  0.45702546505E+03  0.37269105836E+02 -0.16417076311E+03  0.48704549333E+03  0.10566000000E+00 0.  1.
          4    1    3    3  501    0 -0.23987118170E+03 -0.56830183325E+03 -0.80872433658E+03  0.10171234979E+04  0.00000000000E+00 0.  1.
         13    1    4    4    0    0  0.36822206536E+03  0.64924318338E+01 -0.10011744791E+03  0.38164532701E+03  0.10566000000E+00 0. -1.
         -4    1    4    4    0  502 -0.58537634871E+03  0.52454029558E+03 -0.13455319876E+03  0.79744125465E+03  0.00000000000E+00 0. -1.
<mgrwt>
<rscale>  2 0.11534102E+04</rscale>
<asrwt>0</asrwt>
<pdfrwt beam="1">  1       21 0.11351460E+00 0.11554977E+04</pdfrwt>
<pdfrwt beam="2">  1       21 0.29929394E+00 0.11554977E+04</pdfrwt>
<totfact> 0.73996011E+00</totfact>
</mgrwt>
</event>
<event>
 8    1  0.1094795E-005  0.1039365E+04  0.7818608E-02  0.8740199E-01
         21   -1    0    0  503  502  0.00000000000E+00  0.00000000000E+00  0.70559779960E+03  0.70559779960E+03  0.00000000000E+00 0. -1.
         21   -1    0    0  501  503 -0.00000000000E+00 -0.00000000000E+00 -0.15818515791E+04  0.15818515791E+04  0.00000000000E+00 0. -1.
    9000010    2    1    2  501    0 -0.26794278282E+03 -0.73736367627E+02 -0.21290011838E+03  0.10609461938E+04  0.10015238284E+04 0.  0.
   -9000010    2    1    2    0  502  0.26794278282E+03  0.73736367627E+02 -0.66335366115E+03  0.12265031850E+04  0.99349967094E+03 0.  0.
        -13    1    3    3    0    0  0.34910830665E+03 -0.15642306439E+03  0.48725531907E+02  0.38564099039E+03  0.10566000000E+00 0.  1.
          4    1    3    3  501    0 -0.61705108947E+03  0.82686696764E+02 -0.26162565029E+03  0.67530520339E+03  0.00000000000E+00 0.  1.
         13    1    4    4    0    0 -0.31998150259E+03  0.19255582994E+03 -0.46142335380E+03  0.59361387470E+03  0.10566000000E+00 0. -1.
         -4    1    4    4    0  502  0.58792428541E+03 -0.11881946232E+03 -0.20193030735E+03  0.63288931025E+03  0.00000000000E+00 0. -1.
<mgrwt>
<rscale>  2 0.10374275E+04</rscale>
<asrwt>0</asrwt>
<pdfrwt beam="1">  1       21 0.10855351E+00 0.10393654E+04</pdfrwt>
<pdfrwt beam="2">  1       21 0.24336178E+00 0.10393654E+04</pdfrwt>
<totfact> 0.21594564E+01</totfact>
</mgrwt>
</event>
<event>
 8    1  0.1094795E-005  0.1025661E+04  0.7818608E-02  0.8751413E-01
         21   -1    0    0  501  502  0.00000000000E+00  0.00000000000E+00  0.17740498230E+04  0.17740498230E+04  0.00000000000E+00 0.  1.
         21   -1    0    0  502  503 -0.00000000000E+00 -0.00000000000E+00 -0.59771442352E+03  0.59771442352E+03  0.00000000000E+00 0.  1.
   -9000010    2    1    2    0  503 -0.13191564034E+03  0.31055239362E+03  0.46703069928E+03  0.11247301583E+04  0.96594809884E+03 0.  0.
    9000010    2    1    2  501    0  0.13191564034E+03 -0.31055239362E+03  0.70930470015E+03  0.12470340881E+04  0.96857438225E+03 0.  0.
        -13    1    4    4    0    0 -0.41591612119E+03 -0.62430181500E+02  0.34432172304E+03  0.54354503727E+03  0.10566000000E+00 0.  1.
          4    1    4    4  501    0  0.54783176153E+03 -0.24812221212E+03  0.36498297712E+03  0.70348905086E+03  0.00000000000E+00 0.  1.
         13    1    3    3    0    0 -0.33144760429E+03 -0.16390107026E+03 -0.74966477699E+02  0.37728114075E+03  0.10566000000E+00 0. -1.
         -4    1    3    3    0  503  0.19953196395E+03  0.47445346388E+03  0.54199717698E+03  0.74744901758E+03  0.00000000000E+00 0. -1.
<mgrwt>
<rscale>  2 0.10250407E+04</rscale>
<asrwt>0</asrwt>
<pdfrwt beam="1">  1       21 0.27293074E+00 0.10256612E+04</pdfrwt>
<pdfrwt beam="2">  1       21 0.91956066E-01 0.10256612E+04</pdfrwt>
<totfact> 0.20434634E+01</totfact>
</mgrwt>
</event>
<event>
 8    1  0.1094795E-005  0.1204325E+04  0.7818608E-02  0.8607168E-01
         21   -1    0    0  501  502  0.00000000000E+00  0.00000000000E+00  0.72303501246E+03  0.72303501246E+03  0.00000000000E+00 0.  1.
         21   -1    0    0  502  503 -0.00000000000E+00 -0.00000000000E+00 -0.19765993385E+04  0.19765993385E+04  0.00000000000E+00 0.  1.
   -9000010    2    1    2    0  503 -0.60918293906E+03 -0.19224092113E+03 -0.68529349646E+03  0.13679697201E+04  0.99682172613E+03 0.  0.
    9000010    2    1    2  501    0  0.60918293906E+03  0.19224092113E+03 -0.56827082963E+03  0.13316646310E+04  0.10209498168E+04 0.  0.
        -13    1    4    4    0    0  0.26790129940E+02  0.17676391191E+03 -0.70992648122E+03  0.73209207858E+03  0.10566000000E+00 0.  1.
          4    1    4    4  501    0  0.58239280912E+03  0.15477009226E+02  0.14165565159E+03  0.59957255237E+03  0.00000000000E+00 0.  1.
         13    1    3    3    0    0  0.11110272612E+03 -0.73813615753E+02  0.18753613884E+03  0.23013491729E+03  0.10566000000E+00 0. -1.
         -4    1    3    3    0  503 -0.72028566518E+03 -0.11842730538E+03 -0.87282963530E+03  0.11378348028E+04  0.00000000000E+00 0. -1.
<mgrwt>
<rscale>  2 0.11991962E+04</rscale>
<asrwt>0</asrwt>
<pdfrwt beam="1">  1       21 0.11123615E+00 0.12043251E+04</pdfrwt>
<pdfrwt beam="2">  1       21 0.30409221E+00 0.12043251E+04</pdfrwt>
<totfact> 0.71612876E+00</totfact>
</mgrwt>
</event>
<event>
 8    1  0.1094795E-005  0.1088730E+04  0.7818608E-02  0.8700573E-01
         21   -1    0    0  503  502  0.00000000000E+00  0.00000000000E+00  0.12798111806E+04  0.12798111806E+04  0.00000000000E+00 0. -1.
         21   -1    0    0  501  503 -0.00000000000E+00 -0.00000000000E+00 -0.14174680567E+04  0.14174680567E+04  0.00000000000E+00 0. -1.
    9000010    2    1    2  501    0  0.47426445268E+02 -0.42688827762E+03 -0.87953050203E+03  0.13996097511E+04  0.10004252506E+04 0.  0.
   -9000010    2    1    2    0  502 -0.47426445268E+02  0.42688827762E+03  0.74187362599E+03  0.12976694862E+04  0.97421083409E+03 0.  0.
        -13    1    3    3    0    0  0.25276974381E+03  0.22599944662E+03 -0.53491837024E+03  0.63332927237E+03  0.10566000000E+00 0.  1.
          4    1    3    3  501    0 -0.20534329854E+03 -0.65288772424E+03 -0.34461213179E+03  0.76628047873E+03  0.00000000000E+00 0.  1.
         13    1    4    4    0    0 -0.23487738774E+03  0.66115389730E+03  0.29889284032E+03  0.76264592331E+03  0.10566000000E+00 0. -1.
         -4    1    4    4    0  502  0.18745094247E+03 -0.23426561968E+03  0.44298078567E+03  0.53502356291E+03  0.00000000000E+00 0. -1.
<mgrwt>
<rscale>  2 0.10826703E+04</rscale>
<asrwt>0</asrwt>
<pdfrwt beam="1">  1       21 0.19689403E+00 0.10887302E+04</pdfrwt>
<pdfrwt beam="2">  1       21 0.21807201E+00 0.10887302E+04</pdfrwt>
<totfact> 0.52815051E+00</totfact>
</mgrwt>
</event>
<event>
 8    1  0.1094795E-005  0.1078174E+04  0.7818608E-02  0.8706392E-01
         21   -1    0    0  503  502  0.00000000000E+00  0.00000000000E+00  0.95637618013E+03  0.95637618013E+03  0.00000000000E+00 0. -1.
         21   -1    0    0  501  503 -0.00000000000E+00 -0.00000000000E+00 -0.12480306440E+04  0.12480306440E+04  0.00000000000E+00 0. -1.
    9000010    2    1    2  501    0  0.25059591580E+03 -0.29109212815E+03  0.58987697804E+02  0.10706482816E+04  0.99763483013E+03 0.  0.
   -9000010    2    1    2    0  502 -0.25059591580E+03  0.29109212815E+03 -0.35064216168E+03  0.11337585426E+04  0.10074351429E+04 0.  0.
        -13    1    3    3    0    0  0.55373007490E+03  0.87676532634E+02  0.14231353139E+03  0.57840930370E+03  0.10566000000E+00 0.  1.
          4    1    3    3  501    0 -0.30313415910E+03 -0.37876866079E+03 -0.83325833590E+02  0.49223897789E+03  0.00000000000E+00 0.  1.
         13    1    4    4    0    0 -0.65255569721E+02  0.66106211631E+03 -0.22357599377E+03  0.70089060998E+03  0.10566000000E+00 0. -1.
         -4    1    4    4    0  502 -0.18534034608E+03 -0.36996998816E+03 -0.12706616790E+03  0.43286793257E+03  0.00000000000E+00 0. -1.
<mgrwt>
<rscale>  2 0.10758785E+04</rscale>
<asrwt>0</asrwt>
<pdfrwt beam="1">  1       21 0.14713480E+00 0.10781737E+04</pdfrwt>
<pdfrwt beam="2">  1       21 0.19200471E+00 0.10781737E+04</pdfrwt>
<totfact> 0.21987664E+01</totfact>
</mgrwt>
</event>
<event>
 8    1  0.1094795E-005  0.1089687E+04  0.7818608E-02  0.8695874E-01
         21   -1    0    0  503  502  0.00000000000E+00  0.00000000000E+00  0.13698737158E+04  0.13698737158E+04  0.00000000000E+00 0.  1.
         21   -1    0    0  501  503 -0.00000000000E+00 -0.00000000000E+00 -0.86863511592E+03  0.86863511592E+03  0.00000000000E+00 0.  1.
    9000010    2    1    2  501    0  0.44742367315E+03 -0.24703451190E+02  0.15402651400E+03  0.11005189896E+04  0.99328730770E+03 0.  0.
   -9000010    2    1    2    0  502 -0.44742367315E+03  0.24703451190E+02  0.34721208587E+03  0.11379898421E+04  0.98674537973E+03 0.  0.
        -13    1    3    3    0    0  0.32224781340E+03 -0.87555124457E+01  0.57600480095E+03  0.66007715770E+03  0.10566000000E+00 0.  1.
          4    1    3    3  501    0  0.12517585975E+03 -0.15947938744E+02 -0.42197828695E+03  0.44044183189E+03  0.00000000000E+00 0.  1.
         13    1    4    4    0    0 -0.47736685047E+03  0.44444740979E+03  0.13246696761E+03  0.66555249129E+03  0.10566000000E+00 0. -1.
         -4    1    4    4    0  502  0.29943177325E+02 -0.41974395860E+03  0.21474511826E+03  0.47243735084E+03  0.00000000000E+00 0. -1.
<mgrwt>
<rscale>  2 0.10881940E+04</rscale>
<asrwt>0</asrwt>
<pdfrwt beam="1">  1       21 0.21074980E+00 0.10896871E+04</pdfrwt>
<pdfrwt beam="2">  1       21 0.13363617E+00 0.10896871E+04</pdfrwt>
<totfact> 0.20888617E+01</totfact>
</mgrwt>
</event>
<event>
 8    1  0.1094795E-005  0.1057407E+04  0.7818608E-02  0.8732543E-01
         21   -1    0    0  503  502  0.00000000000E+00  0.00000000000E+00  0.12775698649E+04  0.12775698649E+04  0.00000000000E+00 0. -1.
         21   -1    0    0  501  503 -0.00000000000E+00 -0.00000000000E+00 -0.84240041940E+03  0.84240041940E+03  0.00000000000E+00 0. -1.
    9000010    2    1    2  501    0  0.16382971855E+03 -0.62327562689E+02  0.28611323832E+03  0.10521087198E+04  0.99716952995E+03 0.  0.
   -9000010    2    1    2    0  502 -0.16382971855E+03  0.62327562689E+02  0.14905620719E+03  0.10678615645E+04  0.10427778605E+04 0.  0.
        -13    1    3    3    0    0  0.43959619813E+02  0.44388519154E+03 -0.23601211473E+02  0.44668057915E+03  0.10566000000E+00 0.  1.
          4    1    3    3  501    0  0.11987009874E+03 -0.50621275423E+03  0.30971444980E+03  0.60542814068E+03  0.00000000000E+00 0.  1.
         13    1    4    4    0    0 -0.29321995136E+03 -0.24222095677E+03  0.47154691700E+03  0.60580973735E+03  0.10566000000E+00 0. -1.
         -4    1    4    4    0  502  0.12939023281E+03  0.30454851946E+03 -0.32249070981E+03  0.46205182714E+03  0.00000000000E+00 0. -1.
<mgrwt>
<rscale>  2 0.10459865E+04</rscale>
<asrwt>0</asrwt>
<pdfrwt beam="1">  1       21 0.19654921E+00 0.10574075E+04</pdfrwt>
<pdfrwt beam="2">  1       21 0.12960007E+00 0.10574075E+04</pdfrwt>
<totfact> 0.29630607E+01</totfact>
</mgrwt>
</event>
<event>
 8    1  0.1094795E-005  0.1295975E+04  0.7818608E-02  0.8549305E-01
         21   -1    0    0  501  502  0.00000000000E+00  0.00000000000E+00  0.12783259902E+04  0.12783259902E+04  0.00000000000E+00 0. -1.
         21   -1    0    0  502  503 -0.00000000000E+00 -0.00000000000E+00 -0.12474307429E+04  0.12474307429E+04  0.00000000000E+00 0. -1.
   -9000010    2    1    2    0  503  0.14199844484E+03  0.81710310431E+03  0.97138418628E+01  0.12960115789E+04  0.99585672286E+03 0.  0.
    9000010    2    1    2  501    0 -0.14199844484E+03 -0.81710310431E+03  0.21181405442E+02  0.12297451542E+04  0.90774635830E+03 0.  0.
        -13    1    4    4    0    0  0.31689242111E+02 -0.24330159447E+03 -0.41929930694E+03  0.48581045059E+03  0.10566000000E+00 0.  1.
          4    1    4    4  501    0 -0.17368768695E+03 -0.57380150984E+03  0.44048071239E+03  0.74393470363E+03  0.00000000000E+00 0.  1.
         13    1    3    3    0    0 -0.22390496963E+03  0.84284297851E+03  0.18182896907E+03  0.89083079595E+03  0.10566000000E+00 0. -1.
         -4    1    3    3    0  503  0.36590341447E+03 -0.25739874202E+02 -0.17211512721E+03  0.40518078294E+03  0.00000000000E+00 0. -1.
<mgrwt>
<rscale>  2 0.12790431E+04</rscale>
<asrwt>0</asrwt>
<pdfrwt beam="1">  1       21 0.19666554E+00 0.12959752E+04</pdfrwt>
<pdfrwt beam="2">  1       21 0.19191242E+00 0.12959752E+04</pdfrwt>
<totfact> 0.80936215E+00</totfact>
</mgrwt>
</event>
<event>
 8    1  0.1094795E-005  0.1054586E+04  0.7818608E-02  0.8727981E-01
         21   -1    0    0  503  502  0.00000000000E+00  0.00000000000E+00  0.11004989601E+04  0.11004989601E+04  0.00000000000E+00 0.  1.
         21   -1    0    0  501  503 -0.00000000000E+00 -0.00000000000E+00 -0.10560079949E+04  0.10560079949E+04  0.00000000000E+00 0.  1.
    9000010    2    1    2  501    0  0.25228495175E+03  0.20470379024E+03  0.27603296078E+03  0.10768013099E+04  0.98881521375E+03 0.  0.
   -9000010    2    1    2    0  502 -0.25228495175E+03 -0.20470379024E+03 -0.23154199554E+03  0.10797056451E+04  0.10032951938E+04 0.  0.
        -13    1    3    3    0    0  0.31619823807E+03 -0.27368214019E+03 -0.13855474973E+03  0.44054587667E+03  0.10566000000E+00 0.  1.
          4    1    3    3  501    0 -0.63913286313E+02  0.47838593043E+03  0.41458771051E+03  0.63625543322E+03  0.00000000000E+00 0.  1.
         13    1    4    4    0    0 -0.10457010075E+03  0.21608534272E+03 -0.50319173834E+03  0.55752104715E+03  0.10566000000E+00 0. -1.
         -4    1    4    4    0  502 -0.14771485100E+03 -0.42078913296E+03  0.27164974281E+03  0.52218459800E+03  0.00000000000E+00 0. -1.
<mgrwt>
<rscale>  2 0.10511279E+04</rscale>
<asrwt>0</asrwt>
<pdfrwt beam="1">  1       21 0.16930753E+00 0.10545865E+04</pdfrwt>
<pdfrwt beam="2">  1       21 0.16246277E+00 0.10545865E+04</pdfrwt>
<totfact> 0.24830394E+01</totfact>
</mgrwt>
</event>
<event>
 8    1  0.1094795E-005  0.1057612E+04  0.7818608E-02  0.8756616E-01
         21   -1    0    0  501  502  0.00000000000E+00  0.00000000000E+00  0.70863551155E+03  0.70863551155E+03  0.00000000000E+00 0.  1.
         21   -1    0    0  502  503 -0.00000000000E+00 -0.00000000000E+00 -0.14561463630E+04  0.14561463630E+04  0.00000000000E+00 0.  1.
   -9000010    2    1    2    0  503 -0.29583124224E+03 -0.12982179675E+03 -0.66287666193E+03  0.12481777204E+04  0.10070612345E+04 0.  0.
    9000010    2    1    2  501    0  0.29583124224E+03  0.12982179675E+03 -0.84634189503E+02  0.91660415408E+03  0.85359850424E+03 0.  0.
        -13    1    4    4    0    0  0.36242772431E+03 -0.97639481279E+02 -0.38253028032E+03  0.53592606783E+03  0.10566000000E+00 0.  1.
          4    1    4    4  501    0 -0.66596482073E+02  0.22746127803E+03  0.29789609082E+03  0.38067808625E+03  0.00000000000E+00 0.  1.
         13    1    3    3    0    0 -0.65119996438E+02 -0.28316217011E+03  0.19284898888E+03  0.34872936812E+03  0.10566000000E+00 0. -1.
         -4    1    3    3    0  503 -0.23071124580E+03  0.15334037336E+03 -0.85572565081E+03  0.89944835232E+03  0.00000000000E+00 0. -1.
<mgrwt>
<rscale>  2 0.10193546E+04</rscale>
<asrwt>0</asrwt>
<pdfrwt beam="1">  1       21 0.10902085E+00 0.10576115E+04</pdfrwt>
<pdfrwt beam="2">  1       21 0.22402251E+00 0.10576115E+04</pdfrwt>
<totfact> 0.29558492E+01</totfact>
</mgrwt>
</event>
<event>
 8    1  0.1094795E-005  0.1097179E+04  0.7818608E-02  0.8689048E-01
         21   -1    0    0  501  502  0.00000000000E+00  0.00000000000E+00  0.71729169641E+03  0.71729169641E+03  0.00000000000E+00 0. -1.
         21   -1    0    0  502  503 -0.00000000000E+00 -0.00000000000E+00 -0.16790204430E+04  0.16790204430E+04  0.00000000000E+00 0. -1.
   -9000010    2    1    2    0  503  0.32239093791E+03  0.31903524918E+03 -0.55323747996E+03  0.12255574983E+04  0.99508796860E+03 0.  0.
    9000010    2    1    2  501    0 -0.32239093791E+03 -0.31903524918E+03 -0.40849126658E+03  0.11707546411E+04  0.99904049354E+03 0.  0.
        -13    1    4    4    0    0 -0.32908777322E+03 -0.66980615984E+03 -0.28358885439E+03  0.79834936196E+03  0.10566000000E+00 0.  1.
          4    1    4    4  501    0  0.66968353106E+01  0.35077091066E+03 -0.12490241219E+03  0.37240527915E+03  0.00000000000E+00 0.  1.
         13    1    3    3    0    0  0.56991498823E+03  0.21678022212E+03  0.12814523726E+01  0.60975274645E+03  0.10566000000E+00 0. -1.
         -4    1    3    3    0  503 -0.24752405032E+03  0.10225502706E+03 -0.55451893234E+03  0.61580475182E+03  0.00000000000E+00 0. -1.
<mgrwt>
<rscale>  2 0.10962782E+04</rscale>
<asrwt>0</asrwt>
<pdfrwt beam="1">  1       21 0.11035257E+00 0.10971788E+04</pdfrwt>
<pdfrwt beam="2">  1       21 0.25831084E+00 0.10971788E+04</pdfrwt>
<totfact> 0.15877405E+01</totfact>
</mgrwt>
</event>
<event>
 8    1  0.1094795E-005  0.1037343E+04  0.7818608E-02  0.8742828E-01
         21   -1    0    0  503  502  0.00000000000E+00  0.00000000000E+00  0.12133674061E+04  0.12133674061E+04  0.00000000000E+00 0. -1.
         21   -1    0    0  501  503 -0.00000000000E+00 -0.00000000000E+00 -0.87745561066E+03  0.87745561066E+03  0.00000000000E+00 0. -1.
    9000010    2    1    2  501    0 -0.14975556549E+03 -0.17358955362E+03  0.18409952163E+03  0.10424301551E+04  0.10001039606E+04 0.  0.
   -9000010    2    1    2    0  502  0.14975556549E+03  0.17358955362E+03  0.15181227382E+03  0.10483928617E+04  0.10116919311E+04 0.  0.
        -13    1    3    3    0    0  0.34328002086E+03 -0.35429618618E+03  0.15256788706E+03  0.51637576588E+03  0.10566000000E+00 0.  1.
          4    1    3    3  501    0 -0.49303558635E+03  0.18070663255E+03  0.31531634577E+02  0.52605438924E+03  0.00000000000E+00 0.  1.
         13    1    4    4    0    0  0.13203053964E+03  0.23602722185E+03  0.56698244686E+03  0.62817992571E+03  0.10566000000E+00 0. -1.
         -4    1    4    4    0  502  0.17725025844E+02 -0.62437668228E+02 -0.41517017304E+03  0.42021293595E+03  0.00000000000E+00 0. -1.
<mgrwt>
<rscale>  2 0.10345069E+04</rscale>
<asrwt>0</asrwt>
<pdfrwt beam="1">  1       21 0.18667191E+00 0.10373431E+04</pdfrwt>
<pdfrwt beam="2">  1       21 0.13499317E+00 0.10373431E+04</pdfrwt>
<totfact> 0.31667776E+01</totfact>
</mgrwt>
</event>
<event>
 8    1  0.1094795E-005  0.1090919E+04  0.7818608E-02  0.8701169E-01
         21   -1    0    0  503  502  0.00000000000E+00  0.00000000000E+00  0.94723624380E+03  0.94723624380E+03  0.00000000000E+00 0.  1.
         21   -1    0    0  501  503 -0.00000000000E+00 -0.00000000000E+00 -0.12161256643E+04  0.12161256643E+04  0.00000000000E+00 0. -1.
    9000010    2    1    2  501    0 -0.31804800354E+03  0.15037190063E+03 -0.12646764016E+03  0.10982247517E+04  0.10326360928E+04 0.  0.
   -9000010    2    1    2    0  502  0.31804800354E+03 -0.15037190063E+03 -0.14242178038E+03  0.10651371565E+04  0.99522206443E+03 0.  0.
        -13    1    3    3    0    0 -0.18811788373E+03  0.25083975421E+03  0.42197861305E+03  0.52571368777E+03  0.10566000000E+00 0.  1.
          4    1    3    3  501    0 -0.12993011981E+03 -0.10046785358E+03 -0.54844625321E+03  0.57251106391E+03  0.00000000000E+00 0.  1.
         13    1    4    4    0    0  0.44253051669E+03 -0.26302625970E+02  0.33548008247E+03  0.55594242799E+03  0.10566000000E+00 0. -1.
         -4    1    4    4    0  502 -0.12448251316E+03 -0.12406927466E+03 -0.47790186285E+03  0.50919472848E+03  0.00000000000E+00 0. -1.
<mgrwt>
<rscale>  2 0.10819727E+04</rscale>
<asrwt>0</asrwt>
<pdfrwt beam="1">  1       21 0.14572865E+00 0.10909187E+04</pdfrwt>
<pdfrwt beam="2">  1       21 0.18709626E+00 0.10909187E+04</pdfrwt>
<totfact> 0.24710029E+01</totfact>
</mgrwt>
</event>
<event>
 8    1  0.1094795E-005  0.1311924E+04  0.7818608E-02  0.8570585E-01
         21   -1    0    0  503  502  0.00000000000E+00  0.00000000000E+00  0.97994511577E+03  0.97994511577E+03  0.00000000000E+00 0.  1.
         21   -1    0    0  501  503 -0.00000000000E+00 -0.00000000000E+00 -0.14693993945E+04  0.14693993945E+04  0.00000000000E+00 0. -1.
    9000010    2    1    2  501    0 -0.35486054782E+03  0.17840580494E+03 -0.10747657822E+03  0.10829437284E+04  0.10017291372E+04 0.  0.
   -9000010    2    1    2    0  502  0.35486054782E+03 -0.17840580494E+03 -0.38197770051E+03  0.13664007819E+04  0.12503557467E+04 0.  0.
        -13    1    3    3    0    0 -0.45991529107E+03  0.52397425649E+03  0.26552276235E+02  0.69769343624E+03  0.10566000000E+00 0.  1.
          4    1    3    3  501    0  0.10505474326E+03 -0.34556845155E+03 -0.13402885445E+03  0.38525029216E+03  0.00000000000E+00 0.  1.
         13    1    4    4    0    0  0.38397138474E+03 -0.44258761922E+03 -0.72518485931E+03  0.93231481610E+03  0.10566000000E+00 0. -1.
         -4    1    4    4    0  502 -0.29110836923E+02  0.26418181428E+03  0.34320715879E+03  0.43408596576E+03  0.00000000000E+00 0. -1.
<mgrwt>
<rscale>  2 0.12489515E+04</rscale>
<asrwt>0</asrwt>
<pdfrwt beam="1">  1       21 0.15076079E+00 0.13119238E+04</pdfrwt>
<pdfrwt beam="2">  1       21 0.22606144E+00 0.13119238E+04</pdfrwt>
<totfact> 0.10642646E+01</totfact>
</mgrwt>
</event>
<event>
 8    1  0.1094795E-005  0.1021337E+04  0.7818608E-02  0.8769669E-01
         21   -1    0    0  501  502  0.00000000000E+00  0.00000000000E+00  0.46114562766E+03  0.46114562766E+03  0.00000000000E+00 0. -1.
         21   -1    0    0  502  503 -0.00000000000E+00 -0.00000000000E+00 -0.21678651665E+04  0.21678651665E+04  0.00000000000E+00 0. -1.
   -9000010    2    1    2    0  503 -0.24302922993E+03 -0.15140842451E+02 -0.10114736986E+04  0.13934961476E+04  0.92707066550E+03 0.  0.
    9000010    2    1    2  501    0  0.24302922993E+03  0.15140842451E+02 -0.69524584022E+03  0.12355146465E+04  0.99188568476E+03 0.  0.
        -13    1    4    4    0    0  0.35055909666E+02  0.23699977531E+03 -0.85784900712E+03  0.89067544060E+03  0.10566000000E+00 0.  1.
          4    1    4    4  501    0  0.20797332026E+03 -0.22185893286E+03  0.16260316691E+03  0.34483920589E+03  0.00000000000E+00 0.  1.
         13    1    3    3    0    0  0.27004807604E+03  0.11968048630E+03 -0.56016038474E+02  0.30064462394E+03  0.10566000000E+00 0. -1.
         -4    1    3    3    0  503 -0.51307730597E+03 -0.13482132875E+03 -0.95545766011E+03  0.10928515237E+04  0.00000000000E+00 0. -1.
<mgrwt>
<rscale>  2 0.10052560E+04</rscale>
<asrwt>0</asrwt>
<pdfrwt beam="1">  1       21 0.70945481E-01 0.10213372E+04</pdfrwt>
<pdfrwt beam="2">  1       21 0.33351772E+00 0.10213372E+04</pdfrwt>
<totfact> 0.14468931E+01</totfact>
</mgrwt>
</event>
<event>
 8    1  0.1094795E-005  0.1198657E+04  0.7818608E-02  0.8633969E-01
         21   -1    0    0  503  502  0.00000000000E+00  0.00000000000E+00  0.16127075832E+04  0.16127075832E+04  0.00000000000E+00 0.  1.
         21   -1    0    0  501  503 -0.00000000000E+00 -0.00000000000E+00 -0.98110921055E+03  0.98110921055E+03  0.00000000000E+00 0.  1.
    9000010    2    1    2  501    0  0.51894734449E+03  0.38108705723E+03 -0.26215869083E+03  0.10986310965E+04  0.85072287824E+03 0.  0.
   -9000010    2    1    2    0  502 -0.51894734449E+03 -0.38108705723E+03  0.89375706347E+03  0.14951856972E+04  0.10110612687E+04 0.  0.
        -13    1    3    3    0    0  0.71807754490E+03  0.13946291674E+03 -0.28416875400E+03  0.78475292771E+03  0.10566000000E+00 0.  1.
          4    1    3    3  501    0 -0.19913020041E+03  0.24162414049E+03  0.22010063170E+02  0.31387816882E+03  0.00000000000E+00 0.  1.
         13    1    4    4    0    0  0.29808765149E+03 -0.62567533518E+01  0.18988268378E+03  0.35348386059E+03  0.10566000000E+00 0. -1.
         -4    1    4    4    0  502 -0.81703499598E+03 -0.37483030387E+03  0.70387437968E+03  0.11417018366E+04  0.00000000000E+00 0. -1.
<mgrwt>
<rscale>  2 0.11642641E+04</rscale>
<asrwt>0</asrwt>
<pdfrwt beam="1">  1       21 0.24810886E+00 0.11986570E+04</pdfrwt>
<pdfrwt beam="2">  1       21 0.15093988E+00 0.11986570E+04</pdfrwt>
<totfact> 0.74486250E+00</totfact>
</mgrwt>
</event>
<event>
 8    1  0.1094795E-005  0.1106331E+04  0.7818608E-02  0.8681766E-01
         21   -1    0    0  501  502  0.00000000000E+00  0.00000000000E+00  0.11969378331E+04  0.11969378331E+04  0.00000000000E+00 0. -1.
         21   -1    0    0  502  503 -0.00000000000E+00 -0.00000000000E+00 -0.10642391372E+04  0.10642391372E+04  0.00000000000E+00 0. -1.
   -9000010    2    1    2    0  503  0.24574866987E+03  0.42667613405E+03  0.30313079638E+03  0.11471081372E+04  0.99071886358E+03 0.  0.
    9000010    2    1    2  501    0 -0.24574866987E+03 -0.42667613405E+03 -0.17043210047E+03  0.11140688330E+04  0.98471180133E+03 0.  0.
        -13    1    4    4    0    0 -0.38867104254E+03 -0.63189283653E+03  0.96712669053E+02  0.74813574148E+03  0.10566000000E+00 0.  1.
          4    1    4    4  501    0  0.14292237267E+03  0.20521670248E+03 -0.26714476952E+03  0.36593309152E+03  0.00000000000E+00 0.  1.
         13    1    3    3    0    0  0.58536304624E+03  0.29552010955E+03 -0.26113723093E+02  0.65624992857E+03  0.10566000000E+00 0. -1.
         -4    1    3    3    0  503 -0.33961437637E+03  0.13115602450E+03  0.32924451947E+03  0.49085820865E+03  0.00000000000E+00 0. -1.
<mgrwt>
<rscale>  2 0.11049848E+04</rscale>
<asrwt>0</asrwt>
<pdfrwt beam="1">  1       21 0.18414428E+00 0.11063312E+04</pdfrwt>
<pdfrwt beam="2">  1       21 0.16372910E+00 0.11063312E+04</pdfrwt>
<totfact> 0.18070664E+01</totfact>
</mgrwt>
</event>
<event>
 8    1  0.1094795E-005  0.1051139E+04  0.7818608E-02  0.8728243E-01
         21   -1    0    0  503  502  0.00000000000E+00  0.00000000000E+00  0.62638462332E+03  0.62638462332E+03  0.00000000000E+00 0. -1.
         21   -1    0    0  501  503 -0.00000000000E+00 -0.00000000000E+00 -0.18603803999E+04  0.18603803999E+04  0.00000000000E+00 0. -1.
    9000010    2    1    2  501    0 -0.28150779756E+03 -0.17805272011E+03 -0.90278966748E+03  0.13846802956E+04  0.99567109335E+03 0.  0.
   -9000010    2    1    2    0  502  0.28150779756E+03  0.17805272011E+03 -0.33120610906E+03  0.11020847276E+04  0.99696732585E+03 0.  0.
        -13    1    3    3    0    0  0.17568177599E+03 -0.91927613124E+02  0.14006311407E+03  0.24276008641E+03  0.10566000000E+00 0.  1.
          4    1    3    3  501    0 -0.45718957355E+03 -0.86125106990E+02 -0.10428527815E+04  0.11419202092E+04  0.00000000000E+00 0.  1.
         13    1    4    4    0    0 -0.24922400763E+03  0.32183517091E+03 -0.37103750932E+03  0.55078065298E+03  0.10566000000E+00 0. -1.
         -4    1    4    4    0  502  0.53073180519E+03 -0.14378245080E+03  0.39831400256E+02  0.55130407457E+03  0.00000000000E+00 0. -1.
<mgrwt>
<rscale>  2 0.10508316E+04</rscale>
<asrwt>0</asrwt>
<pdfrwt beam="1">  1       21 0.96366866E-01 0.10511390E+04</pdfrwt>
<pdfrwt beam="2">  1       21 0.28621237E+00 0.10511390E+04</pdfrwt>
<totfact> 0.14495065E+01</totfact>
</mgrwt>
</event>
<event>
 8    1  0.1094795E-005  0.1116241E+04  0.7818608E-02  0.8680149E-01
         21   -1    0    0  503  502  0.00000000000E+00  0.00000000000E+00  0.80099643421E+03  0.80099643421E+03  0.00000000000E+00 0. -1.
         21   -1    0    0  501  503 -0.00000000000E+00 -0.00000000000E+00 -0.15243877736E+04  0.15243877736E+04  0.00000000000E+00 0. -1.
    9000010    2    1    2  501    0 -0.23544264869E+03  0.32146552171E+03 -0.49974888327E+03  0.12230054901E+04  0.10426984990E+04 0.  0.
   -9000010    2    1    2    0  502  0.23544264869E+03 -0.32146552171E+03 -0.22364245611E+03  0.11023787177E+04  0.10032196004E+04 0.  0.
        -13    1    3    3    0    0 -0.51580573799E+03 -0.66228957318E+02 -0.53138707190E+03  0.74351467066E+03  0.10566000000E+00 0.  1.
          4    1    3    3  501    0  0.28036308930E+03  0.38769447903E+03  0.31638188630E+02  0.47949081940E+03  0.00000000000E+00 0.  1.
         13    1    4    4    0    0  0.82309202842E+02 -0.46304826441E+03  0.28688140360E+03  0.55089876651E+03  0.10566000000E+00 0. -1.
         -4    1    4    4    0  502  0.15313344585E+03  0.14158274270E+03 -0.51052385972E+03  0.55147995123E+03  0.00000000000E+00 0. -1.
<mgrwt>
<rscale>  2 0.11069284E+04</rscale>
<asrwt>0</asrwt>
<pdfrwt beam="1">  1       21 0.12323022E+00 0.11162408E+04</pdfrwt>
<pdfrwt beam="2">  1       21 0.23452119E+00 0.11162408E+04</pdfrwt>
<totfact> 0.17378364E+01</totfact>
</mgrwt>
</event>
<event>
 8    1  0.1094795E-005  0.1006802E+04  0.7818608E-02  0.8771490E-01
         21   -1    0    0  501  502  0.00000000000E+00  0.00000000000E+00  0.53793692244E+03  0.53793692244E+03  0.00000000000E+00 0. -1.
         21   -1    0    0  502  503 -0.00000000000E+00 -0.00000000000E+00 -0.18585086344E+04  0.18585086344E+04  0.00000000000E+00 0. -1.
   -9000010    2    1    2    0  503 -0.83452899564E+01 -0.15822840592E+03 -0.64622764541E+03  0.11846741635E+04  0.98017183788E+03 0.  0.
    9000010    2    1    2  501    0  0.83452899564E+01  0.15822840592E+03 -0.67434406655E+03  0.12117713933E+04  0.99425555932E+03 0.  0.
        -13    1    4    4    0    0  0.30229696441E+03  0.48177109394E+03 -0.35571648525E+03  0.67083609824E+03  0.10566000000E+00 0.  1.
          4    1    4    4  501    0 -0.29395167446E+03 -0.32354268802E+03 -0.31862758130E+03  0.54093529507E+03  0.00000000000E+00 0.  1.
         13    1    3    3    0    0  0.71051572511E+02 -0.85010748055E+02  0.25446016378E+03  0.27753403279E+03  0.10566000000E+00 0. -1.
         -4    1    3    3    0  503 -0.79396862468E+02 -0.73217657870E+02 -0.90068780920E+03  0.90714013076E+03  0.00000000000E+00 0. -1.
<mgrwt>
<rscale>  2 0.10033073E+04</rscale>
<asrwt>0</asrwt>
<pdfrwt beam="1">  1       21 0.82759526E-01 0.10068019E+04</pdfrwt>
<pdfrwt beam="2">  1       21 0.28592441E+00 0.10068019E+04</pdfrwt>
<totfact> 0.21668125E+01</totfact>
</mgrwt>
</event>
<event>
 8    1  0.1094795E-005  0.1209119E+04  0.7818608E-02  0.8632055E-01
         21   -1    0    0  503  502  0.00000000000E+00  0.00000000000E+00  0.61588361893E+03  0.61588361893E+03  0.00000000000E+00 0. -1.
         21   -1    0    0  501  503 -0.00000000000E+00 -0.00000000000E+00 -0.20689245789E+04  0.20689245789E+04  0.00000000000E+00 0. -1.
    9000010    2    1    2  501    0 -0.25242523921E+03 -0.11438748656E+03 -0.65378227787E+03  0.12354001041E+04  0.10109298451E+04 0.  0.
   -9000010    2    1    2    0  502  0.25242523921E+03  0.11438748656E+03 -0.79925868213E+03  0.14494080938E+04  0.11769309168E+04 0.  0.
        -13    1    3    3    0    0 -0.54201261437E+03  0.11537887698E+03 -0.66491668772E+03  0.86556581042E+03  0.10566000000E+00 0.  1.
          4    1    3    3  501    0  0.28958737516E+03 -0.22976636355E+03  0.11134409849E+02  0.36983429364E+03  0.00000000000E+00 0.  1.
         13    1    4    4    0    0 -0.19791323912E+03  0.54786299468E+03 -0.34904390818E+03  0.67908406855E+03  0.10566000000E+00 0. -1.
         -4    1    4    4    0  502  0.45033847833E+03 -0.43347550811E+03 -0.45021477395E+03  0.77032402525E+03  0.00000000000E+00 0. -1.
<mgrwt>
<rscale>  2 0.11667177E+04</rscale>
<asrwt>0</asrwt>
<pdfrwt beam="1">  1       21 0.94751324E-01 0.12091193E+04</pdfrwt>
<pdfrwt beam="2">  1       21 0.31829610E+00 0.12091193E+04</pdfrwt>
<totfact> 0.86894017E+00</totfact>
</mgrwt>
</event>
<event>
 8    1  0.1094795E-005  0.1213202E+04  0.7818608E-02  0.8600386E-01
         21   -1    0    0  501  502  0.00000000000E+00  0.00000000000E+00  0.75535500973E+03  0.75535500973E+03  0.00000000000E+00 0.  1.
         21   -1    0    0  502  503 -0.00000000000E+00 -0.00000000000E+00 -0.19847247208E+04  0.19847247208E+04  0.00000000000E+00 0.  1.
   -9000010    2    1    2    0  503 -0.35995996334E+02  0.63725813217E+03 -0.87265631969E+03  0.14944523258E+04  0.10317291617E+04 0.  0.
    9000010    2    1    2  501    0  0.35995996334E+02 -0.63725813217E+03 -0.35671339142E+03  0.12456274047E+04  0.10084391648E+04 0.  0.
        -13    1    4    4    0    0  0.15386185015E+03 -0.17911667125E+03 -0.64827176645E+03  0.68993662404E+03  0.10566000000E+00 0.  1.
          4    1    4    4  501    0 -0.11786585382E+03 -0.45814146092E+03  0.29155837503E+03  0.55569078070E+03  0.00000000000E+00 0.  1.
         13    1    3    3    0    0  0.48911909593E+03  0.19657452995E+03 -0.35745217728E+03  0.63690745484E+03  0.10566000000E+00 0. -1.
         -4    1    3    3    0  503 -0.52511509226E+03  0.44068360222E+03 -0.51520414240E+03  0.85754487097E+03  0.00000000000E+00 0. -1.
<mgrwt>
<rscale>  2 0.12082356E+04</rscale>
<asrwt>0</asrwt>
<pdfrwt beam="1">  1       21 0.11620846E+00 0.12132018E+04</pdfrwt>
<pdfrwt beam="2">  1       21 0.30534226E+00 0.12132018E+04</pdfrwt>
<totfact> 0.62101027E+00</totfact>
</mgrwt>
</event>
<event>
 8    1  0.1094795E-005  0.1024778E+04  0.7818608E-02  0.8779772E-01
         21   -1    0    0  503  502  0.00000000000E+00  0.00000000000E+00  0.83824340433E+03  0.83824340433E+03  0.00000000000E+00 0.  1.
         21   -1    0    0  501  503 -0.00000000000E+00 -0.00000000000E+00 -0.11902992889E+04  0.11902992889E+04  0.00000000000E+00 0.  1.
    9000010    2    1    2  501    0 -0.54164196680E+02  0.20035840582E+03 -0.42045909925E+03  0.10014844422E+04  0.88493388615E+03 0.  0.
   -9000010    2    1    2    0  502  0.54164196680E+02 -0.20035840582E+03  0.68403214721E+02  0.10270582510E+04  0.10035399345E+04 0.  0.
        -13    1    3    3    0    0  0.11691738611E+03  0.22682488727E+03 -0.65903604617E+03  0.70671615658E+03  0.10566000000E+00 0.  1.
          4    1    3    3  501    0 -0.17108158279E+03 -0.26466481446E+02  0.23857694692E+03  0.29476828563E+03  0.00000000000E+00 0.  1.
         13    1    4    4    0    0 -0.12409111462E+02  0.27427169178E+03  0.37003499643E+03  0.46076551163E+03  0.10566000000E+00 0. -1.
         -4    1    4    4    0  502  0.66573308143E+02 -0.47463009760E+03 -0.30163178171E+03  0.56629273935E+03  0.00000000000E+00 0. -1.
<mgrwt>
<rscale>  2 0.99450501E+03</rscale>
<asrwt>0</asrwt>
<pdfrwt beam="1">  1       21 0.12896052E+00 0.10247779E+04</pdfrwt>
<pdfrwt beam="2">  1       21 0.18312297E+00 0.10247779E+04</pdfrwt>
<totfact> 0.38738329E+01</totfact>
</mgrwt>
</event>
<event>
 8    1  0.1094795E-005  0.1027221E+04  0.7818608E-02  0.8750045E-01
         21   -1    0    0  503  502  0.00000000000E+00  0.00000000000E+00  0.13657021830E+04  0.13657021830E+04  0.00000000000E+00 0.  1.
         21   -1    0    0  501  503 -0.00000000000E+00 -0.00000000000E+00 -0.77096960272E+03  0.77096960272E+03  0.00000000000E+00 0.  1.
    9000010    2    1    2  501    0  0.20430792388E+03  0.55383102406E+02  0.32141537538E+03  0.10763324681E+04  0.10051739763E+04 0.  0.
   -9000010    2    1    2    0  502 -0.20430792388E+03 -0.55383102406E+02  0.27331720494E+03  0.10603393176E+04  0.10024011962E+04 0.  0.
        -13    1    3    3    0    0  0.52399931674E+03 -0.23555656020E+03  0.76696052823E+02  0.57960717101E+03  0.10566000000E+00 0.  1.
          4    1    3    3  501    0 -0.31969139287E+03  0.29093966261E+03  0.24471932256E+03  0.49672529711E+03  0.00000000000E+00 0.  1.
         13    1    4    4    0    0 -0.38611036914E+03 -0.44789670450E+03  0.14009086605E+03  0.60771550662E+03  0.10566000000E+00 0. -1.
         -4    1    4    4    0  502  0.18180244527E+03  0.39251360210E+03  0.13322633889E+03  0.45262381103E+03  0.00000000000E+00 0. -1.
<mgrwt>
<rscale>  2 0.10265424E+04</rscale>
<asrwt>0</asrwt>
<pdfrwt beam="1">  1       21 0.21010803E+00 0.10272214E+04</pdfrwt>
<pdfrwt beam="2">  1       21 0.11861071E+00 0.10272214E+04</pdfrwt>
<totfact> 0.30097731E+01</totfact>
</mgrwt>
</event>
<event>
 8    1  0.1094795E-005  0.1115016E+04  0.7818608E-02  0.8677702E-01
         21   -1    0    0  501  502  0.00000000000E+00  0.00000000000E+00  0.18721886308E+04  0.18721886308E+04  0.00000000000E+00 0. -1.
         21   -1    0    0  502  503 -0.00000000000E+00 -0.00000000000E+00 -0.66357993341E+03  0.66357993341E+03  0.00000000000E+00 0. -1.
   -9000010    2    1    2    0  503 -0.21132798607E+03 -0.46049890206E+03  0.43113321282E+03  0.11764566615E+04  0.97028638694E+03 0.  0.
    9000010    2    1    2  501    0  0.21132798607E+03  0.46049890206E+03  0.77747548455E+03  0.13593119027E+04  0.99324818812E+03 0.  0.
        -13    1    4    4    0    0  0.34147010532E+03  0.46462067161E+03  0.96908238364E+03  0.11276501580E+04  0.10566000000E+00 0.  1.
          4    1    4    4  501    0 -0.13014211925E+03 -0.41217695499E+01 -0.19160689909E+03  0.23166174472E+03  0.00000000000E+00 0.  1.
         13    1    3    3    0    0 -0.50703724713E+03 -0.47110203705E+03  0.49966159070E+02  0.69391680157E+03  0.10566000000E+00 0. -1.
         -4    1    3    3    0  503  0.29570926106E+03  0.10603134986E+02  0.38116705375E+03  0.48253985992E+03  0.00000000000E+00 0. -1.
<mgrwt>
<rscale>  2 0.11098795E+04</rscale>
<asrwt>0</asrwt>
<pdfrwt beam="1">  1       21 0.28802902E+00 0.11150160E+04</pdfrwt>
<pdfrwt beam="2">  1       21 0.10208922E+00 0.11150160E+04</pdfrwt>
<totfact> 0.11936180E+01</totfact>
</mgrwt>
</event>
<event>
 8    1  0.1094795E-005  0.1183238E+04  0.7818608E-02  0.8628273E-01
         21   -1    0    0  501  502  0.00000000000E+00  0.00000000000E+00  0.18561051282E+04  0.18561051282E+04  0.00000000000E+00 0.  1.
         21   -1    0    0  502  503 -0.00000000000E+00 -0.00000000000E+00 -0.72583695191E+03  0.72583695191E+03  0.00000000000E+00 0.  1.
   -9000010    2    1    2    0  503  0.38243084790E+03 -0.45719994754E+03  0.51884405334E+03  0.12500670336E+04  0.96859862238E+03 0.  0.
    9000010    2    1    2  501    0 -0.38243084790E+03  0.45719994754E+03  0.61142412294E+03  0.13318750465E+04  0.10221382177E+04 0.  0.
        -13    1    4    4    0    0 -0.72480177129E+03  0.23058515325E+03  0.30461021789E+03  0.81932564745E+03  0.10566000000E+00 0.  1.
          4    1    4    4  501    0  0.34237092339E+03  0.22661479429E+03  0.30681390506E+03  0.51254939909E+03  0.00000000000E+00 0.  1.
         13    1    3    3    0    0  0.45531315522E+03 -0.68495043046E+03  0.19114352609E+03  0.84439506170E+03  0.10566000000E+00 0. -1.
         -4    1    3    3    0  503 -0.72882307314E+02  0.22775048293E+03  0.32770052726E+03  0.40567197186E+03  0.00000000000E+00 0. -1.
<mgrwt>
<rscale>  2 0.11715842E+04</rscale>
<asrwt>0</asrwt>
<pdfrwt beam="1">  1       21 0.28555463E+00 0.11832378E+04</pdfrwt>
<pdfrwt beam="2">  1       21 0.11166722E+00 0.11832378E+04</pdfrwt>
<totfact> 0.96322095E+00</totfact>
</mgrwt>
</event>
<event>
 8    1  0.1094795E-005  0.1123708E+04  0.7818608E-02  0.8669668E-01
         21   -1    0    0  503  502  0.00000000000E+00  0.00000000000E+00  0.27033379435E+04  0.27033379435E+04  0.00000000000E+00 0.  1.
         21   -1    0    0  501  503 -0.00000000000E+00 -0.00000000000E+00 -0.66025076303E+03  0.66025076303E+03  0.00000000000E+00 0.  1.
    9000010    2    1    2  501    0  0.32545158969E+03 -0.38875440422E+03  0.10142247459E+03  0.11282753040E+04  0.10028309525E+04 0.  0.
   -9000010    2    1    2    0  502 -0.32545158969E+03  0.38875440422E+03  0.19416647059E+04  0.22353134025E+04  0.98463975818E+03 0.  0.
        -13    1    3    3    0    0  0.15240081471E+03 -0.54693565245E+03  0.43870267212E+03  0.71751283050E+03  0.10566000000E+00 0.  1.
          4    1    3    3  501    0  0.17305077498E+03  0.15818124823E+03 -0.33728019753E+03  0.41076247352E+03  0.00000000000E+00 0.  1.
         13    1    4    4    0    0 -0.30303301332E+03  0.63085602081E+03  0.77777601443E+03  0.10463000841E+04  0.10566000000E+00 0. -1.
         -4    1    4    4    0  502 -0.22418576369E+02 -0.24210161660E+03  0.11638886915E+04  0.11890133185E+04  0.00000000000E+00 0. -1.
<mgrwt>
<rscale>  2 0.11196345E+04</rscale>
<asrwt>0</asrwt>
<pdfrwt beam="1">  1       21 0.41589814E+00 0.11237075E+04</pdfrwt>
<pdfrwt beam="2">  1       21 0.10157704E+00 0.11237075E+04</pdfrwt>
<totfact> 0.15321500E+00</totfact>
</mgrwt>
</event>
<event>
 8    1  0.1094795E-005  0.1071232E+04  0.7818608E-02  0.8713781E-01
         21   -1    0    0  501  502  0.00000000000E+00  0.00000000000E+00  0.17180279764E+04  0.17180279764E+04  0.00000000000E+00 0.  1.
         21   -1    0    0  502  503 -0.00000000000E+00 -0.00000000000E+00 -0.71444803412E+03  0.71444803412E+03  0.00000000000E+00 0.  1.
   -9000010    2    1    2    0  503  0.36679808725E+03  0.11185990261E+03  0.16418671710E+03  0.10837414923E+04  0.10002424054E+04 0.  0.
    9000010    2    1    2  501    0 -0.36679808725E+03 -0.11185990261E+03  0.83939322513E+03  0.13487345181E+04  0.98359053442E+03 0.  0.
        -13    1    4    4    0    0  0.41557828303E+02  0.17484942378E+03 -0.15425850874E+03  0.23684398403E+03  0.10566000000E+00 0.  1.
          4    1    4    4  501    0 -0.40835591556E+03 -0.28670932639E+03  0.99365173388E+03  0.11118905341E+04  0.00000000000E+00 0.  1.
         13    1    3    3    0    0  0.18209035266E+03  0.45442987444E+03 -0.22013720105E+03  0.53677165142E+03  0.10566000000E+00 0. -1.
         -4    1    3    3    0  503  0.18470773459E+03 -0.34256997183E+03  0.38432391815E+03  0.54696984092E+03  0.00000000000E+00 0. -1.
<mgrwt>
<rscale>  2 0.10673280E+04</rscale>
<asrwt>0</asrwt>
<pdfrwt beam="1">  1       21 0.26431199E+00 0.10712322E+04</pdfrwt>
<pdfrwt beam="2">  1       21 0.10991508E+00 0.10712322E+04</pdfrwt>
<totfact> 0.14610730E+01</totfact>
</mgrwt>
</event>
<event>
 8    1  0.1094795E-005  0.1404844E+04  0.7818608E-02  0.8473698E-01
         21   -1    0    0  503  502  0.00000000000E+00  0.00000000000E+00  0.22150759968E+04  0.22150759968E+04  0.00000000000E+00 0.  1.
         21   -1    0    0  501  503 -0.00000000000E+00 -0.00000000000E+00 -0.90205405283E+03  0.90205405283E+03  0.00000000000E+00 0.  1.
    9000010    2    1    2  501    0  0.93314908538E+03 -0.56208817267E+01  0.33941782932E+03  0.14452651198E+04  0.10501371310E+04 0.  0.
   -9000010    2    1    2    0  502 -0.93314908538E+03  0.56208817267E+01  0.97360411469E+03  0.16718649298E+04  0.98814399841E+03 0.  0.
        -13    1    3    3    0    0  0.53046223354E+03  0.12325039377E+03 -0.34218723192E+03  0.64317412388E+03  0.10566000000E+00 0.  1.
          4    1    3    3  501    0  0.40268685184E+03 -0.12887127550E+03  0.68160506124E+03  0.80209099596E+03  0.00000000000E+00 0.  1.
         13    1    4    4    0    0  0.18462333425E+03  0.12727003635E+03  0.89134911662E+02  0.24130578390E+03  0.10566000000E+00 0. -1.
         -4    1    4    4    0  502 -0.11177724196E+04 -0.12164915462E+03  0.88446920303E+03  0.14305591459E+04  0.00000000000E+00 0. -1.
<mgrwt>
<rscale>  2 0.13932727E+04</rscale>
<asrwt>0</asrwt>
<pdfrwt beam="1">  1       21 0.34078092E+00 0.14048440E+04</pdfrwt>
<pdfrwt beam="2">  1       21 0.13877755E+00 0.14048440E+04</pdfrwt>
<totfact> 0.20242643E+00</totfact>
</mgrwt>
</event>
<event>
 8    1  0.1094795E-005  0.1053250E+04  0.7818608E-02  0.8726162E-01
         21   -1    0    0  503  502  0.00000000000E+00  0.00000000000E+00  0.75002958031E+03  0.75002958031E+03  0.00000000000E+00 0.  1.
         21   -1    0    0  501  503 -0.00000000000E+00 -0.00000000000E+00 -0.15384650867E+04  0.15384650867E+04  0.00000000000E+00 0.  1.
    9000010    2    1    2  501    0 -0.32869698268E+03  0.29008265500E+02 -0.61980577024E+03  0.12220864001E+04  0.10002263696E+04 0.  0.
   -9000010    2    1    2    0  502  0.32869698268E+03 -0.29008265500E+02 -0.16862973616E+03  0.10664082670E+04  0.99995370795E+03 0.  0.
        -13    1    3    3    0    0 -0.35594751824E+03  0.28354092219E+02 -0.88561100611E+03  0.95488714286E+03  0.10566000000E+00 0.  1.
          4    1    3    3  501    0  0.27250535558E+02  0.65417328083E+00  0.26580523587E+03  0.26719925720E+03  0.00000000000E+00 0.  1.
         13    1    4    4    0    0  0.66102503765E+03  0.14564299524E+03 -0.90009030997E+02  0.68283791582E+03  0.10566000000E+00 0. -1.
         -4    1    4    4    0  502 -0.33232805497E+03 -0.17465126074E+03 -0.78620705159E+02  0.38357035114E+03  0.00000000000E+00 0. -1.
<mgrwt>
<rscale>  2 0.10531855E+04</rscale>
<asrwt>0</asrwt>
<pdfrwt beam="1">  1       21 0.11538917E+00 0.10532502E+04</pdfrwt>
<pdfrwt beam="2">  1       21 0.23668693E+00 0.10532502E+04</pdfrwt>
<totfact> 0.20400167E+01</totfact>
</mgrwt>
</event>
<event>
 8    1  0.1094795E-005  0.1001365E+04  0.7818608E-02  0.8773943E-01
         21   -1    0    0  501  502  0.00000000000E+00  0.00000000000E+00  0.69898748918E+03  0.69898748918E+03  0.00000000000E+00 0. -1.
         21   -1    0    0  502  503 -0.00000000000E+00 -0.00000000000E+00 -0.14315582008E+04  0.14315582008E+04  0.00000000000E+00 0. -1.
   -9000010    2    1    2    0  503  0.19847754312E+03 -0.12381492436E+03 -0.33957468876E+03  0.10548234689E+04  0.97088522011E+03 0.  0.
    9000010    2    1    2  501    0 -0.19847754312E+03  0.12381492436E+03 -0.39299602281E+03  0.10757222211E+04  0.97365751285E+03 0.  0.
        -13    1    4    4    0    0 -0.20530172248E+03 -0.10317334940E+03  0.28188089426E+03  0.36366246300E+03  0.10566000000E+00 0.  1.
          4    1    4    4  501    0  0.68241793605E+01  0.22698827376E+03 -0.67487691708E+03  0.71205975807E+03  0.00000000000E+00 0.  1.
         13    1    3    3    0    0  0.41328933300E+03 -0.44284255025E+03 -0.14079648545E+03  0.62188524549E+03  0.10566000000E+00 0. -1.
         -4    1    3    3    0  503 -0.21481178988E+03  0.31902762589E+03 -0.19877820331E+03  0.43293822338E+03  0.00000000000E+00 0. -1.
<mgrwt>
<rscale>  2 0.10006908E+04</rscale>
<asrwt>0</asrwt>
<pdfrwt beam="1">  1       21 0.10753654E+00 0.10013653E+04</pdfrwt>
<pdfrwt beam="2">  1       21 0.22023972E+00 0.10013653E+04</pdfrwt>
<totfact> 0.33155634E+01</totfact>
</mgrwt>
</event>
<event>
 8    1  0.1094795E-005  0.1134619E+04  0.7818608E-02  0.8659959E-01
         21   -1    0    0  501  502  0.00000000000E+00  0.00000000000E+00  0.14420087842E+04  0.14420087842E+04  0.00000000000E+00 0. -1.
         21   -1    0    0  502  503 -0.00000000000E+00 -0.00000000000E+00 -0.88432392403E+03  0.88432392403E+03  0.00000000000E+00 0. -1.
   -9000010    2    1    2    0  503  0.41502502294E+02 -0.51378676570E+03  0.32174643826E+03  0.11793565108E+04  0.10107728284E+04 0.  0.
    9000010    2    1    2  501    0 -0.41502502294E+02  0.51378676570E+03  0.23593842192E+03  0.11469761975E+04  0.99708984567E+03 0.  0.
        -13    1    4    4    0    0 -0.40522208477E+03  0.62226662853E+03  0.14319800606E+03  0.75625814050E+03  0.10566000000E+00 0.  1.
          4    1    4    4  501    0  0.36371958248E+03 -0.10847986283E+03  0.92740415856E+02  0.39071805698E+03  0.00000000000E+00 0.  1.
         13    1    3    3    0    0 -0.43958218153E+03 -0.29036433104E+03 -0.53612713459E+02  0.52954534581E+03  0.10566000000E+00 0. -1.
         -4    1    3    3    0  503  0.48108468383E+03 -0.22342243465E+03  0.37535915172E+03  0.64981116495E+03  0.00000000000E+00 0. -1.
<mgrwt>
<rscale>  2 0.11315639E+04</rscale>
<asrwt>0</asrwt>
<pdfrwt beam="1">  1       21 0.22184751E+00 0.11346193E+04</pdfrwt>
<pdfrwt beam="2">  1       21 0.13604983E+00 0.11346193E+04</pdfrwt>
<totfact> 0.16169775E+01</totfact>
</mgrwt>
</event>
<event>
 8    1  0.1094795E-005  0.1523886E+04  0.7818608E-02  0.8403724E-01
         21   -1    0    0  501  502  0.00000000000E+00  0.00000000000E+00  0.14234733274E+04  0.14234733274E+04  0.00000000000E+00 0.  1.
         21   -1    0    0  502  503 -0.00000000000E+00 -0.00000000000E+00 -0.15903143519E+04  0.15903143519E+04  0.00000000000E+00 0.  1.
   -9000010    2    1    2    0  503  0.48193713601E+03 -0.10445964059E+04  0.72715429308E+02  0.14711875829E+04  0.91414458172E+03 0.  0.
    9000010    2    1    2  501    0 -0.48193713601E+03  0.10445964059E+04 -0.23955645380E+03  0.15426000964E+04  0.99939116899E+03 0.  0.
        -13    1    4    4    0    0 -0.71446851149E+03  0.45477696071E+03  0.44014803771E+02  0.84807113618E+03  0.10566000000E+00 0.  1.
          4    1    4    4  501    0  0.23253137548E+03  0.58981944517E+03 -0.28357125758E+03  0.69452896024E+03  0.00000000000E+00 0.  1.
         13    1    3    3    0    0  0.10601772349E+02 -0.28136998542E+03 -0.37475011642E+03  0.46874206894E+03  0.10566000000E+00 0. -1.
         -4    1    3    3    0  503  0.47133536366E+03 -0.76322642046E+03  0.44746554573E+03  0.10024455140E+04  0.00000000000E+00 0. -1.
<mgrwt>
<rscale>  2 0.15100751E+04</rscale>
<asrwt>0</asrwt>
<pdfrwt beam="1">  1       21 0.21899590E+00 0.15238857E+04</pdfrwt>
<pdfrwt beam="2">  1       21 0.24466375E+00 0.15238857E+04</pdfrwt>
<totfact> 0.20698163E+00</totfact>
</mgrwt>
</event>
<event>
 8    1  0.1094795E-005  0.1062439E+04  0.7818608E-02  0.8719717E-01
         21   -1    0    0  503  502  0.00000000000E+00  0.00000000000E+00  0.76762431529E+03  0.76762431529E+03  0.00000000000E+00 0.  1.
         21   -1    0    0  501  503 -0.00000000000E+00 -0.00000000000E+00 -0.14677821081E+04  0.14677821081E+04  0.00000000000E+00 0.  1.
    9000010    2    1    2  501    0  0.33500129219E+03  0.15860115500E+02 -0.26941919838E+03  0.10960667807E+04  0.10081162008E+04 0.  0.
   -9000010    2    1    2    0  502 -0.33500129219E+03 -0.15860115500E+02 -0.43073859445E+03  0.11393396427E+04  0.10000408370E+04 0.  0.
        -13    1    3    3    0    0  0.52617005885E+03  0.22369377733E+03 -0.47781017758E+03  0.74511503394E+03  0.10566000000E+00 0.  1.
          4    1    3    3  501    0 -0.19116876666E+03 -0.20783366183E+03  0.20839097920E+03  0.35095174675E+03  0.00000000000E+00 0.  1.
         13    1    4    4    0    0  0.28034194988E+03 -0.92915946630E+02 -0.42699188969E+03  0.51917922437E+03  0.10566000000E+00 0. -1.
         -4    1    4    4    0  502 -0.61534324207E+03  0.77055831130E+02 -0.37467047694E+01  0.62016041833E+03  0.00000000000E+00 0. -1.
<mgrwt>
<rscale>  2 0.10605185E+04</rscale>
<asrwt>0</asrwt>
<pdfrwt beam="1">  1       21 0.11809605E+00 0.10624386E+04</pdfrwt>
<pdfrwt beam="2">  1       21 0.22581263E+00 0.10624386E+04</pdfrwt>
<totfact> 0.22994858E+01</totfact>
</mgrwt>
</event>
<event>
 8    1  0.1094795E-005  0.1022008E+04  0.7818608E-02  0.8757364E-01
         21   -1    0    0  503  502  0.00000000000E+00  0.00000000000E+00  0.27321964480E+04  0.27321964480E+04  0.00000000000E+00 0.  1.
         21   -1    0    0  501  503 -0.00000000000E+00 -0.00000000000E+00 -0.37747175189E+03  0.37747175189E+03  0.00000000000E+00 0.  1.
    9000010    2    1    2  501    0  0.57801240799E+02 -0.17710534704E+03  0.11399119629E+04  0.15309798010E+04  0.10048843618E+04 0.  0.
   -9000010    2    1    2    0  502 -0.57801240799E+02  0.17710534704E+03  0.12148127333E+04  0.15786883989E+04  0.99084801890E+03 0.  0.
        -13    1    3    3    0    0 -0.12088577799E+03 -0.51255194842E+03  0.99205280755E+03  0.11231614556E+04  0.10566000000E+00 0.  1.
          4    1    3    3  501    0  0.17868701879E+03  0.33544660138E+03  0.14785915532E+03  0.40781834544E+03  0.00000000000E+00 0.  1.
         13    1    4    4    0    0 -0.20453589393E+03  0.88933550485E+02 -0.10592023319E+03  0.24690730097E+03  0.10566000000E+00 0. -1.
         -4    1    4    4    0  502  0.14673465314E+03  0.88171796556E+02  0.13207329665E+04  0.13317810979E+04  0.00000000000E+00 0. -1.
<mgrwt>
<rscale>  2 0.10185407E+04</rscale>
<asrwt>0</asrwt>
<pdfrwt beam="1">  1       21 0.42033790E+00 0.10220078E+04</pdfrwt>
<pdfrwt beam="2">  1       21 0.58072579E-01 0.10220078E+04</pdfrwt>
<totfact> 0.57078835E+00</totfact>
</mgrwt>
</event>
<event>
 8    1  0.1094795E-005  0.1131690E+04  0.7818608E-02  0.8660530E-01
         21   -1    0    0  501  502  0.00000000000E+00  0.00000000000E+00  0.97657400674E+03  0.97657400674E+03  0.00000000000E+00 0.  1.
         21   -1    0    0  502  503 -0.00000000000E+00 -0.00000000000E+00 -0.13079626047E+04  0.13079626047E+04  0.00000000000E+00 0.  1.
   -9000010    2    1    2    0  503 -0.51636393204E+03 -0.13279289722E+03 -0.18513104405E+03  0.11467327874E+04  0.99822688716E+03 0.  0.
    9000010    2    1    2  501    0  0.51636393204E+03  0.13279289722E+03 -0.14625755393E+03  0.11378038241E+04  0.99445492919E+03 0.  0.
        -13    1    4    4    0    0 -0.81554713283E+02 -0.69058951456E+02  0.33020374601E+03  0.34706603849E+03  0.10566000000E+00 0.  1.
          4    1    4    4  501    0  0.59791864533E+03  0.20185184867E+03 -0.47646129994E+03  0.79073778561E+03  0.00000000000E+00 0.  1.
         13    1    3    3    0    0 -0.47551430927E+03 -0.51440478184E+03 -0.27499364668E+03  0.75256073163E+03  0.10566000000E+00 0. -1.
         -4    1    3    3    0  503 -0.40849622772E+02  0.38161188462E+03  0.89862602631E+02  0.39417205573E+03  0.00000000000E+00 0. -1.
<mgrwt>
<rscale>  2 0.11308578E+04</rscale>
<asrwt>0</asrwt>
<pdfrwt beam="1">  1       21 0.15024216E+00 0.11316901E+04</pdfrwt>
<pdfrwt beam="2">  1       21 0.20122501E+00 0.11316901E+04</pdfrwt>
<totfact> 0.17247571E+01</totfact>
</mgrwt>
</event>
<event>
 8    1  0.1094795E-005  0.1523286E+04  0.7818608E-02  0.8396246E-01
         21   -1    0    0  503  502  0.00000000000E+00  0.00000000000E+00  0.34025638529E+04  0.34025638529E+04  0.00000000000E+00 0. -1.
         21   -1    0    0  501  503 -0.00000000000E+00 -0.00000000000E+00 -0.70004833525E+03  0.70004833525E+03  0.00000000000E+00 0.  1.
    9000010    2    1    2  501    0  0.22582326740E+03  0.11292030025E+04  0.10208726041E+04  0.18337345323E+04  0.99714888171E+03 0.  0.
   -9000010    2    1    2    0  502 -0.22582326740E+03 -0.11292030025E+04  0.16816429135E+04  0.22688776558E+04  0.99688883994E+03 0.  0.
        -13    1    3    3    0    0  0.27865971080E+03  0.12686698950E+04  0.69001032069E+03  0.14708122894E+04  0.10566000000E+00 0.  1.
          4    1    3    3  501    0 -0.52836443400E+02 -0.13946689245E+03  0.33086228338E+03  0.36292224292E+03  0.00000000000E+00 0.  1.
         13    1    4    4    0    0 -0.48668570667E+03 -0.25078386529E+03  0.34104482081E+03  0.64503263881E+03  0.10566000000E+00 0. -1.
         -4    1    4    4    0  502  0.26086243927E+03 -0.87841913724E+03  0.13405980927E+04  0.16238450170E+04  0.00000000000E+00 0. -1.
<mgrwt>
<rscale>  2 0.15232438E+04</rscale>
<asrwt>0</asrwt>
<pdfrwt beam="1">  1       21 0.52347135E+00 0.15232864E+04</pdfrwt>
<pdfrwt beam="2">  1       21 0.10769975E+00 0.15232864E+04</pdfrwt>
<totfact> 0.21679952E-01</totfact>
</mgrwt>
</event>
<event>
 8    1  0.1094795E-005  0.1098462E+04  0.7818608E-02  0.8692329E-01
         21   -1    0    0  503  502  0.00000000000E+00  0.00000000000E+00  0.12467242622E+04  0.12467242622E+04  0.00000000000E+00 0. -1.
         21   -1    0    0  501  503 -0.00000000000E+00 -0.00000000000E+00 -0.10482270072E+04  0.10482270072E+04  0.00000000000E+00 0. -1.
    9000010    2    1    2  501    0 -0.13757843885E+03  0.38558209534E+03 -0.25883135081E+03  0.11050909678E+04  0.99329300812E+03 0.  0.
   -9000010    2    1    2    0  502  0.13757843885E+03 -0.38558209534E+03  0.45732860575E+03  0.11898603015E+04  0.10193216884E+04 0.  0.
        -13    1    3    3    0    0 -0.35717572194E+03 -0.11977442352E+02  0.23999025804E+03  0.43048030220E+03  0.10566000000E+00 0.  1.
          4    1    3    3  501    0  0.21959728309E+03  0.39755953769E+03 -0.49882160885E+03  0.67461066564E+03  0.00000000000E+00 0.  1.
         13    1    4    4    0    0 -0.12086327911E+03  0.25059641766E+03 -0.10996695990E+03  0.29916423619E+03  0.10566000000E+00 0. -1.
         -4    1    4    4    0  502  0.25844171795E+03 -0.63617851300E+03  0.56729556565E+03  0.89069606533E+03  0.00000000000E+00 0. -1.
<mgrwt>
<rscale>  2 0.10923840E+04</rscale>
<asrwt>0</asrwt>
<pdfrwt beam="1">  1       21 0.19180373E+00 0.10984617E+04</pdfrwt>
<pdfrwt beam="2">  1       21 0.16126569E+00 0.10984617E+04</pdfrwt>
<totfact> 0.16498061E+01</totfact>
</mgrwt>
</event>
<event>
 8    1  0.1094795E-005  0.1122296E+04  0.7818608E-02  0.8703429E-01
         21   -1    0    0  503  502  0.00000000000E+00  0.00000000000E+00  0.58165052196E+03  0.58165052196E+03  0.00000000000E+00 0. -1.
         21   -1    0    0  501  503 -0.00000000000E+00 -0.00000000000E+00 -0.19995336403E+04  0.19995336403E+04  0.00000000000E+00 0. -1.
    9000010    2    1    2  501    0  0.47503872059E+03 -0.18182557252E+03 -0.42504998246E+03  0.12000895492E+04  0.10004124717E+04 0.  0.
   -9000010    2    1    2    0  502 -0.47503872059E+03  0.18182557252E+03 -0.99283313590E+03  0.13810946131E+04  0.81423729325E+03 0.  0.
        -13    1    3    3    0    0  0.10098389968E+03 -0.50692332438E+03 -0.47499964016E+03  0.70199264534E+03  0.10566000000E+00 0.  1.
          4    1    3    3  501    0  0.37405482091E+03  0.32509775185E+03  0.49949657707E+02  0.49809690384E+03  0.00000000000E+00 0.  1.
         13    1    4    4    0    0  0.11104301252E+03 -0.17136272398E+03 -0.40105077976E+02  0.20809652145E+03  0.10566000000E+00 0. -1.
         -4    1    4    4    0  502 -0.58608173311E+03  0.35318829650E+03 -0.95272805793E+03  0.11729980917E+04  0.00000000000E+00 0. -1.
<mgrwt>
<rscale>  2 0.10793304E+04</rscale>
<asrwt>0</asrwt>
<pdfrwt beam="1">  1       21 0.89484695E-01 0.11222956E+04</pdfrwt>
<pdfrwt beam="2">  1       21 0.30762056E+00 0.11222956E+04</pdfrwt>
<totfact> 0.12169588E+01</totfact>
</mgrwt>
</event>
<event>
 8    1  0.1094795E-005  0.1061582E+04  0.7818608E-02  0.8721144E-01
         21   -1    0    0  501  502  0.00000000000E+00  0.00000000000E+00  0.11465062034E+04  0.11465062034E+04  0.00000000000E+00 0.  1.
         21   -1    0    0  502  503 -0.00000000000E+00 -0.00000000000E+00 -0.11674134533E+04  0.11674134533E+04  0.00000000000E+00 0.  1.
   -9000010    2    1    2    0  503 -0.30981366066E+03 -0.70769270220E+02 -0.48258296807E+03  0.11661230003E+04  0.10128986805E+04 0.  0.
    9000010    2    1    2  501    0  0.30981366066E+03  0.70769270220E+02  0.46167571819E+03  0.11477966564E+04  0.10016485919E+04 0.  0.
        -13    1    4    4    0    0  0.33504549790E+03 -0.34186844297E+03 -0.59729653497E+02  0.48238694078E+03  0.10566000000E+00 0.  1.
          4    1    4    4  501    0 -0.25231837237E+02  0.41263771319E+03  0.52140537169E+03  0.66540971557E+03  0.00000000000E+00 0.  1.
         13    1    3    3    0    0  0.23578529639E+03  0.29588447592E+03 -0.30289813081E+03  0.48465412193E+03  0.10566000000E+00 0. -1.
         -4    1    3    3    0  503 -0.54559895706E+03 -0.36665374614E+03 -0.17968483725E+03  0.68146887841E+03  0.00000000000E+00 0. -1.
<mgrwt>
<rscale>  2 0.10588897E+04</rscale>
<asrwt>0</asrwt>
<pdfrwt beam="1">  1       21 0.17638557E+00 0.10615821E+04</pdfrwt>
<pdfrwt beam="2">  1       21 0.17960207E+00 0.10615821E+04</pdfrwt>
<totfact> 0.15561565E+01</totfact>
</mgrwt>
</event>
<event>
 8    1  0.1094795E-005  0.1095712E+04  0.7818608E-02  0.8690542E-01
         21   -1    0    0  503  502  0.00000000000E+00  0.00000000000E+00  0.13715929573E+04  0.13715929573E+04  0.00000000000E+00 0. -1.
         21   -1    0    0  501  503 -0.00000000000E+00 -0.00000000000E+00 -0.92925880639E+03  0.92925880639E+03  0.00000000000E+00 0.  1.
    9000010    2    1    2  501    0 -0.44607858815E+03  0.43140953755E+02 -0.65267432903E+02  0.10976541499E+04  0.99986876458E+03 0.  0.
   -9000010    2    1    2    0  502  0.44607858815E+03 -0.43140953755E+02  0.50760158386E+03  0.12031976138E+04  0.99457422106E+03 0.  0.
        -13    1    3    3    0    0 -0.11682976424E+02 -0.39043240841E+03 -0.24134025072E+03  0.45915039503E+03  0.10566000000E+00 0.  1.
          4    1    3    3  501    0 -0.43439561173E+03  0.43357336216E+03  0.17607281782E+03  0.63850375491E+03  0.00000000000E+00 0.  1.
         13    1    4    4    0    0  0.61631406222E+03 -0.36409052920E+03  0.25157863931E+03  0.75874683503E+03  0.10566000000E+00 0. -1.
         -4    1    4    4    0  502 -0.17023547407E+03  0.32094957544E+03  0.25602294455E+03  0.44445077876E+03  0.00000000000E+00 0. -1.
<mgrwt>
<rscale>  2 0.10945027E+04</rscale>
<asrwt>0</asrwt>
<pdfrwt beam="1">  1       21 0.21101430E+00 0.10957120E+04</pdfrwt>
<pdfrwt beam="2">  1       21 0.14296289E+00 0.10957120E+04</pdfrwt>
<totfact> 0.16994054E+01</totfact>
</mgrwt>
</event>
<event>
 8    1  0.1094795E-005  0.1129740E+04  0.7818608E-02  0.8663663E-01
         21   -1    0    0  503  502  0.00000000000E+00  0.00000000000E+00  0.10794347175E+04  0.10794347175E+04  0.00000000000E+00 0. -1.
         21   -1    0    0  501  503 -0.00000000000E+00 -0.00000000000E+00 -0.11823184694E+04  0.11823184694E+04  0.00000000000E+00 0. -1.
    9000010    2    1    2  501    0  0.28955110132E+03  0.46849157374E+03  0.59110940081E+02  0.11312848662E+04  0.98640111029E+03 0.  0.
   -9000010    2    1    2    0  502 -0.28955110132E+03 -0.46849157374E+03 -0.16199469198E+03  0.11304683206E+04  0.97385427486E+03 0.  0.
        -13    1    3    3    0    0  0.26076780204E+03  0.74196067716E+03 -0.13058848386E+03  0.79721945304E+03  0.10566000000E+00 0.  1.
          4    1    3    3  501    0  0.28783299286E+02 -0.27346910342E+03  0.18969942394E+03  0.33406541319E+03  0.00000000000E+00 0.  1.
         13    1    4    4    0    0 -0.46120932799E+03 -0.30104334545E+03  0.28729181100E+03  0.62119057937E+03  0.10566000000E+00 0. -1.
         -4    1    4    4    0  502  0.17165822667E+03 -0.16744822828E+03 -0.44928650298E+03  0.50927774121E+03  0.00000000000E+00 0. -1.
<mgrwt>
<rscale>  2 0.11269950E+04</rscale>
<asrwt>0</asrwt>
<pdfrwt beam="1">  1       21 0.16606688E+00 0.11297395E+04</pdfrwt>
<pdfrwt beam="2">  1       21 0.18189515E+00 0.11297395E+04</pdfrwt>
<totfact> 0.17912735E+01</totfact>
</mgrwt>
</event>
<event>
 8    1  0.1094795E-005  0.1105627E+04  0.7818608E-02  0.8682092E-01
         21   -1    0    0  501  502  0.00000000000E+00  0.00000000000E+00  0.20695444269E+04  0.20695444269E+04  0.00000000000E+00 0.  1.
         21   -1    0    0  502  503 -0.00000000000E+00 -0.00000000000E+00 -0.73538655471E+03  0.73538655471E+03  0.00000000000E+00 0.  1.
   -9000010    2    1    2    0  503  0.27453043453E+03 -0.39762826472E+03  0.12949553777E+04  0.17027394128E+04  0.99445305636E+03 0.  0.
    9000010    2    1    2  501    0 -0.27453043453E+03  0.39762826472E+03  0.39202494482E+02  0.11021915688E+04  0.98985565734E+03 0.  0.
        -13    1    4    4    0    0 -0.38133697684E+03  0.60110997744E+03 -0.23013168721E+03  0.74813882369E+03  0.10566000000E+00 0.  1.
          4    1    4    4  501    0  0.10680654232E+03 -0.20348171272E+03  0.26933418169E+03  0.35405274511E+03  0.00000000000E+00 0.  1.
         13    1    3    3    0    0 -0.37458469748E+03 -0.21231080356E+03  0.50749760338E+03  0.66553993231E+03  0.10566000000E+00 0. -1.
         -4    1    3    3    0  503  0.64911513201E+03 -0.18531746116E+03  0.78745777435E+03  0.10371994805E+04  0.00000000000E+00 0. -1.
<mgrwt>
<rscale>  2 0.11045927E+04</rscale>
<asrwt>0</asrwt>
<pdfrwt beam="1">  1       21 0.31839145E+00 0.11056275E+04</pdfrwt>
<pdfrwt beam="2">  1       21 0.11313639E+00 0.11056275E+04</pdfrwt>
<totfact> 0.55367157E+00</totfact>
</mgrwt>
</event>
<event>
 8    1  0.1094795E-005  0.1189203E+04  0.7818608E-02  0.8615002E-01
         21   -1    0    0  501  502  0.00000000000E+00  0.00000000000E+00  0.13136683060E+04  0.13136683060E+04  0.00000000000E+00 0.  1.
         21   -1    0    0  502  503 -0.00000000000E+00 -0.00000000000E+00 -0.13946761313E+04  0.13946761313E+04  0.00000000000E+00 0. -1.
   -9000010    2    1    2    0  503 -0.59875367467E+03  0.25576527373E+03 -0.68853159665E+03  0.13729461030E+04  0.99347038409E+03 0.  0.
    9000010    2    1    2  501    0  0.59875367467E+03 -0.25576527373E+03  0.60752377142E+03  0.13353983343E+04  0.99512900682E+03 0.  0.
        -13    1    4    4    0    0  0.84040214872E+03 -0.90968999798E+02  0.26694448006E+03  0.88645952931E+03  0.10566000000E+00 0.  1.
          4    1    4    4  501    0 -0.24164847405E+03 -0.16479627394E+03  0.34057929136E+03  0.44893880498E+03  0.00000000000E+00 0.  1.
         13    1    3    3    0    0 -0.42380589051E+03 -0.26637621446E+03 -0.65072128880E+03  0.82097863999E+03  0.10566000000E+00 0. -1.
         -4    1    3    3    0  503 -0.17494778417E+03  0.52214148819E+03 -0.37810307850E+02  0.55196746304E+03  0.00000000000E+00 0. -1.
<mgrwt>
<rscale>  2 0.11888559E+04</rscale>
<asrwt>0</asrwt>
<pdfrwt beam="1">  1       21 0.20210282E+00 0.11892029E+04</pdfrwt>
<pdfrwt beam="2">  1       21 0.21456556E+00 0.11892029E+04</pdfrwt>
<totfact> 0.49962380E+00</totfact>
</mgrwt>
</event>
<event>
 8    1  0.1094795E-005  0.1004522E+04  0.7818608E-02  0.8770812E-01
         21   -1    0    0  501  502  0.00000000000E+00  0.00000000000E+00  0.20261787543E+04  0.20261787543E+04  0.00000000000E+00 0.  1.
         21   -1    0    0  502  503 -0.00000000000E+00 -0.00000000000E+00 -0.49730389254E+03  0.49730389254E+03  0.00000000000E+00 0.  1.
   -9000010    2    1    2    0  503 -0.76385112738E+02  0.13474619816E+03  0.73637429082E+03  0.12455162537E+04  0.99250814537E+03 0.  0.
    9000010    2    1    2  501    0  0.76385112738E+02 -0.13474619816E+03  0.79250057092E+03  0.12779663931E+04  0.99053002162E+03 0.  0.
        -13    1    4    4    0    0  0.58438916221E+02 -0.48487858444E+03  0.95327046739E+02  0.49760386412E+03  0.10566000000E+00 0.  1.
          4    1    4    4  501    0  0.17946196517E+02  0.35013238628E+03  0.69717352418E+03  0.78036252903E+03  0.00000000000E+00 0.  1.
         13    1    3    3    0    0  0.23760144895E+03  0.40231575004E+03  0.85616492272E+02  0.47501853247E+03  0.10566000000E+00 0. -1.
         -4    1    3    3    0  503 -0.31398656169E+03 -0.26756955188E+03  0.65075779855E+03  0.77049772121E+03  0.00000000000E+00 0. -1.
<mgrwt>
<rscale>  2 0.10040326E+04</rscale>
<asrwt>0</asrwt>
<pdfrwt beam="1">  1       21 0.31171981E+00 0.10045216E+04</pdfrwt>
<pdfrwt beam="2">  1       21 0.76508292E-01 0.10045216E+04</pdfrwt>
<totfact> 0.17251100E+01</totfact>
</mgrwt>
</event>
<event>
 8    1  0.1094795E-005  0.1408727E+04  0.7818608E-02  0.8473298E-01
         21   -1    0    0  501  502  0.00000000000E+00  0.00000000000E+00  0.14558195726E+04  0.14558195726E+04  0.00000000000E+00 0.  1.
         21   -1    0    0  502  503 -0.00000000000E+00 -0.00000000000E+00 -0.13079779943E+04  0.13079779943E+04  0.00000000000E+00 0.  1.
   -9000010    2    1    2    0  503 -0.89984180861E+03 -0.35961003563E+02  0.10724017889E+03  0.14128029268E+04  0.10832835177E+04 0.  0.
    9000010    2    1    2  501    0  0.89984180861E+03  0.35961003563E+02  0.40601399461E+02  0.13509946401E+04  0.10062452831E+04 0.  0.
        -13    1    4    4    0    0 -0.86338163009E+02  0.16294960272E+03 -0.25405840733E+03  0.31393078364E+03  0.10566000000E+00 0.  1.
          4    1    4    4  501    0  0.98617997162E+03 -0.12698859916E+03  0.29465980679E+03  0.10370638565E+04  0.00000000000E+00 0.  1.
         13    1    3    3    0    0 -0.13612839866E+03 -0.16656660059E+03  0.49987420973E+03  0.54419629737E+03  0.10566000000E+00 0. -1.
         -4    1    3    3    0  503 -0.76371340995E+03  0.13060559703E+03 -0.39263403083E+03  0.86860662942E+03  0.00000000000E+00 0. -1.
<mgrwt>
<rscale>  2 0.13939092E+04</rscale>
<asrwt>0</asrwt>
<pdfrwt beam="1">  1       21 0.22397224E+00 0.14087270E+04</pdfrwt>
<pdfrwt beam="2">  1       21 0.20122738E+00 0.14087270E+04</pdfrwt>
<totfact> 0.41245239E+00</totfact>
</mgrwt>
</event>
<event>
 8    1  0.1094795E-005  0.1055048E+04  0.7818608E-02  0.8754272E-01
         21   -1    0    0  501  502  0.00000000000E+00  0.00000000000E+00  0.95924348736E+03  0.95924348736E+03  0.00000000000E+00 0.  1.
         21   -1    0    0  502  503 -0.00000000000E+00 -0.00000000000E+00 -0.10714997328E+04  0.10714997328E+04  0.00000000000E+00 0.  1.
   -9000010    2    1    2    0  503 -0.34308773352E+03  0.91430152974E+02 -0.26945945693E+03  0.10889140965E+04  0.99350734510E+03 0.  0.
    9000010    2    1    2  501    0  0.34308773352E+03 -0.91430152974E+02  0.15720321149E+03  0.94182912371E+03  0.85805628184E+03 0.  0.
        -13    1    4    4    0    0  0.39039404583E+03  0.30832283011E+03 -0.28996364744E+02  0.49830841747E+03  0.10566000000E+00 0.  1.
          4    1    4    4  501    0 -0.47306312316E+02 -0.39975298309E+03  0.18619957623E+03  0.44352070624E+03  0.00000000000E+00 0.  1.
         13    1    3    3    0    0  0.27792854073E+03 -0.20874379352E+03  0.21779220118E+01  0.34759602931E+03  0.10566000000E+00 0. -1.
         -4    1    3    3    0  503 -0.62101627425E+03  0.30017394649E+03 -0.27163737894E+03  0.74131806714E+03  0.00000000000E+00 0. -1.
<mgrwt>
<rscale>  2 0.10219113E+04</rscale>
<asrwt>0</asrwt>
<pdfrwt beam="1">  1       21 0.14757592E+00 0.10550476E+04</pdfrwt>
<pdfrwt beam="2">  1       21 0.16484611E+00 0.10550476E+04</pdfrwt>
<totfact> 0.36582464E+01</totfact>
</mgrwt>
</event>
<event>
 8    1  0.1094795E-005  0.1746791E+04  0.7818608E-02  0.8281986E-01
         21   -1    0    0  503  502  0.00000000000E+00  0.00000000000E+00  0.15622873294E+04  0.15622873294E+04  0.00000000000E+00 0. -1.
         21   -1    0    0  501  503 -0.00000000000E+00 -0.00000000000E+00 -0.33206415644E+04  0.33206415644E+04  0.00000000000E+00 0.  1.
    9000010    2    1    2  501    0 -0.92392696594E+03  0.10617853587E+04 -0.24536767556E+04  0.30028351987E+04  0.10077005622E+04 0.  0.
   -9000010    2    1    2    0  502  0.92392696594E+03 -0.10617853587E+04  0.69532252066E+03  0.18800936951E+04  0.10345287373E+04 0.  0.
        -13    1    3    3    0    0 -0.49439557651E+03  0.11849823080E+04 -0.17998306552E+04  0.22108822797E+04  0.10566000000E+00 0.  1.
          4    1    3    3  501    0 -0.42953138943E+03 -0.12319694925E+03 -0.65384610040E+03  0.79195291894E+03  0.00000000000E+00 0.  1.
         13    1    4    4    0    0  0.29467053972E+03 -0.10521386147E+04  0.59086074918E+03  0.12421524977E+04  0.10566000000E+00 0. -1.
         -4    1    4    4    0  502  0.62925642621E+03 -0.96467439927E+01  0.10446177148E+03  0.63794119737E+03  0.00000000000E+00 0. -1.
<mgrwt>
<rscale>  2 0.17428392E+04</rscale>
<asrwt>0</asrwt>
<pdfrwt beam="1">  1       21 0.24035190E+00 0.17467910E+04</pdfrwt>
<pdfrwt beam="2">  1       21 0.51086793E+00 0.17467910E+04</pdfrwt>
<totfact> 0.18552914E-02</totfact>
</mgrwt>
</event>
<event>
 8    1  0.1094795E-005  0.1367149E+04  0.7818608E-02  0.8490369E-01
         21   -1    0    0  501  502  0.00000000000E+00  0.00000000000E+00  0.18066668769E+04  0.18066668769E+04  0.00000000000E+00 0. -1.
         21   -1    0    0  502  503 -0.00000000000E+00 -0.00000000000E+00 -0.10687261981E+04  0.10687261981E+04  0.00000000000E+00 0. -1.
   -9000010    2    1    2    0  503  0.41774100141E+03  0.84663025860E+03  0.62696224901E+03  0.15037474062E+04  0.98837455492E+03 0.  0.
    9000010    2    1    2  501    0 -0.41774100141E+03 -0.84663025860E+03  0.11097842971E+03  0.13716456688E+04  0.98884037636E+03 0.  0.
        -13    1    4    4    0    0 -0.56213726763E+03 -0.98749839593E+03  0.19539715913E+03  0.11529663701E+04  0.10566000000E+00 0.  1.
          4    1    4    4  501    0  0.14439626622E+03  0.14086813733E+03 -0.84418729421E+02  0.21867929873E+03  0.00000000000E+00 0.  1.
         13    1    3    3    0    0  0.41954040798E+03  0.46512851186E+03 -0.14474165878E+03  0.64289100587E+03  0.10566000000E+00 0. -1.
         -4    1    3    3    0  503 -0.17994065714E+01  0.38150174674E+03  0.77170390778E+03  0.86085640029E+03  0.00000000000E+00 0. -1.
<mgrwt>
<rscale>  2 0.13670645E+04</rscale>
<asrwt>0</asrwt>
<pdfrwt beam="1">  1       21 0.27794875E+00 0.13671487E+04</pdfrwt>
<pdfrwt beam="2">  1       21 0.16441942E+00 0.13671487E+04</pdfrwt>
<totfact> 0.33462042E+00</totfact>
</mgrwt>
</event>
<event>
 8    1  0.1094795E-005  0.1321204E+04  0.7818608E-02  0.8524714E-01
         21   -1    0    0  501  502  0.00000000000E+00  0.00000000000E+00  0.13700199833E+04  0.13700199833E+04  0.00000000000E+00 0.  1.
         21   -1    0    0  502  503 -0.00000000000E+00 -0.00000000000E+00 -0.20398081071E+04  0.20398081071E+04  0.00000000000E+00 0.  1.
   -9000010    2    1    2    0  503  0.74033122488E+03 -0.33996160302E+03 -0.13936891222E+04  0.19033043210E+04  0.10082329864E+04 0.  0.
    9000010    2    1    2  501    0 -0.74033122488E+03  0.33996160302E+03  0.72390099853E+03  0.15065237694E+04  0.10401523917E+04 0.  0.
        -13    1    4    4    0    0 -0.17951121877E+03  0.44200027179E+03  0.79999503624E+03  0.93144006093E+03  0.10566000000E+00 0.  1.
          4    1    4    4  501    0 -0.56082000611E+03 -0.10203866877E+03 -0.76094037711E+02  0.57508370848E+03  0.00000000000E+00 0.  1.
         13    1    3    3    0    0  0.65093474573E+03 -0.14254821792E+03 -0.15149132385E+04  0.16549918939E+04  0.10566000000E+00 0. -1.
         -4    1    3    3    0  503  0.89396479150E+02 -0.19741338510E+03  0.12122411621E+03  0.24831242710E+03  0.00000000000E+00 0. -1.
<mgrwt>
<rscale>  2 0.13149147E+04</rscale>
<asrwt>0</asrwt>
<pdfrwt beam="1">  1       21 0.21077230E+00 0.13212045E+04</pdfrwt>
<pdfrwt beam="2">  1       21 0.31381663E+00 0.13212045E+04</pdfrwt>
<totfact> 0.79395603E-01</totfact>
</mgrwt>
</event>
<event>
 8    1  0.1094795E-005  0.1387704E+04  0.7818608E-02  0.8487460E-01
         21   -1    0    0  501  502  0.00000000000E+00  0.00000000000E+00  0.13859553397E+04  0.13859553397E+04  0.00000000000E+00 0.  1.
         21   -1    0    0  502  503 -0.00000000000E+00 -0.00000000000E+00 -0.17514613942E+04  0.17514613942E+04  0.00000000000E+00 0.  1.
   -9000010    2    1    2    0  503 -0.78093472045E+03 -0.40542644353E+03 -0.95828899623E+03  0.16864285425E+04  0.10730767867E+04 0.  0.
    9000010    2    1    2  501    0  0.78093472045E+03  0.40542644353E+03  0.59278294174E+03  0.14509881914E+04  0.98982093172E+03 0.  0.
        -13    1    4    4    0    0  0.81332782574E+03  0.18740838602E+02  0.93877038091E+02  0.81894217171E+03  0.10566000000E+00 0.  1.
          4    1    4    4  501    0 -0.32393105291E+02  0.38668560493E+03  0.49890590365E+03  0.63204601970E+03  0.00000000000E+00 0.  1.
         13    1    3    3    0    0 -0.69990389061E+03  0.23612290570E+02 -0.79055053474E+02  0.70475010393E+03  0.10566000000E+00 0. -1.
         -4    1    3    3    0  503 -0.81030829843E+02 -0.42903873410E+03 -0.87923394276E+03  0.98167843861E+03  0.00000000000E+00 0. -1.
<mgrwt>
<rscale>  2 0.13715942E+04</rscale>
<asrwt>0</asrwt>
<pdfrwt beam="1">  1       21 0.21322390E+00 0.13877044E+04</pdfrwt>
<pdfrwt beam="2">  1       21 0.26945560E+00 0.13877044E+04</pdfrwt>
<totfact> 0.15510570E+00</totfact>
</mgrwt>
</event>
<event>
 8    1  0.1094795E-005  0.1098213E+04  0.7818608E-02  0.8688716E-01
         21   -1    0    0  501  502  0.00000000000E+00  0.00000000000E+00  0.18421648197E+04  0.18421648197E+04  0.00000000000E+00 0.  1.
         21   -1    0    0  502  503 -0.00000000000E+00 -0.00000000000E+00 -0.69876131274E+03  0.69876131274E+03  0.00000000000E+00 0.  1.
   -9000010    2    1    2    0  503 -0.35350518033E+03 -0.25968556268E+03  0.24120823787E+03  0.11243900102E+04  0.10068112917E+04 0.  0.
    9000010    2    1    2  501    0  0.35350518033E+03  0.25968556268E+03  0.90219526904E+03  0.14165361222E+04  0.10001078831E+04 0.  0.
        -13    1    4    4    0    0 -0.29460147954E+03  0.32304256647E+03  0.30609799817E+03  0.53370640538E+03  0.10566000000E+00 0.  1.
          4    1    4    4  501    0  0.64810665987E+03 -0.63357003783E+02  0.59609727087E+03  0.88282971678E+03  0.00000000000E+00 0.  1.
         13    1    3    3    0    0 -0.28014716696E+03 -0.46163075520E+03 -0.24489246394E+03  0.59292302988E+03  0.10566000000E+00 0. -1.
         -4    1    3    3    0  503 -0.73358013371E+02  0.20194519252E+03  0.48610070181E+03  0.53146698036E+03  0.00000000000E+00 0. -1.
<mgrwt>
<rscale>  2 0.10966741E+04</rscale>
<asrwt>0</asrwt>
<pdfrwt beam="1">  1       21 0.28340997E+00 0.10982129E+04</pdfrwt>
<pdfrwt beam="2">  1       21 0.10750174E+00 0.10982129E+04</pdfrwt>
<totfact> 0.11258929E+01</totfact>
</mgrwt>
</event>
<event>
 8    1  0.1094795E-005  0.1118369E+04  0.7818608E-02  0.8676566E-01
         21   -1    0    0  503  502  0.00000000000E+00  0.00000000000E+00  0.28007004861E+04  0.28007004861E+04  0.00000000000E+00 0. -1.
         21   -1    0    0  501  503 -0.00000000000E+00 -0.00000000000E+00 -0.45016927003E+03  0.45016927003E+03  0.00000000000E+00 0. -1.
    9000010    2    1    2  501    0 -0.22934335494E+03 -0.44776795968E+03  0.86633039346E+03  0.13924828905E+04  0.96715341568E+03 0.  0.
   -9000010    2    1    2    0  502  0.22934335494E+03  0.44776795968E+03  0.14842008226E+04  0.18583868657E+04  0.99882688212E+03 0.  0.
        -13    1    3    3    0    0 -0.38321131295E+03  0.11728336524E+03  0.65890280800E+03  0.77120634054E+03  0.10566000000E+00 0.  1.
          4    1    3    3  501    0  0.15386795801E+03 -0.56505132492E+03  0.20742758546E+03  0.62127654994E+03  0.00000000000E+00 0.  1.
         13    1    4    4    0    0 -0.55776891151E+02  0.64935690362E+03  0.13208190109E+04  0.14728673805E+04  0.10566000000E+00 0. -1.
         -4    1    4    4    0  502  0.28512024610E+03 -0.20158894394E+03  0.16338181177E+03  0.38551948520E+03  0.00000000000E+00 0. -1.
<mgrwt>
<rscale>  2 0.11112529E+04</rscale>
<asrwt>0</asrwt>
<pdfrwt beam="1">  1       21 0.43087699E+00 0.11183692E+04</pdfrwt>
<pdfrwt beam="2">  1       21 0.69256813E-01 0.11183692E+04</pdfrwt>
<totfact> 0.31431215E+00</totfact>
</mgrwt>
</event>
<event>
 8    1  0.1094795E-005  0.1099870E+04  0.7818608E-02  0.8693172E-01
         21   -1    0    0  501  502  0.00000000000E+00  0.00000000000E+00  0.62980250548E+03  0.62980250548E+03  0.00000000000E+00 0. -1.
         21   -1    0    0  502  503 -0.00000000000E+00 -0.00000000000E+00 -0.18823396459E+04  0.18823396459E+04  0.00000000000E+00 0. -1.
   -9000010    2    1    2    0  503  0.19792921729E+03  0.38432720671E+03 -0.76432118985E+03  0.13393655735E+04  0.10113505235E+04 0.  0.
    9000010    2    1    2  501    0 -0.19792921729E+03 -0.38432720671E+03 -0.48821595052E+03  0.11727765778E+04  0.97476495131E+03 0.  0.
        -13    1    4    4    0    0  0.23089816178E+03 -0.17139805337E+03 -0.61378051134E+03  0.67780364493E+03  0.10566000000E+00 0.  1.
          4    1    4    4  501    0 -0.42882737907E+03 -0.21292915334E+03  0.12556456081E+03  0.49497293291E+03  0.00000000000E+00 0.  1.
         13    1    3    3    0    0  0.58352142048E+03  0.11909832096E+03 -0.59452554833E+03  0.84151191139E+03  0.10566000000E+00 0. -1.
         -4    1    3    3    0  503 -0.38559220320E+03  0.26522888575E+03 -0.16979564151E+03  0.49785366211E+03  0.00000000000E+00 0. -1.
<mgrwt>
<rscale>  2 0.10913860E+04</rscale>
<asrwt>0</asrwt>
<pdfrwt beam="1">  1       21 0.96892695E-01 0.10998697E+04</pdfrwt>
<pdfrwt beam="2">  1       21 0.28959071E+00 0.10998697E+04</pdfrwt>
<totfact> 0.13382934E+01</totfact>
</mgrwt>
</event>
<event>
 8    1  0.1094795E-005  0.1186769E+04  0.7818608E-02  0.8617497E-01
         21   -1    0    0  501  502  0.00000000000E+00  0.00000000000E+00  0.12602482946E+04  0.12602482946E+04  0.00000000000E+00 0.  1.
         21   -1    0    0  502  503 -0.00000000000E+00 -0.00000000000E+00 -0.13584012985E+04  0.13584012985E+04  0.00000000000E+00 0.  1.
   -9000010    2    1    2    0  503  0.28478760077E+03  0.55417054155E+03 -0.60552350133E+03  0.13323210461E+04  0.10100552918E+04 0.  0.
    9000010    2    1    2  501    0 -0.28478760077E+03 -0.55417054155E+03  0.50737049751E+03  0.12863285470E+04  0.10044935751E+04 0.  0.
        -13    1    4    4    0    0 -0.65884504698E+03 -0.36448485150E+03  0.40352785146E+03  0.85426034730E+03  0.10566000000E+00 0.  1.
          4    1    4    4  501    0  0.37405744621E+03 -0.18968569004E+03  0.10384264606E+03  0.43206819973E+03  0.00000000000E+00 0.  1.
         13    1    3    3    0    0 -0.23135526175E+03  0.31495946059E+03 -0.65348229109E+03  0.76142224481E+03  0.10566000000E+00 0. -1.
         -4    1    3    3    0  503  0.51614286252E+03  0.23921108096E+03  0.47958789763E+02  0.57089880127E+03  0.00000000000E+00 0. -1.
<mgrwt>
<rscale>  2 0.11855847E+04</rscale>
<asrwt>0</asrwt>
<pdfrwt beam="1">  1       21 0.19388435E+00 0.11867690E+04</pdfrwt>
<pdfrwt beam="2">  1       21 0.20898481E+00 0.11867690E+04</pdfrwt>
<totfact> 0.63997681E+00</totfact>
</mgrwt>
</event>
<event>
 8    1  0.1094795E-005  0.1035143E+04  0.7818608E-02  0.8743871E-01
         21   -1    0    0  501  502  0.00000000000E+00  0.00000000000E+00  0.23134373635E+04  0.23134373635E+04  0.00000000000E+00 0. -1.
         21   -1    0    0  502  503 -0.00000000000E+00 -0.00000000000E+00 -0.50301488369E+03  0.50301488369E+03  0.00000000000E+00 0. -1.
   -9000010    2    1    2    0  503 -0.13970640946E+03  0.27476433833E+03  0.13142437873E+04  0.16685351162E+04  0.98069331555E+03 0.  0.
    9000010    2    1    2  501    0  0.13970640946E+03 -0.27476433833E+03  0.49617869251E+03  0.11479171310E+04  0.98818374921E+03 0.  0.
        -13    1    4    4    0    0  0.50387724190E+03  0.96830582911E+02  0.21296692220E+03  0.55553879955E+03  0.10566000000E+00 0.  1.
          4    1    4    4  501    0 -0.36417083244E+03 -0.37159492124E+03  0.28321177031E+03  0.59237833141E+03  0.00000000000E+00 0.  1.
         13    1    3    3    0    0  0.52487816079E+02  0.22380242417E+03  0.14233079190E+04  0.14417516913E+04  0.10566000000E+00 0. -1.
         -4    1    3    3    0  503 -0.19219422554E+03  0.50961914157E+02 -0.10906413166E+03  0.22678342497E+03  0.00000000000E+00 0. -1.
<mgrwt>
<rscale>  2 0.10333510E+04</rscale>
<asrwt>0</asrwt>
<pdfrwt beam="1">  1       21 0.35591343E+00 0.10351427E+04</pdfrwt>
<pdfrwt beam="2">  1       21 0.77386906E-01 0.10351427E+04</pdfrwt>
<totfact> 0.81596532E+00</totfact>
</mgrwt>
</event>
<event>
 8    1  0.1094795E-005  0.1077423E+04  0.7818608E-02  0.8706224E-01
         21   -1    0    0  503  502  0.00000000000E+00  0.00000000000E+00  0.90114262833E+03  0.90114262833E+03  0.00000000000E+00 0.  1.
         21   -1    0    0  501  503 -0.00000000000E+00 -0.00000000000E+00 -0.12823574764E+04  0.12823574764E+04  0.00000000000E+00 0.  1.
    9000010    2    1    2  501    0  0.37221319392E+03  0.22772362804E+01 -0.21478366440E+03  0.10986228838E+04  0.10110847496E+04 0.  0.
   -9000010    2    1    2    0  502 -0.37221319392E+03 -0.22772362804E+01 -0.16643118363E+03  0.10848772209E+04  0.10053414335E+04 0.  0.
        -13    1    3    3    0    0  0.39410498056E+03  0.15560649590E+03  0.32694550723E+03  0.53518734396E+03  0.10566000000E+00 0.  1.
          4    1    3    3  501    0 -0.21891786644E+02 -0.15332925962E+03 -0.54172917163E+03  0.56343553986E+03  0.00000000000E+00 0.  1.
         13    1    4    4    0    0 -0.33325018859E+03 -0.39665990140E+03 -0.37261150623E+03  0.63814897266E+03  0.10566000000E+00 0. -1.
         -4    1    4    4    0  502 -0.38963005329E+02  0.39438266512E+03  0.20618032259E+03  0.44672824822E+03  0.00000000000E+00 0. -1.
<mgrwt>
<rscale>  2 0.10760735E+04</rscale>
<asrwt>0</asrwt>
<pdfrwt beam="1">  1       21 0.13863733E+00 0.10774230E+04</pdfrwt>
<pdfrwt beam="2">  1       21 0.19728576E+00 0.10774230E+04</pdfrwt>
<totfact> 0.23895754E+01</totfact>
</mgrwt>
</event>
<event>
 8    1  0.1094795E-005  0.1033897E+04  0.7818608E-02  0.8749193E-01
         21   -1    0    0  501  502  0.00000000000E+00  0.00000000000E+00  0.71523283495E+03  0.71523283495E+03  0.00000000000E+00 0.  1.
         21   -1    0    0  502  503 -0.00000000000E+00 -0.00000000000E+00 -0.15341485386E+04  0.15341485386E+04  0.00000000000E+00 0.  1.
   -9000010    2    1    2    0  503  0.19769176741E+03  0.21494291571E+03 -0.66486181597E+03  0.12292206820E+04  0.99179622850E+03 0.  0.
    9000010    2    1    2  501    0 -0.19769176741E+03 -0.21494291571E+03 -0.15405388765E+03  0.10201606915E+04  0.96525268416E+03 0.  0.
        -13    1    4    4    0    0  0.16868697823E+03 -0.17122363452E+03  0.33202880837E+03  0.40989751206E+03  0.10566000000E+00 0.  1.
          4    1    4    4  501    0 -0.36637874564E+03 -0.43719281189E+02 -0.48608269602E+03  0.61026317944E+03  0.00000000000E+00 0.  1.
         13    1    3    3    0    0  0.59591250083E+03  0.11180919334E+03 -0.50064697798E+03  0.78629537203E+03  0.10566000000E+00 0. -1.
         -4    1    3    3    0  503 -0.39822073342E+03  0.10313372237E+03 -0.16421483800E+03  0.44292530999E+03  0.00000000000E+00 0. -1.
<mgrwt>
<rscale>  2 0.10274784E+04</rscale>
<asrwt>0</asrwt>
<pdfrwt beam="1">  1       21 0.11003582E+00 0.10338966E+04</pdfrwt>
<pdfrwt beam="2">  1       21 0.23602285E+00 0.10338966E+04</pdfrwt>
<totfact> 0.23596937E+01</totfact>
</mgrwt>
</event>
<event>
 8    1  0.1094795E-005  0.1109156E+04  0.7818608E-02  0.8682631E-01
         21   -1    0    0  501  502  0.00000000000E+00  0.00000000000E+00  0.18281315051E+04  0.18281315051E+04  0.00000000000E+00 0.  1.
         21   -1    0    0  502  503 -0.00000000000E+00 -0.00000000000E+00 -0.66233724442E+03  0.66233724442E+03  0.00000000000E+00 0.  1.
   -9000010    2    1    2    0  503 -0.23208307161E+03  0.38234350837E+03  0.52183574422E+03  0.12257808428E+04  0.10149763643E+04 0.  0.
    9000010    2    1    2  501    0  0.23208307161E+03 -0.38234350837E+03  0.64395851643E+03  0.12646879067E+04  0.99232243749E+03 0.  0.
        -13    1    4    4    0    0  0.40776914583E+03 -0.45872048536E+02  0.76345721297E+03  0.86674497306E+03  0.10566000000E+00 0.  1.
          4    1    4    4  501    0 -0.17568607422E+03 -0.33647145984E+03 -0.11949869654E+03  0.39794293364E+03  0.00000000000E+00 0.  1.
         13    1    3    3    0    0 -0.55187913425E+03  0.44593721724E+03  0.55110244798E+03  0.89841221044E+03  0.10566000000E+00 0. -1.
         -4    1    3    3    0  503  0.31979606264E+03 -0.63593708865E+02 -0.29266703760E+02  0.32736863233E+03  0.00000000000E+00 0. -1.
<mgrwt>
<rscale>  2 0.11039460E+04</rscale>
<asrwt>0</asrwt>
<pdfrwt beam="1">  1       21 0.28125100E+00 0.11091556E+04</pdfrwt>
<pdfrwt beam="2">  1       21 0.10189804E+00 0.11091556E+04</pdfrwt>
<totfact> 0.13419904E+01</totfact>
</mgrwt>
</event>
<event>
 8    1  0.1094795E-005  0.1031667E+04  0.7818608E-02  0.8745928E-01
         21   -1    0    0  501  502  0.00000000000E+00  0.00000000000E+00  0.11003947746E+04  0.11003947746E+04  0.00000000000E+00 0. -1.
         21   -1    0    0  502  503 -0.00000000000E+00 -0.00000000000E+00 -0.97255607869E+03  0.97255607869E+03  0.00000000000E+00 0. -1.
   -9000010    2    1    2    0  503 -0.86476455110E+02 -0.21205764651E+03  0.15522719548E+03  0.10432793305E+04  0.10059272621E+04 0.  0.
    9000010    2    1    2  501    0  0.86476455110E+02  0.21205764651E+03 -0.27388499551E+02  0.10296715228E+04  0.10035071959E+04 0.  0.
        -13    1    4    4    0    0 -0.19954980668E+03  0.18527481631E+03  0.41847816145E+03  0.49927033327E+03  0.10566000000E+00 0.  1.
          4    1    4    4  501    0  0.28602626179E+03  0.26782830195E+02 -0.44586666101E+03  0.53040118950E+03  0.00000000000E+00 0.  1.
         13    1    3    3    0    0 -0.17097206884E+03 -0.57503690862E+03  0.26342996914E+03  0.65520550548E+03  0.10566000000E+00 0. -1.
         -4    1    3    3    0  503  0.84495613730E+02  0.36297926212E+03 -0.10820277366E+03  0.38807382506E+03  0.00000000000E+00 0. -1.
<mgrwt>
<rscale>  2 0.10310764E+04</rscale>
<asrwt>0</asrwt>
<pdfrwt beam="1">  1       21 0.16929150E+00 0.10316667E+04</pdfrwt>
<pdfrwt beam="2">  1       21 0.14962401E+00 0.10316667E+04</pdfrwt>
<totfact> 0.32327725E+01</totfact>
</mgrwt>
</event>
<event>
 8    1  0.1094795E-005  0.1147380E+04  0.7818608E-02  0.8647828E-01
         21   -1    0    0  501  502  0.00000000000E+00  0.00000000000E+00  0.17481368581E+04  0.17481368581E+04  0.00000000000E+00 0.  1.
         21   -1    0    0  502  503 -0.00000000000E+00 -0.00000000000E+00 -0.75769435249E+03  0.75769435249E+03  0.00000000000E+00 0.  1.
   -9000010    2    1    2    0  503  0.55627041021E+03  0.49096298175E+02  0.61131759370E+03  0.13000733305E+04  0.10023144459E+04 0.  0.
    9000010    2    1    2  501    0 -0.55627041021E+03 -0.49096298175E+02  0.37912491195E+03  0.12057578802E+04  0.99913420067E+03 0.  0.
        -13    1    4    4    0    0 -0.79452519778E+03  0.16169851116E+03  0.35978207565E+03  0.88705121134E+03  0.10566000000E+00 0.  1.
          4    1    4    4  501    0  0.23825478756E+03 -0.21079480934E+03  0.19342836302E+02  0.31870666883E+03  0.00000000000E+00 0.  1.
         13    1    3    3    0    0  0.47401449848E+03  0.41321308321E+03  0.56504451965E+02  0.63136959157E+03  0.10566000000E+00 0. -1.
         -4    1    3    3    0  503  0.82255911735E+02 -0.36411678504E+03  0.55481314174E+03  0.66870373889E+03  0.00000000000E+00 0. -1.
<mgrwt>
<rscale>  2 0.11466854E+04</rscale>
<asrwt>0</asrwt>
<pdfrwt beam="1">  1       21 0.26894413E+00 0.11473803E+04</pdfrwt>
<pdfrwt beam="2">  1       21 0.11656836E+00 0.11473803E+04</pdfrwt>
<totfact> 0.11331016E+01</totfact>
</mgrwt>
</event>
<event>
 8    1  0.1094795E-005  0.1127237E+04  0.7818608E-02  0.8683410E-01
         21   -1    0    0  503  502  0.00000000000E+00  0.00000000000E+00  0.12930650478E+04  0.12930650478E+04  0.00000000000E+00 0.  1.
         21   -1    0    0  501  503 -0.00000000000E+00 -0.00000000000E+00 -0.14674697868E+04  0.14674697868E+04  0.00000000000E+00 0.  1.
    9000010    2    1    2  501    0 -0.27176815214E+03  0.16726224760E+03 -0.94073970308E+03  0.13974751112E+04  0.98290941064E+03 0.  0.
   -9000010    2    1    2    0  502  0.27176815214E+03 -0.16726224760E+03  0.76633496401E+03  0.13630597234E+04  0.10811234640E+04 0.  0.
        -13    1    3    3    0    0  0.45554324676E+02  0.31978122978E+03  0.67103416086E+02  0.32990621551E+03  0.10566000000E+00 0.  1.
          4    1    3    3  501    0 -0.31732247681E+03 -0.15251898219E+03 -0.10078431192E+04  0.10675688957E+04  0.00000000000E+00 0.  1.
         13    1    4    4    0    0  0.52164031177E+03 -0.95642391776E+01 -0.20955723379E+02  0.52214867906E+03  0.10566000000E+00 0. -1.
         -4    1    4    4    0  502 -0.24987215964E+03 -0.15769800842E+03  0.78729068739E+03  0.84091104432E+03  0.00000000000E+00 0. -1.
<mgrwt>
<rscale>  2 0.11030113E+04</rscale>
<asrwt>0</asrwt>
<pdfrwt beam="1">  1       21 0.19893308E+00 0.11272367E+04</pdfrwt>
<pdfrwt beam="2">  1       21 0.22576458E+00 0.11272367E+04</pdfrwt>
<totfact> 0.44146753E+00</totfact>
</mgrwt>
</event>
<event>
 8    1  0.1094795E-005  0.1138617E+04  0.7818608E-02  0.8656406E-01
         21   -1    0    0  501  502  0.00000000000E+00  0.00000000000E+00  0.83301058686E+03  0.83301058686E+03  0.00000000000E+00 0. -1.
         21   -1    0    0  502  503 -0.00000000000E+00 -0.00000000000E+00 -0.15561519111E+04  0.15561519111E+04  0.00000000000E+00 0. -1.
   -9000010    2    1    2    0  503 -0.36302574608E+03 -0.40549453571E+03 -0.47740197909E+03  0.12346499126E+04  0.10001171163E+04 0.  0.
    9000010    2    1    2  501    0  0.36302574608E+03  0.40549453571E+03 -0.24573934511E+03  0.11545125853E+04  0.98807791849E+03 0.  0.
        -13    1    4    4    0    0  0.69839585637E+03  0.17477624750E+03 -0.13292462915E+03  0.73210141174E+03  0.10566000000E+00 0.  1.
          4    1    4    4  501    0 -0.33537011029E+03  0.23071828820E+03 -0.11281471596E+03  0.42241117353E+03  0.00000000000E+00 0.  1.
         13    1    3    3    0    0 -0.55791224967E+03 -0.51345019276E+03 -0.58853871000E+02  0.76050047211E+03  0.10566000000E+00 0. -1.
         -4    1    3    3    0  503  0.19488650359E+03  0.10795565705E+03 -0.41854810809E+03  0.47414944053E+03  0.00000000000E+00 0. -1.
<mgrwt>
<rscale>  2 0.11359673E+04</rscale>
<asrwt>0</asrwt>
<pdfrwt beam="1">  1       21 0.12815548E+00 0.11386166E+04</pdfrwt>
<pdfrwt beam="2">  1       21 0.23940798E+00 0.11386166E+04</pdfrwt>
<totfact> 0.14232706E+01</totfact>
</mgrwt>
</event>
<event>
 8    1  0.1094795E-005  0.1064881E+04  0.7818608E-02  0.8716223E-01
         21   -1    0    0  501  502  0.00000000000E+00  0.00000000000E+00  0.39122834177E+04  0.39122834177E+04  0.00000000000E+00 0.  1.
         21   -1    0    0  502  503 -0.00000000000E+00 -0.00000000000E+00 -0.29786742545E+03  0.29786742545E+03  0.00000000000E+00 0.  1.
   -9000010    2    1    2    0  503  0.33802833783E+03  0.14575105220E+03  0.21597615938E+04  0.24073777443E+04  0.99769280597E+03 0.  0.
    9000010    2    1    2  501    0 -0.33802833783E+03 -0.14575105220E+03  0.14546543985E+04  0.18027730989E+04  0.99923215560E+03 0.  0.
        -13    1    4    4    0    0 -0.46680835039E+03  0.14725959417E+03  0.23716071815E+03  0.54391234723E+03  0.10566000000E+00 0.  1.
          4    1    4    4  501    0  0.12878001256E+03 -0.29301064636E+03  0.12174936803E+04  0.12588607517E+04  0.00000000000E+00 0.  1.
         13    1    3    3    0    0  0.53614593438E+03  0.43251929635E+03  0.16677606530E+04  0.18044253965E+04  0.10566000000E+00 0. -1.
         -4    1    3    3    0  503 -0.19811759655E+03 -0.28676824416E+03  0.49200094080E+03  0.60295234776E+03  0.00000000000E+00 0. -1.
<mgrwt>
<rscale>  2 0.10645197E+04</rscale>
<asrwt>0</asrwt>
<pdfrwt beam="1">  1       21 0.60188972E+00 0.10648809E+04</pdfrwt>
<pdfrwt beam="2">  1       21 0.45825761E-01 0.10648809E+04</pdfrwt>
<totfact> 0.48472156E-01</totfact>
</mgrwt>
</event>
<event>
 8    1  0.1094795E-005  0.1111543E+04  0.7818608E-02  0.8677753E-01
         21   -1    0    0  501  502  0.00000000000E+00  0.00000000000E+00  0.18131060811E+04  0.18131060811E+04  0.00000000000E+00 0.  1.
         21   -1    0    0  502  503 -0.00000000000E+00 -0.00000000000E+00 -0.69724880544E+03  0.69724880544E+03  0.00000000000E+00 0.  1.
   -9000010    2    1    2    0  503 -0.14368886933E+03  0.50529787546E+03  0.34692678562E+03  0.11644248943E+04  0.97956863249E+03 0.  0.
    9000010    2    1    2  501    0  0.14368886933E+03 -0.50529787546E+03  0.76893049005E+03  0.13459299923E+04  0.97175151732E+03 0.  0.
        -13    1    4    4    0    0  0.53085981812E+03 -0.41295145093E+03  0.63769795291E+03  0.92682238732E+03  0.10566000000E+00 0.  1.
          4    1    4    4  501    0 -0.38717094879E+03 -0.92346424537E+02  0.13123253714E+03  0.41910760494E+03  0.00000000000E+00 0.  1.
         13    1    3    3    0    0 -0.38827898521E+03 -0.13301422311E+03  0.31640111156E+02  0.41164846861E+03  0.10566000000E+00 0. -1.
         -4    1    3    3    0  503  0.24459011588E+03  0.63831209857E+03  0.31528667446E+03  0.75277642568E+03  0.00000000000E+00 0. -1.
<mgrwt>
<rscale>  2 0.11098180E+04</rscale>
<asrwt>0</asrwt>
<pdfrwt beam="1">  1       21 0.27893940E+00 0.11115427E+04</pdfrwt>
<pdfrwt beam="2">  1       21 0.10726905E+00 0.11115427E+04</pdfrwt>
<totfact> 0.12151674E+01</totfact>
</mgrwt>
</event>
<event>
 8    1  0.1094795E-005  0.1235593E+04  0.7818608E-02  0.8583913E-01
         21   -1    0    0  501  502  0.00000000000E+00  0.00000000000E+00  0.10971657253E+04  0.10971657253E+04  0.00000000000E+00 0.  1.
         21   -1    0    0  502  503 -0.00000000000E+00 -0.00000000000E+00 -0.13697662322E+04  0.13697662322E+04  0.00000000000E+00 0.  1.
   -9000010    2    1    2    0  503  0.68271512333E+03  0.21108858359E+03 -0.10736959716E+03  0.12402490855E+04  0.10079837469E+04 0.  0.
    9000010    2    1    2  501    0 -0.68271512333E+03 -0.21108858359E+03 -0.16523090973E+03  0.12266828721E+04  0.98325545274E+03 0.  0.
        -13    1    4    4    0    0 -0.53628237678E+03 -0.46956080030E+03 -0.42685045706E+03  0.83083539686E+03  0.10566000000E+00 0.  1.
          4    1    4    4  501    0 -0.14643274655E+03  0.25847221671E+03  0.26161954734E+03  0.39584747520E+03  0.00000000000E+00 0.  1.
         13    1    3    3    0    0  0.20073829981E+03 -0.27020950423E+02 -0.52292084574E+03  0.56077822609E+03  0.10566000000E+00 0. -1.
         -4    1    3    3    0  503  0.48197682352E+03  0.23810953401E+03  0.41555124859E+03  0.67947085942E+03  0.00000000000E+00 0. -1.
<mgrwt>
<rscale>  2 0.12305396E+04</rscale>
<asrwt>0</asrwt>
<pdfrwt beam="1">  1       21 0.16879473E+00 0.12355928E+04</pdfrwt>
<pdfrwt beam="2">  1       21 0.21073327E+00 0.12355928E+04</pdfrwt>
<totfact> 0.98444789E+00</totfact>
</mgrwt>
</event>
<event>
 8    1  0.1094795E-005  0.1116494E+04  0.7818608E-02  0.8673235E-01
         21   -1    0    0  503  502  0.00000000000E+00  0.00000000000E+00  0.15886203768E+04  0.15886203768E+04  0.00000000000E+00 0. -1.
         21   -1    0    0  501  503 -0.00000000000E+00 -0.00000000000E+00 -0.94777303092E+03  0.94777303092E+03  0.00000000000E+00 0. -1.
    9000010    2    1    2  501    0  0.27313194064E+03 -0.41513361855E+03 -0.21164125331E+03  0.11316528603E+04  0.99443913739E+03 0.  0.
   -9000010    2    1    2    0  502 -0.27313194064E+03  0.41513361855E+03  0.85248859920E+03  0.14047405474E+04  0.99981108988E+03 0.  0.
        -13    1    3    3    0    0  0.78299283125E+02  0.11446682052E+03 -0.48513473050E+03  0.50456827947E+03  0.10566000000E+00 0.  1.
          4    1    3    3  501    0  0.19483265752E+03 -0.52960043907E+03  0.27349347720E+03  0.62708458087E+03  0.00000000000E+00 0.  1.
         13    1    4    4    0    0  0.32037012552E+03  0.25050704003E+03  0.63003059801E+03  0.74988623139E+03  0.10566000000E+00 0. -1.
         -4    1    4    4    0  502 -0.59350206616E+03  0.16462657852E+03  0.22245800118E+03  0.65485431600E+03  0.00000000000E+00 0. -1.
<mgrwt>
<rscale>  2 0.11152902E+04</rscale>
<asrwt>0</asrwt>
<pdfrwt beam="1">  1       21 0.24440313E+00 0.11164942E+04</pdfrwt>
<pdfrwt beam="2">  1       21 0.14581124E+00 0.11164942E+04</pdfrwt>
<totfact> 0.89744351E+00</totfact>
</mgrwt>
</event>
<event>
 8    1  0.1094795E-005  0.1107158E+04  0.7818608E-02  0.8680210E-01
         21   -1    0    0  501  502  0.00000000000E+00  0.00000000000E+00  0.17820470369E+04  0.17820470369E+04  0.00000000000E+00 0.  1.
         21   -1    0    0  502  503 -0.00000000000E+00 -0.00000000000E+00 -0.71041191161E+03  0.71041191161E+03  0.00000000000E+00 0.  1.
   -9000010    2    1    2    0  503 -0.10547054344E+03  0.44274868907E+03  0.31039409093E+03  0.11498451620E+04  0.10092814115E+04 0.  0.
    9000010    2    1    2  501    0  0.10547054344E+03 -0.44274868907E+03  0.76124103441E+03  0.13426137866E+04  0.10079550735E+04 0.  0.
        -13    1    4    4    0    0 -0.32117217636E+03 -0.21987754221E+03 -0.56912894833E+02  0.39336597361E+03  0.10566000000E+00 0.  1.
          4    1    4    4  501    0  0.42664271980E+03 -0.22287114686E+03  0.81815392924E+03  0.94924781295E+03  0.00000000000E+00 0.  1.
         13    1    3    3    0    0 -0.21793281337E+03 -0.28759646316E+03  0.40329225867E+02  0.36308799814E+03  0.10566000000E+00 0. -1.
         -4    1    3    3    0  503  0.11246226993E+03  0.73034515223E+03  0.27006486506E+03  0.78675716386E+03  0.00000000000E+00 0. -1.
<mgrwt>
<rscale>  2 0.11068559E+04</rscale>
<asrwt>0</asrwt>
<pdfrwt beam="1">  1       21 0.27416108E+00 0.11071583E+04</pdfrwt>
<pdfrwt beam="2">  1       21 0.10929414E+00 0.11071583E+04</pdfrwt>
<totfact> 0.12510517E+01</totfact>
</mgrwt>
</event>
<event>
 8    1  0.1094795E-005  0.1072470E+04  0.7818608E-02  0.8709464E-01
         21   -1    0    0  501  502  0.00000000000E+00  0.00000000000E+00  0.16783199191E+04  0.16783199191E+04  0.00000000000E+00 0. -1.
         21   -1    0    0  502  503 -0.00000000000E+00 -0.00000000000E+00 -0.76652594717E+03  0.76652594717E+03  0.00000000000E+00 0. -1.
   -9000010    2    1    2    0  503  0.52564396723E+02 -0.39018751827E+03  0.56926931716E+02  0.10733543854E+04  0.99691506451E+03 0.  0.
    9000010    2    1    2  501    0 -0.52564396723E+02  0.39018751827E+03  0.85486704021E+03  0.13714914809E+04  0.99758804648E+03 0.  0.
        -13    1    4    4    0    0 -0.46397474457E+03 -0.11487389235E+02  0.21579480092E+03  0.51183193626E+03  0.10566000000E+00 0.  1.
          4    1    4    4  501    0  0.41141034784E+03  0.40167490751E+03  0.63907223929E+03  0.85965954463E+03  0.00000000000E+00 0.  1.
         13    1    3    3    0    0 -0.33503218559E+03  0.58453071354E+02 -0.23411971527E+03  0.41288664204E+03  0.10566000000E+00 0. -1.
         -4    1    3    3    0  503  0.38759658232E+03 -0.44864058962E+03  0.29104664698E+03  0.66046774335E+03  0.00000000000E+00 0. -1.
<mgrwt>
<rscale>  2 0.10723132E+04</rscale>
<asrwt>0</asrwt>
<pdfrwt beam="1">  1       21 0.25820306E+00 0.10724697E+04</pdfrwt>
<pdfrwt beam="2">  1       21 0.11792707E+00 0.10724697E+04</pdfrwt>
<totfact> 0.13325582E+01</totfact>
</mgrwt>
</event>
<event>
 8    1  0.1094795E-005  0.1067084E+04  0.7818608E-02  0.8742647E-01
         21   -1    0    0  503  502  0.00000000000E+00  0.00000000000E+00  0.24265449529E+04  0.24265449529E+04  0.00000000000E+00 0. -1.
         21   -1    0    0  501  503 -0.00000000000E+00 -0.00000000000E+00 -0.43340551642E+03  0.43340551642E+03  0.00000000000E+00 0. -1.
    9000010    2    1    2  501    0 -0.20944968272E+03 -0.26700653905E+03  0.65507550838E+03  0.11484938435E+04  0.88020027567E+03 0.  0.
   -9000010    2    1    2    0  502  0.20944968272E+03  0.26700653905E+03  0.13380639282E+04  0.17114566259E+04  0.10116852500E+04 0.  0.
        -13    1    3    3    0    0 -0.36481698947E+03  0.49392800635E+02 -0.38835286848E+02  0.37018816193E+03  0.10566000000E+00 0.  1.
          4    1    3    3  501    0  0.15536730675E+03 -0.31639933969E+03  0.69391079523E+03  0.77830568152E+03  0.00000000000E+00 0.  1.
         13    1    4    4    0    0 -0.74956174408E+02  0.31424415785E+02 -0.15412742704E+03  0.17424464675E+03  0.10566000000E+00 0. -1.
         -4    1    4    4    0  502  0.28440585713E+03  0.23558212327E+03  0.14921913552E+04  0.15372119792E+04  0.00000000000E+00 0. -1.
<mgrwt>
<rscale>  2 0.10347074E+04</rscale>
<asrwt>0</asrwt>
<pdfrwt beam="1">  1       21 0.37331460E+00 0.10670842E+04</pdfrwt>
<pdfrwt beam="2">  1       21 0.66677774E-01 0.10670842E+04</pdfrwt>
<totfact> 0.87260059E+00</totfact>
</mgrwt>
</event>
<event>
 8    1  0.1094795E-005  0.1341194E+04  0.7818608E-02  0.8510071E-01
         21   -1    0    0  503  502  0.00000000000E+00  0.00000000000E+00  0.36148077614E+04  0.36148077614E+04  0.00000000000E+00 0. -1.
         21   -1    0    0  501  503 -0.00000000000E+00 -0.00000000000E+00 -0.49229714343E+03  0.49229714343E+03  0.00000000000E+00 0.  1.
    9000010    2    1    2  501    0  0.40512800542E+03 -0.79047149187E+03  0.14553605647E+04  0.19674343532E+04  0.98170753311E+03 0.  0.
   -9000010    2    1    2    0  502 -0.40512800542E+03  0.79047149187E+03  0.16671500532E+04  0.21396705516E+04  0.10049014326E+04 0.  0.
        -13    1    3    3    0    0 -0.24843840378E+03  0.28343258327E+02  0.14255400892E+03  0.28783091806E+03  0.10566000000E+00 0.  1.
          4    1    3    3  501    0  0.65356640921E+03 -0.81881475019E+03  0.13128065558E+04  0.16796034352E+04  0.00000000000E+00 0.  1.
         13    1    4    4    0    0 -0.55563261289E+03  0.38322696632E+02  0.53607224943E+03  0.77302632385E+03  0.10566000000E+00 0. -1.
         -4    1    4    4    0  502  0.15050460747E+03  0.75214879524E+03  0.11310778038E+04  0.13666442277E+04  0.00000000000E+00 0. -1.
<mgrwt>
<rscale>  2 0.13368505E+04</rscale>
<asrwt>0</asrwt>
<pdfrwt beam="1">  1       21 0.55612425E+00 0.13411938E+04</pdfrwt>
<pdfrwt beam="2">  1       21 0.75738024E-01 0.13411938E+04</pdfrwt>
<totfact> 0.32000661E-01</totfact>
</mgrwt>
</event>
<event>
 8    1  0.1094795E-005  0.1139826E+04  0.7818608E-02  0.8654379E-01
         21   -1    0    0  501  502  0.00000000000E+00  0.00000000000E+00  0.12117008730E+04  0.12117008730E+04  0.00000000000E+00 0.  1.
         21   -1    0    0  502  503 -0.00000000000E+00 -0.00000000000E+00 -0.10946070673E+04  0.10946070673E+04  0.00000000000E+00 0.  1.
   -9000010    2    1    2    0  503 -0.23896167351E+03  0.45267805977E+03 -0.12405755959E+03  0.11412512545E+04  0.10124445864E+04 0.  0.
    9000010    2    1    2  501    0  0.23896167351E+03 -0.45267805977E+03  0.24115136529E+03  0.11650566858E+04  0.10184218148E+04 0.  0.
        -13    1    4    4    0    0  0.15972981017E+03 -0.24660319070E+03 -0.39465077376E+03  0.49201218512E+03  0.10566000000E+00 0.  1.
          4    1    4    4  501    0  0.79231863335E+02 -0.20607486908E+03  0.63580213904E+03  0.67304450064E+03  0.00000000000E+00 0.  1.
         13    1    3    3    0    0 -0.30903477935E+02  0.30823693918E+03 -0.55833163891E+03  0.63851332468E+03  0.10566000000E+00 0. -1.
         -4    1    3    3    0  503 -0.20805819557E+03  0.14444112059E+03  0.43427407932E+03  0.50273792977E+03  0.00000000000E+00 0. -1.
<mgrwt>
<rscale>  2 0.11384892E+04</rscale>
<asrwt>0</asrwt>
<pdfrwt beam="1">  1       21 0.18641552E+00 0.11398259E+04</pdfrwt>
<pdfrwt beam="2">  1       21 0.16840109E+00 0.11398259E+04</pdfrwt>
<totfact> 0.15699847E+01</totfact>
</mgrwt>
</event>
<event>
 8    1  0.1094795E-005  0.1036083E+04  0.7818608E-02  0.8743065E-01
         21   -1    0    0  501  502  0.00000000000E+00  0.00000000000E+00  0.36451796359E+03  0.36451796359E+03  0.00000000000E+00 0.  1.
         21   -1    0    0  502  503 -0.00000000000E+00 -0.00000000000E+00 -0.32788445659E+04  0.32788445659E+04  0.00000000000E+00 0.  1.
   -9000010    2    1    2    0  503  0.12012833641E+03  0.23398746480E+03 -0.20517510128E+04  0.22952138611E+04  0.99455693590E+03 0.  0.
    9000010    2    1    2  501    0 -0.12012833641E+03 -0.23398746480E+03 -0.86257558953E+03  0.13481486684E+04  0.10021413242E+04 0.  0.
        -13    1    4    4    0    0 -0.85147126578E+02 -0.12388448767E+03  0.21613401887E+03  0.26327044029E+03  0.10566000000E+00 0.  1.
          4    1    4    4  501    0 -0.34981209830E+02 -0.11010297713E+03 -0.10787096084E+04  0.10848782281E+04  0.00000000000E+00 0.  1.
         13    1    3    3    0    0 -0.19029050322E+03  0.32703491027E+02 -0.18754949235E+04  0.18854074396E+04  0.10566000000E+00 0. -1.
         -4    1    3    3    0  503  0.31041883963E+03  0.20128397377E+03 -0.17625608926E+03  0.40980642149E+03  0.00000000000E+00 0. -1.
<mgrwt>
<rscale>  2 0.10342447E+04</rscale>
<asrwt>0</asrwt>
<pdfrwt beam="1">  1       21 0.56079687E-01 0.10360831E+04</pdfrwt>
<pdfrwt beam="2">  1       21 0.50443762E+00 0.10360831E+04</pdfrwt>
<totfact> 0.16055758E+00</totfact>
</mgrwt>
</event>
<event>
 8    1  0.1094795E-005  0.1106808E+04  0.7818608E-02  0.8684754E-01
         21   -1    0    0  503  502  0.00000000000E+00  0.00000000000E+00  0.15059966046E+04  0.15059966046E+04  0.00000000000E+00 0.  1.
         21   -1    0    0  501  503 -0.00000000000E+00 -0.00000000000E+00 -0.80542449983E+03  0.80542449983E+03  0.00000000000E+00 0.  1.
    9000010    2    1    2  501    0 -0.78628736320E+02  0.49727729949E+03  0.24073217461E+03  0.11326854625E+04  0.98567600477E+03 0.  0.
   -9000010    2    1    2    0  502  0.78628736320E+02 -0.49727729949E+03  0.45983993019E+03  0.11787356419E+04  0.96150806622E+03 0.  0.
        -13    1    3    3    0    0  0.13682123548E+03 -0.58890252240E+02 -0.29531674356E+03  0.33075686309E+03  0.10566000000E+00 0.  1.
          4    1    3    3  501    0 -0.21544997180E+03  0.55616755173E+03  0.53604891817E+03  0.80192859945E+03  0.00000000000E+00 0.  1.
         13    1    4    4    0    0  0.42274333152E+03 -0.14629673880E+03 -0.73611753009E+02  0.45335787351E+03  0.10566000000E+00 0. -1.
         -4    1    4    4    0  502 -0.34411459520E+03 -0.35098056069E+03  0.53345168320E+03  0.72537776842E+03  0.00000000000E+00 0. -1.
<mgrwt>
<rscale>  2 0.11014019E+04</rscale>
<asrwt>0</asrwt>
<pdfrwt beam="1">  1       21 0.23169179E+00 0.11068082E+04</pdfrwt>
<pdfrwt beam="2">  1       21 0.12391146E+00 0.11068082E+04</pdfrwt>
<totfact> 0.17991927E+01</totfact>
</mgrwt>
</event>
<event>
 8    1  0.1094795E-005  0.1299866E+04  0.7818608E-02  0.8535525E-01
         21   -1    0    0  503  502  0.00000000000E+00  0.00000000000E+00  0.11630640771E+04  0.11630640771E+04  0.00000000000E+00 0.  1.
         21   -1    0    0  501  503 -0.00000000000E+00 -0.00000000000E+00 -0.14789870407E+04  0.14789870407E+04  0.00000000000E+00 0.  1.
    9000010    2    1    2  501    0  0.81671207268E+03  0.48191175335E+02 -0.34664877302E+03  0.13452943128E+04  0.10101041616E+04 0.  0.
   -9000010    2    1    2    0  502 -0.81671207268E+03 -0.48191175335E+02  0.30725809429E+02  0.12967568050E+04  0.10056307159E+04 0.  0.
        -13    1    3    3    0    0  0.26564047972E+03  0.51374337318E+03 -0.14563019035E+03  0.59641032977E+03  0.10566000000E+00 0.  1.
          4    1    3    3  501    0  0.55107159297E+03 -0.46555219784E+03 -0.20101858267E+03  0.74888398305E+03  0.00000000000E+00 0.  1.
         13    1    4    4    0    0  0.11535070675E+03  0.24473681515E+03 -0.14048799281E+03  0.30485862548E+03  0.10566000000E+00 0. -1.
         -4    1    4    4    0  502 -0.93206277943E+03 -0.29292799049E+03  0.17121380224E+03  0.99189817950E+03  0.00000000000E+00 0. -1.
<mgrwt>
<rscale>  2 0.12989968E+04</rscale>
<asrwt>0</asrwt>
<pdfrwt beam="1">  1       21 0.17893294E+00 0.12998659E+04</pdfrwt>
<pdfrwt beam="2">  1       21 0.22753646E+00 0.12998659E+04</pdfrwt>
<totfact> 0.59716615E+00</totfact>
</mgrwt>
</event>
<event>
 8    1  0.1094795E-005  0.1024719E+04  0.7818608E-02  0.8755136E-01
         21   -1    0    0  501  502  0.00000000000E+00  0.00000000000E+00  0.93360392339E+03  0.93360392339E+03  0.00000000000E+00 0. -1.
         21   -1    0    0  502  503 -0.00000000000E+00 -0.00000000000E+00 -0.11194143908E+04  0.11194143908E+04  0.00000000000E+00 0. -1.
   -9000010    2    1    2    0  503 -0.12320063713E+03 -0.14705056220E+02 -0.19401244355E+03  0.10282664345E+04  0.10021458957E+04 0.  0.
    9000010    2    1    2  501    0  0.12320063713E+03  0.14705056220E+02  0.82019761745E+01  0.10247518797E+04  0.10171796827E+04 0.  0.
        -13    1    4    4    0    0  0.40868990747E+02  0.47496713836E+03 -0.19483946209E+03  0.51500144085E+03  0.10566000000E+00 0.  1.
          4    1    4    4  501    0  0.82331646381E+02 -0.46026208214E+03  0.20304143827E+03  0.50975043885E+03  0.00000000000E+00 0.  1.
         13    1    3    3    0    0  0.24809614410E+03  0.32883516378E+03  0.12469906369E+03  0.43038834708E+03  0.10566000000E+00 0. -1.
         -4    1    3    3    0  503 -0.37129678123E+03 -0.34354022000E+03 -0.31871150724E+03  0.59787808737E+03  0.00000000000E+00 0. -1.
<mgrwt>
<rscale>  2 0.10209681E+04</rscale>
<asrwt>0</asrwt>
<pdfrwt beam="1">  1       21 0.14363137E+00 0.10247191E+04</pdfrwt>
<pdfrwt beam="2">  1       21 0.17221760E+00 0.10247191E+04</pdfrwt>
<totfact> 0.34663153E+01</totfact>
</mgrwt>
</event>
<event>
 8    1  0.1094795E-005  0.1138836E+04  0.7818608E-02  0.8660958E-01
         21   -1    0    0  503  502  0.00000000000E+00  0.00000000000E+00  0.10140198015E+04  0.10140198015E+04  0.00000000000E+00 0.  1.
         21   -1    0    0  501  503 -0.00000000000E+00 -0.00000000000E+00 -0.12543961068E+04  0.12543961068E+04  0.00000000000E+00 0.  1.
    9000010    2    1    2  501    0 -0.22893270973E+03 -0.42328606497E+03 -0.23337343815E+03  0.11295585914E+04  0.99491616302E+03 0.  0.
   -9000010    2    1    2    0  502  0.22893270973E+03  0.42328606497E+03 -0.70028672120E+01  0.11388573169E+04  0.10321655244E+04 0.  0.
        -13    1    3    3    0    0  0.18085300634E+03  0.25489853342E+03 -0.77333924836E+02  0.32196524555E+03  0.10566000000E+00 0.  1.
          4    1    3    3  501    0 -0.40978571607E+03 -0.67818459839E+03 -0.15603951331E+03  0.80759334588E+03  0.00000000000E+00 0.  1.
         13    1    4    4    0    0 -0.36842136027E+03  0.83763654490E+02 -0.19682605437E+03  0.42601778761E+03  0.10566000000E+00 0. -1.
         -4    1    4    4    0  502  0.59735406999E+03  0.33952241048E+03  0.18982318716E+03  0.71283952930E+03  0.00000000000E+00 0. -1.
<mgrwt>
<rscale>  2 0.11303289E+04</rscale>
<asrwt>0</asrwt>
<pdfrwt beam="1">  1       21 0.15600305E+00 0.11388358E+04</pdfrwt>
<pdfrwt beam="2">  1       21 0.19298402E+00 0.11388358E+04</pdfrwt>
<totfact> 0.17783244E+01</totfact>
</mgrwt>
</event>
<event>
 8    1  0.1094795E-005  0.1178054E+04  0.7818608E-02  0.8624800E-01
         21   -1    0    0  501  502  0.00000000000E+00  0.00000000000E+00  0.14355703200E+04  0.14355703200E+04  0.00000000000E+00 0. -1.
         21   -1    0    0  502  503 -0.00000000000E+00 -0.00000000000E+00 -0.96978610203E+03  0.96978610203E+03  0.00000000000E+00 0. -1.
   -9000010    2    1    2    0  503 -0.35109782958E+03  0.49332973321E+03  0.11292566014E+03  0.11755915841E+04  0.10013088716E+04 0.  0.
    9000010    2    1    2  501    0  0.35109782958E+03 -0.49332973321E+03  0.35285855779E+03  0.12297648379E+04  0.10105288135E+04 0.  0.
        -13    1    4    4    0    0  0.53521435308E+03 -0.42185236238E+03  0.60375485607E+03  0.91045799287E+03  0.10566000000E+00 0.  1.
          4    1    4    4  501    0 -0.18411652349E+03 -0.71477370835E+02 -0.25089629828E+03  0.31930684499E+03  0.00000000000E+00 0.  1.
         13    1    3    3    0    0  0.12662066215E+03  0.63376002020E+03  0.18554558420E+03  0.67239254180E+03  0.10566000000E+00 0. -1.
         -4    1    3    3    0  503 -0.47771849174E+03 -0.14043028698E+03 -0.72619924060E+02  0.50319904235E+03  0.00000000000E+00 0. -1.
<mgrwt>
<rscale>  2 0.11760747E+04</rscale>
<asrwt>0</asrwt>
<pdfrwt beam="1">  1       21 0.22085697E+00 0.11780545E+04</pdfrwt>
<pdfrwt beam="2">  1       21 0.14919786E+00 0.11780545E+04</pdfrwt>
<totfact> 0.12345461E+01</totfact>
</mgrwt>
</event>
<event>
 8    1  0.1094795E-005  0.1103618E+04  0.7818608E-02  0.8714504E-01
         21   -1    0    0  501  502  0.00000000000E+00  0.00000000000E+00  0.37700374130E+03  0.37700374130E+03  0.00000000000E+00 0. -1.
         21   -1    0    0  502  503 -0.00000000000E+00 -0.00000000000E+00 -0.28365854833E+04  0.28365854833E+04  0.00000000000E+00 0. -1.
   -9000010    2    1    2    0  503 -0.26183527466E+03 -0.31710751706E+03 -0.13870365425E+04  0.17725242954E+04  0.10241372560E+04 0.  0.
    9000010    2    1    2  501    0  0.26183527466E+03  0.31710751706E+03 -0.10725451995E+04  0.14410649292E+04  0.87017241784E+03 0.  0.
        -13    1    4    4    0    0  0.39757863796E+02  0.59888342282E+03 -0.61104410104E+03  0.85651441696E+03  0.10566000000E+00 0.  1.
          4    1    4    4  501    0  0.22207741086E+03 -0.28177590577E+03 -0.46150109848E+03  0.58455051226E+03  0.00000000000E+00 0.  1.
         13    1    3    3    0    0  0.30283577324E+03 -0.79931231364E+02 -0.71292005494E+02  0.32121810116E+03  0.10566000000E+00 0. -1.
         -4    1    3    3    0  503 -0.56467104790E+03 -0.23717628570E+03 -0.13157445370E+04  0.14513061943E+04  0.00000000000E+00 0. -1.
<mgrwt>
<rscale>  2 0.10664950E+04</rscale>
<asrwt>0</asrwt>
<pdfrwt beam="1">  1       21 0.58000576E-01 0.11036177E+04</pdfrwt>
<pdfrwt beam="2">  1       21 0.43639776E+00 0.11036177E+04</pdfrwt>
<totfact> 0.43605523E+00</totfact>
</mgrwt>
</event>
<event>
 8    1  0.1094795E-005  0.1132398E+04  0.7818608E-02  0.8660496E-01
         21   -1    0    0  503  502  0.00000000000E+00  0.00000000000E+00  0.27490992062E+04  0.27490992062E+04  0.00000000000E+00 0.  1.
         21   -1    0    0  501  503 -0.00000000000E+00 -0.00000000000E+00 -0.11584164550E+04  0.11584164550E+04  0.00000000000E+00 0.  1.
    9000010    2    1    2  501    0  0.40368817856E+03  0.35985812409E+03 -0.71650535062E+03  0.13400391948E+04  0.99491864547E+03 0.  0.
   -9000010    2    1    2    0  502 -0.40368817856E+03 -0.35985812409E+03  0.23071881018E+04  0.25674764665E+04  0.98810751120E+03 0.  0.
        -13    1    3    3    0    0 -0.42769479379E+02 -0.31691058124E+03 -0.16868693009E+03  0.36154783420E+03  0.10566000000E+00 0.  1.
          4    1    3    3  501    0  0.44645765794E+03  0.67676870534E+03 -0.54781842053E+03  0.97849136058E+03  0.00000000000E+00 0.  1.
         13    1    4    4    0    0 -0.29666418914E+03 -0.38020144660E+03  0.32328025813E+03  0.58057981155E+03  0.10566000000E+00 0. -1.
         -4    1    4    4    0  502 -0.10702398942E+03  0.20343322504E+02  0.19839078437E+04  0.19868966549E+04  0.00000000000E+00 0. -1.
<mgrwt>
<rscale>  2 0.11309001E+04</rscale>
<asrwt>0</asrwt>
<pdfrwt beam="1">  1       21 0.42293834E+00 0.11323980E+04</pdfrwt>
<pdfrwt beam="2">  1       21 0.17821792E+00 0.11323980E+04</pdfrwt>
<totfact> 0.25910604E-01</totfact>
</mgrwt>
</event>
<event>
 8    1  0.1094795E-005  0.1190002E+04  0.7818608E-02  0.8623066E-01
         21   -1    0    0  503  502  0.00000000000E+00  0.00000000000E+00  0.69860408318E+03  0.69860408318E+03  0.00000000000E+00 0.  1.
         21   -1    0    0  501  503 -0.00000000000E+00 -0.00000000000E+00 -0.21264050598E+04  0.21264050598E+04  0.00000000000E+00 0. -1.
    9000010    2    1    2  501    0  0.51825227045E+03 -0.43923926771E+03 -0.11084498238E+04  0.15929014298E+04  0.92041154013E+03 0.  0.
   -9000010    2    1    2    0  502 -0.51825227045E+03  0.43923926771E+03 -0.31935115283E+03  0.12321077131E+04  0.97703004450E+03 0.  0.
        -13    1    3    3    0    0 -0.12665177922E+03  0.19897382776E+03 -0.20508698909E+03  0.31255710130E+03  0.10566000000E+00 0.  1.
          4    1    3    3  501    0  0.64490404967E+03 -0.63821309547E+03 -0.90336283467E+03  0.12803443285E+04  0.00000000000E+00 0.  1.
         13    1    4    4    0    0 -0.80255709941E+03  0.30060638073E+03 -0.13962057794E+03  0.86830640381E+03  0.10566000000E+00 0. -1.
         -4    1    4    4    0  502  0.28430482896E+03  0.13863288698E+03 -0.17973057489E+03  0.36380130933E+03  0.00000000000E+00 0. -1.
<mgrwt>
<rscale>  2 0.11783238E+04</rscale>
<asrwt>0</asrwt>
<pdfrwt beam="1">  1       21 0.10747755E+00 0.11900018E+04</pdfrwt>
<pdfrwt beam="2">  1       21 0.32713923E+00 0.11900018E+04</pdfrwt>
<totfact> 0.54257680E+00</totfact>
</mgrwt>
</event>
<event>
 8    1  0.1094795E-005  0.1017738E+04  0.7818608E-02  0.8758906E-01
         21   -1    0    0  503  502  0.00000000000E+00  0.00000000000E+00  0.90735297910E+03  0.90735297910E+03  0.00000000000E+00 0. -1.
         21   -1    0    0  501  503 -0.00000000000E+00 -0.00000000000E+00 -0.11378496214E+04  0.11378496214E+04  0.00000000000E+00 0. -1.
    9000010    2    1    2  501    0 -0.19421782503E+03  0.11231115352E+03 -0.10143424518E+03  0.10227807115E+04  0.99270192856E+03 0.  0.
   -9000010    2    1    2    0  502  0.19421782503E+03 -0.11231115352E+03 -0.12906239716E+03  0.10224218890E+04  0.98911832360E+03 0.  0.
        -13    1    3    3    0    0 -0.33107334179E+03 -0.14334369443E+03 -0.44521053791E+03  0.57303525773E+03  0.10566000000E+00 0.  1.
          4    1    3    3  501    0  0.13685551675E+03  0.25565484795E+03  0.34377629273E+03  0.44974545377E+03  0.00000000000E+00 0.  1.
         13    1    4    4    0    0  0.45060749922E+02  0.28620977869E+03 -0.41762362079E+03  0.50828732859E+03  0.10566000000E+00 0. -1.
         -4    1    4    4    0  502  0.14915707511E+03 -0.39852093221E+03  0.28856122363E+03  0.51413456045E+03  0.00000000000E+00 0. -1.
<mgrwt>
<rscale>  2 0.10168635E+04</rscale>
<asrwt>0</asrwt>
<pdfrwt beam="1">  1       21 0.13959277E+00 0.10177384E+04</pdfrwt>
<pdfrwt beam="2">  1       21 0.17505379E+00 0.10177384E+04</pdfrwt>
<totfact> 0.35816188E+01</totfact>
</mgrwt>
</event>
<event>
 8    1  0.1094795E-005  0.1079870E+04  0.7818608E-02  0.8720263E-01
         21   -1    0    0  503  502  0.00000000000E+00  0.00000000000E+00  0.47500287498E+03  0.47500287498E+03  0.00000000000E+00 0.  1.
         21   -1    0    0  501  503 -0.00000000000E+00 -0.00000000000E+00 -0.24574919842E+04  0.24574919842E+04  0.00000000000E+00 0.  1.
    9000010    2    1    2  501    0 -0.62236786248E+02 -0.22152550317E+03 -0.14177287169E+04  0.17821542605E+04  0.10550697263E+04 0.  0.
   -9000010    2    1    2    0  502  0.62236786248E+02  0.22152550317E+03 -0.56476039225E+03  0.11503405987E+04  0.97538824380E+03 0.  0.
        -13    1    3    3    0    0  0.40862349407E+03 -0.26498624166E+03 -0.11253150706E+04  0.12261830563E+04  0.10566000000E+00 0.  1.
          4    1    3    3  501    0 -0.47086028031E+03  0.43460738493E+02 -0.29241364630E+03  0.55597120421E+03  0.00000000000E+00 0.  1.
         13    1    4    4    0    0  0.26897715877E+03  0.30037207664E+03  0.12805609259E+03  0.42304901652E+03  0.10566000000E+00 0. -1.
         -4    1    4    4    0  502 -0.20674037252E+03 -0.78846573466E+02 -0.69281648484E+03  0.72729158213E+03  0.00000000000E+00 0. -1.
<mgrwt>
<rscale>  2 0.10598956E+04</rscale>
<asrwt>0</asrwt>
<pdfrwt beam="1">  1       21 0.73077367E-01 0.10798699E+04</pdfrwt>
<pdfrwt beam="2">  1       21 0.37807568E+00 0.10798699E+04</pdfrwt>
<totfact> 0.64822440E+00</totfact>
</mgrwt>
</event>
<event>
 8    1  0.1094795E-005  0.1110023E+04  0.7818608E-02  0.8688966E-01
         21   -1    0    0  503  502  0.00000000000E+00  0.00000000000E+00  0.12967049613E+04  0.12967049613E+04  0.00000000000E+00 0.  1.
         21   -1    0    0  501  503 -0.00000000000E+00 -0.00000000000E+00 -0.90491283474E+03  0.90491283474E+03  0.00000000000E+00 0.  1.
    9000010    2    1    2  501    0  0.27830328209E+03  0.21357414705E+03  0.20520023240E+03  0.11288300512E+04  0.10531303414E+04 0.  0.
   -9000010    2    1    2    0  502 -0.27830328209E+03 -0.21357414705E+03  0.18659189418E+03  0.10727877449E+04  0.99648902525E+03 0.  0.
        -13    1    3    3    0    0  0.49004243237E+03 -0.24711158628E+03  0.28034120254E+03  0.61627666077E+03  0.10566000000E+00 0.  1.
          4    1    3    3  501    0 -0.21173915028E+03  0.46068573333E+03 -0.75140970134E+02  0.51255339044E+03  0.00000000000E+00 0.  1.
         13    1    4    4    0    0  0.14386625624E+03  0.10413683683E+03 -0.30380977869E+03  0.35191245113E+03  0.10566000000E+00 0. -1.
         -4    1    4    4    0  502 -0.42216953833E+03 -0.31771098387E+03  0.49040167287E+03  0.72087529374E+03  0.00000000000E+00 0. -1.
<mgrwt>
<rscale>  2 0.10963764E+04</rscale>
<asrwt>0</asrwt>
<pdfrwt beam="1">  1       21 0.19949307E+00 0.11100226E+04</pdfrwt>
<pdfrwt beam="2">  1       21 0.13921736E+00 0.11100226E+04</pdfrwt>
<totfact> 0.22520790E+01</totfact>
</mgrwt>
</event>
<event>
 8    1  0.1094795E-005  0.1175569E+04  0.7818608E-02  0.8625574E-01
         21   -1    0    0  501  502  0.00000000000E+00  0.00000000000E+00  0.80885615494E+03  0.80885615494E+03  0.00000000000E+00 0. -1.
         21   -1    0    0  502  503 -0.00000000000E+00 -0.00000000000E+00 -0.17696101726E+04  0.17696101726E+04  0.00000000000E+00 0. -1.
   -9000010    2    1    2    0  503  0.62005428409E+03  0.77777823220E+02 -0.72508740305E+03  0.13795080873E+04  0.99336504658E+03 0.  0.
    9000010    2    1    2  501    0 -0.62005428409E+03 -0.77777823220E+02 -0.23566661460E+03  0.11989582403E+04  0.99571351486E+03 0.  0.
        -13    1    4    4    0    0 -0.76952911200E+03  0.54663755859E+02 -0.46032570235E+03  0.89836682031E+03  0.10566000000E+00 0.  1.
          4    1    4    4  501    0  0.14947482791E+03 -0.13244157908E+03  0.22465908775E+03  0.30059141996E+03  0.00000000000E+00 0.  1.
         13    1    3    3    0    0  0.17028415727E+03  0.34372764667E+03  0.10585585938E+03  0.39793323992E+03  0.10566000000E+00 0. -1.
         -4    1    3    3    0  503  0.44977012682E+03 -0.26594982345E+03 -0.83094326243E+03  0.98157484735E+03  0.00000000000E+00 0. -1.
<mgrwt>
<rscale>  2 0.11750714E+04</rscale>
<asrwt>0</asrwt>
<pdfrwt beam="1">  1       21 0.12443941E+00 0.11755688E+04</pdfrwt>
<pdfrwt beam="2">  1       21 0.27224772E+00 0.11755688E+04</pdfrwt>
<totfact> 0.88790009E+00</totfact>
</mgrwt>
</event>
<event>
 8    1  0.1094795E-005  0.1145601E+04  0.7818608E-02  0.8699247E-01
         21   -1    0    0  503  502  0.00000000000E+00  0.00000000000E+00  0.14616055882E+04  0.14616055882E+04  0.00000000000E+00 0. -1.
         21   -1    0    0  501  503 -0.00000000000E+00 -0.00000000000E+00 -0.99376741316E+03  0.99376741316E+03  0.00000000000E+00 0. -1.
    9000010    2    1    2  501    0  0.54779617325E+03 -0.18392306865E+03 -0.37792014643E+03  0.12063270299E+04  0.98918801221E+03 0.  0.
   -9000010    2    1    2    0  502 -0.54779617325E+03  0.18392306865E+03  0.84575832147E+03  0.12490459714E+04  0.71477294141E+03 0.  0.
        -13    1    3    3    0    0  0.30144266770E+02 -0.16777837946E+03  0.30489961478E+03  0.34931654368E+03  0.10566000000E+00 0.  1.
          4    1    3    3  501    0  0.51765190648E+03 -0.16144689189E+02 -0.68281976121E+03  0.85701048626E+03  0.00000000000E+00 0.  1.
         13    1    4    4    0    0 -0.24859081158E+03  0.43674821767E+03  0.32922847419E+03  0.60078098890E+03  0.10566000000E+00 0. -1.
         -4    1    4    4    0  502 -0.29920536166E+03 -0.25282514902E+03  0.51652984728E+03  0.64826498252E+03  0.00000000000E+00 0. -1.
<mgrwt>
<rscale>  2 0.10842259E+04</rscale>
<asrwt>0</asrwt>
<pdfrwt beam="1">  1       21 0.22486240E+00 0.11456008E+04</pdfrwt>
<pdfrwt beam="2">  1       21 0.15288729E+00 0.11456008E+04</pdfrwt>
<totfact> 0.10751391E+01</totfact>
</mgrwt>
</event>
<event>
 8    1  0.1094795E-005  0.1137208E+04  0.7818608E-02  0.8657092E-01
         21   -1    0    0  503  502  0.00000000000E+00  0.00000000000E+00  0.16851281997E+04  0.16851281997E+04  0.00000000000E+00 0.  1.
         21   -1    0    0  501  503 -0.00000000000E+00 -0.00000000000E+00 -0.76330970960E+03  0.76330970960E+03  0.00000000000E+00 0. -1.
    9000010    2    1    2  501    0 -0.19969049455E+03  0.47878391403E+03  0.51323824022E+03  0.12400592505E+04  0.10026081606E+04 0.  0.
   -9000010    2    1    2    0  502  0.19969049455E+03 -0.47878391403E+03  0.40858024983E+03  0.12083786587E+04  0.10119934942E+04 0.  0.
        -13    1    3    3    0    0 -0.30655571037E+03  0.61507214735E+03  0.70302721760E+03  0.98312635498E+03  0.10566000000E+00 0.  1.
          4    1    3    3  501    0  0.10686521582E+03 -0.13628823332E+03 -0.18978897737E+03  0.25693289557E+03  0.00000000000E+00 0.  1.
         13    1    4    4    0    0  0.16513441631E+03  0.29390520774E+03  0.77111778132E+01  0.33720782912E+03  0.10566000000E+00 0. -1.
         -4    1    4    4    0  502  0.34556078241E+02 -0.77268912177E+03  0.40086907202E+03  0.87117082960E+03  0.00000000000E+00 0. -1.
<mgrwt>
<rscale>  2 0.11351159E+04</rscale>
<asrwt>0</asrwt>
<pdfrwt beam="1">  1       21 0.25925049E+00 0.11372076E+04</pdfrwt>
<pdfrwt beam="2">  1       21 0.11743226E+00 0.11372076E+04</pdfrwt>
<totfact> 0.13063703E+01</totfact>
</mgrwt>
</event>
<event>
 8    1  0.1094795E-005  0.1113438E+04  0.7818608E-02  0.8679833E-01
         21   -1    0    0  503  502  0.00000000000E+00  0.00000000000E+00  0.87968318226E+03  0.87968318226E+03  0.00000000000E+00 0. -1.
         21   -1    0    0  501  503 -0.00000000000E+00 -0.00000000000E+00 -0.14185089954E+04  0.14185089954E+04  0.00000000000E+00 0. -1.
    9000010    2    1    2  501    0  0.41140460173E+03 -0.23327222662E+03 -0.79818916717E+02  0.11162957128E+04  0.10080056453E+04 0.  0.
   -9000010    2    1    2    0  502 -0.41140460173E+03  0.23327222662E+03 -0.45900689645E+03  0.11818964649E+04  0.98108218041E+03 0.  0.
        -13    1    3    3    0    0  0.71969285244E+03 -0.31154342891E+03  0.15066989566E+02  0.78437499659E+03  0.10566000000E+00 0.  1.
          4    1    3    3  501    0 -0.30828825070E+03  0.78271202284E+02 -0.94885906283E+02  0.33192071619E+03  0.00000000000E+00 0.  1.
         13    1    4    4    0    0 -0.58300592444E+02  0.55263542449E+03 -0.56717430340E+02  0.55858907038E+03  0.10566000000E+00 0. -1.
         -4    1    4    4    0  502 -0.35310400929E+03 -0.31936319786E+03 -0.40228946611E+03  0.62330739453E+03  0.00000000000E+00 0. -1.
<mgrwt>
<rscale>  2 0.11073095E+04</rscale>
<asrwt>0</asrwt>
<pdfrwt beam="1">  1       21 0.13533588E+00 0.11134384E+04</pdfrwt>
<pdfrwt beam="2">  1       21 0.21823215E+00 0.11134384E+04</pdfrwt>
<totfact> 0.17566580E+01</totfact>
</mgrwt>
</event>
<event>
 8    1  0.1094795E-005  0.1045428E+04  0.7818608E-02  0.8744265E-01
         21   -1    0    0  501  502  0.00000000000E+00  0.00000000000E+00  0.12816835425E+04  0.12816835425E+04  0.00000000000E+00 0.  1.
         21   -1    0    0  502  503 -0.00000000000E+00 -0.00000000000E+00 -0.10526520954E+04  0.10526520954E+04  0.00000000000E+00 0.  1.
   -9000010    2    1    2    0  503  0.27243817285E+03  0.16182259851E+03 -0.44428617641E+03  0.10908418171E+04  0.94452980476E+03 0.  0.
    9000010    2    1    2  501    0 -0.27243817285E+03 -0.16182259851E+03  0.67331762353E+03  0.12434938208E+04  0.99624853767E+03 0.  0.
        -13    1    4    4    0    0 -0.17443097475E+03 -0.11995931860E+03 -0.24226599572E+03  0.32172849877E+03  0.10566000000E+00 0.  1.
          4    1    4    4  501    0 -0.98007198097E+02 -0.41863279907E+02  0.91558361925E+03  0.92176532204E+03  0.00000000000E+00 0.  1.
         13    1    3    3    0    0  0.47373353978E+03  0.14832093745E+03  0.10350047346E+03  0.50708473293E+03  0.10566000000E+00 0. -1.
         -4    1    3    3    0  503 -0.20129536693E+03  0.13501661061E+02 -0.54778664987E+03  0.58375708422E+03  0.00000000000E+00 0. -1.
<mgrwt>
<rscale>  2 0.10329148E+04</rscale>
<asrwt>0</asrwt>
<pdfrwt beam="1">  1       21 0.19718208E+00 0.10454283E+04</pdfrwt>
<pdfrwt beam="2">  1       21 0.16194648E+00 0.10454283E+04</pdfrwt>
<totfact> 0.14938168E+01</totfact>
</mgrwt>
</event>
<event>
 8    1  0.1094795E-005  0.1556995E+04  0.7818608E-02  0.8379862E-01
         21   -1    0    0  503  502  0.00000000000E+00  0.00000000000E+00  0.29821635314E+04  0.29821635314E+04  0.00000000000E+00 0.  1.
         21   -1    0    0  501  503 -0.00000000000E+00 -0.00000000000E+00 -0.94171229627E+03  0.94171229627E+03  0.00000000000E+00 0.  1.
    9000010    2    1    2  501    0 -0.59083705836E+03 -0.10118335068E+04  0.27428869379E+03  0.15809704024E+04  0.10253475756E+04 0.  0.
   -9000010    2    1    2    0  502  0.59083705836E+03  0.10118335068E+04  0.17661625413E+04  0.23429054252E+04  0.99848897556E+03 0.  0.
        -13    1    3    3    0    0 -0.18062705182E+03  0.14668013809E+03 -0.15452008752E+03  0.27931642159E+03  0.10566000000E+00 0.  1.
          4    1    3    3  501    0 -0.41021000655E+03 -0.11585136449E+04  0.42880878131E+03  0.13016539808E+04  0.00000000000E+00 0.  1.
         13    1    4    4    0    0  0.67907855966E+03  0.42405475726E+03  0.49929223208E+03  0.94353742455E+03  0.10566000000E+00 0. -1.
         -4    1    4    4    0  502 -0.88241501299E+02  0.58777874953E+03  0.12668703092E+04  0.13993680007E+04  0.00000000000E+00 0. -1.
<mgrwt>
<rscale>  2 0.15525875E+04</rscale>
<asrwt>0</asrwt>
<pdfrwt beam="1">  1       21 0.45879438E+00 0.15569949E+04</pdfrwt>
<pdfrwt beam="2">  1       21 0.14487882E+00 0.15569949E+04</pdfrwt>
<totfact> 0.26103337E-01</totfact>
</mgrwt>
</event>
<event>
 8    1  0.1094795E-005  0.1082336E+04  0.7818608E-02  0.8702377E-01
         21   -1    0    0  503  502  0.00000000000E+00  0.00000000000E+00  0.38889483150E+03  0.38889483150E+03  0.00000000000E+00 0.  1.
         21   -1    0    0  501  503 -0.00000000000E+00 -0.00000000000E+00 -0.30455616796E+04  0.30455616796E+04  0.00000000000E+00 0.  1.
    9000010    2    1    2  501    0 -0.16718425750E+02  0.40253514160E+03 -0.15505918640E+04  0.18869252201E+04  0.99691404412E+03 0.  0.
   -9000010    2    1    2    0  502  0.16718425750E+02 -0.40253514160E+03 -0.11060749841E+04  0.15475312911E+04  0.10045582016E+04 0.  0.
        -13    1    3    3    0    0  0.49158281716E+02  0.11197749543E+03  0.13096141224E+03  0.17918258511E+03  0.10566000000E+00 0.  1.
          4    1    3    3  501    0 -0.65876707466E+02  0.29055764617E+03 -0.16815532763E+04  0.17077426350E+04  0.00000000000E+00 0.  1.
         13    1    4    4    0    0 -0.45169945915E+03 -0.29093278974E+03 -0.31902117812E+03  0.62485903433E+03  0.10566000000E+00 0. -1.
         -4    1    4    4    0  502  0.46841788490E+03 -0.11160235187E+03 -0.78705380597E+03  0.92267225672E+03  0.00000000000E+00 0. -1.
<mgrwt>
<rscale>  2 0.10805589E+04</rscale>
<asrwt>0</asrwt>
<pdfrwt beam="1">  1       21 0.59829975E-01 0.10823360E+04</pdfrwt>
<pdfrwt beam="2">  1       21 0.46854794E+00 0.10823360E+04</pdfrwt>
<totfact> 0.24377982E+00</totfact>
</mgrwt>
</event>
<event>
 8    1  0.1094795E-005  0.1071587E+04  0.7818608E-02  0.8714688E-01
         21   -1    0    0  503  502  0.00000000000E+00  0.00000000000E+00  0.19865105139E+04  0.19865105139E+04  0.00000000000E+00 0.  1.
         21   -1    0    0  501  503 -0.00000000000E+00 -0.00000000000E+00 -0.57773489942E+03  0.57773489942E+03  0.00000000000E+00 0.  1.
    9000010    2    1    2  501    0 -0.36284437658E+03  0.11073056195E+03  0.53442543384E+03  0.11974599001E+04  0.10021887891E+04 0.  0.
   -9000010    2    1    2    0  502  0.36284437658E+03 -0.11073056195E+03  0.87435018060E+03  0.13667855132E+04  0.97964131284E+03 0.  0.
        -13    1    3    3    0    0  0.26077142638E+03 -0.83195172891E+02 -0.95688648159E+02  0.28996465674E+03  0.10566000000E+00 0.  1.
          4    1    3    3  501    0 -0.62361580296E+03  0.19392573484E+03  0.63011408200E+03  0.90749524333E+03  0.00000000000E+00 0.  1.
         13    1    4    4    0    0  0.34529273574E+03 -0.11036986082E+03 -0.11267004358E+03  0.37960917984E+03  0.10566000000E+00 0. -1.
         -4    1    4    4    0  502  0.17551640835E+02 -0.36070112072E+00  0.98702022419E+03  0.98717633336E+03  0.00000000000E+00 0. -1.
<mgrwt>
<rscale>  2 0.10662840E+04</rscale>
<asrwt>0</asrwt>
<pdfrwt beam="1">  1       21 0.30561700E+00 0.10715875E+04</pdfrwt>
<pdfrwt beam="2">  1       21 0.88882293E-01 0.10715875E+04</pdfrwt>
<totfact> 0.12932647E+01</totfact>
</mgrwt>
</event>
<event>
 8    1  0.1094795E-005  0.1188936E+04  0.7818608E-02  0.8616898E-01
         21   -1    0    0  503  502  0.00000000000E+00  0.00000000000E+00  0.28596774351E+04  0.28596774351E+04  0.00000000000E+00 0.  1.
         21   -1    0    0  501  503 -0.00000000000E+00 -0.00000000000E+00 -0.50011700844E+03  0.50011700844E+03  0.00000000000E+00 0.  1.
    9000010    2    1    2  501    0  0.39457889492E+03  0.47642466815E+03  0.94661108643E+03  0.15197504197E+04  0.10153303997E+04 0.  0.
   -9000010    2    1    2    0  502 -0.39457889492E+03 -0.47642466815E+03  0.14129493402E+04  0.18400440238E+04  0.10033260700E+04 0.  0.
        -13    1    3    3    0    0  0.13400732442E+03  0.77829782892E+03  0.64765610366E+03  0.10213539608E+04  0.10566000000E+00 0.  1.
          4    1    3    3  501    0  0.26057157050E+03 -0.30187316078E+03  0.29895498278E+03  0.49839645893E+03  0.00000000000E+00 0.  1.
         13    1    4    4    0    0 -0.32478583949E+03  0.50299268144E+02  0.12376514273E+04  0.12805455574E+04  0.10566000000E+00 0. -1.
         -4    1    4    4    0  502 -0.69793055436E+02 -0.52672393629E+03  0.17529791296E+03  0.55949846643E+03  0.00000000000E+00 0. -1.
<mgrwt>
<rscale>  2 0.11863690E+04</rscale>
<asrwt>0</asrwt>
<pdfrwt beam="1">  1       21 0.43995036E+00 0.11889360E+04</pdfrwt>
<pdfrwt beam="2">  1       21 0.76941080E-01 0.11889360E+04</pdfrwt>
<totfact> 0.20852139E+00</totfact>
</mgrwt>
</event>
<event>
 8    1  0.1094795E-005  0.1048774E+04  0.7818608E-02  0.8731630E-01
         21   -1    0    0  501  502  0.00000000000E+00  0.00000000000E+00  0.12319184095E+04  0.12319184095E+04  0.00000000000E+00 0. -1.
         21   -1    0    0  502  503 -0.00000000000E+00 -0.00000000000E+00 -0.88750366784E+03  0.88750366784E+03  0.00000000000E+00 0. -1.
   -9000010    2    1    2    0  503 -0.50633123443E+02  0.31180164675E+03  0.19957119760E+03  0.10606934006E+04  0.99270229531E+03 0.  0.
    9000010    2    1    2  501    0  0.50633123443E+02 -0.31180164675E+03  0.14484354407E+03  0.10587286767E+04  0.10000713867E+04 0.  0.
        -13    1    4    4    0    0  0.12366796124E+02 -0.27876656488E+03  0.56785304414E+03  0.63270911661E+03  0.10566000000E+00 0.  1.
          4    1    4    4  501    0  0.38266327319E+02 -0.33035081877E+02 -0.42300950007E+03  0.42601956011E+03  0.00000000000E+00 0.  1.
         13    1    3    3    0    0  0.12797794207E+03 -0.33594936011E+03  0.14120831589E+03  0.38623843136E+03  0.10566000000E+00 0. -1.
         -4    1    3    3    0  503 -0.17861106552E+03  0.64775100686E+03  0.58362881703E+02  0.67445496927E+03  0.00000000000E+00 0. -1.
<mgrwt>
<rscale>  2 0.10470134E+04</rscale>
<asrwt>0</asrwt>
<pdfrwt beam="1">  1       21 0.18952591E+00 0.10487739E+04</pdfrwt>
<pdfrwt beam="2">  1       21 0.13653903E+00 0.10487739E+04</pdfrwt>
<totfact> 0.28979773E+01</totfact>
</mgrwt>
</event>
<event>
 8    1  0.1094795E-005  0.1020978E+04  0.7818608E-02  0.8757418E-01
         21   -1    0    0  503  502  0.00000000000E+00  0.00000000000E+00  0.20912425224E+04  0.20912425224E+04  0.00000000000E+00 0. -1.
         21   -1    0    0  501  503 -0.00000000000E+00 -0.00000000000E+00 -0.50283001336E+03  0.50283001336E+03  0.00000000000E+00 0. -1.
    9000010    2    1    2  501    0 -0.19132461678E+03 -0.82792446489E+01  0.61476763759E+03  0.11832638474E+04  0.99272374277E+03 0.  0.
   -9000010    2    1    2    0  502  0.19132461678E+03  0.82792446489E+01  0.97364487149E+03  0.14108086884E+04  0.10028574997E+04 0.  0.
        -13    1    3    3    0    0  0.69542596706E+02 -0.20880298116E+03  0.78326620824E+03  0.81359745687E+03  0.10566000000E+00 0.  1.
          4    1    3    3  501    0 -0.26086721349E+03  0.20052373651E+03 -0.16849857064E+03  0.36966639053E+03  0.00000000000E+00 0.  1.
         13    1    4    4    0    0 -0.20675996566E+03  0.34701080947E+03  0.72958252704E+03  0.83394056156E+03  0.10566000000E+00 0. -1.
         -4    1    4    4    0  502  0.39808458245E+03 -0.33873156483E+03  0.24406234445E+03  0.57686812684E+03  0.00000000000E+00 0. -1.
<mgrwt>
<rscale>  2 0.10184812E+04</rscale>
<asrwt>0</asrwt>
<pdfrwt beam="1">  1       21 0.32172961E+00 0.10209784E+04</pdfrwt>
<pdfrwt beam="2">  1       21 0.77358465E-01 0.10209784E+04</pdfrwt>
<totfact> 0.14233686E+01</totfact>
</mgrwt>
</event>
<event>
 8    1  0.1094795E-005  0.1048144E+04  0.7818608E-02  0.8731074E-01
         21   -1    0    0  503  502  0.00000000000E+00  0.00000000000E+00  0.15780760839E+04  0.15780760839E+04  0.00000000000E+00 0.  1.
         21   -1    0    0  501  503 -0.00000000000E+00 -0.00000000000E+00 -0.70860676693E+03  0.70860676693E+03  0.00000000000E+00 0.  1.
    9000010    2    1    2  501    0 -0.17966775079E+01  0.32079818291E+03  0.27571211358E+03  0.10838002372E+04  0.99784321528E+03 0.  0.
   -9000010    2    1    2    0  502  0.17966775079E+01 -0.32079818291E+03  0.59375720343E+03  0.12028826137E+04  0.99572298536E+03 0.  0.
        -13    1    3    3    0    0  0.30135515297E+03 -0.18881685770E+03  0.33412866053E+03  0.48796383772E+03  0.10566000000E+00 0.  1.
          4    1    3    3  501    0 -0.30315183048E+03  0.50961504061E+03 -0.58416546945E+02  0.59583639944E+03  0.00000000000E+00 0.  1.
         13    1    4    4    0    0 -0.39184027620E+03  0.78501184474E+02  0.49060648189E+03  0.63276849578E+03  0.10566000000E+00 0. -1.
         -4    1    4    4    0  502  0.39363695371E+03 -0.39929936739E+03  0.10315072154E+03  0.57011411794E+03  0.00000000000E+00 0. -1.
<mgrwt>
<rscale>  2 0.10476390E+04</rscale>
<asrwt>0</asrwt>
<pdfrwt beam="1">  1       21 0.24278094E+00 0.10481440E+04</pdfrwt>
<pdfrwt beam="2">  1       21 0.10901643E+00 0.10481440E+04</pdfrwt>
<totfact> 0.21515912E+01</totfact>
</mgrwt>
</event>
<event>
 8    1  0.1094795E-005  0.1105192E+04  0.7818608E-02  0.8688307E-01
         21   -1    0    0  503  502  0.00000000000E+00  0.00000000000E+00  0.97874418533E+03  0.97874418533E+03  0.00000000000E+00 0.  1.
         21   -1    0    0  501  503 -0.00000000000E+00 -0.00000000000E+00 -0.12244856535E+04  0.12244856535E+04  0.00000000000E+00 0.  1.
    9000010    2    1    2  501    0  0.15955447575E+03  0.43130149380E+03 -0.11451720105E+02  0.10734774188E+04  0.96991959329E+03 0.  0.
   -9000010    2    1    2    0  502 -0.15955447575E+03 -0.43130149380E+03 -0.23428974802E+03  0.11297524200E+04  0.10049727535E+04 0.  0.
        -13    1    3    3    0    0 -0.12615528063E+03  0.10826869702E+03  0.42715841707E+03  0.45836839989E+03  0.10566000000E+00 0.  1.
          4    1    3    3  501    0  0.28570975638E+03  0.32303279677E+03 -0.43861013717E+03  0.61510901888E+03  0.00000000000E+00 0.  1.
         13    1    4    4    0    0 -0.37857918191E+03 -0.44201078666E+03 -0.51252865837E+03  0.77548782667E+03  0.10566000000E+00 0. -1.
         -4    1    4    4    0  502  0.21902470616E+03  0.10709292867E+02  0.27823891035E+03  0.35426459334E+03  0.00000000000E+00 0. -1.
<mgrwt>
<rscale>  2 0.10971608E+04</rscale>
<asrwt>0</asrwt>
<pdfrwt beam="1">  1       21 0.15057603E+00 0.11051918E+04</pdfrwt>
<pdfrwt beam="2">  1       21 0.18838241E+00 0.11051918E+04</pdfrwt>
<totfact> 0.21758927E+01</totfact>
</mgrwt>
</event>
<event>
 8    1  0.1094795E-005  0.1044769E+04  0.7818608E-02  0.8771357E-01
         21   -1    0    0  501  502  0.00000000000E+00  0.00000000000E+00  0.11953994869E+04  0.11953994869E+04  0.00000000000E+00 0.  1.
         21   -1    0    0  502  503 -0.00000000000E+00 -0.00000000000E+00 -0.78403927961E+03  0.78403927961E+03  0.00000000000E+00 0.  1.
   -9000010    2    1    2    0  503 -0.15572100442E+03  0.25946871954E+03  0.13991270497E+03  0.89998209911E+03  0.83595404543E+03 0.  0.
    9000010    2    1    2  501    0  0.15572100442E+03 -0.25946871954E+03  0.27144750228E+03  0.10794566674E+04  0.99998495117E+03 0.  0.
        -13    1    4    4    0    0 -0.13465471064E+03  0.33245139341E+03  0.21394351989E+03  0.41764537702E+03  0.10566000000E+00 0.  1.
          4    1    4    4  501    0  0.29037571506E+03 -0.59192011296E+03  0.57503982391E+02  0.66181129033E+03  0.00000000000E+00 0.  1.
         13    1    3    3    0    0 -0.47723443413E+03  0.23291200028E+03 -0.36499181604E+02  0.53229024641E+03  0.10566000000E+00 0. -1.
         -4    1    3    3    0  503  0.32151342971E+03  0.26556719257E+02  0.17641188657E+03  0.36769185271E+03  0.00000000000E+00 0. -1.
<mgrwt>
<rscale>  2 0.10034498E+04</rscale>
<asrwt>0</asrwt>
<pdfrwt beam="1">  1       21 0.18390761E+00 0.10447693E+04</pdfrwt>
<pdfrwt beam="2">  1       21 0.12062143E+00 0.10447693E+04</pdfrwt>
<totfact> 0.45962483E+01</totfact>
</mgrwt>
</event>
<event>
 8    1  0.1094795E-005  0.1152304E+04  0.7818608E-02  0.8645741E-01
         21   -1    0    0  501  502  0.00000000000E+00  0.00000000000E+00  0.96426666656E+03  0.96426666656E+03  0.00000000000E+00 0. -1.
         21   -1    0    0  502  503 -0.00000000000E+00 -0.00000000000E+00 -0.13814648452E+04  0.13814648452E+04  0.00000000000E+00 0. -1.
   -9000010    2    1    2    0  503 -0.34810671146E+03 -0.44179726602E+03 -0.34385268745E+03  0.11910952688E+04  0.99202326674E+03 0.  0.
    9000010    2    1    2  501    0  0.34810671146E+03  0.44179726602E+03 -0.73345491221E+02  0.11546362430E+04  0.10057048204E+04 0.  0.
        -13    1    4    4    0    0  0.39799559772E+03  0.30843479224E+03  0.41089346339E+03  0.64989688897E+03  0.10566000000E+00 0.  1.
          4    1    4    4  501    0 -0.49888886259E+02  0.13336247378E+03 -0.48423895461E+03  0.50473935407E+03  0.00000000000E+00 0.  1.
         13    1    3    3    0    0 -0.19354510888E+03  0.29282571254E+02 -0.60136385855E+03  0.63242049278E+03  0.10566000000E+00 0. -1.
         -4    1    3    3    0  503 -0.15456160258E+03 -0.47107983727E+03  0.25751117110E+03  0.55867477598E+03  0.00000000000E+00 0. -1.
<mgrwt>
<rscale>  2 0.11493124E+04</rscale>
<asrwt>0</asrwt>
<pdfrwt beam="1">  1       21 0.14834872E+00 0.11523043E+04</pdfrwt>
<pdfrwt beam="2">  1       21 0.21253305E+00 0.11523043E+04</pdfrwt>
<totfact> 0.14608215E+01</totfact>
</mgrwt>
</event>
<event>
 8    1  0.1094795E-005  0.1004593E+04  0.7818608E-02  0.8837282E-01
         21   -1    0    0  503  502  0.00000000000E+00  0.00000000000E+00  0.16350047381E+04  0.16350047381E+04  0.00000000000E+00 0. -1.
         21   -1    0    0  501  503 -0.00000000000E+00 -0.00000000000E+00 -0.47617627308E+03  0.47617627308E+03  0.00000000000E+00 0. -1.
    9000010    2    1    2  501    0 -0.99625246263E+02 -0.77042496362E+02  0.72571335556E+03  0.12393008335E+04  0.99666741971E+03 0.  0.
   -9000010    2    1    2    0  502  0.99625246263E+02  0.77042496362E+02  0.43311510946E+03  0.87188017769E+03  0.74614047623E+03 0.  0.
        -13    1    3    3    0    0  0.36129743922E+03  0.46527430148E+02  0.66502158044E+03  0.75825744636E+03  0.10566000000E+00 0.  1.
          4    1    3    3  501    0 -0.46092268549E+03 -0.12356992651E+03  0.60691775124E+02  0.48104338713E+03  0.00000000000E+00 0.  1.
         13    1    4    4    0    0  0.22513319146E+03  0.22989706808E+03 -0.71734565842E+02  0.32967176844E+03  0.10566000000E+00 0. -1.
         -4    1    4    4    0  502 -0.12550794519E+03 -0.15285457172E+03  0.50484967530E+03  0.54220840924E+03  0.00000000000E+00 0. -1.
<mgrwt>
<rscale>  2 0.93588539E+03</rscale>
<asrwt>0</asrwt>
<pdfrwt beam="1">  1       21 0.25153919E+00 0.10045928E+04</pdfrwt>
<pdfrwt beam="2">  1       21 0.73257889E-01 0.10045928E+04</pdfrwt>
<totfact> 0.51400521E+01</totfact>
</mgrwt>
</event>
<event>
 8    1  0.1094795E-005  0.1321957E+04  0.7818608E-02  0.8521530E-01
         21   -1    0    0  501  502  0.00000000000E+00  0.00000000000E+00  0.95986968902E+03  0.95986968902E+03  0.00000000000E+00 0.  1.
         21   -1    0    0  502  503 -0.00000000000E+00 -0.00000000000E+00 -0.19825481215E+04  0.19825481215E+04  0.00000000000E+00 0. -1.
   -9000010    2    1    2    0  503  0.32963479678E+03  0.79768592083E+03 -0.94628844359E+03  0.16182559425E+04  0.98910492341E+03 0.  0.
    9000010    2    1    2  501    0 -0.32963479678E+03 -0.79768592083E+03 -0.76389988856E+02  0.13241618680E+04  0.10013027987E+04 0.  0.
        -13    1    4    4    0    0  0.31543042183E+03 -0.54308295638E+03 -0.19574506148E+02  0.62834594053E+03  0.10566000000E+00 0.  1.
          4    1    4    4  501    0 -0.64506521862E+03 -0.25460296445E+03 -0.56815482708E+02  0.69581592742E+03  0.00000000000E+00 0.  1.
         13    1    3    3    0    0 -0.16618328985E+03 -0.13952713629E+03 -0.34245432769E+02  0.21967582575E+03  0.10566000000E+00 0. -1.
         -4    1    3    3    0  503  0.49581808664E+03  0.93721305712E+03 -0.91204301083E+03  0.13985801168E+04  0.00000000000E+00 0. -1.
<mgrwt>
<rscale>  2 0.13196468E+04</rscale>
<asrwt>0</asrwt>
<pdfrwt beam="1">  1       21 0.14767226E+00 0.13219566E+04</pdfrwt>
<pdfrwt beam="2">  1       21 0.30500740E+00 0.13219566E+04</pdfrwt>
<totfact> 0.30412791E+00</totfact>
</mgrwt>
</event>
<event>
 8    1  0.1094795E-005  0.1281233E+04  0.7818608E-02  0.8570364E-01
         21   -1    0    0  503  502  0.00000000000E+00  0.00000000000E+00  0.14710955279E+04  0.14710955279E+04  0.00000000000E+00 0. -1.
         21   -1    0    0  501  503 -0.00000000000E+00 -0.00000000000E+00 -0.11673044029E+04  0.11673044029E+04  0.00000000000E+00 0.  1.
    9000010    2    1    2  501    0 -0.16797928608E+03 -0.62228124910E+03 -0.33669051574E+03  0.12059978673E+04  0.96209113859E+03 0.  0.
   -9000010    2    1    2    0  502  0.16797928608E+03  0.62228124910E+03  0.64048164072E+03  0.14324020635E+04  0.11072975869E+04 0.  0.
        -13    1    3    3    0    0  0.33576614060E+03 -0.49833359744E+02 -0.28236236333E+03  0.44153230947E+03  0.10566000000E+00 0.  1.
          4    1    3    3  501    0 -0.50374542668E+03 -0.57244788935E+03 -0.54328152407E+02  0.76446555781E+03  0.00000000000E+00 0.  1.
         13    1    4    4    0    0  0.43034451212E+03  0.49681854938E+03  0.84962230722E+03  0.10741895299E+04  0.10566000000E+00 0. -1.
         -4    1    4    4    0  502 -0.26236522603E+03  0.12546269972E+03 -0.20914066651E+03  0.35821253362E+03  0.00000000000E+00 0. -1.
<mgrwt>
<rscale>  2 0.12492594E+04</rscale>
<asrwt>0</asrwt>
<pdfrwt beam="1">  1       21 0.22632239E+00 0.12812334E+04</pdfrwt>
<pdfrwt beam="2">  1       21 0.17958529E+00 0.12812334E+04</pdfrwt>
<totfact> 0.60451704E+00</totfact>
</mgrwt>
</event>
<event>
 8    1  0.1094795E-005  0.1175985E+04  0.7818608E-02  0.8625293E-01
         21   -1    0    0  501  502  0.00000000000E+00  0.00000000000E+00  0.99415009834E+03  0.99415009834E+03  0.00000000000E+00 0. -1.
         21   -1    0    0  502  503 -0.00000000000E+00 -0.00000000000E+00 -0.13969712565E+04  0.13969712565E+04  0.00000000000E+00 0. -1.
   -9000010    2    1    2    0  503 -0.51490512809E+03 -0.32370438878E+03 -0.29480367463E+03  0.12123741387E+04  0.10064939262E+04 0.  0.
    9000010    2    1    2  501    0  0.51490512809E+03  0.32370438878E+03 -0.10801748356E+03  0.11787472161E+04  0.10039249975E+04 0.  0.
        -13    1    4    4    0    0  0.74799224893E+03 -0.21834508307E+02 -0.13774544521E+03  0.76088301929E+03  0.10566000000E+00 0.  1.
          4    1    4    4  501    0 -0.23308712084E+03  0.34553889709E+03  0.29727961644E+02  0.41786419684E+03  0.00000000000E+00 0.  1.
         13    1    3    3    0    0 -0.63199077849E+03  0.37983295203E+02  0.12570829283E+03  0.64549024847E+03  0.10566000000E+00 0. -1.
         -4    1    3    3    0  503  0.11708565041E+03 -0.36168768398E+03 -0.42051196746E+03  0.56688389027E+03  0.00000000000E+00 0. -1.
<mgrwt>
<rscale>  2 0.11754356E+04</rscale>
<asrwt>0</asrwt>
<pdfrwt beam="1">  1       21 0.15294617E+00 0.11759855E+04</pdfrwt>
<pdfrwt beam="2">  1       21 0.21491865E+00 0.11759855E+04</pdfrwt>
<totfact> 0.12684365E+01</totfact>
</mgrwt>
</event>
<event>
 8    1  0.1094795E-005  0.1134276E+04  0.7818608E-02  0.8666493E-01
         21   -1    0    0  501  502  0.00000000000E+00  0.00000000000E+00  0.43786597139E+03  0.43786597139E+03  0.00000000000E+00 0.  1.
         21   -1    0    0  502  503 -0.00000000000E+00 -0.00000000000E+00 -0.28413252866E+04  0.28413252866E+04  0.00000000000E+00 0.  1.
   -9000010    2    1    2    0  503  0.32463712807E+03 -0.40758759652E+03 -0.11185076052E+04  0.15929979407E+04  0.10075049690E+04 0.  0.
    9000010    2    1    2  501    0 -0.32463712807E+03  0.40758759652E+03 -0.12849517100E+04  0.16861933173E+04  0.95949470678E+03 0.  0.
        -13    1    4    4    0    0 -0.68233330495E+02  0.53878199708E+03 -0.22507271576E+03  0.58787716941E+03  0.10566000000E+00 0.  1.
          4    1    4    4  501    0 -0.25640379758E+03 -0.13119440056E+03 -0.10598789943E+04  0.10983161479E+04  0.00000000000E+00 0.  1.
         13    1    3    3    0    0  0.33998454321E+03 -0.73151352160E+03 -0.74122003941E+03  0.10954947192E+04  0.10566000000E+00 0. -1.
         -4    1    3    3    0  503 -0.15347415143E+02  0.32392592508E+03 -0.37728756578E+03  0.49750322148E+03  0.00000000000E+00 0. -1.
<mgrwt>
<rscale>  2 0.11235190E+04</rscale>
<asrwt>0</asrwt>
<pdfrwt beam="1">  1       21 0.67363995E-01 0.11342765E+04</pdfrwt>
<pdfrwt beam="2">  1       21 0.43712697E+00 0.11342765E+04</pdfrwt>
<totfact> 0.30291520E+00</totfact>
</mgrwt>
</event>
<event>
 8    1  0.1094795E-005  0.1291025E+04  0.7818608E-02  0.8542009E-01
         21   -1    0    0  501  502  0.00000000000E+00  0.00000000000E+00  0.86447409648E+03  0.86447409648E+03  0.00000000000E+00 0. -1.
         21   -1    0    0  502  503 -0.00000000000E+00 -0.00000000000E+00 -0.24024486085E+04  0.24024486085E+04  0.00000000000E+00 0. -1.
   -9000010    2    1    2    0  503  0.80788474268E+03  0.78107748670E+02 -0.15028837115E+04  0.19812634615E+04  0.10039755354E+04 0.  0.
    9000010    2    1    2  501    0 -0.80788474268E+03 -0.78107748670E+02 -0.35090800520E+02  0.12856592435E+04  0.99644856779E+03 0.  0.
        -13    1    4    4    0    0 -0.58449808441E+03  0.17671642542E+03  0.40312981697E+03  0.73169690869E+03  0.10566000000E+00 0.  1.
          4    1    4    4  501    0 -0.22338665827E+03 -0.25482417409E+03 -0.43822061749E+03  0.55396233481E+03  0.00000000000E+00 0.  1.
         13    1    3    3    0    0  0.31350022459E+02 -0.23485611086E+03 -0.94725173996E+03  0.97643539814E+03  0.10566000000E+00 0. -1.
         -4    1    3    3    0  503  0.77653472022E+03  0.31296385953E+03 -0.55563197154E+03  0.10048280633E+04  0.00000000000E+00 0. -1.
<mgrwt>
<rscale>  2 0.12895613E+04</rscale>
<asrwt>0</asrwt>
<pdfrwt beam="1">  1       21 0.13299602E+00 0.12910250E+04</pdfrwt>
<pdfrwt beam="2">  1       21 0.36960747E+00 0.12910250E+04</pdfrwt>
<totfact> 0.14722899E+00</totfact>
</mgrwt>
</event>
<event>
 8    1  0.1094795E-005  0.1456583E+04  0.7818608E-02  0.8441790E-01
         21   -1    0    0  501  502  0.00000000000E+00  0.00000000000E+00  0.21179453710E+04  0.21179453710E+04  0.00000000000E+00 0.  1.
         21   -1    0    0  502  503 -0.00000000000E+00 -0.00000000000E+00 -0.98476268843E+03  0.98476268843E+03  0.00000000000E+00 0. -1.
   -9000010    2    1    2    0  503 -0.30040202931E+03 -0.95489690939E+03  0.75966450632E+03  0.16427791716E+04  0.10580943992E+04 0.  0.
    9000010    2    1    2  501    0  0.30040202931E+03  0.95489690939E+03  0.37351817623E+03  0.14599288878E+04  0.99489046775E+03 0.  0.
        -13    1    4    4    0    0 -0.36839503116E+03  0.32067610735E+03  0.10050389582E+03  0.49864727919E+03  0.10566000000E+00 0.  1.
          4    1    4    4  501    0  0.66879706046E+03  0.63422080204E+03  0.27301428040E+03  0.96128160865E+03  0.00000000000E+00 0.  1.
         13    1    3    3    0    0 -0.42128687893E+03 -0.93765129481E+03  0.17159952267E+03  0.10421703279E+04  0.10566000000E+00 0. -1.
         -4    1    3    3    0  503  0.12088484962E+03 -0.17245614574E+02  0.58806498364E+03  0.60060884366E+03  0.00000000000E+00 0. -1.
<mgrwt>
<rscale>  2 0.14451375E+04</rscale>
<asrwt>0</asrwt>
<pdfrwt beam="1">  1       21 0.32583775E+00 0.14565827E+04</pdfrwt>
<pdfrwt beam="2">  1       21 0.15150195E+00 0.14565827E+04</pdfrwt>
<totfact> 0.19548387E+00</totfact>
</mgrwt>
</event>
<event>
 8    1  0.1094795E-005  0.1421558E+04  0.7818608E-02  0.8456385E-01
         21   -1    0    0  501  502  0.00000000000E+00  0.00000000000E+00  0.12107695465E+04  0.12107695465E+04  0.00000000000E+00 0.  1.
         21   -1    0    0  502  503 -0.00000000000E+00 -0.00000000000E+00 -0.16711434950E+04  0.16711434950E+04  0.00000000000E+00 0. -1.
   -9000010    2    1    2    0  503  0.10147259847E+04  0.14933812285E+02 -0.15895549507E+03  0.14304179164E+04  0.99545804698E+03 0.  0.
    9000010    2    1    2  501    0 -0.10147259847E+04 -0.14933812285E+02 -0.30141845341E+03  0.14514951251E+04  0.99302224106E+03 0.  0.
        -13    1    4    4    0    0  0.12711987311E+03  0.41321636318E+02  0.16882090423E+03  0.21533102107E+03  0.10566000000E+00 0.  1.
          4    1    4    4  501    0 -0.11418458578E+04 -0.56255448603E+02 -0.47023935763E+03  0.12361641040E+04  0.00000000000E+00 0.  1.
         13    1    3    3    0    0  0.67872669355E+03 -0.18894670526E+03 -0.53641223477E+03  0.88549922572E+03  0.10566000000E+00 0. -1.
         -4    1    3    3    0  503  0.33599929118E+03  0.20388051755E+03  0.37745673970E+03  0.54491869068E+03  0.00000000000E+00 0. -1.
<mgrwt>
<rscale>  2 0.14211322E+04</rscale>
<asrwt>0</asrwt>
<pdfrwt beam="1">  1       21 0.18627224E+00 0.14215585E+04</pdfrwt>
<pdfrwt beam="2">  1       21 0.25709900E+00 0.14215585E+04</pdfrwt>
<totfact> 0.30815760E+00</totfact>
</mgrwt>
</event>
<event>
 8    1  0.1094795E-005  0.1274319E+04  0.7818608E-02  0.8556377E-01
         21   -1    0    0  501  502  0.00000000000E+00  0.00000000000E+00  0.89762174236E+03  0.89762174236E+03  0.00000000000E+00 0.  1.
         21   -1    0    0  502  503 -0.00000000000E+00 -0.00000000000E+00 -0.17853335360E+04  0.17853335360E+04  0.00000000000E+00 0. -1.
   -9000010    2    1    2    0  503  0.67223927153E+03 -0.33488378469E+03 -0.36713546035E+03  0.13261514082E+04  0.10294835229E+04 0.  0.
    9000010    2    1    2  501    0 -0.67223927153E+03  0.33488378469E+03 -0.52057633329E+03  0.13568038701E+04  0.10029278318E+04 0.  0.
        -13    1    4    4    0    0  0.10820190646E+03  0.37452188936E+03 -0.41309796892E+03  0.56800021238E+03  0.10566000000E+00 0.  1.
          4    1    4    4  501    0 -0.78044117799E+03 -0.39638104677E+02 -0.10747836437E+03  0.78880365773E+03  0.00000000000E+00 0.  1.
         13    1    3    3    0    0  0.62699491821E+03  0.56067886895E+02 -0.59935208906E+03  0.86918880183E+03  0.10566000000E+00 0. -1.
         -4    1    3    3    0  503  0.45244353320E+02 -0.39095167158E+03  0.23221662871E+03  0.45696260642E+03  0.00000000000E+00 0. -1.
<mgrwt>
<rscale>  2 0.12689462E+04</rscale>
<asrwt>0</asrwt>
<pdfrwt beam="1">  1       21 0.13809565E+00 0.12743191E+04</pdfrwt>
<pdfrwt beam="2">  1       21 0.27466670E+00 0.12743191E+04</pdfrwt>
<totfact> 0.61780917E+00</totfact>
</mgrwt>
</event>
<event>
 8    1  0.1094795E-005  0.1139668E+04  0.7818608E-02  0.8659993E-01
         21   -1    0    0  501  502  0.00000000000E+00  0.00000000000E+00  0.12484022872E+04  0.12484022872E+04  0.00000000000E+00 0.  1.
         21   -1    0    0  502  503 -0.00000000000E+00 -0.00000000000E+00 -0.10449909052E+04  0.10449909052E+04  0.00000000000E+00 0.  1.
   -9000010    2    1    2    0  503 -0.24234998857E+03 -0.46004894222E+03 -0.10594319708E+03  0.11124856078E+04  0.97776363212E+03 0.  0.
    9000010    2    1    2  501    0  0.24234998857E+03  0.46004894222E+03  0.30935457909E+03  0.11809075847E+04  0.10141321027E+04 0.  0.
        -13    1    4    4    0    0 -0.11660595775E+02  0.64768011653E+02  0.61621544559E+03  0.61971957479E+03  0.10566000000E+00 0.  1.
          4    1    4    4  501    0  0.25401058434E+03  0.39528093057E+03 -0.30686086651E+03  0.56118800987E+03  0.00000000000E+00 0.  1.
         13    1    3    3    0    0  0.56109803314E+02 -0.59000425347E+03 -0.36536209233E+03  0.69623472968E+03  0.10566000000E+00 0. -1.
         -4    1    3    3    0  503 -0.29845979188E+03  0.12995531125E+03  0.25941889525E+03  0.41625087808E+03  0.00000000000E+00 0. -1.
<mgrwt>
<rscale>  2 0.11315212E+04</rscale>
<asrwt>0</asrwt>
<pdfrwt beam="1">  1       21 0.19206189E+00 0.11396677E+04</pdfrwt>
<pdfrwt beam="2">  1       21 0.16076783E+00 0.11396677E+04</pdfrwt>
<totfact> 0.16437849E+01</totfact>
</mgrwt>
</event>
<event>
 8    1  0.1094795E-005  0.1094795E+04  0.7818608E-02  0.8698605E-01
         21   -1    0    0  503  502  0.00000000000E+00  0.00000000000E+00  0.76518108634E+03  0.76518108634E+03  0.00000000000E+00 0.  1.
         21   -1    0    0  501  503 -0.00000000000E+00 -0.00000000000E+00 -0.15206650927E+04  0.15206650927E+04  0.00000000000E+00 0.  1.
    9000010    2    1    2  501    0 -0.21060099006E+03 -0.28580982787E+03 -0.29559549145E+03  0.11339990008E+04  0.10356336247E+04 0.  0.
   -9000010    2    1    2    0  502  0.21060099006E+03  0.28580982787E+03 -0.45988851487E+03  0.11518471782E+04  0.99459260057E+03 0.  0.
        -13    1    3    3    0    0 -0.43737927946E+02 -0.44400089311E+03 -0.60300707149E+03  0.75011155094E+03  0.10566000000E+00 0.  1.
          4    1    3    3  501    0 -0.16686306211E+03  0.15819106524E+03  0.30741158004E+03  0.38388744986E+03  0.00000000000E+00 0.  1.
         13    1    4    4    0    0  0.55834829368E+03  0.72666722100E+00 -0.42334861934E+03  0.70069780202E+03  0.10566000000E+00 0. -1.
         -4    1    4    4    0  502 -0.34774730362E+03  0.28508316065E+03 -0.36539895528E+02  0.45114937618E+03  0.00000000000E+00 0. -1.
<mgrwt>
<rscale>  2 0.10849794E+04</rscale>
<asrwt>0</asrwt>
<pdfrwt beam="1">  1       21 0.11772017E+00 0.10947954E+04</pdfrwt>
<pdfrwt beam="2">  1       21 0.23394847E+00 0.10947954E+04</pdfrwt>
<totfact> 0.20040809E+01</totfact>
</mgrwt>
</event>
<event>
 8    1  0.1094795E-005  0.1122908E+04  0.7818608E-02  0.8667976E-01
         21   -1    0    0  501  502  0.00000000000E+00  0.00000000000E+00  0.13971665614E+04  0.13971665614E+04  0.00000000000E+00 0.  1.
         21   -1    0    0  502  503 -0.00000000000E+00 -0.00000000000E+00 -0.10402336494E+04  0.10402336494E+04  0.00000000000E+00 0.  1.
   -9000010    2    1    2    0  503  0.17551959360E+03 -0.44180291828E+03 -0.27086295232E+03  0.11551146319E+04  0.10173131904E+04 0.  0.
    9000010    2    1    2  501    0 -0.17551959360E+03  0.44180291828E+03  0.62779586433E+03  0.12822855790E+04  0.10119939291E+04 0.  0.
        -13    1    4    4    0    0 -0.15578170387E+03  0.22742537934E+03 -0.25384739838E+03  0.37473824899E+03  0.10566000000E+00 0.  1.
          4    1    4    4  501    0 -0.19737889729E+02  0.21437753895E+03  0.88164326271E+03  0.90754732999E+03  0.00000000000E+00 0.  1.
         13    1    3    3    0    0  0.28491826136E+03 -0.14973985008E+03  0.34065088957E+03  0.46866136824E+03  0.10566000000E+00 0. -1.
         -4    1    3    3    0  503 -0.10939866775E+03 -0.29206306821E+03 -0.61151384188E+03  0.68645326362E+03  0.00000000000E+00 0. -1.
<mgrwt>
<rscale>  2 0.11217022E+04</rscale>
<asrwt>0</asrwt>
<pdfrwt beam="1">  1       21 0.21494870E+00 0.11229083E+04</pdfrwt>
<pdfrwt beam="2">  1       21 0.16003595E+00 0.11229083E+04</pdfrwt>
<totfact> 0.11116794E+01</totfact>
</mgrwt>
</event>
<event>
 8    1  0.1094795E-005  0.1160503E+04  0.7818608E-02  0.8643390E-01
         21   -1    0    0  501  502  0.00000000000E+00  0.00000000000E+00  0.21702775131E+04  0.21702775131E+04  0.00000000000E+00 0. -1.
         21   -1    0    0  502  503 -0.00000000000E+00 -0.00000000000E+00 -0.68974406940E+03  0.68974406940E+03  0.00000000000E+00 0. -1.
   -9000010    2    1    2    0  503  0.41364513327E+03  0.30749658831E+03  0.12557618167E+04  0.17098845038E+04  0.10397647946E+04 0.  0.
    9000010    2    1    2  501    0 -0.41364513327E+03 -0.30749658831E+03  0.22477162693E+03  0.11501370786E+04  0.10033127963E+04 0.  0.
        -13    1    4    4    0    0 -0.70114224540E+03 -0.12455927921E+03 -0.47868633036E+02  0.71372745465E+03  0.10566000000E+00 0.  1.
          4    1    4    4  501    0  0.28749711213E+03 -0.18293730910E+03  0.27264025996E+03  0.43640962398E+03  0.00000000000E+00 0.  1.
         13    1    3    3    0    0 -0.15890425939E+03  0.28646694465E+03 -0.22001063476E+01  0.32759536880E+03  0.10566000000E+00 0. -1.
         -4    1    3    3    0  503  0.57254939266E+03  0.21029643668E+02  0.12579619231E+04  0.13822891350E+04  0.00000000000E+00 0. -1.
<mgrwt>
<rscale>  2 0.11522802E+04</rscale>
<asrwt>0</asrwt>
<pdfrwt beam="1">  1       21 0.33388884E+00 0.11605030E+04</pdfrwt>
<pdfrwt beam="2">  1       21 0.10611447E+00 0.11605030E+04</pdfrwt>
<totfact> 0.50643503E+00</totfact>
</mgrwt>
</event>
<event>
 8    1  0.1094795E-005  0.1070302E+04  0.7818608E-02  0.8711270E-01
         21   -1    0    0  501  502  0.00000000000E+00  0.00000000000E+00  0.17134100951E+04  0.17134100951E+04  0.00000000000E+00 0. -1.
         21   -1    0    0  502  503 -0.00000000000E+00 -0.00000000000E+00 -0.70958362920E+03  0.70958362920E+03  0.00000000000E+00 0. -1.
   -9000010    2    1    2    0  503  0.24382656185E+03  0.33779798789E+03  0.20991393696E+03  0.10903858595E+04  0.98555496487E+03 0.  0.
    9000010    2    1    2  501    0 -0.24382656185E+03 -0.33779798789E+03  0.79391252895E+03  0.13326078648E+04  0.98589438828E+03 0.  0.
        -13    1    4    4    0    0  0.18278316455E+03  0.26702765555E+03  0.31129394077E+03  0.44901824327E+03  0.10566000000E+00 0.  1.
          4    1    4    4  501    0 -0.42660972640E+03 -0.60482564344E+03  0.48261858818E+03  0.88358962153E+03  0.00000000000E+00 0.  1.
         13    1    3    3    0    0  0.27905417529E+03 -0.58927729158E+02 -0.31924220395E+03  0.42808796521E+03  0.10566000000E+00 0. -1.
         -4    1    3    3    0  503 -0.35227613446E+02  0.39672571705E+03  0.52915614091E+03  0.66229789429E+03  0.00000000000E+00 0. -1.
<mgrwt>
<rscale>  2 0.10702239E+04</rscale>
<asrwt>0</asrwt>
<pdfrwt beam="1">  1       21 0.26360155E+00 0.10703021E+04</pdfrwt>
<pdfrwt beam="2">  1       21 0.10916671E+00 0.10703021E+04</pdfrwt>
<totfact> 0.15062424E+01</totfact>
</mgrwt>
</event>
<event>
 8    1  0.1094795E-005  0.1138894E+04  0.7818608E-02  0.8654122E-01
         21   -1    0    0  503  502  0.00000000000E+00  0.00000000000E+00  0.80711687115E+03  0.80711687115E+03  0.00000000000E+00 0. -1.
         21   -1    0    0  501  503 -0.00000000000E+00 -0.00000000000E+00 -0.16091423018E+04  0.16091423018E+04  0.00000000000E+00 0. -1.
    9000010    2    1    2  501    0  0.39884448520E+03  0.36183697113E+03 -0.44932617007E+03  0.12243258938E+04  0.10035322467E+04 0.  0.
   -9000010    2    1    2    0  502 -0.39884448520E+03 -0.36183697113E+03 -0.35269926063E+03  0.11919332792E+04  0.10031476743E+04 0.  0.
        -13    1    3    3    0    0  0.32064209240E+03  0.67743205668E+03 -0.11550852328E+03  0.75833223125E+03  0.10566000000E+00 0.  1.
          4    1    3    3  501    0  0.78202392804E+02 -0.31559508555E+03 -0.33381764678E+03  0.46599366258E+03  0.00000000000E+00 0.  1.
         13    1    4    4    0    0 -0.11025243369E+03 -0.52766825101E+03 -0.57772346171E+03  0.79016061129E+03  0.10566000000E+00 0. -1.
         -4    1    4    4    0  502 -0.28859205151E+03  0.16583127988E+03  0.22502420108E+03  0.40177266788E+03  0.00000000000E+00 0. -1.
<mgrwt>
<rscale>  2 0.11388094E+04</rscale>
<asrwt>0</asrwt>
<pdfrwt beam="1">  1       21 0.12417183E+00 0.11388942E+04</pdfrwt>
<pdfrwt beam="2">  1       21 0.24756035E+00 0.11388942E+04</pdfrwt>
<totfact> 0.13575263E+01</totfact>
</mgrwt>
</event>
<event>
 8    1  0.1094795E-005  0.1182788E+04  0.7818608E-02  0.8621700E-01
         21   -1    0    0  503  502  0.00000000000E+00  0.00000000000E+00  0.58119099555E+03  0.58119099555E+03  0.00000000000E+00 0.  1.
         21   -1    0    0  501  503 -0.00000000000E+00 -0.00000000000E+00 -0.25142910691E+04  0.25142910691E+04  0.00000000000E+00 0.  1.
    9000010    2    1    2  501    0 -0.14967568915E+03  0.59391794415E+03 -0.13128706811E+04  0.17599402764E+04  0.99930926876E+03 0.  0.
   -9000010    2    1    2    0  502  0.14967568915E+03 -0.59391794415E+03 -0.62022939241E+03  0.13355417883E+04  0.10118527723E+04 0.  0.
        -13    1    3    3    0    0 -0.27857811997E+03  0.56924931760E+03 -0.14424330607E+04  0.15755201364E+04  0.10566000000E+00 0.  1.
          4    1    3    3  501    0  0.12890243082E+03  0.24668626554E+02  0.12956237957E+03  0.18442013992E+03  0.00000000000E+00 0.  1.
         13    1    4    4    0    0 -0.40469672725E+02 -0.83741178454E+03 -0.58988346402E+03  0.10251140442E+04  0.10566000000E+00 0. -1.
         -4    1    4    4    0  502  0.19014536187E+03  0.24349384038E+03 -0.30345928383E+02  0.31042774411E+03  0.00000000000E+00 0. -1.
<mgrwt>
<rscale>  2 0.11801006E+04</rscale>
<asrwt>0</asrwt>
<pdfrwt beam="1">  1       21 0.89413999E-01 0.11827880E+04</pdfrwt>
<pdfrwt beam="2">  1       21 0.38681401E+00 0.11827880E+04</pdfrwt>
<totfact> 0.33488581E+00</totfact>
</mgrwt>
</event>
<event>
 8    1  0.1094795E-005  0.1018557E+04  0.7818608E-02  0.8757856E-01
         21   -1    0    0  503  502  0.00000000000E+00  0.00000000000E+00  0.19365719823E+04  0.19365719823E+04  0.00000000000E+00 0.  1.
         21   -1    0    0  501  503 -0.00000000000E+00 -0.00000000000E+00 -0.53495735871E+03  0.53495735871E+03  0.00000000000E+00 0.  1.
    9000010    2    1    2  501    0  0.18453048429E+03  0.47112809216E+01  0.66637581777E+03  0.12153309592E+04  0.99944930535E+03 0.  0.
   -9000010    2    1    2    0  502 -0.18453048429E+03 -0.47112809216E+01  0.73523880584E+03  0.12561983819E+04  0.10016908591E+04 0.  0.
        -13    1    3    3    0    0  0.53894333290E+03  0.21284570325E+03  0.52140584058E+03  0.77950450366E+03  0.10566000000E+00 0.  1.
          4    1    3    3  501    0 -0.35441284861E+03 -0.20813442233E+03  0.14496997719E+03  0.43582645549E+03  0.00000000000E+00 0.  1.
         13    1    4    4    0    0  0.26341023060E+03  0.19118242608E+03 -0.51895254683E+02  0.32958883211E+03  0.10566000000E+00 0. -1.
         -4    1    4    4    0  502 -0.44794071489E+03 -0.19589370700E+03  0.78713406052E+03  0.92660954977E+03  0.00000000000E+00 0. -1.
<mgrwt>
<rscale>  2 0.10180054E+04</rscale>
<asrwt>0</asrwt>
<pdfrwt beam="1">  1       21 0.29793415E+00 0.10185570E+04</pdfrwt>
<pdfrwt beam="2">  1       21 0.82301133E-01 0.10185570E+04</pdfrwt>
<totfact> 0.18011755E+01</totfact>
</mgrwt>
</event>
<event>
 8    1  0.1094795E-005  0.1379214E+04  0.7818608E-02  0.8482842E-01
         21   -1    0    0  501  502  0.00000000000E+00  0.00000000000E+00  0.18751483071E+04  0.18751483071E+04  0.00000000000E+00 0.  1.
         21   -1    0    0  502  503 -0.00000000000E+00 -0.00000000000E+00 -0.11233709596E+04  0.11233709596E+04  0.00000000000E+00 0.  1.
   -9000010    2    1    2    0  503  0.60614774992E+02  0.94098182189E+03  0.84538910270E+03  0.16176881081E+04  0.10065342220E+04 0.  0.
    9000010    2    1    2  501    0 -0.60614774992E+02 -0.94098182189E+03 -0.93611755232E+02  0.13808311586E+04  0.10043956330E+04 0.  0.
        -13    1    4    4    0    0 -0.36775028486E+02 -0.11583743960E+04 -0.78310347136E+02  0.11616006911E+04  0.10566000000E+00 0.  1.
          4    1    4    4  501    0 -0.23839746505E+02  0.21739257407E+03 -0.15301408096E+02  0.21923046746E+03  0.00000000000E+00 0.  1.
         13    1    3    3    0    0  0.29644558479E+03  0.84822541409E+03  0.19469333669E+03  0.91938666750E+03  0.10566000000E+00 0. -1.
         -4    1    3    3    0  503 -0.23583080980E+03  0.92756407797E+02  0.65069576602E+03  0.69830144060E+03  0.00000000000E+00 0. -1.
<mgrwt>
<rscale>  2 0.13788241E+04</rscale>
<asrwt>0</asrwt>
<pdfrwt beam="1">  1       21 0.28848436E+00 0.13792143E+04</pdfrwt>
<pdfrwt beam="2">  1       21 0.17282630E+00 0.13792143E+04</pdfrwt>
<totfact> 0.23843490E+00</totfact>
</mgrwt>
</event>
<event>
 8    1  0.1094795E-005  0.1315272E+04  0.7818608E-02  0.8556411E-01
         21   -1    0    0  501  502  0.00000000000E+00  0.00000000000E+00  0.92076465579E+03  0.92076465579E+03  0.00000000000E+00 0. -1.
         21   -1    0    0  502  503 -0.00000000000E+00 -0.00000000000E+00 -0.16567108949E+04  0.16567108949E+04  0.00000000000E+00 0. -1.
   -9000010    2    1    2    0  503  0.37791786320E+01  0.54329610681E+03 -0.19794352890E+03  0.11564237153E+04  0.10014735278E+04 0.  0.
    9000010    2    1    2  501    0 -0.37791786320E+01 -0.54329610681E+03 -0.53800271024E+03  0.14210518354E+04  0.11978131995E+04 0.  0.
        -13    1    4    4    0    0  0.34046792719E+03 -0.28035042466E+03  0.26078236014E+03  0.51236922290E+03  0.10566000000E+00 0.  1.
          4    1    4    4  501    0 -0.34424710582E+03 -0.26294568214E+03 -0.79878507038E+03  0.90868261251E+03  0.00000000000E+00 0.  1.
         13    1    3    3    0    0  0.13441420418E+03 -0.27106512079E+03 -0.12854737766E+03  0.32873685139E+03  0.10566000000E+00 0. -1.
         -4    1    3    3    0  503 -0.13063502555E+03  0.81436122760E+03 -0.69396151245E+02  0.82768686393E+03  0.00000000000E+00 0. -1.
<mgrwt>
<rscale>  2 0.12688980E+04</rscale>
<asrwt>0</asrwt>
<pdfrwt beam="1">  1       21 0.14165610E+00 0.13152724E+04</pdfrwt>
<pdfrwt beam="2">  1       21 0.25487859E+00 0.13152724E+04</pdfrwt>
<totfact> 0.78894734E+00</totfact>
</mgrwt>
</event>
<event>
 8    1  0.1094795E-005  0.1104620E+04  0.7818608E-02  0.8684518E-01
         21   -1    0    0  501  502  0.00000000000E+00  0.00000000000E+00  0.12055227930E+04  0.12055227930E+04  0.00000000000E+00 0.  1.
         21   -1    0    0  502  503 -0.00000000000E+00 -0.00000000000E+00 -0.10061011487E+04  0.10061011487E+04  0.00000000000E+00 0.  1.
   -9000010    2    1    2    0  503 -0.50373464902E+02 -0.46250124778E+03  0.24179247272E+02  0.10931891976E+04  0.98895555798E+03 0.  0.
    9000010    2    1    2  501    0  0.50373464902E+02  0.46250124778E+03  0.17524239699E+03  0.11184347441E+04  0.10018689979E+04 0.  0.
        -13    1    4    4    0    0  0.30008291393E+03 -0.20596629830E+03 -0.56145861321E+02  0.36827196496E+03  0.10566000000E+00 0.  1.
          4    1    4    4  501    0 -0.24970944903E+03  0.66846754608E+03  0.23138825831E+03  0.75016277912E+03  0.00000000000E+00 0.  1.
         13    1    3    3    0    0  0.64863244803E+01 -0.12410402321E+03 -0.47302198630E+03  0.48907432121E+03  0.10566000000E+00 0. -1.
         -4    1    3    3    0  503 -0.56859789383E+02 -0.33839722457E+03  0.49720123357E+03  0.60411487642E+03  0.00000000000E+00 0. -1.
<mgrwt>
<rscale>  2 0.11016841E+04</rscale>
<asrwt>0</asrwt>
<pdfrwt beam="1">  1       21 0.18546504E+00 0.11046205E+04</pdfrwt>
<pdfrwt beam="2">  1       21 0.15478479E+00 0.11046205E+04</pdfrwt>
<totfact> 0.21083150E+01</totfact>
</mgrwt>
</event>
<event>
 8    1  0.1094795E-005  0.1145472E+04  0.7818608E-02  0.8657225E-01
         21   -1    0    0  503  502  0.00000000000E+00  0.00000000000E+00  0.10545484545E+04  0.10545484545E+04  0.00000000000E+00 0. -1.
         21   -1    0    0  501  503 -0.00000000000E+00 -0.00000000000E+00 -0.12417378960E+04  0.12417378960E+04  0.00000000000E+00 0. -1.
    9000010    2    1    2  501    0  0.37538595346E+03 -0.25303031960E+03 -0.30350473293E+03  0.11449241815E+04  0.10068750180E+04 0.  0.
   -9000010    2    1    2    0  502 -0.37538595346E+03  0.25303031960E+03  0.11631529145E+03  0.11513621689E+04  0.10522198631E+04 0.  0.
        -13    1    3    3    0    0  0.68853049990E+03 -0.17311744034E+02 -0.79081512547E+02  0.69327328130E+03  0.10566000000E+00 0.  1.
          4    1    3    3  501    0 -0.31314454644E+03 -0.23571857557E+03 -0.22442322038E+03  0.45165090023E+03  0.00000000000E+00 0.  1.
         13    1    4    4    0    0 -0.22152635263E+03  0.46007123900E+02  0.57900055425E+03  0.62163673744E+03  0.10566000000E+00 0. -1.
         -4    1    4    4    0  502 -0.15385960084E+03  0.20702319570E+03 -0.46268526279E+03  0.52972543146E+03  0.00000000000E+00 0. -1.
<mgrwt>
<rscale>  2 0.11349507E+04</rscale>
<asrwt>0</asrwt>
<pdfrwt beam="1">  1       21 0.16223822E+00 0.11454718E+04</pdfrwt>
<pdfrwt beam="2">  1       21 0.19103660E+00 0.11454718E+04</pdfrwt>
<totfact> 0.16247889E+01</totfact>
</mgrwt>
</event>
<event>
 8    1  0.1094795E-005  0.1202087E+04  0.7818608E-02  0.8609997E-01
         21   -1    0    0  501  502  0.00000000000E+00  0.00000000000E+00  0.20525321772E+04  0.20525321772E+04  0.00000000000E+00 0.  1.
         21   -1    0    0  502  503 -0.00000000000E+00 -0.00000000000E+00 -0.68884471968E+03  0.68884471968E+03  0.00000000000E+00 0. -1.
   -9000010    2    1    2    0  503 -0.22709807157E+03  0.58530992343E+03  0.71068609284E+03  0.13964555567E+04  0.10251108032E+04 0.  0.
    9000010    2    1    2  501    0  0.22709807157E+03 -0.58530992343E+03  0.65300136472E+03  0.13449213402E+04  0.99410330869E+03 0.  0.
        -13    1    4    4    0    0 -0.89333283404E+02 -0.65954068743E+03  0.59457601679E+02  0.66821371691E+03  0.10566000000E+00 0.  1.
          4    1    4    4  501    0  0.31643135498E+03  0.74230764007E+02  0.59354376305E+03  0.67670762327E+03  0.00000000000E+00 0.  1.
         13    1    3    3    0    0  0.37254087948E+02  0.69168515971E+03  0.83555681054E+03  0.10853439188E+04  0.10566000000E+00 0. -1.
         -4    1    3    3    0  503 -0.26435215952E+03 -0.10637523628E+03 -0.12487071770E+03  0.31111163796E+03  0.00000000000E+00 0. -1.
<mgrwt>
<rscale>  2 0.11954496E+04</rscale>
<asrwt>0</asrwt>
<pdfrwt beam="1">  1       21 0.31577418E+00 0.12020871E+04</pdfrwt>
<pdfrwt beam="2">  1       21 0.10597611E+00 0.12020871E+04</pdfrwt>
<totfact> 0.67565860E+00</totfact>
</mgrwt>
</event>
<event>
 8    1  0.1094795E-005  0.1119881E+04  0.7818608E-02  0.8669879E-01
         21   -1    0    0  503  502  0.00000000000E+00  0.00000000000E+00  0.12599753177E+04  0.12599753177E+04  0.00000000000E+00 0. -1.
         21   -1    0    0  501  503 -0.00000000000E+00 -0.00000000000E+00 -0.10698976818E+04  0.10698976818E+04  0.00000000000E+00 0.  1.
    9000010    2    1    2  501    0 -0.38573266090E+03 -0.32806163860E+03 -0.21618031490E+03  0.11385799219E+04  0.99660232071E+03 0.  0.
   -9000010    2    1    2    0  502  0.38573266090E+03  0.32806163860E+03  0.40625795075E+03  0.11912930776E+04  0.99885912409E+03 0.  0.
        -13    1    3    3    0    0  0.22061472223E+03  0.14826312931E+03 -0.25255544880E+03  0.36665662009E+03  0.10566000000E+00 0.  1.
          4    1    3    3  501    0 -0.60634738312E+03 -0.47632476791E+03  0.36375133903E+02  0.77192330183E+03  0.00000000000E+00 0.  1.
         13    1    4    4    0    0  0.44090711364E+03  0.17783232397E+03  0.70620424426E+03  0.85132124612E+03  0.10566000000E+00 0. -1.
         -4    1    4    4    0  502 -0.55174452743E+02  0.15022931463E+03 -0.29994629351E+03  0.33997183148E+03  0.00000000000E+00 0. -1.
<mgrwt>
<rscale>  2 0.11193776E+04</rscale>
<asrwt>0</asrwt>
<pdfrwt beam="1">  1       21 0.19384236E+00 0.11198811E+04</pdfrwt>
<pdfrwt beam="2">  1       21 0.16459964E+00 0.11198811E+04</pdfrwt>
<totfact> 0.14814613E+01</totfact>
</mgrwt>
</event>
<event>
 8    1  0.1094795E-005  0.1134474E+04  0.7818608E-02  0.8657633E-01
         21   -1    0    0  501  502  0.00000000000E+00  0.00000000000E+00  0.37165545110E+03  0.37165545110E+03  0.00000000000E+00 0. -1.
         21   -1    0    0  502  503 -0.00000000000E+00 -0.00000000000E+00 -0.34844622121E+04  0.34844622121E+04  0.00000000000E+00 0. -1.
   -9000010    2    1    2    0  503  0.11823985785E+03  0.51079719617E+03 -0.14036327374E+04  0.18047020215E+04  0.10059175340E+04 0.  0.
    9000010    2    1    2  501    0 -0.11823985785E+03 -0.51079719617E+03 -0.17091740236E+04  0.20514156417E+04  0.10060496273E+04 0.  0.
        -13    1    4    4    0    0 -0.15009786624E+03 -0.69732563187E+03 -0.61746316559E+03  0.94342629725E+03  0.10566000000E+00 0.  1.
          4    1    4    4  501    0  0.31858008393E+02  0.18652843571E+03 -0.10917108580E+04  0.11079893445E+04  0.00000000000E+00 0.  1.
         13    1    3    3    0    0 -0.17337108757E+02  0.73737867738E+03 -0.13453906504E+04  0.15343089332E+04  0.10566000000E+00 0. -1.
         -4    1    3    3    0  503  0.13557696661E+03 -0.22658148121E+03 -0.58242087069E+02  0.27039308831E+03  0.00000000000E+00 0. -1.
<mgrwt>
<rscale>  2 0.11344443E+04</rscale>
<asrwt>0</asrwt>
<pdfrwt beam="1">  1       21 0.57177760E-01 0.11344736E+04</pdfrwt>
<pdfrwt beam="2">  1       21 0.53607113E+00 0.11344736E+04</pdfrwt>
<totfact> 0.89967820E-01</totfact>
</mgrwt>
</event>
<event>
 8    1  0.1094795E-005  0.1177547E+04  0.7818608E-02  0.8649801E-01
         21   -1    0    0  503  502  0.00000000000E+00  0.00000000000E+00  0.61636036571E+03  0.61636036571E+03  0.00000000000E+00 0.  1.
         21   -1    0    0  501  503 -0.00000000000E+00 -0.00000000000E+00 -0.20168059392E+04  0.20168059392E+04  0.00000000000E+00 0.  1.
    9000010    2    1    2  501    0 -0.17425121698E+03 -0.35428470657E+03 -0.80335645498E+03  0.14254815424E+04  0.11093849170E+04 0.  0.
   -9000010    2    1    2    0  502  0.17425121698E+03  0.35428470657E+03 -0.59708911850E+03  0.12076847625E+04  0.97267976758E+03 0.  0.
        -13    1    3    3    0    0 -0.33829937826E+03 -0.32138634696E+03  0.12427076451E+03  0.48288599836E+03  0.10566000000E+00 0.  1.
          4    1    3    3  501    0  0.16404816128E+03 -0.32898359611E+02 -0.92762721949E+03  0.94259554403E+03  0.00000000000E+00 0.  1.
         13    1    4    4    0    0 -0.30343612683E+03  0.11590893870E+03 -0.59031462812E+03  0.67378018409E+03  0.10566000000E+00 0. -1.
         -4    1    4    4    0  502  0.47768734381E+03  0.23837576787E+03 -0.67744903776E+01  0.53390457843E+03  0.00000000000E+00 0. -1.
<mgrwt>
<rscale>  2 0.11442097E+04</rscale>
<asrwt>0</asrwt>
<pdfrwt beam="1">  1       21 0.94824671E-01 0.11775466E+04</pdfrwt>
<pdfrwt beam="2">  1       21 0.31027784E+00 0.11775466E+04</pdfrwt>
<totfact> 0.99351664E+00</totfact>
</mgrwt>
</event>
<event>
 8    1  0.1094795E-005  0.1074668E+04  0.7818608E-02  0.8710769E-01
         21   -1    0    0  501  502  0.00000000000E+00  0.00000000000E+00  0.10269336468E+04  0.10269336468E+04  0.00000000000E+00 0.  1.
         21   -1    0    0  502  503 -0.00000000000E+00 -0.00000000000E+00 -0.13269341307E+04  0.13269341307E+04  0.00000000000E+00 0.  1.
   -9000010    2    1    2    0  503 -0.36773377538E+03 -0.50982989179E+02 -0.62650725790E+03  0.12306949164E+04  0.99210444929E+03 0.  0.
    9000010    2    1    2  501    0  0.36773377538E+03  0.50982989179E+02  0.32650677397E+03  0.11231728611E+04  0.10085054326E+04 0.  0.
        -13    1    4    4    0    0  0.39613512187E+03  0.83054169378E+02  0.66688987266E+03  0.78010457200E+03  0.10566000000E+00 0.  1.
          4    1    4    4  501    0 -0.28401346490E+02 -0.32071180198E+02 -0.34038309869E+03  0.34306828906E+03  0.00000000000E+00 0.  1.
         13    1    3    3    0    0  0.27398823898E+03 -0.25159293333E+03 -0.32452036984E+03  0.49364161171E+03  0.10566000000E+00 0. -1.
         -4    1    3    3    0  503 -0.64172201435E+03  0.20060994415E+03 -0.30198688806E+03  0.73705330469E+03  0.00000000000E+00 0. -1.
<mgrwt>
<rscale>  2 0.10708028E+04</rscale>
<asrwt>0</asrwt>
<pdfrwt beam="1">  1       21 0.15798979E+00 0.10746677E+04</pdfrwt>
<pdfrwt beam="2">  1       21 0.20414371E+00 0.10746677E+04</pdfrwt>
<totfact> 0.14167732E+01</totfact>
</mgrwt>
</event>
<event>
 8    1  0.1094795E-005  0.1137201E+04  0.7818608E-02  0.8656143E-01
         21   -1    0    0  503  502  0.00000000000E+00  0.00000000000E+00  0.21235461120E+04  0.21235461120E+04  0.00000000000E+00 0. -1.
         21   -1    0    0  501  503 -0.00000000000E+00 -0.00000000000E+00 -0.60737941519E+03  0.60737941519E+03  0.00000000000E+00 0. -1.
    9000010    2    1    2  501    0  0.28300180244E+03  0.46015681616E+03  0.72525905999E+03  0.13457317955E+04  0.99657365294E+03 0.  0.
   -9000010    2    1    2    0  502 -0.28300180244E+03 -0.46015681616E+03  0.79090763684E+03  0.13851937317E+04  0.10006959921E+04 0.  0.
        -13    1    3    3    0    0  0.49913623924E+03  0.66044116850E+03  0.44874629209E+03  0.94164365245E+03  0.10566000000E+00 0.  1.
          4    1    3    3  501    0 -0.21613443679E+03 -0.20028435233E+03  0.27651276791E+03  0.40408814307E+03  0.00000000000E+00 0.  1.
         13    1    4    4    0    0 -0.64370773754E+02 -0.23744864477E+03  0.98661060209E+03  0.10168214921E+04  0.10566000000E+00 0. -1.
         -4    1    4    4    0  502 -0.21863102869E+03 -0.22270817140E+03 -0.19570296526E+03  0.36837223962E+03  0.00000000000E+00 0. -1.
<mgrwt>
<rscale>  2 0.11362938E+04</rscale>
<asrwt>0</asrwt>
<pdfrwt beam="1">  1       21 0.32669940E+00 0.11372013E+04</pdfrwt>
<pdfrwt beam="2">  1       21 0.93442988E-01 0.11372013E+04</pdfrwt>
<totfact> 0.79733342E+00</totfact>
</mgrwt>
</event>
<event>
 8    1  0.1094795E-005  0.1217884E+04  0.7818608E-02  0.8600992E-01
         21   -1    0    0  501  502  0.00000000000E+00  0.00000000000E+00  0.13711119988E+04  0.13711119988E+04  0.00000000000E+00 0. -1.
         21   -1    0    0  502  503 -0.00000000000E+00 -0.00000000000E+00 -0.13113546819E+04  0.13113546819E+04  0.00000000000E+00 0. -1.
   -9000010    2    1    2    0  503  0.47157195587E+02 -0.63046621972E+03  0.63340339280E+03  0.13362459596E+04  0.99229126327E+03 0.  0.
    9000010    2    1    2  501    0 -0.47157195587E+02  0.63046621972E+03 -0.57364607586E+03  0.13462207211E+04  0.10409269688E+04 0.  0.
        -13    1    4    4    0    0 -0.44877843297E+03  0.67709030238E+03 -0.41155559496E+03  0.91062142429E+03  0.10566000000E+00 0.  1.
          4    1    4    4  501    0  0.40162123738E+03 -0.46624082657E+02 -0.16209048091E+03  0.43559929683E+03  0.00000000000E+00 0.  1.
         13    1    3    3    0    0 -0.23499823251E+03 -0.57026306212E+03 -0.25119232454E+02  0.61729661939E+03  0.10566000000E+00 0. -1.
         -4    1    3    3    0  503  0.28215542810E+03 -0.60203157604E+02  0.65852262525E+03  0.71894934019E+03  0.00000000000E+00 0. -1.
<mgrwt>
<rscale>  2 0.12074251E+04</rscale>
<asrwt>0</asrwt>
<pdfrwt beam="1">  1       21 0.21094031E+00 0.12178836E+04</pdfrwt>
<pdfrwt beam="2">  1       21 0.20174687E+00 0.12178836E+04</pdfrwt>
<totfact> 0.53265800E+00</totfact>
</mgrwt>
</event>
<event>
 8    1  0.1094795E-005  0.1375900E+04  0.7818608E-02  0.8502697E-01
         21   -1    0    0  503  502  0.00000000000E+00  0.00000000000E+00  0.11288865781E+04  0.11288865781E+04  0.00000000000E+00 0. -1.
         21   -1    0    0  501  503 -0.00000000000E+00 -0.00000000000E+00 -0.15546174917E+04  0.15546174917E+04  0.00000000000E+00 0. -1.
    9000010    2    1    2  501    0  0.55376594871E+03 -0.54895270263E+03 -0.30965551404E+03  0.14103150026E+04  0.11336207802E+04 0.  0.
   -9000010    2    1    2    0  502 -0.55376594871E+03  0.54895270263E+03 -0.11607539953E+03  0.12731890672E+04  0.99976552596E+03 0.  0.
        -13    1    3    3    0    0 -0.30206522611E+03 -0.40326361837E+03 -0.62741324845E+02  0.50774150090E+03  0.10566000000E+00 0.  1.
          4    1    3    3  501    0  0.85583117482E+03 -0.14568908426E+03 -0.24691418920E+03  0.90257350166E+03  0.00000000000E+00 0.  1.
         13    1    4    4    0    0 -0.15094457309E+03  0.41520261019E+03  0.40623090656E+03  0.60016750350E+03  0.10566000000E+00 0. -1.
         -4    1    4    4    0  502 -0.40282137562E+03  0.13375009244E+03 -0.52230630608E+03  0.67302156374E+03  0.00000000000E+00 0. -1.
<mgrwt>
<rscale>  2 0.13480635E+04</rscale>
<asrwt>0</asrwt>
<pdfrwt beam="1">  1       21 0.17367486E+00 0.13759004E+04</pdfrwt>
<pdfrwt beam="2">  1       21 0.23917192E+00 0.13759004E+04</pdfrwt>
<totfact> 0.53326249E+00</totfact>
</mgrwt>
</event>
<event>
 8    1  0.1094795E-005  0.1128555E+04  0.7818608E-02  0.8666474E-01
         21   -1    0    0  501  502  0.00000000000E+00  0.00000000000E+00  0.18143871559E+04  0.18143871559E+04  0.00000000000E+00 0.  1.
         21   -1    0    0  502  503 -0.00000000000E+00 -0.00000000000E+00 -0.75897889419E+03  0.75897889419E+03  0.00000000000E+00 0.  1.
   -9000010    2    1    2    0  503  0.19133999492E+03  0.45323155476E+03  0.14305701732E+03  0.11375856274E+04  0.10156800252E+04 0.  0.
    9000010    2    1    2  501    0 -0.19133999492E+03 -0.45323155476E+03  0.91235124441E+03  0.14357804227E+04  0.99350429957E+03 0.  0.
        -13    1    4    4    0    0  0.28948898558E+01  0.30840000030E+03  0.36559772136E+03  0.47831019809E+03  0.10566000000E+00 0.  1.
          4    1    4    4  501    0 -0.19423488477E+03 -0.76163155505E+03  0.54675352305E+03  0.95747022465E+03  0.00000000000E+00 0.  1.
         13    1    3    3    0    0  0.27442814807E+03  0.18810695935E+03 -0.40439200585E+03  0.52366777843E+03  0.10566000000E+00 0. -1.
         -4    1    3    3    0  503 -0.83088153151E+02  0.26512459541E+03  0.54744902317E+03  0.61391784894E+03  0.00000000000E+00 0. -1.
<mgrwt>
<rscale>  2 0.11235425E+04</rscale>
<asrwt>0</asrwt>
<pdfrwt beam="1">  1       21 0.27913648E+00 0.11285547E+04</pdfrwt>
<pdfrwt beam="2">  1       21 0.11676598E+00 0.11285547E+04</pdfrwt>
<totfact> 0.95727920E+00</totfact>
</mgrwt>
</event>
<event>
 8    1  0.1094795E-005  0.1163712E+04  0.7818608E-02  0.8640690E-01
         21   -1    0    0  501  502  0.00000000000E+00  0.00000000000E+00  0.22691370271E+04  0.22691370271E+04  0.00000000000E+00 0.  1.
         21   -1    0    0  502  503 -0.00000000000E+00 -0.00000000000E+00 -0.61570112322E+03  0.61570112322E+03  0.00000000000E+00 0.  1.
   -9000010    2    1    2    0  503 -0.33048044281E+03 -0.41857959415E+03  0.49333630511E+03  0.12639648434E+04  0.10343114694E+04 0.  0.
    9000010    2    1    2  501    0  0.33048044281E+03  0.41857959415E+03  0.11600995988E+04  0.16208733069E+04  0.99848535210E+03 0.  0.
        -13    1    4    4    0    0  0.32124273366E+03  0.33711249679E+02 -0.71227256071E+02  0.33076679920E+03  0.10566000000E+00 0.  1.
          4    1    4    4  501    0  0.92377091482E+01  0.38486834447E+03  0.12313268548E+04  0.12901065077E+04  0.00000000000E+00 0.  1.
         13    1    3    3    0    0 -0.36059997173E+03  0.28336544250E+03  0.23559439387E+03  0.51558999525E+03  0.10566000000E+00 0. -1.
         -4    1    3    3    0  503  0.30119528920E+02 -0.70194503665E+03  0.25774191124E+03  0.74837484813E+03  0.00000000000E+00 0. -1.
<mgrwt>
<rscale>  2 0.11556991E+04</rscale>
<asrwt>0</asrwt>
<pdfrwt beam="1">  1       21 0.34909800E+00 0.11637123E+04</pdfrwt>
<pdfrwt beam="2">  1       21 0.94723251E-01 0.11637123E+04</pdfrwt>
<totfact> 0.53319766E+00</totfact>
</mgrwt>
</event>
<event>
 8    1  0.1094795E-005  0.1013383E+04  0.7818608E-02  0.8769414E-01
         21   -1    0    0  503  502  0.00000000000E+00  0.00000000000E+00  0.21078683280E+04  0.21078683280E+04  0.00000000000E+00 0.  1.
         21   -1    0    0  501  503 -0.00000000000E+00 -0.00000000000E+00 -0.47550276558E+03  0.47550276558E+03  0.00000000000E+00 0.  1.
    9000010    2    1    2  501    0  0.18995224457E+03 -0.12654940286E+03  0.72416683435E+03  0.12455367350E+04  0.98734368266E+03 0.  0.
   -9000010    2    1    2    0  502 -0.18995224457E+03  0.12654940286E+03  0.90819872811E+03  0.13378343586E+04  0.95544713867E+03 0.  0.
        -13    1    3    3    0    0 -0.38615741302E+03 -0.19495462154E+03  0.28737977593E+03  0.51933803911E+03  0.10566000000E+00 0.  1.
          4    1    3    3  501    0  0.57610965759E+03  0.68405218683E+02  0.43678705841E+03  0.72619869589E+03  0.00000000000E+00 0.  1.
         13    1    4    4    0    0 -0.55343446865E+03 -0.73232085762E+02  0.61067260687E+03  0.82738968656E+03  0.10566000000E+00 0. -1.
         -4    1    4    4    0  502  0.36348222408E+03  0.19978148862E+03  0.29752612124E+03  0.51044467206E+03  0.00000000000E+00 0. -1.
<mgrwt>
<rscale>  2 0.10055290E+04</rscale>
<asrwt>0</asrwt>
<pdfrwt beam="1">  1       21 0.32428743E+00 0.10133825E+04</pdfrwt>
<pdfrwt beam="2">  1       21 0.73154273E-01 0.10133825E+04</pdfrwt>
<totfact> 0.15643644E+01</totfact>
</mgrwt>
</event>
<event>
 8    1  0.1094795E-005  0.1299805E+04  0.7818608E-02  0.8535601E-01
         21   -1    0    0  503  502  0.00000000000E+00  0.00000000000E+00  0.64299157038E+03  0.64299157038E+03  0.00000000000E+00 0. -1.
         21   -1    0    0  501  503 -0.00000000000E+00 -0.00000000000E+00 -0.26689827822E+04  0.26689827822E+04  0.00000000000E+00 0. -1.
    9000010    2    1    2  501    0  0.24377524208E+03 -0.80860186676E+03 -0.79036708751E+03  0.15212410838E+04  0.98804400427E+03 0.  0.
   -9000010    2    1    2    0  502 -0.24377524208E+03  0.80860186676E+03 -0.12356241243E+04  0.17907332688E+04  0.98320664960E+03 0.  0.
        -13    1    3    3    0    0  0.18059610466E+03 -0.62940367771E+03  0.52803396938E+02  0.65692629147E+03  0.10566000000E+00 0.  1.
          4    1    3    3  501    0  0.63179137428E+02 -0.17919818906E+03 -0.84317048445E+03  0.86431479232E+03  0.00000000000E+00 0.  1.
         13    1    4    4    0    0 -0.32585216012E+03  0.52092854306E+03 -0.13397858739E+04  0.14739648491E+04  0.10566000000E+00 0. -1.
         -4    1    4    4    0  502  0.82076918037E+02  0.28767332370E+03  0.10416174961E+03  0.31676841971E+03  0.00000000000E+00 0. -1.
<mgrwt>
<rscale>  2 0.12988862E+04</rscale>
<asrwt>0</asrwt>
<pdfrwt beam="1">  1       21 0.98921782E-01 0.12998055E+04</pdfrwt>
<pdfrwt beam="2">  1       21 0.41061273E+00 0.12998055E+04</pdfrwt>
<totfact> 0.17255158E+00</totfact>
</mgrwt>
</event>
<event>
 8    1  0.1094795E-005  0.1365539E+04  0.7818608E-02  0.8491518E-01
         21   -1    0    0  503  502  0.00000000000E+00  0.00000000000E+00  0.19261061327E+04  0.19261061327E+04  0.00000000000E+00 0.  1.
         21   -1    0    0  501  503 -0.00000000000E+00 -0.00000000000E+00 -0.96885308214E+03  0.96885308214E+03  0.00000000000E+00 0.  1.
    9000010    2    1    2  501    0  0.14895591212E+03 -0.92622291659E+03  0.53483373039E+03  0.14655767743E+04  0.99085387791E+03 0.  0.
   -9000010    2    1    2    0  502 -0.14895591212E+03  0.92622291659E+03  0.42241932016E+03  0.14293824405E+04  0.99227986181E+03 0.  0.
        -13    1    3    3    0    0  0.92974887353E+02  0.20718538732E+03  0.12377134064E+03  0.25862998729E+03  0.10566000000E+00 0.  1.
          4    1    3    3  501    0  0.55981024765E+02 -0.11334083039E+04  0.41106238975E+03  0.12069467871E+04  0.00000000000E+00 0.  1.
         13    1    4    4    0    0 -0.69264994017E+02  0.10524933057E+04  0.82353375855E+02  0.10579800979E+04  0.10566000000E+00 0. -1.
         -4    1    4    4    0  502 -0.79690918100E+02 -0.12627038910E+03  0.34006594430E+03  0.37140234257E+03  0.00000000000E+00 0. -1.
<mgrwt>
<rscale>  2 0.13652797E+04</rscale>
<asrwt>0</asrwt>
<pdfrwt beam="1">  1       21 0.29632402E+00 0.13655388E+04</pdfrwt>
<pdfrwt beam="2">  1       21 0.14905432E+00 0.13655388E+04</pdfrwt>
<totfact> 0.33775096E+00</totfact>
</mgrwt>
</event>
<event>
 8    1  0.1094795E-005  0.1099277E+04  0.7818608E-02  0.8690224E-01
         21   -1    0    0  503  502  0.00000000000E+00  0.00000000000E+00  0.19764123487E+04  0.19764123487E+04  0.00000000000E+00 0. -1.
         21   -1    0    0  501  503 -0.00000000000E+00 -0.00000000000E+00 -0.64437243703E+03  0.64437243703E+03  0.00000000000E+00 0. -1.
    9000010    2    1    2  501    0  0.36944487992E+03  0.19733276885E+03  0.32396006057E+03  0.11292639385E+04  0.99742527588E+03 0.  0.
   -9000010    2    1    2    0  502 -0.36944487992E+03 -0.19733276885E+03  0.10080798511E+04  0.14915208472E+04  0.10163560944E+04 0.  0.
        -13    1    3    3    0    0  0.53292722055E+03  0.31786109222E+03 -0.12815868016E+03  0.63361798808E+03  0.10566000000E+00 0.  1.
          4    1    3    3  501    0 -0.16348234063E+03 -0.12052832338E+03  0.45211874073E+03  0.49564595041E+03  0.00000000000E+00 0.  1.
         13    1    4    4    0    0 -0.71195550207E+03 -0.22433598297E+03  0.77699667343E+03  0.10774651326E+04  0.10566000000E+00 0. -1.
         -4    1    4    4    0  502  0.34251062215E+03  0.27003214125E+02  0.23108317763E+03  0.41405571466E+03  0.00000000000E+00 0. -1.
<mgrwt>
<rscale>  2 0.10948808E+04</rscale>
<asrwt>0</asrwt>
<pdfrwt beam="1">  1       21 0.30406343E+00 0.10992768E+04</pdfrwt>
<pdfrwt beam="2">  1       21 0.99134222E-01 0.10992768E+04</pdfrwt>
<totfact> 0.99606338E+00</totfact>
</mgrwt>
</event>
<event>
 8    1  0.1094795E-005  0.1185216E+04  0.7818608E-02  0.8623641E-01
         21   -1    0    0  503  502  0.00000000000E+00  0.00000000000E+00  0.17085447609E+04  0.17085447609E+04  0.00000000000E+00 0. -1.
         21   -1    0    0  501  503 -0.00000000000E+00 -0.00000000000E+00 -0.83613469997E+03  0.83613469997E+03  0.00000000000E+00 0. -1.
    9000010    2    1    2  501    0  0.10576504671E+03  0.60276126250E+03  0.70118548272E+03  0.13770972973E+04  0.10150017243E+04 0.  0.
   -9000010    2    1    2    0  502 -0.10576504671E+03 -0.60276126250E+03  0.17122457826E+03  0.11675821637E+04  0.97950133641E+03 0.  0.
        -13    1    3    3    0    0  0.41735205865E+03  0.31046460768E+03  0.78502625242E+03  0.94172036276E+03  0.10566000000E+00 0.  1.
          4    1    3    3  501    0 -0.31158701194E+03  0.29229665482E+03 -0.83840769699E+02  0.43537693450E+03  0.00000000000E+00 0.  1.
         13    1    4    4    0    0 -0.59023220999E+02  0.27076425453E+03  0.77774308767E+02  0.28782959615E+03  0.10566000000E+00 0. -1.
         -4    1    4    4    0  502 -0.46741825710E+02 -0.87352551704E+03  0.93450269490E+02  0.87975256752E+03  0.00000000000E+00 0. -1.
<mgrwt>
<rscale>  2 0.11775779E+04</rscale>
<asrwt>0</asrwt>
<pdfrwt beam="1">  1       21 0.26285304E+00 0.11852155E+04</pdfrwt>
<pdfrwt beam="2">  1       21 0.12863611E+00 0.11852155E+04</pdfrwt>
<totfact> 0.94129434E+00</totfact>
</mgrwt>
</event>
<event>
 8    1  0.1094795E-005  0.1311738E+04  0.7818608E-02  0.8529440E-01
         21   -1    0    0  501  502  0.00000000000E+00  0.00000000000E+00  0.10195067323E+04  0.10195067323E+04  0.00000000000E+00 0. -1.
         21   -1    0    0  502  503 -0.00000000000E+00 -0.00000000000E+00 -0.16997263037E+04  0.16997263037E+04  0.00000000000E+00 0. -1.
   -9000010    2    1    2    0  503 -0.24911809136E+03  0.86112707528E+03 -0.15708299377E+03  0.13211100826E+04  0.95763099374E+03 0.  0.
    9000010    2    1    2  501    0  0.24911809136E+03 -0.86112707528E+03 -0.52313657764E+03  0.13981229534E+04  0.93673702326E+03 0.  0.
        -13    1    4    4    0    0 -0.28679195080E+03 -0.12892422472E+03  0.59196419071E+02  0.31996141323E+03  0.10566000000E+00 0.  1.
          4    1    4    4  501    0  0.53591004216E+03 -0.73220285056E+03 -0.58233299671E+03  0.10781615402E+04  0.00000000000E+00 0.  1.
         13    1    3    3    0    0 -0.32960587829E+03  0.90155929945E+03 -0.41658631184E+03  0.10464193097E+04  0.10566000000E+00 0. -1.
         -4    1    3    3    0  503  0.80487786928E+02 -0.40432224172E+02  0.25950331807E+03  0.27469077284E+03  0.00000000000E+00 0. -1.
<mgrwt>
<rscale>  2 0.13079278E+04</rscale>
<asrwt>0</asrwt>
<pdfrwt beam="1">  1       21 0.15684719E+00 0.13117381E+04</pdfrwt>
<pdfrwt beam="2">  1       21 0.26149635E+00 0.13117381E+04</pdfrwt>
<totfact> 0.51630419E+00</totfact>
</mgrwt>
</event>
<event>
 8    1  0.1094795E-005  0.1191355E+04  0.7818608E-02  0.8616983E-01
         21   -1    0    0  501  502  0.00000000000E+00  0.00000000000E+00  0.90574571660E+03  0.90574571660E+03  0.00000000000E+00 0.  1.
         21   -1    0    0  502  503 -0.00000000000E+00 -0.00000000000E+00 -0.16184168520E+04  0.16184168520E+04  0.00000000000E+00 0.  1.
   -9000010    2    1    2    0  503  0.65086769412E+03  0.10815429012E+02 -0.82322015261E+02  0.11941961961E+04  0.99778851063E+03 0.  0.
    9000010    2    1    2  501    0 -0.65086769412E+03 -0.10815429012E+02 -0.63034912016E+03  0.13299663725E+04  0.97351158691E+03 0.  0.
        -13    1    4    4    0    0  0.21773024591E+03 -0.72472140165E+02 -0.34360418519E+03  0.41318581574E+03  0.10566000000E+00 0.  1.
          4    1    4    4  501    0 -0.86859794003E+03  0.61656711154E+02 -0.28674493497E+03  0.91678055673E+03  0.00000000000E+00 0.  1.
         13    1    3    3    0    0  0.34538531634E+03 -0.35420506789E+03  0.30443806045E+03  0.58089137597E+03  0.10566000000E+00 0. -1.
         -4    1    3    3    0  503  0.30548237778E+03  0.36502049690E+03 -0.38676007571E+03  0.61330482018E+03  0.00000000000E+00 0. -1.
<mgrwt>
<rscale>  2 0.11862584E+04</rscale>
<asrwt>0</asrwt>
<pdfrwt beam="1">  1       21 0.13934550E+00 0.11913554E+04</pdfrwt>
<pdfrwt beam="2">  1       21 0.24898721E+00 0.11913554E+04</pdfrwt>
<totfact> 0.93720628E+00</totfact>
</mgrwt>
</event>
<event>
 8    1  0.1094795E-005  0.1053835E+04  0.7818608E-02  0.8728726E-01
         21   -1    0    0  503  502  0.00000000000E+00  0.00000000000E+00  0.11177110552E+04  0.11177110552E+04  0.00000000000E+00 0.  1.
         21   -1    0    0  501  503 -0.00000000000E+00 -0.00000000000E+00 -0.99474505966E+03  0.99474505966E+03  0.00000000000E+00 0.  1.
    9000010    2    1    2  501    0 -0.17518150985E+03  0.25446161849E+03  0.18900484277E+03  0.10706498137E+04  0.10075360621E+04 0.  0.
   -9000010    2    1    2    0  502  0.17518150985E+03 -0.25446161849E+03 -0.66038847271E+02  0.10418063011E+04  0.99275372725E+03 0.  0.
        -13    1    3    3    0    0 -0.36777388920E+02 -0.38939321737E+03  0.11650135766E+03  0.40810811260E+03  0.10566000000E+00 0.  1.
          4    1    3    3  501    0 -0.13840412093E+03  0.64385483586E+03  0.72503485105E+02  0.66254170111E+03  0.00000000000E+00 0.  1.
         13    1    4    4    0    0  0.48421196702E+03 -0.40685822829E+03  0.12957354929E+03  0.64558823005E+03  0.10566000000E+00 0. -1.
         -4    1    4    4    0  502 -0.30903045717E+03  0.15239660980E+03 -0.19561239656E+03  0.39621807105E+03  0.00000000000E+00 0. -1.
<mgrwt>
<rscale>  2 0.10502861E+04</rscale>
<asrwt>0</asrwt>
<pdfrwt beam="1">  1       21 0.17195555E+00 0.10538350E+04</pdfrwt>
<pdfrwt beam="2">  1       21 0.15303770E+00 0.10538350E+04</pdfrwt>
<totfact> 0.28499755E+01</totfact>
</mgrwt>
</event>
<event>
 8    1  0.1094795E-005  0.1157878E+04  0.7818608E-02  0.8650027E-01
         21   -1    0    0  503  502  0.00000000000E+00  0.00000000000E+00  0.20215252091E+04  0.20215252091E+04  0.00000000000E+00 0. -1.
         21   -1    0    0  501  503 -0.00000000000E+00 -0.00000000000E+00 -0.63219247671E+03  0.63219247671E+03  0.00000000000E+00 0. -1.
    9000010    2    1    2  501    0 -0.51230307817E+03  0.23257076664E+03  0.68276942046E+03  0.12972834280E+04  0.94880272224E+03 0.  0.
   -9000010    2    1    2    0  502  0.51230307817E+03 -0.23257076664E+03  0.70656331190E+03  0.13564342577E+04  0.10119973204E+04 0.  0.
        -13    1    3    3    0    0 -0.55074572534E+03 -0.25283265304E+03  0.29065645182E+03  0.67210593553E+03  0.10566000000E+00 0.  1.
          4    1    3    3  501    0  0.38442647161E+02  0.48540341969E+03  0.39211296864E+03  0.62517749251E+03  0.00000000000E+00 0.  1.
         13    1    4    4    0    0 -0.18420160361E+03 -0.39635768910E+03  0.20576862277E+03  0.48308424292E+03  0.10566000000E+00 0. -1.
         -4    1    4    4    0  502  0.69650468178E+03  0.16378692245E+03  0.50079468913E+03  0.87335001481E+03  0.00000000000E+00 0. -1.
<mgrwt>
<rscale>  2 0.11439269E+04</rscale>
<asrwt>0</asrwt>
<pdfrwt beam="1">  1       21 0.31100388E+00 0.11578783E+04</pdfrwt>
<pdfrwt beam="2">  1       21 0.97260382E-01 0.11578783E+04</pdfrwt>
<totfact> 0.92355081E+00</totfact>
</mgrwt>
</event>
<event>
 8    1  0.1094795E-005  0.1085779E+04  0.7818608E-02  0.8700620E-01
         21   -1    0    0  503  502  0.00000000000E+00  0.00000000000E+00  0.75442974721E+03  0.75442974721E+03  0.00000000000E+00 0.  1.
         21   -1    0    0  501  503 -0.00000000000E+00 -0.00000000000E+00 -0.21125535577E+04  0.21125535577E+04  0.00000000000E+00 0.  1.
    9000010    2    1    2  501    0  0.32515239757E+03  0.24431435874E+03 -0.14194427898E+04  0.17794737516E+04  0.99312406642E+03 0.  0.
   -9000010    2    1    2    0  502 -0.32515239757E+03 -0.24431435874E+03  0.61318979309E+02  0.10875095534E+04  0.10067290718E+04 0.  0.
        -13    1    3    3    0    0 -0.19631588069E+03 -0.10634748703E+03  0.41978928488E+01  0.22330997845E+03  0.10566000000E+00 0.  1.
          4    1    3    3  501    0  0.52146827826E+03  0.35066184577E+03 -0.14236406827E+04  0.15561637731E+04  0.00000000000E+00 0.  1.
         13    1    4    4    0    0 -0.24757988788E+03 -0.60259530351E+03  0.22061274731E+03  0.68781312588E+03  0.10566000000E+00 0. -1.
         -4    1    4    4    0  502 -0.77572509687E+02  0.35828094477E+03 -0.15929376800E+03  0.39969642751E+03  0.00000000000E+00 0. -1.
<mgrwt>
<rscale>  2 0.10826150E+04</rscale>
<asrwt>0</asrwt>
<pdfrwt beam="1">  1       21 0.11606612E+00 0.10857794E+04</pdfrwt>
<pdfrwt beam="2">  1       21 0.32500824E+00 0.10857794E+04</pdfrwt>
<totfact> 0.46571087E+00</totfact>
</mgrwt>
</event>
<event>
 8    1  0.1094795E-005  0.1052958E+04  0.7818608E-02  0.8754239E-01
         21   -1    0    0  503  502  0.00000000000E+00  0.00000000000E+00  0.67404606851E+03  0.67404606851E+03  0.00000000000E+00 0. -1.
         21   -1    0    0  501  503 -0.00000000000E+00 -0.00000000000E+00 -0.14734145151E+04  0.14734145151E+04  0.00000000000E+00 0. -1.
    9000010    2    1    2  501    0  0.85859579985E+02 -0.26418632740E+03 -0.34105808987E+03  0.11068162463E+04  0.10156551085E+04 0.  0.
   -9000010    2    1    2    0  502 -0.85859579985E+02  0.26418632740E+03 -0.45831035669E+03  0.10406443373E+04  0.89203473620E+03 0.  0.
        -13    1    3    3    0    0 -0.27871652534E+03 -0.52785844519E+03 -0.25311250820E+03  0.64836979620E+03  0.10566000000E+00 0.  1.
          4    1    3    3  501    0  0.36457610532E+03  0.26367211779E+03 -0.87945581670E+02  0.45844645010E+03  0.00000000000E+00 0.  1.
         13    1    4    4    0    0 -0.12773952934E+03  0.59055298746E+03 -0.31995764000E+03  0.68369812119E+03  0.10566000000E+00 0. -1.
         -4    1    4    4    0  502  0.41879949356E+02 -0.32636666006E+03 -0.13835271669E+03  0.35694621608E+03  0.00000000000E+00 0. -1.
<mgrwt>
<rscale>  2 0.10219473E+04</rscale>
<asrwt>0</asrwt>
<pdfrwt beam="1">  1       21 0.10369940E+00 0.10529585E+04</pdfrwt>
<pdfrwt beam="2">  1       21 0.22667915E+00 0.10529585E+04</pdfrwt>
<totfact> 0.32311429E+01</totfact>
</mgrwt>
</event>
<event>
 8    1  0.1094795E-005  0.1418502E+04  0.7818608E-02  0.8487661E-01
         21   -1    0    0  501  502  0.00000000000E+00  0.00000000000E+00  0.14655238191E+04  0.14655238191E+04  0.00000000000E+00 0.  1.
         21   -1    0    0  502  503 -0.00000000000E+00 -0.00000000000E+00 -0.13290057729E+04  0.13290057729E+04  0.00000000000E+00 0.  1.
   -9000010    2    1    2    0  503 -0.71799598491E+03  0.14962676250E+03 -0.35417128407E+03  0.14620479962E+04  0.12141831173E+04 0.  0.
    9000010    2    1    2  501    0  0.71799598491E+03 -0.14962676250E+03  0.49068933025E+03  0.13324815958E+04  0.99841112866E+03 0.  0.
        -13    1    4    4    0    0  0.67309842767E+03 -0.38643924760E+03  0.67536018998E+03  0.10288382685E+04  0.10566000000E+00 0.  1.
          4    1    4    4  501    0  0.44897557249E+02  0.23681248510E+03 -0.18467085973E+03  0.30364332724E+03  0.00000000000E+00 0.  1.
         13    1    3    3    0    0  0.20827578702E+03 -0.91549543542E+01 -0.47095693476E+03  0.51503695227E+03  0.10566000000E+00 0. -1.
         -4    1    3    3    0  503 -0.92627177193E+03  0.15878171685E+03  0.11678565068E+03  0.94701104391E+03  0.00000000000E+00 0. -1.
<mgrwt>
<rscale>  2 0.13712809E+04</rscale>
<asrwt>0</asrwt>
<pdfrwt beam="1">  1       21 0.22546520E+00 0.14185017E+04</pdfrwt>
<pdfrwt beam="2">  1       21 0.20446243E+00 0.14185017E+04</pdfrwt>
<totfact> 0.37859012E+00</totfact>
</mgrwt>
</event>
<event>
 8    1  0.1094795E-005  0.1051869E+04  0.7818608E-02  0.8727886E-01
         21   -1    0    0  501  502  0.00000000000E+00  0.00000000000E+00  0.27158195668E+04  0.27158195668E+04  0.00000000000E+00 0. -1.
         21   -1    0    0  502  503 -0.00000000000E+00 -0.00000000000E+00 -0.41492224846E+03  0.41492224846E+03  0.00000000000E+00 0. -1.
   -9000010    2    1    2    0  503  0.16384364951E+03 -0.29857387548E+03  0.92773754449E+03  0.14025421617E+04  0.99520674406E+03 0.  0.
    9000010    2    1    2  501    0 -0.16384364951E+03  0.29857387548E+03  0.13731597738E+04  0.17281996535E+04  0.99252968584E+03 0.  0.
        -13    1    4    4    0    0 -0.50972033202E+02 -0.24713986999E+03  0.10586506196E+04  0.10883094271E+04  0.10566000000E+00 0.  1.
          4    1    4    4  501    0 -0.11287161630E+03  0.54571374546E+03  0.31450915419E+03  0.63989022639E+03  0.00000000000E+00 0.  1.
         13    1    3    3    0    0  0.18274282557E+03  0.19799849934E+03 -0.78197569834E+02  0.28055875878E+03  0.10566000000E+00 0. -1.
         -4    1    3    3    0  503 -0.18899176060E+02 -0.49657237482E+03  0.10059351143E+04  0.11219834030E+04  0.00000000000E+00 0. -1.
<mgrwt>
<rscale>  2 0.10512349E+04</rscale>
<asrwt>0</asrwt>
<pdfrwt beam="1">  1       21 0.41781838E+00 0.10518686E+04</pdfrwt>
<pdfrwt beam="2">  1       21 0.63834194E-01 0.10518686E+04</pdfrwt>
<totfact> 0.47495359E+00</totfact>
</mgrwt>
</event>
<event>
 8    1  0.1094795E-005  0.1298231E+04  0.7818608E-02  0.8541520E-01
         21   -1    0    0  501  502  0.00000000000E+00  0.00000000000E+00  0.11611628485E+04  0.11611628485E+04  0.00000000000E+00 0. -1.
         21   -1    0    0  502  503 -0.00000000000E+00 -0.00000000000E+00 -0.15971175708E+04  0.15971175708E+04  0.00000000000E+00 0. -1.
   -9000010    2    1    2    0  503 -0.55822106796E+03 -0.61751307016E+03 -0.68422275797E+03  0.14675031667E+04  0.99622869322E+03 0.  0.
    9000010    2    1    2  501    0  0.55822106796E+03  0.61751307016E+03  0.24826803562E+03  0.12907772526E+04  0.95474381162E+03 0.  0.
        -13    1    4    4    0    0 -0.36956379094E+02 -0.83197315916E+02  0.35384716120E+03  0.36537021223E+03  0.10566000000E+00 0.  1.
          4    1    4    4  501    0  0.59517744705E+03  0.70071038608E+03 -0.10557912558E+03  0.92540704039E+03  0.00000000000E+00 0.  1.
         13    1    3    3    0    0 -0.37252098212E+03 -0.77438653943E+03 -0.82107809672E+03  0.11885350843E+04  0.10566000000E+00 0. -1.
         -4    1    3    3    0  503 -0.18570008584E+03  0.15687346926E+03  0.13685533876E+03  0.27896808238E+03  0.00000000000E+00 0. -1.
<mgrwt>
<rscale>  2 0.12902697E+04</rscale>
<asrwt>0</asrwt>
<pdfrwt beam="1">  1       21 0.17864044E+00 0.12982314E+04</pdfrwt>
<pdfrwt beam="2">  1       21 0.24571039E+00 0.12982314E+04</pdfrwt>
<totfact> 0.44072613E+00</totfact>
</mgrwt>
</event>
<event>
 8    1  0.1094795E-005  0.1035340E+04  0.7818608E-02  0.8745832E-01
         21   -1    0    0  501  502  0.00000000000E+00  0.00000000000E+00  0.83775923196E+03  0.83775923196E+03  0.00000000000E+00 0. -1.
         21   -1    0    0  502  503 -0.00000000000E+00 -0.00000000000E+00 -0.16186889138E+04  0.16186889138E+04  0.00000000000E+00 0. -1.
   -9000010    2    1    2    0  503 -0.77706060692E+02 -0.26750924400E+03 -0.97173203774E+03  0.14199271118E+04  0.99716118161E+03 0.  0.
    9000010    2    1    2  501    0  0.77706060692E+02  0.26750924400E+03  0.19080235586E+03  0.10365210340E+04  0.97998514656E+03 0.  0.
        -13    1    4    4    0    0 -0.38647608446E+03  0.32320769302E+03 -0.57634726182E+02  0.50709836277E+03  0.10566000000E+00 0.  1.
          4    1    4    4  501    0  0.46418214516E+03 -0.55698449025E+02  0.24843708205E+03  0.52942267126E+03  0.00000000000E+00 0.  1.
         13    1    3    3    0    0 -0.12500227676E+03 -0.65055881731E+02 -0.11423297115E+04  0.11509887132E+04  0.10566000000E+00 0. -1.
         -4    1    3    3    0  503  0.47296216072E+02 -0.20245336227E+03  0.17059767376E+03  0.26893839860E+03  0.00000000000E+00 0. -1.
<mgrwt>
<rscale>  2 0.10311824E+04</rscale>
<asrwt>0</asrwt>
<pdfrwt beam="1">  1       21 0.12888604E+00 0.10353405E+04</pdfrwt>
<pdfrwt beam="2">  1       21 0.24902906E+00 0.10353405E+04</pdfrwt>
<totfact> 0.12183606E+01</totfact>
</mgrwt>
</event>
<event>
 8    1  0.1094795E-005  0.1032619E+04  0.7818608E-02  0.8749092E-01
         21   -1    0    0  503  502  0.00000000000E+00  0.00000000000E+00  0.35319989494E+03  0.35319989494E+03  0.00000000000E+00 0.  1.
         21   -1    0    0  501  503 -0.00000000000E+00 -0.00000000000E+00 -0.29725241911E+04  0.29725241911E+04  0.00000000000E+00 0.  1.
    9000010    2    1    2  501    0  0.14445114769E+03  0.38485843143E+02 -0.11928381731E+04  0.15647119279E+04  0.10015553983E+04 0.  0.
   -9000010    2    1    2    0  502 -0.14445114769E+03 -0.38485843143E+02 -0.14264861231E+04  0.17610121582E+04  0.10217406068E+04 0.  0.
        -13    1    3    3    0    0  0.32676913742E+03 -0.16284970255E+03 -0.25278168042E+02  0.36597416812E+03  0.10566000000E+00 0.  1.
          4    1    3    3  501    0 -0.18231798972E+03  0.20133554570E+03 -0.11675600050E+04  0.11987377598E+04  0.00000000000E+00 0.  1.
         13    1    4    4    0    0  0.58304133123E+01  0.25299814450E+03 -0.14101324897E+04  0.14326603591E+04  0.10566000000E+00 0. -1.
         -4    1    4    4    0  502 -0.15028156101E+03 -0.29148398764E+03 -0.16353633404E+02  0.32835179907E+03  0.00000000000E+00 0. -1.
<mgrwt>
<rscale>  2 0.10275899E+04</rscale>
<asrwt>0</asrwt>
<pdfrwt beam="1">  1       21 0.54338446E-01 0.10326186E+04</pdfrwt>
<pdfrwt beam="2">  1       21 0.45731141E+00 0.10326186E+04</pdfrwt>
<totfact> 0.36708540E+00</totfact>
</mgrwt>
</event>
<event>
 8    1  0.1094795E-005  0.1261613E+04  0.7818608E-02  0.8562534E-01
         21   -1    0    0  501  502  0.00000000000E+00  0.00000000000E+00  0.10924522397E+04  0.10924522397E+04  0.00000000000E+00 0. -1.
         21   -1    0    0  502  503 -0.00000000000E+00 -0.00000000000E+00 -0.15673452182E+04  0.15673452182E+04  0.00000000000E+00 0. -1.
   -9000010    2    1    2    0  503  0.62266728965E+03 -0.21450694441E+03  0.12500158469E+03  0.12677901574E+04  0.10760756034E+04 0.  0.
    9000010    2    1    2  501    0 -0.62266728965E+03  0.21450694441E+03 -0.59989456318E+03  0.13920073006E+04  0.10696181819E+04 0.  0.
        -13    1    4    4    0    0 -0.14970995168E+03  0.18783907400E+03  0.29442428712E+03  0.37997665634E+03  0.10566000000E+00 0.  1.
          4    1    4    4  501    0 -0.47295733797E+03  0.26667870411E+02 -0.89431885030E+03  0.10120306442E+04  0.00000000000E+00 0.  1.
         13    1    3    3    0    0  0.67025652843E+03 -0.21957890352E+03 -0.35208882510E+03  0.78830530931E+03  0.10566000000E+00 0. -1.
         -4    1    3    3    0  503 -0.47589238777E+02  0.50719591117E+01  0.47709040979E+03  0.47948484808E+03  0.00000000000E+00 0. -1.
<mgrwt>
<rscale>  2 0.12602346E+04</rscale>
<asrwt>0</asrwt>
<pdfrwt beam="1">  1       21 0.16806958E+00 0.12616127E+04</pdfrwt>
<pdfrwt beam="2">  1       21 0.24113003E+00 0.12616127E+04</pdfrwt>
<totfact> 0.58760989E+00</totfact>
</mgrwt>
</event>
<event>
 8    1  0.1094795E-005  0.1200217E+04  0.7818608E-02  0.8615350E-01
         21   -1    0    0  501  502  0.00000000000E+00  0.00000000000E+00  0.70687477739E+03  0.70687477739E+03  0.00000000000E+00 0.  1.
         21   -1    0    0  502  503 -0.00000000000E+00 -0.00000000000E+00 -0.19599143608E+04  0.19599143608E+04  0.00000000000E+00 0.  1.
   -9000010    2    1    2    0  503 -0.27194338695E+02 -0.60674930510E+03 -0.59596790468E+03  0.12984821703E+04  0.98081290361E+03 0.  0.
    9000010    2    1    2  501    0  0.27194338695E+02  0.60674930510E+03 -0.65707167868E+03  0.13683069678E+04  0.10351987809E+04 0.  0.
        -13    1    4    4    0    0  0.96773520551E+01  0.37282031310E+03 -0.93380487193E+03  0.10055248316E+04  0.10566000000E+00 0.  1.
          4    1    4    4  501    0  0.17516986640E+02  0.23392899200E+03  0.27673319325E+03  0.36278213623E+03  0.00000000000E+00 0.  1.
         13    1    3    3    0    0 -0.84389341847E+01 -0.46996770695E+03 -0.87156614857E+03  0.99023654936E+03  0.10566000000E+00 0. -1.
         -4    1    3    3    0  503 -0.18755404511E+02 -0.13678159815E+03  0.27559824389E+03  0.30824562094E+03  0.00000000000E+00 0. -1.
<mgrwt>
<rscale>  2 0.11883985E+04</rscale>
<asrwt>0</asrwt>
<pdfrwt beam="1">  1       21 0.10874997E+00 0.12002170E+04</pdfrwt>
<pdfrwt beam="2">  1       21 0.30152528E+00 0.12002170E+04</pdfrwt>
<totfact> 0.79469891E+00</totfact>
</mgrwt>
</event>
<event>
 8    1  0.1094795E-005  0.1443792E+04  0.7818608E-02  0.8443154E-01
         21   -1    0    0  501  502  0.00000000000E+00  0.00000000000E+00  0.17939979604E+04  0.17939979604E+04  0.00000000000E+00 0.  1.
         21   -1    0    0  502  503 -0.00000000000E+00 -0.00000000000E+00 -0.12976170608E+04  0.12976170608E+04  0.00000000000E+00 0. -1.
   -9000010    2    1    2    0  503  0.98823297810E+03  0.30932357332E+03  0.75314019156E+03  0.16251702519E+04  0.10008360043E+04 0.  0.
    9000010    2    1    2  501    0 -0.98823297810E+03 -0.30932357332E+03 -0.25675929202E+03  0.14664447693E+04  0.10061060756E+04 0.  0.
        -13    1    4    4    0    0 -0.61050790402E+03 -0.50197553912E+03 -0.53936686014E+03  0.95687823871E+03  0.10566000000E+00 0.  1.
          4    1    4    4  501    0 -0.37772507408E+03  0.19265196579E+03  0.28260756812E+03  0.50956653057E+03  0.00000000000E+00 0.  1.
         13    1    3    3    0    0  0.11933400543E+04  0.30606469264E+03  0.60758479621E+03  0.13736431040E+04  0.10566000000E+00 0. -1.
         -4    1    3    3    0  503 -0.20510707623E+03  0.32588806874E+01  0.14555539535E+03  0.25152714791E+03  0.00000000000E+00 0. -1.
<mgrwt>
<rscale>  2 0.14428741E+04</rscale>
<asrwt>0</asrwt>
<pdfrwt beam="1">  1       21 0.27599969E+00 0.14437919E+04</pdfrwt>
<pdfrwt beam="2">  1       21 0.19963339E+00 0.14437919E+04</pdfrwt>
<totfact> 0.17552511E+00</totfact>
</mgrwt>
</event>
<event>
 8    1  0.1094795E-005  0.1108568E+04  0.7818608E-02  0.8681014E-01
         21   -1    0    0  501  502  0.00000000000E+00  0.00000000000E+00  0.83423636764E+03  0.83423636764E+03  0.00000000000E+00 0.  1.
         21   -1    0    0  502  503 -0.00000000000E+00 -0.00000000000E+00 -0.14622399405E+04  0.14622399405E+04  0.00000000000E+00 0.  1.
   -9000010    2    1    2    0  503 -0.19639815099E+03  0.38526471918E+03 -0.36997386647E+03  0.11686756838E+04  0.10207453426E+04 0.  0.
    9000010    2    1    2  501    0  0.19639815099E+03 -0.38526471918E+03 -0.25802970637E+03  0.11278006243E+04  0.10091351650E+04 0.  0.
        -13    1    4    4    0    0 -0.24824033077E+03  0.17438545513E+02  0.24178991742E+03  0.34697224676E+03  0.10566000000E+00 0.  1.
          4    1    4    4  501    0  0.44463848176E+03 -0.40270326470E+03 -0.49981962379E+03  0.78082837755E+03  0.00000000000E+00 0.  1.
         13    1    3    3    0    0 -0.83279801620E+02 -0.14231491370E+03  0.27937528144E+03  0.32440656446E+03  0.10566000000E+00 0. -1.
         -4    1    3    3    0  503 -0.11311834937E+03  0.52757963289E+03 -0.64934914791E+03  0.84426911935E+03  0.00000000000E+00 0. -1.
<mgrwt>
<rscale>  2 0.11058877E+04</rscale>
<asrwt>0</asrwt>
<pdfrwt beam="1">  1       21 0.12834406E+00 0.11085676E+04</pdfrwt>
<pdfrwt beam="2">  1       21 0.22495999E+00 0.11085676E+04</pdfrwt>
<totfact> 0.18257686E+01</totfact>
</mgrwt>
</event>
<event>
 8    1  0.1094795E-005  0.1333801E+04  0.7818608E-02  0.8518499E-01
         21   -1    0    0  503  502  0.00000000000E+00  0.00000000000E+00  0.10393643133E+04  0.10393643133E+04  0.00000000000E+00 0.  1.
         21   -1    0    0  501  503 -0.00000000000E+00 -0.00000000000E+00 -0.16800235858E+04  0.16800235858E+04  0.00000000000E+00 0. -1.
    9000010    2    1    2  501    0  0.84440979725E+03 -0.16942558569E+03 -0.46138789271E+03  0.14113479810E+04  0.10184750371E+04 0.  0.
   -9000010    2    1    2    0  502 -0.84440979725E+03  0.16942558569E+03 -0.17927137983E+03  0.13080399181E+04  0.96803784272E+03 0.  0.
        -13    1    3    3    0    0  0.46040784804E+02 -0.46858727096E+03 -0.80999037053E+02  0.47776002296E+03  0.10566000000E+00 0.  1.
          4    1    3    3  501    0  0.79836901245E+03  0.29916168527E+03 -0.38038885565E+03  0.93358795808E+03  0.00000000000E+00 0.  1.
         13    1    4    4    0    0 -0.75303777047E+03  0.13192135363E+03  0.29809196572E+03  0.82056563326E+03  0.10566000000E+00 0. -1.
         -4    1    4    4    0  502 -0.91372026780E+02  0.37504232058E+02 -0.47736334555E+03  0.48747428484E+03  0.00000000000E+00 0. -1.
<mgrwt>
<rscale>  2 0.13241709E+04</rscale>
<asrwt>0</asrwt>
<pdfrwt beam="1">  1       21 0.15990220E+00 0.13338007E+04</pdfrwt>
<pdfrwt beam="2">  1       21 0.25846517E+00 0.13338007E+04</pdfrwt>
<totfact> 0.50863069E+00</totfact>
</mgrwt>
</event>
<event>
 8    1  0.1094795E-005  0.1119920E+04  0.7818608E-02  0.8691857E-01
         21   -1    0    0  503  502  0.00000000000E+00  0.00000000000E+00  0.84711096227E+03  0.84711096227E+03  0.00000000000E+00 0.  1.
         21   -1    0    0  501  503 -0.00000000000E+00 -0.00000000000E+00 -0.16317873951E+04  0.16317873951E+04  0.00000000000E+00 0.  1.
    9000010    2    1    2  501    0  0.35268724532E+03  0.21522215927E+03  0.10990818956E+03  0.11253000960E+04  0.10409186448E+04 0.  0.
   -9000010    2    1    2    0  502 -0.35268724532E+03 -0.21522215927E+03 -0.89458462240E+03  0.13535982614E+04  0.92802895203E+03 0.  0.
        -13    1    3    3    0    0 -0.16194206268E+03  0.38175446463E+03  0.34121127454E+03  0.53701661796E+03  0.10566000000E+00 0.  1.
          4    1    3    3  501    0  0.51462930800E+03 -0.16653230536E+03 -0.23130308499E+03  0.58828347801E+03  0.00000000000E+00 0.  1.
         13    1    4    4    0    0  0.21451166839E+02  0.31768782059E+03 -0.49833317764E+03  0.59137270060E+03  0.10566000000E+00 0. -1.
         -4    1    4    4    0  502 -0.37413841216E+03 -0.53290997986E+03 -0.39625144476E+03  0.76222556081E+03  0.00000000000E+00 0. -1.
<mgrwt>
<rscale>  2 0.10929426E+04</rscale>
<asrwt>0</asrwt>
<pdfrwt beam="1">  1       21 0.13032476E+00 0.11199199E+04</pdfrwt>
<pdfrwt beam="2">  1       21 0.25104421E+00 0.11199199E+04</pdfrwt>
<totfact> 0.11191330E+01</totfact>
</mgrwt>
</event>
<event>
 8    1  0.1094795E-005  0.1017648E+04  0.7818608E-02  0.8758435E-01
         21   -1    0    0  503  502  0.00000000000E+00  0.00000000000E+00  0.20179513152E+04  0.20179513152E+04  0.00000000000E+00 0.  1.
         21   -1    0    0  501  503 -0.00000000000E+00 -0.00000000000E+00 -0.52679019543E+03  0.52679019543E+03  0.00000000000E+00 0.  1.
    9000010    2    1    2  501    0  0.11922175907E+03  0.18431528826E+03  0.95443736805E+03  0.13951911235E+04  0.99369091181E+03 0.  0.
   -9000010    2    1    2    0  502 -0.11922175907E+03 -0.18431528826E+03  0.53672375173E+03  0.11495503872E+04  0.99257632130E+03 0.  0.
        -13    1    3    3    0    0  0.23565475979E+03  0.28260468773E+03 -0.56988248205E+02  0.37235231561E+03  0.10566000000E+00 0.  1.
          4    1    3    3  501    0 -0.11643300072E+03 -0.98289399464E+02  0.10114256163E+04  0.10228388079E+04  0.00000000000E+00 0.  1.
         13    1    4    4    0    0  0.10488767057E+03 -0.29443328739E+03 -0.20039765323E+03  0.37128373887E+03  0.10566000000E+00 0. -1.
         -4    1    4    4    0  502 -0.22410942965E+03  0.11011799913E+03  0.73712140496E+03  0.77826664829E+03  0.00000000000E+00 0. -1.
<mgrwt>
<rscale>  2 0.10173759E+04</rscale>
<asrwt>0</asrwt>
<pdfrwt beam="1">  1       21 0.31045404E+00 0.10176481E+04</pdfrwt>
<pdfrwt beam="2">  1       21 0.81044647E-01 0.10176481E+04</pdfrwt>
<totfact> 0.15262998E+01</totfact>
</mgrwt>
</event>
<event>
 8    1  0.1094795E-005  0.1496217E+04  0.7818608E-02  0.8418038E-01
         21   -1    0    0  503  502  0.00000000000E+00  0.00000000000E+00  0.17954249680E+04  0.17954249680E+04  0.00000000000E+00 0.  1.
         21   -1    0    0  501  503 -0.00000000000E+00 -0.00000000000E+00 -0.12650315841E+04  0.12650315841E+04  0.00000000000E+00 0.  1.
    9000010    2    1    2  501    0 -0.10190227697E+03  0.10474630905E+04 -0.54818638101E+02  0.14538646020E+04  0.10015758572E+04 0.  0.
   -9000010    2    1    2    0  502  0.10190227697E+03 -0.10474630905E+04  0.58521202201E+03  0.16065919502E+04  0.10635325964E+04 0.  0.
        -13    1    3    3    0    0 -0.53185626779E+03  0.37930071343E+03 -0.84919136749E+02  0.65874987039E+03  0.10566000000E+00 0.  1.
          4    1    3    3  501    0  0.42995399082E+03  0.66816237710E+03  0.30100498648E+02  0.79511473160E+03  0.00000000000E+00 0.  1.
         13    1    4    4    0    0 -0.32925756111E+03 -0.16309768635E+03 -0.13051483600E+03  0.38993016095E+03  0.10566000000E+00 0. -1.
         -4    1    4    4    0  502  0.43115983808E+03 -0.88436540417E+03  0.71572685801E+03  0.12166617892E+04  0.00000000000E+00 0. -1.
<mgrwt>
<rscale>  2 0.14852503E+04</rscale>
<asrwt>0</asrwt>
<pdfrwt beam="1">  1       21 0.27621923E+00 0.14962168E+04</pdfrwt>
<pdfrwt beam="2">  1       21 0.19462024E+00 0.14962168E+04</pdfrwt>
<totfact> 0.18979697E+00</totfact>
</mgrwt>
</event>
<event>
 8    1  0.1094795E-005  0.1379031E+04  0.7818608E-02  0.8484367E-01
         21   -1    0    0  503  502  0.00000000000E+00  0.00000000000E+00  0.11515162608E+04  0.11515162608E+04  0.00000000000E+00 0. -1.
         21   -1    0    0  501  503 -0.00000000000E+00 -0.00000000000E+00 -0.16518931988E+04  0.16518931988E+04  0.00000000000E+00 0. -1.
    9000010    2    1    2  501    0 -0.64807476184E+03  0.69669609207E+03 -0.37258161546E+03  0.14184692462E+04  0.98379449103E+03 0.  0.
   -9000010    2    1    2    0  502  0.64807476184E+03 -0.69669609207E+03 -0.12779532251E+03  0.13849402135E+04  0.99816902818E+03 0.  0.
        -13    1    3    3    0    0 -0.18257936509E+03 -0.15589240280E+03 -0.37714069855E+03  0.44707134048E+03  0.10566000000E+00 0.  1.
          4    1    3    3  501    0 -0.46549539675E+03  0.85258849487E+03  0.45590830959E+01  0.97139790571E+03  0.00000000000E+00 0.  1.
         13    1    4    4    0    0  0.22096183204E+03  0.14718936616E+03  0.25168728648E+03  0.36583512963E+03  0.10566000000E+00 0. -1.
         -4    1    4    4    0  502  0.42711292979E+03 -0.84388545822E+03 -0.37948260899E+03  0.10191050838E+04  0.00000000000E+00 0. -1.
<mgrwt>
<rscale>  2 0.13764320E+04</rscale>
<asrwt>0</asrwt>
<pdfrwt beam="1">  1       21 0.17715635E+00 0.13790315E+04</pdfrwt>
<pdfrwt beam="2">  1       21 0.25413741E+00 0.13790315E+04</pdfrwt>
<totfact> 0.38740804E+00</totfact>
</mgrwt>
</event>
<event>
 8    1  0.1094795E-005  0.1359927E+04  0.7818608E-02  0.8498152E-01
         21   -1    0    0  501  502  0.00000000000E+00  0.00000000000E+00  0.15369775150E+04  0.15369775150E+04  0.00000000000E+00 0. -1.
         21   -1    0    0  502  503 -0.00000000000E+00 -0.00000000000E+00 -0.11861227570E+04  0.11861227570E+04  0.00000000000E+00 0.  1.
   -9000010    2    1    2    0  503  0.84182254773E+03  0.37571668349E+03  0.16877247989E+03  0.13510381039E+04  0.97313492391E+03 0.  0.
    9000010    2    1    2  501    0 -0.84182254773E+03 -0.37571668349E+03  0.18208227814E+03  0.13720621681E+04  0.99978618171E+03 0.  0.
        -13    1    4    4    0    0 -0.33271631127E+03  0.22668015091E+03  0.38564685123E+03  0.55750115662E+03  0.10566000000E+00 0.  1.
          4    1    4    4  501    0 -0.50910623646E+03 -0.60239683440E+03 -0.20356457309E+03  0.81456101153E+03  0.00000000000E+00 0.  1.
         13    1    3    3    0    0  0.74642229448E+03  0.67446665315E+03  0.22888397818E+03  0.10317167220E+04  0.10566000000E+00 0. -1.
         -4    1    3    3    0  503  0.95400253241E+02 -0.29874996966E+03 -0.60111498290E+02  0.31932138187E+03  0.00000000000E+00 0. -1.
<mgrwt>
<rscale>  2 0.13550324E+04</rscale>
<asrwt>0</asrwt>
<pdfrwt beam="1">  1       21 0.23645808E+00 0.13599267E+04</pdfrwt>
<pdfrwt beam="2">  1       21 0.18248042E+00 0.13599267E+04</pdfrwt>
<totfact> 0.47393326E+00</totfact>
</mgrwt>
</event>
<event>
 8    1  0.1094795E-005  0.1055548E+04  0.7818608E-02  0.8724297E-01
         21   -1    0    0  503  502  0.00000000000E+00  0.00000000000E+00  0.34465132711E+03  0.34465132711E+03  0.00000000000E+00 0.  1.
         21   -1    0    0  501  503 -0.00000000000E+00 -0.00000000000E+00 -0.32302625603E+04  0.32302625603E+04  0.00000000000E+00 0.  1.
    9000010    2    1    2  501    0  0.19668489754E+03  0.28170961158E+03 -0.14199227067E+04  0.17686953263E+04  0.99702427764E+03 0.  0.
   -9000010    2    1    2    0  502 -0.19668489754E+03 -0.28170961158E+03 -0.14656885265E+04  0.18062185611E+04  0.99806682118E+03 0.  0.
        -13    1    3    3    0    0 -0.37432430165E+03 -0.52601105417E+02 -0.66428096409E+03  0.76430018286E+03  0.10566000000E+00 0.  1.
          4    1    3    3  501    0  0.57100919919E+03  0.33431071700E+03 -0.75564174263E+03  0.10043951435E+04  0.00000000000E+00 0.  1.
         13    1    4    4    0    0  0.72445102574E+01 -0.54991651930E+03 -0.37748936704E+03  0.66705239263E+03  0.10566000000E+00 0. -1.
         -4    1    4    4    0  502 -0.20392940780E+03  0.26820690771E+03 -0.10881991595E+04  0.11391661685E+04  0.00000000000E+00 0. -1.
<mgrwt>
<rscale>  2 0.10553020E+04</rscale>
<asrwt>0</asrwt>
<pdfrwt beam="1">  1       21 0.53023277E-01 0.10555485E+04</pdfrwt>
<pdfrwt beam="2">  1       21 0.49696351E+00 0.10555485E+04</pdfrwt>
<totfact> 0.20460238E+00</totfact>
</mgrwt>
</event>
<event>
 8    1  0.1094795E-005  0.1096935E+04  0.7818608E-02  0.8695577E-01
         21   -1    0    0  503  502  0.00000000000E+00  0.00000000000E+00  0.20070741829E+04  0.20070741829E+04  0.00000000000E+00 0. -1.
         21   -1    0    0  501  503 -0.00000000000E+00 -0.00000000000E+00 -0.58566101979E+03  0.58566101979E+03  0.00000000000E+00 0. -1.
    9000010    2    1    2  501    0 -0.91820510673E+02 -0.38702139999E+03  0.61248882829E+03  0.12563475275E+04  0.10222768583E+04 0.  0.
   -9000010    2    1    2    0  502  0.91820510673E+02  0.38702139999E+03  0.80892433478E+03  0.13363876751E+04  0.98658850014E+03 0.  0.
        -13    1    3    3    0    0 -0.31261194519E+03  0.23686202137E+03  0.40259318005E+03  0.56205971679E+03  0.10566000000E+00 0.  1.
          4    1    3    3  501    0  0.22079143452E+03 -0.62388342136E+03  0.20989564824E+03  0.69428781075E+03  0.00000000000E+00 0.  1.
         13    1    4    4    0    0  0.33923281964E+03  0.43956963060E+03  0.90835306795E+03  0.10646152701E+04  0.10566000000E+00 0. -1.
         -4    1    4    4    0  502 -0.24741230896E+03 -0.52548230616E+02 -0.99428733166E+02  0.27177240505E+03  0.00000000000E+00 0. -1.
<mgrwt>
<rscale>  2 0.10885441E+04</rscale>
<asrwt>0</asrwt>
<pdfrwt beam="1">  1       21 0.30878064E+00 0.10969351E+04</pdfrwt>
<pdfrwt beam="2">  1       21 0.90101696E-01 0.10969351E+04</pdfrwt>
<totfact> 0.11796537E+01</totfact>
</mgrwt>
</event>
<event>
 8    1  0.1094795E-005  0.1092507E+04  0.7818608E-02  0.8710656E-01
         21   -1    0    0  501  502  0.00000000000E+00  0.00000000000E+00  0.17746846690E+04  0.17746846690E+04  0.00000000000E+00 0. -1.
         21   -1    0    0  502  503 -0.00000000000E+00 -0.00000000000E+00 -0.62678886211E+03  0.62678886211E+03  0.00000000000E+00 0. -1.
   -9000010    2    1    2    0  503 -0.24103656468E+03 -0.31190509341E+03  0.49149382095E+03  0.11979727380E+04  0.10189156453E+04 0.  0.
    9000010    2    1    2  501    0  0.24103656468E+03  0.31190509341E+03  0.65640198590E+03  0.12035007931E+04  0.92852957899E+03 0.  0.
        -13    1    4    4    0    0 -0.31530174675E+03  0.15581197381E+03  0.48820935014E+03  0.60169838243E+03  0.10566000000E+00 0.  1.
          4    1    4    4  501    0  0.55633831143E+03  0.15609311960E+03  0.16819263576E+03  0.60180241066E+03  0.00000000000E+00 0.  1.
         13    1    3    3    0    0 -0.34306681227E+03 -0.50900521417E+03 -0.46912872541E+02  0.61561511881E+03  0.10566000000E+00 0. -1.
         -4    1    3    3    0  503  0.10203024760E+03  0.19710012076E+03  0.53840669350E+03  0.58235761919E+03  0.00000000000E+00 0. -1.
<mgrwt>
<rscale>  2 0.10709342E+04</rscale>
<asrwt>0</asrwt>
<pdfrwt beam="1">  1       21 0.27302841E+00 0.10925074E+04</pdfrwt>
<pdfrwt beam="2">  1       21 0.96429057E-01 0.10925074E+04</pdfrwt>
<totfact> 0.17804627E+01</totfact>
</mgrwt>
</event>
<event>
 8    1  0.1094795E-005  0.1082110E+04  0.7818608E-02  0.8706175E-01
         21   -1    0    0  503  502  0.00000000000E+00  0.00000000000E+00  0.11123418526E+04  0.11123418526E+04  0.00000000000E+00 0. -1.
         21   -1    0    0  501  503 -0.00000000000E+00 -0.00000000000E+00 -0.10323187387E+04  0.10323187387E+04  0.00000000000E+00 0. -1.
    9000010    2    1    2  501    0  0.36161873691E+03  0.11513575647E+03  0.93036908074E+02  0.10624723360E+04  0.98801176366E+03 0.  0.
   -9000010    2    1    2    0  502 -0.36161873691E+03 -0.11513575647E+03 -0.13013794185E+02  0.10821882553E+04  0.10133793503E+04 0.  0.
        -13    1    3    3    0    0 -0.33113080760E+03  0.11777718186E+02 -0.80285991390E+02  0.34092840593E+03  0.10566000000E+00 0.  1.
          4    1    3    3  501    0  0.69274954452E+03  0.10335803829E+03  0.17332289946E+03  0.72154393004E+03  0.00000000000E+00 0.  1.
         13    1    4    4    0    0  0.19254551704E+02 -0.27771381190E+03  0.40651481133E+03  0.49269666335E+03  0.10566000000E+00 0. -1.
         -4    1    4    4    0  502 -0.38087328862E+03  0.16257805543E+03 -0.41952860552E+03  0.58949159191E+03  0.00000000000E+00 0. -1.
<mgrwt>
<rscale>  2 0.10761309E+04</rscale>
<asrwt>0</asrwt>
<pdfrwt beam="1">  1       21 0.17112952E+00 0.10821100E+04</pdfrwt>
<pdfrwt beam="2">  1       21 0.15881827E+00 0.10821100E+04</pdfrwt>
<totfact> 0.25617973E+01</totfact>
</mgrwt>
</event>
<event>
 8    1  0.1094795E-005  0.1178651E+04  0.7818608E-02  0.8625538E-01
         21   -1    0    0  503  502  0.00000000000E+00  0.00000000000E+00  0.90173321776E+03  0.90173321776E+03  0.00000000000E+00 0. -1.
         21   -1    0    0  501  503 -0.00000000000E+00 -0.00000000000E+00 -0.15461285205E+04  0.15461285205E+04  0.00000000000E+00 0. -1.
    9000010    2    1    2  501    0  0.61989169611E+03 -0.67576783788E+01 -0.47611883808E+03  0.12711832958E+04  0.10024502194E+04 0.  0.
   -9000010    2    1    2    0  502 -0.61989169611E+03  0.67576783788E+01 -0.16827646462E+03  0.11766784424E+04  0.98587210491E+03 0.  0.
        -13    1    3    3    0    0  0.14346838695E+03 -0.47848668242E+03 -0.27990727520E+03  0.57260874704E+03  0.10566000000E+00 0.  1.
          4    1    3    3  501    0  0.47642330915E+03  0.47172900404E+03 -0.19621156288E+03  0.69857454875E+03  0.00000000000E+00 0.  1.
         13    1    4    4    0    0 -0.29817693630E+03  0.46163787164E+03  0.99536079332E+02  0.55850376196E+03  0.10566000000E+00 0. -1.
         -4    1    4    4    0  502 -0.32171475980E+03 -0.45488019326E+03 -0.26781254395E+03  0.61817468048E+03  0.00000000000E+00 0. -1.
<mgrwt>
<rscale>  2 0.11751182E+04</rscale>
<asrwt>0</asrwt>
<pdfrwt beam="1">  1       21 0.13872819E+00 0.11786508E+04</pdfrwt>
<pdfrwt beam="2">  1       21 0.23786592E+00 0.11786508E+04</pdfrwt>
<totfact> 0.11488798E+01</totfact>
</mgrwt>
</event>
<event>
 8    1  0.1094795E-005  0.1112448E+04  0.7818608E-02  0.8683548E-01
         21   -1    0    0  503  502  0.00000000000E+00  0.00000000000E+00  0.17159062466E+04  0.17159062466E+04  0.00000000000E+00 0. -1.
         21   -1    0    0  501  503 -0.00000000000E+00 -0.00000000000E+00 -0.70686509247E+03  0.70686509247E+03  0.00000000000E+00 0. -1.
    9000010    2    1    2  501    0 -0.27980003113E+03  0.36947922529E+03  0.64010078691E+03  0.12507397056E+04  0.96944202430E+03 0.  0.
   -9000010    2    1    2    0  502  0.27980003113E+03 -0.36947922529E+03  0.36894036728E+03  0.11720316335E+04  0.10113051962E+04 0.  0.
        -13    1    3    3    0    0  0.62881117911E+02  0.39018270756E+03  0.78440082235E+03  0.87834004891E+03  0.10566000000E+00 0.  1.
          4    1    3    3  501    0 -0.34268114905E+03 -0.20703482272E+02 -0.14430003544E+03  0.37239965671E+03  0.00000000000E+00 0.  1.
         13    1    4    4    0    0  0.66515505302E+02 -0.33255654455E+03  0.69922820489E+03  0.77713464821E+03  0.10566000000E+00 0. -1.
         -4    1    4    4    0  502  0.21328452583E+03 -0.36922680741E+02 -0.33028783761E+03  0.39489698528E+03  0.00000000000E+00 0. -1.
<mgrwt>
<rscale>  2 0.11028458E+04</rscale>
<asrwt>0</asrwt>
<pdfrwt beam="1">  1       21 0.26398558E+00 0.11124483E+04</pdfrwt>
<pdfrwt beam="2">  1       21 0.10874848E+00 0.11124483E+04</pdfrwt>
<totfact> 0.14984935E+01</totfact>
</mgrwt>
</event>
<event>
 8    1  0.1094795E-005  0.1024720E+04  0.7818608E-02  0.8753802E-01
         21   -1    0    0  501  502  0.00000000000E+00  0.00000000000E+00  0.17128553191E+04  0.17128553191E+04  0.00000000000E+00 0.  1.
         21   -1    0    0  502  503 -0.00000000000E+00 -0.00000000000E+00 -0.62300674034E+03  0.62300674034E+03  0.00000000000E+00 0.  1.
   -9000010    2    1    2    0  503 -0.22615768429E+03  0.26672452168E+02  0.36353482589E+03  0.10872939066E+04  0.99909546681E+03 0.  0.
    9000010    2    1    2  501    0  0.22615768429E+03 -0.26672452168E+02  0.72631375282E+03  0.12485681528E+04  0.98971311339E+03 0.  0.
        -13    1    4    4    0    0  0.21319602462E+03  0.73645186572E+02  0.96411468278E+03  0.99014811575E+03  0.10566000000E+00 0.  1.
          4    1    4    4  501    0  0.12961659675E+02 -0.10031763874E+03 -0.23780092996E+03  0.25842003706E+03  0.00000000000E+00 0.  1.
         13    1    3    3    0    0 -0.37713495569E+03  0.69359511955E+02 -0.24752708812E+03  0.45641120409E+03  0.10566000000E+00 0. -1.
         -4    1    3    3    0  503  0.15097727140E+03 -0.42687059787E+02  0.61106191401E+03  0.63088270250E+03  0.00000000000E+00 0. -1.
<mgrwt>
<rscale>  2 0.10224256E+04</rscale>
<asrwt>0</asrwt>
<pdfrwt beam="1">  1       21 0.26351620E+00 0.10247197E+04</pdfrwt>
<pdfrwt beam="2">  1       21 0.95847192E-01 0.10247197E+04</pdfrwt>
<totfact> 0.21477488E+01</totfact>
</mgrwt>
</event>
<event>
 8    1  0.1094795E-005  0.1127188E+04  0.7818608E-02  0.8670575E-01
         21   -1    0    0  503  502  0.00000000000E+00  0.00000000000E+00  0.19270614565E+04  0.19270614565E+04  0.00000000000E+00 0.  1.
         21   -1    0    0  501  503 -0.00000000000E+00 -0.00000000000E+00 -0.65425760289E+03  0.65425760289E+03  0.00000000000E+00 0.  1.
    9000010    2    1    2  501    0 -0.43566148961E+03 -0.94667188872E+02  0.45181176608E+03  0.12143670311E+04  0.10352732026E+04 0.  0.
   -9000010    2    1    2    0  502  0.43566148961E+03  0.94667188872E+02  0.82099208755E+03  0.13669520283E+04  0.99788127032E+03 0.  0.
        -13    1    3    3    0    0 -0.49934513881E+02  0.45362363777E+03  0.16627321345E+03  0.48571046220E+03  0.10566000000E+00 0.  1.
          4    1    3    3  501    0 -0.38572697573E+03 -0.54829082664E+03  0.28553855263E+03  0.72865656891E+03  0.00000000000E+00 0.  1.
         13    1    4    4    0    0  0.62649388409E+03  0.24276763978E+03  0.89055149778E+03  0.11155772923E+04  0.10566000000E+00 0. -1.
         -4    1    4    4    0  502 -0.19083239448E+03 -0.14810045091E+03 -0.69559410231E+02  0.25137473599E+03  0.00000000000E+00 0. -1.
<mgrwt>
<rscale>  2 0.11185283E+04</rscale>
<asrwt>0</asrwt>
<pdfrwt beam="1">  1       21 0.29647099E+00 0.11271883E+04</pdfrwt>
<pdfrwt beam="2">  1       21 0.10065502E+00 0.11271883E+04</pdfrwt>
<totfact> 0.10767341E+01</totfact>
</mgrwt>
</event>
<event>
 8    1  0.1094795E-005  0.1047125E+04  0.7818608E-02  0.8744937E-01
         21   -1    0    0  503  502  0.00000000000E+00  0.00000000000E+00  0.10352249750E+04  0.10352249750E+04  0.00000000000E+00 0. -1.
         21   -1    0    0  501  503 -0.00000000000E+00 -0.00000000000E+00 -0.10162567310E+04  0.10162567310E+04  0.00000000000E+00 0. -1.
    9000010    2    1    2  501    0  0.27220925445E+03 -0.40205741316E+02 -0.11734221150E+03  0.99552166056E+03  0.94951556185E+03 0.  0.
   -9000010    2    1    2    0  502 -0.27220925445E+03  0.40205741316E+02  0.13631045553E+03  0.10559600454E+04  0.10103250454E+04 0.  0.
        -13    1    3    3    0    0  0.23433924237E+03 -0.47100699360E+03 -0.18527963109E+03  0.55775534188E+03  0.10566000000E+00 0.  1.
          4    1    3    3  501    0  0.37870012081E+02  0.43080125228E+03  0.67937419592E+02  0.43776631867E+03  0.00000000000E+00 0.  1.
         13    1    4    4    0    0  0.10431921983E+03 -0.42452558970E+03  0.13605853410E+03  0.45783884917E+03  0.10566000000E+00 0. -1.
         -4    1    4    4    0  502 -0.37652847428E+03  0.46473133102E+03  0.25192142808E+00  0.59812119628E+03  0.00000000000E+00 0. -1.
<mgrwt>
<rscale>  2 0.10321721E+04</rscale>
<asrwt>0</asrwt>
<pdfrwt beam="1">  1       21 0.15926538E+00 0.10471251E+04</pdfrwt>
<pdfrwt beam="2">  1       21 0.15634719E+00 0.10471251E+04</pdfrwt>
<totfact> 0.34213800E+01</totfact>
</mgrwt>
</event>
<event>
 8    1  0.1094795E-005  0.1465803E+04  0.7818608E-02  0.8438702E-01
         21   -1    0    0  501  502  0.00000000000E+00  0.00000000000E+00  0.13518804937E+04  0.13518804937E+04  0.00000000000E+00 0. -1.
         21   -1    0    0  502  503 -0.00000000000E+00 -0.00000000000E+00 -0.20511724716E+04  0.20511724716E+04  0.00000000000E+00 0.  1.
   -9000010    2    1    2    0  503 -0.77983122756E+03 -0.61417607943E+03 -0.12067833022E+04  0.18518838408E+04  0.99388068763E+03 0.  0.
    9000010    2    1    2  501    0  0.77983122756E+03  0.61417607943E+03  0.50749132432E+03  0.15511691245E+04  0.10785310420E+04 0.  0.
        -13    1    4    4    0    0  0.17505919683E+03  0.71653433573E+03  0.57339764739E+03  0.93426551358E+03  0.10566000000E+00 0.  1.
          4    1    4    4  501    0  0.60477203072E+03 -0.10235825629E+03 -0.65906323064E+02  0.61690361094E+03  0.00000000000E+00 0.  1.
         13    1    3    3    0    0 -0.15412695760E+03 -0.17908049246E+03 -0.10468364059E+04  0.10731688654E+04  0.10566000000E+00 0. -1.
         -4    1    3    3    0  503 -0.62570426996E+03 -0.43509558697E+03 -0.15994689633E+03  0.77871497539E+03  0.00000000000E+00 0. -1.
<mgrwt>
<rscale>  2 0.14502793E+04</rscale>
<asrwt>0</asrwt>
<pdfrwt beam="1">  1       21 0.20798162E+00 0.14658029E+04</pdfrwt>
<pdfrwt beam="2">  1       21 0.31556499E+00 0.14658029E+04</pdfrwt>
<totfact> 0.78820606E-01</totfact>
</mgrwt>
</event>
<event>
 8    1  0.1094795E-005  0.1730227E+04  0.7818608E-02  0.8288515E-01
         21   -1    0    0  503  502  0.00000000000E+00  0.00000000000E+00  0.24158370310E+04  0.24158370310E+04  0.00000000000E+00 0. -1.
         21   -1    0    0  501  503 -0.00000000000E+00 -0.00000000000E+00 -0.12982200904E+04  0.12982200904E+04  0.00000000000E+00 0.  1.
    9000010    2    1    2  501    0  0.32783002175E+02 -0.14168967740E+04  0.96299184494E+03  0.19769345544E+04  0.98602522567E+03 0.  0.
   -9000010    2    1    2    0  502 -0.32783002175E+02  0.14168967740E+04  0.15462509566E+03  0.17371225670E+04  0.99247906739E+03 0.  0.
        -13    1    3    3    0    0 -0.21345312810E+03  0.57922329122E+02  0.56122276903E+02  0.22818184686E+03  0.10566000000E+00 0.  1.
          4    1    3    3  501    0  0.24623613027E+03 -0.14748191031E+04  0.90686956804E+03  0.17487527076E+04  0.00000000000E+00 0.  1.
         13    1    4    4    0    0 -0.17960344354E+02  0.13265425255E+04  0.47097873725E+03  0.14077850077E+04  0.10566000000E+00 0. -1.
         -4    1    4    4    0  502 -0.14822657821E+02  0.90354248525E+02 -0.31635364159E+03  0.32933755929E+03  0.00000000000E+00 0. -1.
<mgrwt>
<rscale>  2 0.17293029E+04</rscale>
<asrwt>0</asrwt>
<pdfrwt beam="1">  1       21 0.37166724E+00 0.17302271E+04</pdfrwt>
<pdfrwt beam="2">  1       21 0.19972617E+00 0.17302271E+04</pdfrwt>
<totfact> 0.35265372E-01</totfact>
</mgrwt>
</event>
<event>
 8    1  0.1094795E-005  0.1005698E+04  0.7818608E-02  0.8781314E-01
         21   -1    0    0  501  502  0.00000000000E+00  0.00000000000E+00  0.93871469078E+03  0.93871469078E+03  0.00000000000E+00 0. -1.
         21   -1    0    0  502  503 -0.00000000000E+00 -0.00000000000E+00 -0.10349234045E+04  0.10349234045E+04  0.00000000000E+00 0. -1.
   -9000010    2    1    2    0  503 -0.10679925877E+03  0.27689241414E+01  0.53408826467E+02  0.95687146832E+03  0.94938756866E+03 0.  0.
    9000010    2    1    2  501    0  0.10679925877E+03 -0.27689241414E+01 -0.14961754018E+03  0.10167666269E+04  0.10000076083E+04 0.  0.
        -13    1    4    4    0    0 -0.18300441800E+03 -0.26964189867E+03  0.28302700250E+03  0.43162676681E+03  0.10566000000E+00 0.  1.
          4    1    4    4  501    0  0.28980367677E+03  0.26687297453E+03 -0.43264454267E+03  0.58513986012E+03  0.00000000000E+00 0.  1.
         13    1    3    3    0    0 -0.29768817406E+03 -0.51110754013E+02  0.43337732057E+03  0.52824849389E+03  0.10566000000E+00 0. -1.
         -4    1    3    3    0  503  0.19088891528E+03  0.53879678154E+02 -0.37996849411E+03  0.42862297443E+03  0.00000000000E+00 0. -1.
<mgrwt>
<rscale>  2 0.99287547E+03</rscale>
<asrwt>0</asrwt>
<pdfrwt beam="1">  1       21 0.14441765E+00 0.10056982E+04</pdfrwt>
<pdfrwt beam="2">  1       21 0.15921898E+00 0.10056982E+04</pdfrwt>
<totfact> 0.44139419E+01</totfact>
</mgrwt>
</event>
<event>
 8    1  0.1094795E-005  0.1280807E+04  0.7818608E-02  0.8548640E-01
         21   -1    0    0  503  502  0.00000000000E+00  0.00000000000E+00  0.25893907030E+04  0.25893907030E+04  0.00000000000E+00 0.  1.
         21   -1    0    0  501  503 -0.00000000000E+00 -0.00000000000E+00 -0.74382267084E+03  0.74382267084E+03  0.00000000000E+00 0. -1.
    9000010    2    1    2  501    0 -0.60455460267E+03 -0.51731664142E+03  0.27541223191E+03  0.13069223772E+04  0.99954561054E+03 0.  0.
   -9000010    2    1    2    0  502  0.60455460267E+03  0.51731664142E+03  0.15701558003E+04  0.20262909966E+04  0.10036748431E+04 0.  0.
        -13    1    3    3    0    0  0.60288924640E+02 -0.50646257400E+03  0.37703847225E+03  0.63426896031E+03  0.10566000000E+00 0.  1.
          4    1    3    3  501    0 -0.66484352731E+03 -0.10854067427E+02 -0.10162624034E+03  0.67265341693E+03  0.00000000000E+00 0.  1.
         13    1    4    4    0    0  0.18973563555E+03 -0.28577555530E+03  0.65850014109E+03  0.74248887290E+03  0.10566000000E+00 0. -1.
         -4    1    4    4    0  502  0.41481896711E+03  0.80309219672E+03  0.91165565917E+03  0.12838021237E+04  0.00000000000E+00 0. -1.
<mgrwt>
<rscale>  2 0.12799977E+04</rscale>
<asrwt>0</asrwt>
<pdfrwt beam="1">  1       21 0.39836780E+00 0.12808068E+04</pdfrwt>
<pdfrwt beam="2">  1       21 0.11443426E+00 0.12808068E+04</pdfrwt>
<totfact> 0.14225603E+00</totfact>
</mgrwt>
</event>
<event>
 8    1  0.1094795E-005  0.1084147E+04  0.7818608E-02  0.8708909E-01
         21   -1    0    0  501  502  0.00000000000E+00  0.00000000000E+00  0.74756079488E+03  0.74756079488E+03  0.00000000000E+00 0.  1.
         21   -1    0    0  502  503 -0.00000000000E+00 -0.00000000000E+00 -0.15318770424E+04  0.15318770424E+04  0.00000000000E+00 0.  1.
   -9000010    2    1    2    0  503 -0.13038967678E+03 -0.32425365093E+03 -0.53939277933E+03  0.12109168669E+04  0.10262714993E+04 0.  0.
    9000010    2    1    2  501    0  0.13038967678E+03  0.32425365093E+03 -0.24492346822E+03  0.10685209704E+04  0.97959566194E+03 0.  0.
        -13    1    4    4    0    0 -0.81481045950E+02 -0.32536678692E+03 -0.18385697186E+03  0.38249980934E+03  0.10566000000E+00 0.  1.
          4    1    4    4  501    0  0.21187072273E+03  0.64962043784E+03 -0.61066496361E+02  0.68602116104E+03  0.00000000000E+00 0.  1.
         13    1    3    3    0    0  0.14744679560E+03 -0.22430701604E+03 -0.78324943618E+03  0.82796973702E+03  0.10566000000E+00 0. -1.
         -4    1    3    3    0  503 -0.27783647238E+03 -0.99946634890E+02  0.24385665686E+03  0.38294712991E+03  0.00000000000E+00 0. -1.
<mgrwt>
<rscale>  2 0.10729563E+04</rscale>
<asrwt>0</asrwt>
<pdfrwt beam="1">  1       21 0.11500935E+00 0.10841472E+04</pdfrwt>
<pdfrwt beam="2">  1       21 0.23567339E+00 0.10841472E+04</pdfrwt>
<totfact> 0.20802431E+01</totfact>
</mgrwt>
</event>
<event>
 8    1  0.1094795E-005  0.1309080E+04  0.7818608E-02  0.8533403E-01
         21   -1    0    0  503  502  0.00000000000E+00  0.00000000000E+00  0.16927343084E+04  0.16927343084E+04  0.00000000000E+00 0.  1.
         21   -1    0    0  501  503 -0.00000000000E+00 -0.00000000000E+00 -0.10269490050E+04  0.10269490050E+04  0.00000000000E+00 0. -1.
    9000010    2    1    2  501    0 -0.57865970654E+03 -0.56262056840E+03  0.82211953940E+02  0.13116585163E+04  0.10306795322E+04 0.  0.
   -9000010    2    1    2    0  502  0.57865970654E+03  0.56262056840E+03  0.58357334954E+03  0.14080247971E+04  0.99528237949E+03 0.  0.
        -13    1    3    3    0    0 -0.79091352098E+03 -0.55577150458E+03  0.29536153275E+03  0.10107742622E+04  0.10566000000E+00 0.  1.
          4    1    3    3  501    0  0.21225381445E+03 -0.68490638172E+01 -0.21314957881E+03  0.30088425411E+03  0.00000000000E+00 0.  1.
         13    1    4    4    0    0  0.27625952375E+03 -0.20576810078E+03  0.45753141205E+03  0.57270833759E+03  0.10566000000E+00 0. -1.
         -4    1    4    4    0  502  0.30240018279E+03  0.76838866918E+03  0.12604193748E+03  0.83531645948E+03  0.00000000000E+00 0. -1.
<mgrwt>
<rscale>  2 0.13021031E+04</rscale>
<asrwt>0</asrwt>
<pdfrwt beam="1">  1       21 0.26042066E+00 0.13090795E+04</pdfrwt>
<pdfrwt beam="2">  1       21 0.15799215E+00 0.13090795E+04</pdfrwt>
<totfact> 0.51392867E+00</totfact>
</mgrwt>
</event>
<event>
 8    1  0.1094795E-005  0.1531146E+04  0.7818608E-02  0.8396292E-01
         21   -1    0    0  501  502  0.00000000000E+00  0.00000000000E+00  0.15464050665E+04  0.15464050665E+04  0.00000000000E+00 0. -1.
         21   -1    0    0  502  503 -0.00000000000E+00 -0.00000000000E+00 -0.16344285186E+04  0.16344285186E+04  0.00000000000E+00 0.  1.
   -9000010    2    1    2    0  503  0.41181157489E+03 -0.10064457483E+04 -0.52556998818E+03  0.16188369028E+04  0.10779087568E+04 0.  0.
    9000010    2    1    2  501    0 -0.41181157489E+03  0.10064457483E+04  0.43754653607E+03  0.15619966823E+04  0.10324073066E+04 0.  0.
        -13    1    4    4    0    0 -0.14371564551E+02 -0.12572538268E+03 -0.17406978712E+03  0.21520621661E+03  0.10566000000E+00 0.  1.
          4    1    4    4  501    0 -0.39744001034E+03  0.11321711310E+04  0.61161632319E+03  0.13467904657E+04  0.00000000000E+00 0.  1.
         13    1    3    3    0    0  0.67441046591E+03 -0.94200404028E+03 -0.16816564787E+03  0.11706753541E+04  0.10566000000E+00 0. -1.
         -4    1    3    3    0  503 -0.26259889102E+03 -0.64441708049E+02 -0.35740434030E+03  0.44816154874E+03  0.00000000000E+00 0. -1.
<mgrwt>
<rscale>  2 0.15231631E+04</rscale>
<asrwt>0</asrwt>
<pdfrwt beam="1">  1       21 0.23790847E+00 0.15311463E+04</pdfrwt>
<pdfrwt beam="2">  1       21 0.25145054E+00 0.15311463E+04</pdfrwt>
<totfact> 0.13301345E+00</totfact>
</mgrwt>
</event>
<event>
 8    1  0.1094795E-005  0.1269170E+04  0.7818608E-02  0.8557013E-01
         21   -1    0    0  503  502  0.00000000000E+00  0.00000000000E+00  0.14887795088E+04  0.14887795088E+04  0.00000000000E+00 0. -1.
         21   -1    0    0  501  503 -0.00000000000E+00 -0.00000000000E+00 -0.13651776648E+04  0.13651776648E+04  0.00000000000E+00 0. -1.
    9000010    2    1    2  501    0 -0.72935887166E+03 -0.23698954529E+03 -0.59245768025E+03  0.14006419398E+04  0.10112681802E+04 0.  0.
   -9000010    2    1    2    0  502  0.72935887166E+03  0.23698954529E+03  0.71605952432E+03  0.14533152338E+04  0.10056120117E+04 0.  0.
        -13    1    3    3    0    0 -0.17593360778E+03  0.20899307486E+03 -0.63227353061E+03  0.68876742690E+03  0.10566000000E+00 0.  1.
          4    1    3    3  501    0 -0.55342526388E+03 -0.44598262015E+03  0.39815850356E+02  0.71187451290E+03  0.00000000000E+00 0.  1.
         13    1    4    4    0    0 -0.83845198111E+02 -0.14429580372E+03  0.50338171566E+03  0.53032486180E+03  0.10566000000E+00 0. -1.
         -4    1    4    4    0  502  0.81320406977E+03  0.38128534901E+03  0.21267780866E+03  0.92299037198E+03  0.00000000000E+00 0. -1.
<mgrwt>
<rscale>  2 0.12680427E+04</rscale>
<asrwt>0</asrwt>
<pdfrwt beam="1">  1       21 0.22904300E+00 0.12691697E+04</pdfrwt>
<pdfrwt beam="2">  1       21 0.21002733E+00 0.12691697E+04</pdfrwt>
<totfact> 0.33181087E+00</totfact>
</mgrwt>
</event>
<event>
 8    1  0.1094795E-005  0.1017697E+04  0.7818608E-02  0.8760525E-01
         21   -1    0    0  503  502  0.00000000000E+00  0.00000000000E+00  0.50832721653E+03  0.50832721653E+03  0.00000000000E+00 0.  1.
         21   -1    0    0  501  503 -0.00000000000E+00 -0.00000000000E+00 -0.20245643544E+04  0.20245643544E+04  0.00000000000E+00 0.  1.
    9000010    2    1    2  501    0  0.12956628876E+03 -0.13910273694E+03 -0.83232031029E+03  0.13067390324E+04  0.98927893201E+03 0.  0.
   -9000010    2    1    2    0  502 -0.12956628876E+03  0.13910273694E+03 -0.68391682756E+03  0.12261525385E+04  0.99978539000E+03 0.  0.
        -13    1    3    3    0    0 -0.26931892875E+03  0.48109343971E+02  0.87159681056E+02  0.28713065933E+03  0.10566000000E+00 0.  1.
          4    1    3    3  501    0  0.39888521751E+03 -0.18721208091E+03 -0.91947999135E+03  0.10196083731E+04  0.00000000000E+00 0.  1.
         13    1    4    4    0    0 -0.11880051091E+03 -0.38711587729E+03 -0.55011915424E+03  0.68308371293E+03  0.10566000000E+00 0. -1.
         -4    1    4    4    0  502 -0.10765777842E+02  0.52621861422E+03 -0.13379767332E+03  0.54306882558E+03  0.00000000000E+00 0. -1.
<mgrwt>
<rscale>  2 0.10151075E+04</rscale>
<asrwt>0</asrwt>
<pdfrwt beam="1">  1       21 0.78204188E-01 0.10176973E+04</pdfrwt>
<pdfrwt beam="2">  1       21 0.31147144E+00 0.10176973E+04</pdfrwt>
<totfact> 0.16378028E+01</totfact>
</mgrwt>
</event>
<event>
 8    1  0.1094795E-005  0.1000342E+04  0.7818608E-02  0.8789471E-01
         21   -1    0    0  503  502  0.00000000000E+00  0.00000000000E+00  0.15012759497E+04  0.15012759497E+04  0.00000000000E+00 0.  1.
         21   -1    0    0  501  503 -0.00000000000E+00 -0.00000000000E+00 -0.62550504331E+03  0.62550504331E+03  0.00000000000E+00 0.  1.
    9000010    2    1    2  501    0  0.86236976594E+01  0.14229333216E+03  0.44972044548E+03  0.10967830830E+04  0.99013276462E+03 0.  0.
   -9000010    2    1    2    0  502 -0.86236976594E+01 -0.14229333216E+03  0.42605046090E+03  0.10299979100E+04  0.92685216663E+03 0.  0.
        -13    1    3    3    0    0 -0.13659455926E+03  0.15187830017E+01  0.73472008735E+03  0.74731117899E+03  0.10566000000E+00 0.  1.
          4    1    3    3  501    0  0.14521825692E+03  0.14077454916E+03 -0.28499964187E+03  0.34947190402E+03  0.00000000000E+00 0.  1.
         13    1    4    4    0    0  0.26295067627E+01 -0.16906563202E+03 -0.27798150646E+03  0.32536722535E+03  0.10566000000E+00 0. -1.
         -4    1    4    4    0  502 -0.11253204422E+02  0.26772299863E+02  0.70403196736E+03  0.70463068462E+03  0.00000000000E+00 0. -1.
<mgrwt>
<rscale>  2 0.98431326E+03</rscale>
<asrwt>0</asrwt>
<pdfrwt beam="1">  1       21 0.23096553E+00 0.10003423E+04</pdfrwt>
<pdfrwt beam="2">  1       21 0.96231546E-01 0.10003423E+04</pdfrwt>
<totfact> 0.36929463E+01</totfact>
</mgrwt>
</event>
<event>
 8    1  0.1094795E-005  0.1109427E+04  0.7818608E-02  0.8681214E-01
         21   -1    0    0  503  502  0.00000000000E+00  0.00000000000E+00  0.10247891899E+04  0.10247891899E+04  0.00000000000E+00 0. -1.
         21   -1    0    0  501  503 -0.00000000000E+00 -0.00000000000E+00 -0.13699129358E+04  0.13699129358E+04  0.00000000000E+00 0. -1.
    9000010    2    1    2  501    0 -0.63010573531E+02  0.42879025879E+03 -0.61164711326E+03  0.12537096366E+04  0.10049100673E+04 0.  0.
   -9000010    2    1    2    0  502  0.63010573531E+02 -0.42879025879E+03  0.26652336733E+03  0.11409924891E+04  0.10212726063E+04 0.  0.
        -13    1    3    3    0    0  0.16554352471E+03  0.15059861291E+03 -0.81158868667E+03  0.84187933119E+03  0.10566000000E+00 0.  1.
          4    1    3    3  501    0 -0.22855409825E+03  0.27819164587E+03  0.19994157342E+03  0.41183030539E+03  0.00000000000E+00 0.  1.
         13    1    4    4    0    0 -0.11810109756E+03  0.14242544469E+03  0.47242544780E+03  0.50736445622E+03  0.10566000000E+00 0. -1.
         -4    1    4    4    0  502  0.18111167109E+03 -0.57121570348E+03 -0.20590208047E+03  0.63362803288E+03  0.00000000000E+00 0. -1.
<mgrwt>
<rscale>  2 0.11056472E+04</rscale>
<asrwt>0</asrwt>
<pdfrwt beam="1">  1       21 0.15765988E+00 0.11094274E+04</pdfrwt>
<pdfrwt beam="2">  1       21 0.21075584E+00 0.11094274E+04</pdfrwt>
<totfact> 0.12585332E+01</totfact>
</mgrwt>
</event>
<event>
 8    1  0.1094795E-005  0.1033600E+04  0.7818608E-02  0.8743724E-01
         21   -1    0    0  501  502  0.00000000000E+00  0.00000000000E+00  0.71996350166E+03  0.71996350166E+03  0.00000000000E+00 0.  1.
         21   -1    0    0  502  503 -0.00000000000E+00 -0.00000000000E+00 -0.14889801904E+04  0.14889801904E+04  0.00000000000E+00 0.  1.
   -9000010    2    1    2    0  503 -0.24977333790E+00 -0.24549880282E+03 -0.45223082955E+03  0.11278880862E+04  0.10036678171E+04 0.  0.
    9000010    2    1    2  501    0  0.24977333790E+00  0.24549880282E+03 -0.31678585920E+03  0.10810556059E+04  0.10040210246E+04 0.  0.
        -13    1    4    4    0    0  0.27062808539E+03  0.40695524270E+02 -0.58682385647E+03  0.64750130192E+03  0.10566000000E+00 0.  1.
          4    1    4    4  501    0 -0.27037831205E+03  0.20480327855E+03  0.27003799727E+03  0.43355430398E+03  0.00000000000E+00 0.  1.
         13    1    3    3    0    0  0.17698561959E+03 -0.27328182039E+03  0.24530379417E+03  0.40765282471E+03  0.10566000000E+00 0. -1.
         -4    1    3    3    0  503 -0.17723539293E+03  0.27783017562E+02 -0.69753462372E+03  0.72023526147E+03  0.00000000000E+00 0. -1.
<mgrwt>
<rscale>  2 0.10335137E+04</rscale>
<asrwt>0</asrwt>
<pdfrwt beam="1">  1       21 0.11076362E+00 0.10335995E+04</pdfrwt>
<pdfrwt beam="2">  1       21 0.22907387E+00 0.10335995E+04</pdfrwt>
<totfact> 0.26098824E+01</totfact>
</mgrwt>
</event>
<event>
 8    1  0.1094795E-005  0.1412515E+04  0.7818608E-02  0.8464618E-01
         21   -1    0    0  501  502  0.00000000000E+00  0.00000000000E+00  0.17151915165E+04  0.17151915165E+04  0.00000000000E+00 0.  1.
         21   -1    0    0  502  503 -0.00000000000E+00 -0.00000000000E+00 -0.11609037932E+04  0.11609037932E+04  0.00000000000E+00 0. -1.
   -9000010    2    1    2    0  503 -0.78507816064E+03  0.53641261822E+03  0.12284245324E+03  0.13991579620E+04  0.10190517745E+04 0.  0.
    9000010    2    1    2  501    0  0.78507816064E+03 -0.53641261822E+03  0.43144527004E+03  0.14769373476E+04  0.10445633980E+04 0.  0.
        -13    1    4    4    0    0 -0.13929897875E+03 -0.32394627668E+03  0.39252835497E+03  0.52765890145E+03  0.10566000000E+00 0.  1.
          4    1    4    4  501    0  0.92437713939E+03 -0.21246634153E+03  0.38916915066E+02  0.94927844618E+03  0.00000000000E+00 0.  1.
         13    1    3    3    0    0 -0.56890266688E+03  0.45691598971E+03 -0.39692289335E+03  0.83064448500E+03  0.10566000000E+00 0. -1.
         -4    1    3    3    0  503 -0.21617549376E+03  0.79496628507E+02  0.51976534659E+03  0.56851347702E+03  0.00000000000E+00 0. -1.
<mgrwt>
<rscale>  2 0.14078015E+04</rscale>
<asrwt>0</asrwt>
<pdfrwt beam="1">  1       21 0.26387562E+00 0.14125151E+04</pdfrwt>
<pdfrwt beam="2">  1       21 0.17860058E+00 0.14125151E+04</pdfrwt>
<totfact> 0.31843371E+00</totfact>
</mgrwt>
</event>
<event>
 8    1  0.1094795E-005  0.1358264E+04  0.7818608E-02  0.8496322E-01
         21   -1    0    0  503  502  0.00000000000E+00  0.00000000000E+00  0.24030564116E+04  0.24030564116E+04  0.00000000000E+00 0. -1.
         21   -1    0    0  501  503 -0.00000000000E+00 -0.00000000000E+00 -0.82930733352E+03  0.82930733352E+03  0.00000000000E+00 0. -1.
    9000010    2    1    2  501    0  0.87786168858E+03 -0.24614254978E+03  0.12310829963E+04  0.18331521835E+04  0.10068039953E+04 0.  0.
   -9000010    2    1    2    0  502 -0.87786168858E+03  0.24614254978E+03  0.34266608182E+03  0.13992115617E+04  0.10045624180E+04 0.  0.
        -13    1    3    3    0    0 -0.94394959896E+02 -0.35899372860E+03  0.43226915825E+03  0.56977499241E+03  0.10566000000E+00 0.  1.
          4    1    3    3  501    0  0.97225664848E+03  0.11285117882E+03  0.79881383804E+03  0.12633771911E+04  0.00000000000E+00 0.  1.
         13    1    4    4    0    0 -0.20839965116E+03  0.54144535524E+03 -0.24242764713E+02  0.58067306647E+03  0.10566000000E+00 0. -1.
         -4    1    4    4    0  502 -0.66946203742E+03 -0.29530280546E+03  0.36690884654E+03  0.81853849520E+03  0.00000000000E+00 0. -1.
<mgrwt>
<rscale>  2 0.13578488E+04</rscale>
<asrwt>0</asrwt>
<pdfrwt beam="1">  1       21 0.36970098E+00 0.13582642E+04</pdfrwt>
<pdfrwt beam="2">  1       21 0.12758575E+00 0.13582642E+04</pdfrwt>
<totfact> 0.16372915E+00</totfact>
</mgrwt>
</event>
<event>
 8    1  0.1094795E-005  0.1170279E+04  0.7818608E-02  0.8629700E-01
         21   -1    0    0  501  502  0.00000000000E+00  0.00000000000E+00  0.61260675327E+03  0.61260675327E+03  0.00000000000E+00 0.  1.
         21   -1    0    0  502  503 -0.00000000000E+00 -0.00000000000E+00 -0.22318910986E+04  0.22318910986E+04  0.00000000000E+00 0.  1.
   -9000010    2    1    2    0  503  0.73113707943E+02  0.60192266320E+03 -0.79248433071E+03  0.14133595390E+04  0.10009481832E+04 0.  0.
    9000010    2    1    2  501    0 -0.73113707943E+02 -0.60192266320E+03 -0.82680001457E+03  0.14311383128E+04  0.99844984826E+03 0.  0.
        -13    1    4    4    0    0 -0.48878600219E+02 -0.85594942182E+03 -0.42940544551E+03  0.95886786268E+03  0.10566000000E+00 0.  1.
          4    1    4    4  501    0 -0.24235107725E+02  0.25402675861E+03 -0.39739456906E+03  0.47227045012E+03  0.00000000000E+00 0.  1.
         13    1    3    3    0    0  0.21238478349E+03  0.61599831701E+03 -0.98153738845E+03  0.11781243054E+04  0.10566000000E+00 0. -1.
         -4    1    3    3    0  503 -0.13927107554E+03 -0.14075653809E+02  0.18905305774E+03  0.23523523366E+03  0.00000000000E+00 0. -1.
<mgrwt>
<rscale>  2 0.11697450E+04</rscale>
<asrwt>0</asrwt>
<pdfrwt beam="1">  1       21 0.94247193E-01 0.11702794E+04</pdfrwt>
<pdfrwt beam="2">  1       21 0.34336786E+00 0.11702794E+04</pdfrwt>
<totfact> 0.59168890E+00</totfact>
</mgrwt>
</event>
<event>
 8    1  0.1094795E-005  0.1044733E+04  0.7818608E-02  0.8743500E-01
         21   -1    0    0  503  502  0.00000000000E+00  0.00000000000E+00  0.50214963478E+03  0.50214963478E+03  0.00000000000E+00 0.  1.
         21   -1    0    0  501  503 -0.00000000000E+00 -0.00000000000E+00 -0.20872730262E+04  0.20872730262E+04  0.00000000000E+00 0.  1.
    9000010    2    1    2  501    0  0.25154905167E+03  0.56682964391E+02 -0.82171857644E+03  0.12954933792E+04  0.96777672679E+03 0.  0.
   -9000010    2    1    2    0  502 -0.25154905167E+03 -0.56682964391E+02 -0.76340481502E+03  0.12939292818E+04  0.10124110780E+04 0.  0.
        -13    1    3    3    0    0 -0.14496503607E+03  0.33727915759E+03 -0.70661210436E+03  0.79628686352E+03  0.10566000000E+00 0.  1.
          4    1    3    3  501    0  0.39651408774E+03 -0.28059619320E+03 -0.11510647208E+03  0.49920651571E+03  0.00000000000E+00 0.  1.
         13    1    4    4    0    0 -0.24570186453E+03 -0.20698250444E+03  0.15961709256E+03  0.35873219925E+03  0.10566000000E+00 0. -1.
         -4    1    4    4    0  502 -0.58471871361E+01  0.15029954004E+03 -0.92302190758E+03  0.93519708255E+03  0.00000000000E+00 0. -1.
<mgrwt>
<rscale>  2 0.10337627E+04</rscale>
<asrwt>0</asrwt>
<pdfrwt beam="1">  1       21 0.77253789E-01 0.10447325E+04</pdfrwt>
<pdfrwt beam="2">  1       21 0.32111893E+00 0.10447325E+04</pdfrwt>
<totfact> 0.14345954E+01</totfact>
</mgrwt>
</event>
<event>
 8    1  0.1094795E-005  0.1086945E+04  0.7818608E-02  0.8697738E-01
         21   -1    0    0  503  502  0.00000000000E+00  0.00000000000E+00  0.79871364245E+03  0.79871364245E+03  0.00000000000E+00 0. -1.
         21   -1    0    0  501  503 -0.00000000000E+00 -0.00000000000E+00 -0.15136722476E+04  0.15136722476E+04  0.00000000000E+00 0. -1.
    9000010    2    1    2  501    0  0.34638185765E+03  0.21945127460E+03 -0.54393759176E+03  0.12120690765E+04  0.10025487964E+04 0.  0.
   -9000010    2    1    2    0  502 -0.34638185765E+03 -0.21945127460E+03 -0.17102101339E+03  0.11003168136E+04  0.10066328278E+04 0.  0.
        -13    1    3    3    0    0  0.32331868020E+03  0.34747974294E+02  0.24139027004E+03  0.40498353586E+03  0.10566000000E+00 0.  1.
          4    1    3    3  501    0  0.23063177445E+02  0.18470330031E+03 -0.78532786181E+03  0.80708554059E+03  0.00000000000E+00 0.  1.
         13    1    4    4    0    0 -0.65354061270E+03 -0.34394783548E+03 -0.27189682835E+02  0.73902282509E+03  0.10566000000E+00 0. -1.
         -4    1    4    4    0  502  0.30715875505E+03  0.12449656088E+03 -0.14383133055E+03  0.36129398850E+03  0.00000000000E+00 0. -1.
<mgrwt>
<rscale>  2 0.10859982E+04</rscale>
<asrwt>0</asrwt>
<pdfrwt beam="1">  1       21 0.12287902E+00 0.10869448E+04</pdfrwt>
<pdfrwt beam="2">  1       21 0.23287265E+00 0.10869448E+04</pdfrwt>
<totfact> 0.18133242E+01</totfact>
</mgrwt>
</event>
<event>
 8    1  0.1094795E-005  0.1312348E+04  0.7818608E-02  0.8526827E-01
         21   -1    0    0  501  502  0.00000000000E+00  0.00000000000E+00  0.13053657694E+04  0.13053657694E+04  0.00000000000E+00 0.  1.
         21   -1    0    0  502  503 -0.00000000000E+00 -0.00000000000E+00 -0.23828072054E+04  0.23828072054E+04  0.00000000000E+00 0.  1.
   -9000010    2    1    2    0  503 -0.45936479440E+03  0.68112866457E+03 -0.17717244944E+04  0.22034892857E+04  0.10204925655E+04 0.  0.
    9000010    2    1    2  501    0  0.45936479440E+03 -0.68112866457E+03  0.69428305832E+03  0.14846836891E+04  0.10233789228E+04 0.  0.
        -13    1    4    4    0    0 -0.12704861955E+03 -0.20403175561E+03 -0.20071205200E+03  0.31313838476E+03  0.10566000000E+00 0.  1.
          4    1    4    4  501    0  0.58641341396E+03 -0.47709690896E+03  0.89499511032E+03  0.11715453043E+04  0.00000000000E+00 0.  1.
         13    1    3    3    0    0 -0.56055293573E+03  0.89890239849E+03 -0.15444888841E+04  0.18728830823E+04  0.10566000000E+00 0. -1.
         -4    1    3    3    0  503  0.10118814132E+03 -0.21777373392E+03 -0.22723561028E+03  0.33060620338E+03  0.00000000000E+00 0. -1.
<mgrwt>
<rscale>  2 0.13117850E+04</rscale>
<asrwt>0</asrwt>
<pdfrwt beam="1">  1       21 0.20082551E+00 0.13123478E+04</pdfrwt>
<pdfrwt beam="2">  1       21 0.36658572E+00 0.13123478E+04</pdfrwt>
<totfact> 0.40459186E-01</totfact>
</mgrwt>
</event>
<event>
 8    1  0.1094795E-005  0.1077396E+04  0.7818608E-02  0.8706210E-01
         21   -1    0    0  503  502  0.00000000000E+00  0.00000000000E+00  0.78172234211E+03  0.78172234211E+03  0.00000000000E+00 0. -1.
         21   -1    0    0  501  503 -0.00000000000E+00 -0.00000000000E+00 -0.14795600324E+04  0.14795600324E+04  0.00000000000E+00 0. -1.
    9000010    2    1    2  501    0  0.83895492763E+02  0.40569742345E+03 -0.38794397490E+03  0.11402039456E+04  0.98890629319E+03 0.  0.
   -9000010    2    1    2    0  502 -0.83895492763E+02 -0.40569742345E+03 -0.30989371536E+03  0.11210784289E+04  0.99456215284E+03 0.  0.
        -13    1    3    3    0    0 -0.13615545227E+03 -0.16105672851E+03  0.20273564340E+03  0.29253944905E+03  0.10566000000E+00 0.  1.
          4    1    3    3  501    0  0.22005094503E+03  0.56675415195E+03 -0.59067961830E+03  0.84766449651E+03  0.00000000000E+00 0.  1.
         13    1    4    4    0    0  0.40934443606E+03 -0.39722993776E+03 -0.25472222777E+03  0.62469025546E+03  0.10566000000E+00 0. -1.
         -4    1    4    4    0  502 -0.49323992883E+03 -0.84674856912E+01 -0.55171487590E+02  0.49638817345E+03  0.00000000000E+00 0. -1.
<mgrwt>
<rscale>  2 0.10760892E+04</rscale>
<asrwt>0</asrwt>
<pdfrwt beam="1">  1       21 0.12026498E+00 0.10773963E+04</pdfrwt>
<pdfrwt beam="2">  1       21 0.22762462E+00 0.10773963E+04</pdfrwt>
<totfact> 0.21118183E+01</totfact>
</mgrwt>
</event>
<event>
 8    1  0.1094795E-005  0.1148420E+04  0.7818608E-02  0.8654308E-01
         21   -1    0    0  503  502  0.00000000000E+00  0.00000000000E+00  0.16089951406E+04  0.16089951406E+04  0.00000000000E+00 0.  1.
         21   -1    0    0  501  503 -0.00000000000E+00 -0.00000000000E+00 -0.86395680102E+03  0.86395680102E+03  0.00000000000E+00 0.  1.
    9000010    2    1    2  501    0  0.26286340003E+03 -0.46900777273E+03  0.22044782372E+02  0.11486318683E+04  0.10147924608E+04 0.  0.
   -9000010    2    1    2    0  502 -0.26286340003E+03  0.46900777273E+03  0.72299355725E+03  0.13243200734E+04  0.97058668596E+03 0.  0.
        -13    1    3    3    0    0 -0.28286781178E+03 -0.52226017967E+03  0.70780898657E+02  0.59814700616E+03  0.10566000000E+00 0.  1.
          4    1    3    3  501    0  0.54573121181E+03  0.53252406940E+02 -0.48736116285E+02  0.55048486212E+03  0.00000000000E+00 0.  1.
         13    1    4    4    0    0 -0.18796821233E+03 -0.20166800216E+03 -0.68619062517E+02  0.28409614367E+03  0.10566000000E+00 0. -1.
         -4    1    4    4    0  502 -0.74895187705E+02  0.67067577489E+03  0.79161261976E+03  0.10402239297E+04  0.00000000000E+00 0. -1.
<mgrwt>
<rscale>  2 0.11385772E+04</rscale>
<asrwt>0</asrwt>
<pdfrwt beam="1">  1       21 0.24753771E+00 0.11484203E+04</pdfrwt>
<pdfrwt beam="2">  1       21 0.13291643E+00 0.11484203E+04</pdfrwt>
<totfact> 0.11141134E+01</totfact>
</mgrwt>
</event>
<event>
 8    1  0.1094795E-005  0.1131855E+04  0.7818608E-02  0.8661117E-01
         21   -1    0    0  501  502  0.00000000000E+00  0.00000000000E+00  0.17403863677E+04  0.17403863677E+04  0.00000000000E+00 0.  1.
         21   -1    0    0  502  503 -0.00000000000E+00 -0.00000000000E+00 -0.86865223215E+03  0.86865223215E+03  0.00000000000E+00 0.  1.
   -9000010    2    1    2    0  503  0.13951423536E+03 -0.52155359080E+03 -0.83352877934E+02  0.11280639202E+04  0.98696410063E+03 0.  0.
    9000010    2    1    2  501    0 -0.13951423536E+03  0.52155359080E+03  0.95508701348E+03  0.14809746796E+04  0.99479265599E+03 0.  0.
        -13    1    4    4    0    0 -0.34106411021E+03  0.70556358476E+03  0.44176167715E+03  0.89960996548E+03  0.10566000000E+00 0.  1.
          4    1    4    4  501    0  0.20154987485E+03 -0.18400999397E+03  0.51332533633E+03  0.58136471414E+03  0.00000000000E+00 0.  1.
         13    1    3    3    0    0 -0.29277458911E+03  0.10215527527E+03  0.13530362804E+03  0.33831899624E+03  0.10566000000E+00 0. -1.
         -4    1    3    3    0  503  0.43228882447E+03 -0.62370886607E+03 -0.21865650597E+03  0.78974492400E+03  0.00000000000E+00 0. -1.
<mgrwt>
<rscale>  2 0.11301321E+04</rscale>
<asrwt>0</asrwt>
<pdfrwt beam="1">  1       21 0.26775175E+00 0.11318546E+04</pdfrwt>
<pdfrwt beam="2">  1       21 0.13363881E+00 0.11318546E+04</pdfrwt>
<totfact> 0.78586036E+00</totfact>
</mgrwt>
</event>
<event>
 8    1  0.1094795E-005  0.1540987E+04  0.7818608E-02  0.8387501E-01
         21   -1    0    0  503  502  0.00000000000E+00  0.00000000000E+00  0.63129972478E+03  0.63129972478E+03  0.00000000000E+00 0. -1.
         21   -1    0    0  501  503 -0.00000000000E+00 -0.00000000000E+00 -0.42033382490E+04  0.42033382490E+04  0.00000000000E+00 0.  1.
    9000010    2    1    2  501    0  0.12693994994E+03  0.11710922164E+04 -0.25926817221E+04  0.30160637680E+04  0.99351467528E+03 0.  0.
   -9000010    2    1    2    0  502 -0.12693994994E+03 -0.11710922164E+04 -0.97935680203E+03  0.18185742058E+04  0.98005186905E+03 0.  0.
        -13    1    3    3    0    0  0.26675427314E+03  0.77830209640E+03 -0.24351182559E+04  0.25703526853E+04  0.10566000000E+00 0.  1.
          4    1    3    3  501    0 -0.13981432319E+03  0.39279011998E+03 -0.15756346627E+03  0.44571108269E+03  0.00000000000E+00 0.  1.
         13    1    4    4    0    0 -0.11782754457E+03 -0.12183343658E+04 -0.11266641121E+04  0.16636087250E+04  0.10566000000E+00 0. -1.
         -4    1    4    4    0  502 -0.91124053670E+01  0.47242149424E+02  0.14730731011E+03  0.15496548076E+03  0.00000000000E+00 0. -1.
<mgrwt>
<rscale>  2 0.15388215E+04</rscale>
<asrwt>0</asrwt>
<pdfrwt beam="1">  1       21 0.97123033E-01 0.15409874E+04</pdfrwt>
<pdfrwt beam="2">  1       21 0.64666743E+00 0.15409874E+04</pdfrwt>
<totfact> 0.32725140E-02</totfact>
</mgrwt>
</event>
<event>
 8    1  0.1094795E-005  0.1101439E+04  0.7818608E-02  0.8687483E-01
         21   -1    0    0  503  502  0.00000000000E+00  0.00000000000E+00  0.63826119666E+03  0.63826119666E+03  0.00000000000E+00 0.  1.
         21   -1    0    0  501  503 -0.00000000000E+00 -0.00000000000E+00 -0.18782703539E+04  0.18782703539E+04  0.00000000000E+00 0.  1.
    9000010    2    1    2  501    0 -0.20836363312E+03 -0.38791350136E+03 -0.62620662718E+03  0.12556105442E+04  0.99525414368E+03 0.  0.
   -9000010    2    1    2    0  502  0.20836363312E+03  0.38791350136E+03 -0.61380253004E+03  0.12609210064E+04  0.10095919722E+04 0.  0.
        -13    1    3    3    0    0 -0.20768705345E+03 -0.44062882311E+03 -0.87491227618E+03  0.10013786367E+04  0.10566000000E+00 0.  1.
          4    1    3    3  501    0 -0.67657967033E+00  0.52715321758E+02  0.24870564900E+03  0.25423190742E+03  0.00000000000E+00 0.  1.
         13    1    4    4    0    0  0.39234425802E+03  0.61627648139E+03 -0.20679969780E+03  0.75927389293E+03  0.10566000000E+00 0. -1.
         -4    1    4    4    0  502 -0.18398062490E+03 -0.22836298003E+03 -0.40700283223E+03  0.50164711345E+03  0.00000000000E+00 0. -1.
<mgrwt>
<rscale>  2 0.10981426E+04</rscale>
<asrwt>0</asrwt>
<pdfrwt beam="1">  1       21 0.98194028E-01 0.11014392E+04</pdfrwt>
<pdfrwt beam="2">  1       21 0.28896468E+00 0.11014392E+04</pdfrwt>
<totfact> 0.13057301E+01</totfact>
</mgrwt>
</event>
<event>
 8    1  0.1094795E-005  0.1258506E+04  0.7818608E-02  0.8568150E-01
         21   -1    0    0  501  502  0.00000000000E+00  0.00000000000E+00  0.95122171048E+03  0.95122171048E+03  0.00000000000E+00 0.  1.
         21   -1    0    0  502  503 -0.00000000000E+00 -0.00000000000E+00 -0.21204842989E+04  0.21204842989E+04  0.00000000000E+00 0.  1.
   -9000010    2    1    2    0  503  0.71685663082E+03  0.14173460554E+03 -0.13255089059E+04  0.18277886815E+04  0.10246294341E+04 0.  0.
    9000010    2    1    2  501    0 -0.71685663082E+03 -0.14173460554E+03  0.15624631749E+03  0.12439173278E+04  0.99445727872E+03 0.  0.
        -13    1    4    4    0    0 -0.87869139278E+03 -0.15907259870E+03  0.37729667715E+03  0.96940984581E+03  0.10566000000E+00 0.  1.
          4    1    4    4  501    0  0.16183476195E+03  0.17337993161E+02 -0.22105035966E+03  0.27450748203E+03  0.00000000000E+00 0.  1.
         13    1    3    3    0    0 -0.63444299322E+02 -0.18697291057E+03 -0.81611426346E+03  0.83965859168E+03  0.10566000000E+00 0. -1.
         -4    1    3    3    0  503  0.78030093014E+03  0.32870751611E+03 -0.50939464243E+03  0.98813008985E+03  0.00000000000E+00 0. -1.
<mgrwt>
<rscale>  2 0.12523509E+04</rscale>
<asrwt>0</asrwt>
<pdfrwt beam="1">  1       21 0.14634180E+00 0.12585061E+04</pdfrwt>
<pdfrwt beam="2">  1       21 0.32622835E+00 0.12585061E+04</pdfrwt>
<totfact> 0.22447016E+00</totfact>
</mgrwt>
</event>
<event>
 8    1  0.1094795E-005  0.1122669E+04  0.7818608E-02  0.8667875E-01
         21   -1    0    0  501  502  0.00000000000E+00  0.00000000000E+00  0.94147577323E+03  0.94147577323E+03  0.00000000000E+00 0. -1.
         21   -1    0    0  502  503 -0.00000000000E+00 -0.00000000000E+00 -0.15467754179E+04  0.15467754179E+04  0.00000000000E+00 0. -1.
   -9000010    2    1    2    0  503  0.42848873522E+03  0.29281148985E+03 -0.76291040812E+03  0.13545722443E+04  0.99171190842E+03 0.  0.
    9000010    2    1    2  501    0 -0.42848873522E+03 -0.29281148985E+03  0.15761076349E+03  0.11336789468E+04  0.99551275076E+03 0.  0.
        -13    1    4    4    0    0 -0.11204443942E+03  0.10600019278E+02  0.54020733442E+03  0.55180639008E+03  0.10566000000E+00 0.  1.
          4    1    4    4  501    0 -0.31644429580E+03 -0.30341150913E+03 -0.38259657092E+03  0.58187255675E+03  0.00000000000E+00 0.  1.
         13    1    3    3    0    0  0.38930871715E+03 -0.31074922872E+03 -0.23081725061E+03  0.54900179849E+03  0.10566000000E+00 0. -1.
         -4    1    3    3    0  503  0.39180018065E+02  0.60356071857E+03 -0.53209315751E+03  0.80557044576E+03  0.00000000000E+00 0. -1.
<mgrwt>
<rscale>  2 0.11218263E+04</rscale>
<asrwt>0</asrwt>
<pdfrwt beam="1">  1       21 0.14484243E+00 0.11226695E+04</pdfrwt>
<pdfrwt beam="2">  1       21 0.23796545E+00 0.11226695E+04</pdfrwt>
<totfact> 0.10196561E+01</totfact>
</mgrwt>
</event>
<event>
 8    1  0.1094795E-005  0.1070746E+04  0.7818608E-02  0.8721710E-01
         21   -1    0    0  503  502  0.00000000000E+00  0.00000000000E+00  0.10946852231E+04  0.10946852231E+04  0.00000000000E+00 0. -1.
         21   -1    0    0  501  503 -0.00000000000E+00 -0.00000000000E+00 -0.10044659765E+04  0.10044659765E+04  0.00000000000E+00 0. -1.
    9000010    2    1    2  501    0  0.75911888313E+02 -0.29835886414E+03 -0.27289029390E+02  0.10219770153E+04  0.97412098946E+03 0.  0.
   -9000010    2    1    2    0  502 -0.75911888313E+02  0.29835886414E+03  0.11750827603E+03  0.10771741843E+04  0.10255317654E+04 0.  0.
        -13    1    3    3    0    0  0.48752006251E+03 -0.66520488971E+02 -0.18239602711E+03  0.52475623738E+03  0.10566000000E+00 0.  1.
          4    1    3    3  501    0 -0.41160817420E+03 -0.23183837517E+03  0.15510699772E+03  0.49722077793E+03  0.00000000000E+00 0.  1.
         13    1    4    4    0    0 -0.53155631263E+03  0.13049102084E+02  0.30612784787E+02  0.53259698302E+03  0.10566000000E+00 0. -1.
         -4    1    4    4    0  502  0.45564442432E+03  0.28530976205E+03  0.86895491239E+02  0.54457720126E+03  0.00000000000E+00 0. -1.
<mgrwt>
<rscale>  2 0.10582451E+04</rscale>
<asrwt>0</asrwt>
<pdfrwt beam="1">  1       21 0.16841311E+00 0.10707455E+04</pdfrwt>
<pdfrwt beam="2">  1       21 0.15453323E+00 0.10707455E+04</pdfrwt>
<totfact> 0.29496191E+01</totfact>
</mgrwt>
</event>
<event>
 8    1  0.1094795E-005  0.1591197E+04  0.7818608E-02  0.8368440E-01
         21   -1    0    0  501  502  0.00000000000E+00  0.00000000000E+00  0.20822981634E+04  0.20822981634E+04  0.00000000000E+00 0. -1.
         21   -1    0    0  502  503 -0.00000000000E+00 -0.00000000000E+00 -0.12228094300E+04  0.12228094300E+04  0.00000000000E+00 0.  1.
   -9000010    2    1    2    0  503  0.10946368799E+04 -0.33060686174E+03  0.78549616873E+03  0.17121908686E+04  0.10035250587E+04 0.  0.
    9000010    2    1    2  501    0 -0.10946368799E+04  0.33060686174E+03  0.73992564702E+02  0.15929167248E+04  0.11065161529E+04 0.  0.
        -13    1    4    4    0    0  0.20301303356E+03  0.13937075302E+02  0.15339218221E+03  0.25482877897E+03  0.10566000000E+00 0.  1.
          4    1    4    4  501    0 -0.12976499135E+04  0.31666978643E+03 -0.79399617510E+02  0.13380879459E+04  0.00000000000E+00 0.  1.
         13    1    3    3    0    0  0.13420402066E+03 -0.25638583172E+03  0.68505789543E+03  0.74367247167E+03  0.10566000000E+00 0. -1.
         -4    1    3    3    0  503  0.96043285927E+03 -0.74221030020E+02  0.10043827331E+03  0.96851839693E+03  0.00000000000E+00 0. -1.
<mgrwt>
<rscale>  2 0.15734479E+04</rscale>
<asrwt>0</asrwt>
<pdfrwt beam="1">  1       21 0.32035357E+00 0.15911973E+04</pdfrwt>
<pdfrwt beam="2">  1       21 0.18812453E+00 0.15911973E+04</pdfrwt>
<totfact> 0.10231237E+00</totfact>
</mgrwt>
</event>
<event>
 8    1  0.1094795E-005  0.1158571E+04  0.7818608E-02  0.8640901E-01
         21   -1    0    0  503  502  0.00000000000E+00  0.00000000000E+00  0.94774931808E+03  0.94774931808E+03  0.00000000000E+00 0.  1.
         21   -1    0    0  501  503 -0.00000000000E+00 -0.00000000000E+00 -0.15682771857E+04  0.15682771857E+04  0.00000000000E+00 0.  1.
    9000010    2    1    2  501    0  0.52384182432E+03  0.20188041576E+03 -0.72257021830E+03  0.13654284321E+04  0.10134698434E+04 0.  0.
   -9000010    2    1    2    0  502 -0.52384182432E+03 -0.20188041576E+03  0.10204235068E+03  0.11505980717E+04  0.99914829838E+03 0.  0.
        -13    1    3    3    0    0 -0.34323806410E+02 -0.21277556851E+03  0.14037034432E+03  0.25720694191E+03  0.10566000000E+00 0.  1.
          4    1    3    3  501    0  0.55816563073E+03  0.41465598426E+03 -0.86294056261E+03  0.11082214901E+04  0.00000000000E+00 0.  1.
         13    1    4    4    0    0 -0.77590939391E+03 -0.31378648540E+02 -0.10344099120E+03  0.78340287016E+03  0.10566000000E+00 0. -1.
         -4    1    4    4    0  502  0.25206756960E+03 -0.17050176722E+03  0.20548334188E+03  0.36719520157E+03  0.00000000000E+00 0. -1.
<mgrwt>
<rscale>  2 0.11554317E+04</rscale>
<asrwt>0</asrwt>
<pdfrwt beam="1">  1       21 0.14580759E+00 0.11585711E+04</pdfrwt>
<pdfrwt beam="2">  1       21 0.24127341E+00 0.11585711E+04</pdfrwt>
<totfact> 0.93756593E+00</totfact>
</mgrwt>
</event>
<event>
 8    1  0.1094795E-005  0.1163771E+04  0.7818608E-02  0.8634645E-01
         21   -1    0    0  501  502  0.00000000000E+00  0.00000000000E+00  0.14713734317E+04  0.14713734317E+04  0.00000000000E+00 0. -1.
         21   -1    0    0  502  503 -0.00000000000E+00 -0.00000000000E+00 -0.95262322405E+03  0.95262322405E+03  0.00000000000E+00 0. -1.
   -9000010    2    1    2    0  503  0.28221014636E+02  0.59394970713E+03  0.48589108027E+03  0.12597616286E+04  0.99866738140E+03 0.  0.
    9000010    2    1    2  501    0 -0.28221014636E+02 -0.59394970713E+03  0.32859127398E+02  0.11642350272E+04  0.10003953199E+04 0.  0.
        -13    1    4    4    0    0 -0.45940370420E+03 -0.53738639078E+03  0.12949062341E+03  0.71875150723E+03  0.10566000000E+00 0.  1.
          4    1    4    4  501    0  0.43118268957E+03 -0.56563316343E+02 -0.96631496007E+02  0.44548351996E+03  0.00000000000E+00 0.  1.
         13    1    3    3    0    0 -0.95310479688E+02  0.23833369670E+03  0.75471564360E+03  0.79717172076E+03  0.10566000000E+00 0. -1.
         -4    1    3    3    0  503  0.12353149432E+03  0.35561601042E+03 -0.26882456333E+03  0.46258990781E+03  0.00000000000E+00 0. -1.
<mgrwt>
<rscale>  2 0.11633998E+04</rscale>
<asrwt>0</asrwt>
<pdfrwt beam="1">  1       21 0.22636514E+00 0.11637712E+04</pdfrwt>
<pdfrwt beam="2">  1       21 0.14655742E+00 0.11637712E+04</pdfrwt>
<totfact> 0.11890647E+01</totfact>
</mgrwt>
</event>
<event>
 8    1  0.1094795E-005  0.1091860E+04  0.7818608E-02  0.8696010E-01
         21   -1    0    0  501  502  0.00000000000E+00  0.00000000000E+00  0.10924914098E+04  0.10924914098E+04  0.00000000000E+00 0. -1.
         21   -1    0    0  502  503 -0.00000000000E+00 -0.00000000000E+00 -0.13782211441E+04  0.13782211441E+04  0.00000000000E+00 0. -1.
   -9000010    2    1    2    0  503  0.31911227278E+03 -0.28912649569E+03 -0.72206455924E+03  0.13090207575E+04  0.10033600265E+04 0.  0.
    9000010    2    1    2  501    0 -0.31911227278E+03  0.28912649569E+03  0.43633482494E+03  0.11616917963E+04  0.98676895829E+03 0.  0.
        -13    1    4    4    0    0  0.58761297318E+02  0.56679067579E+03  0.85839079850E+02  0.57625768456E+03  0.10566000000E+00 0.  1.
          4    1    4    4  501    0 -0.37787357009E+03 -0.27766418010E+03  0.35049574509E+03  0.58543411176E+03  0.00000000000E+00 0.  1.
         13    1    3    3    0    0  0.25582443158E+03 -0.56961619665E+03 -0.11172940804E+03  0.63434393121E+03  0.10566000000E+00 0. -1.
         -4    1    3    3    0  503  0.63287841196E+02  0.28048970096E+03 -0.61033515120E+03  0.67467682632E+03  0.00000000000E+00 0. -1.
<mgrwt>
<rscale>  2 0.10880333E+04</rscale>
<asrwt>0</asrwt>
<pdfrwt beam="1">  1       21 0.16807560E+00 0.10918599E+04</pdfrwt>
<pdfrwt beam="2">  1       21 0.21203402E+00 0.10918599E+04</pdfrwt>
<totfact> 0.10059243E+01</totfact>
</mgrwt>
</event>
<event>
 8    1  0.1094795E-005  0.1254997E+04  0.7818608E-02  0.8571274E-01
         21   -1    0    0  503  502  0.00000000000E+00  0.00000000000E+00  0.16932283692E+04  0.16932283692E+04  0.00000000000E+00 0.  1.
         21   -1    0    0  501  503 -0.00000000000E+00 -0.00000000000E+00 -0.93890073651E+03  0.93890073651E+03  0.00000000000E+00 0. -1.
    9000010    2    1    2  501    0  0.72032256393E+03 -0.21819722812E+03  0.61331282981E+03  0.13968426693E+04  0.10042620122E+04 0.  0.
   -9000010    2    1    2    0  502 -0.72032256393E+03  0.21819722812E+03  0.14101480285E+03  0.12352864364E+04  0.96931562394E+03 0.  0.
        -13    1    3    3    0    0 -0.13607481560E+03  0.24226804630E+03  0.18838749582E+03  0.33570823858E+03  0.10566000000E+00 0.  1.
          4    1    3    3  501    0  0.85639737953E+03 -0.46046527443E+03  0.42492533399E+03  0.10611344307E+04  0.00000000000E+00 0.  1.
         13    1    4    4    0    0 -0.86439199547E+03  0.78416764004E+02 -0.15095271818E+03  0.88097074015E+03  0.10566000000E+00 0. -1.
         -4    1    4    4    0  502  0.14406943155E+03  0.13978046412E+03  0.29196752103E+03  0.35431569623E+03  0.00000000000E+00 0. -1.
<mgrwt>
<rscale>  2 0.12479919E+04</rscale>
<asrwt>0</asrwt>
<pdfrwt beam="1">  1       21 0.26049667E+00 0.12549967E+04</pdfrwt>
<pdfrwt beam="2">  1       21 0.14444627E+00 0.12549967E+04</pdfrwt>
<totfact> 0.68507727E+00</totfact>
</mgrwt>
</event>
<event>
 8    1  0.1094795E-005  0.1036031E+04  0.7818608E-02  0.8741927E-01
         21   -1    0    0  501  502  0.00000000000E+00  0.00000000000E+00  0.29067904383E+04  0.29067904383E+04  0.00000000000E+00 0.  1.
         21   -1    0    0  502  503 -0.00000000000E+00 -0.00000000000E+00 -0.38611470718E+03  0.38611470718E+03  0.00000000000E+00 0.  1.
   -9000010    2    1    2    0  503  0.15421742237E+03 -0.23081718184E+03  0.90759063154E+03  0.13757710566E+04  0.99597472903E+03 0.  0.
    9000010    2    1    2  501    0 -0.15421742237E+03  0.23081718184E+03  0.16130850996E+04  0.19171340889E+04  0.99814828134E+03 0.  0.
        -13    1    4    4    0    0  0.30714100079E+02  0.57101946471E+03  0.58283274308E+03  0.81651736208E+03  0.10566000000E+00 0.  1.
          4    1    4    4  501    0 -0.18493152245E+03 -0.34020228287E+03  0.10302523565E+04  0.11006167268E+04  0.00000000000E+00 0.  1.
         13    1    3    3    0    0 -0.14294631661E+03 -0.56003199759E+03  0.40657448816E+03  0.70666280031E+03  0.10566000000E+00 0. -1.
         -4    1    3    3    0  503  0.29716373898E+03  0.32921481575E+03  0.50101614339E+03  0.66910825627E+03  0.00000000000E+00 0. -1.
<mgrwt>
<rscale>  2 0.10355068E+04</rscale>
<asrwt>0</asrwt>
<pdfrwt beam="1">  1       21 0.44719852E+00 0.10360307E+04</pdfrwt>
<pdfrwt beam="2">  1       21 0.59402264E-01 0.10360307E+04</pdfrwt>
<totfact> 0.35229511E+00</totfact>
</mgrwt>
</event>
<event>
 8    1  0.1094795E-005  0.1101518E+04  0.7818608E-02  0.8688413E-01
         21   -1    0    0  501  502  0.00000000000E+00  0.00000000000E+00  0.66733754286E+03  0.66733754286E+03  0.00000000000E+00 0.  1.
         21   -1    0    0  502  503 -0.00000000000E+00 -0.00000000000E+00 -0.17909842780E+04  0.17909842780E+04  0.00000000000E+00 0. -1.
   -9000010    2    1    2    0  503  0.50741095219E+02 -0.40609808014E+03 -0.52428746472E+03  0.12199261159E+04  0.10226690927E+04 0.  0.
    9000010    2    1    2  501    0 -0.50741095219E+02  0.40609808014E+03 -0.59935927037E+03  0.12383957049E+04  0.10034451044E+04 0.  0.
        -13    1    4    4    0    0 -0.42847454935E+03  0.41771824603E+03 -0.91493322431E+02  0.60535114745E+03  0.10566000000E+00 0.  1.
          4    1    4    4  501    0  0.37773345413E+03 -0.11620165896E+02 -0.50786594794E+03  0.63304455744E+03  0.00000000000E+00 0.  1.
         13    1    3    3    0    0  0.45650473739E+03  0.77813362265E+02 -0.28973240856E+03  0.54625669272E+03  0.10566000000E+00 0. -1.
         -4    1    3    3    0  503 -0.40576364217E+03 -0.48391144240E+03 -0.23455505617E+03  0.67366942321E+03  0.00000000000E+00 0. -1.
<mgrwt>
<rscale>  2 0.10970348E+04</rscale>
<asrwt>0</asrwt>
<pdfrwt beam="1">  1       21 0.10266732E+00 0.11015182E+04</pdfrwt>
<pdfrwt beam="2">  1       21 0.27553603E+00 0.11015182E+04</pdfrwt>
<totfact> 0.14473955E+01</totfact>
</mgrwt>
</event>
<event>
 8    1  0.1094795E-005  0.1072512E+04  0.7818608E-02  0.8709426E-01
         21   -1    0    0  503  502  0.00000000000E+00  0.00000000000E+00  0.18922792511E+04  0.18922792511E+04  0.00000000000E+00 0. -1.
         21   -1    0    0  501  503 -0.00000000000E+00 -0.00000000000E+00 -0.60759371950E+03  0.60759371950E+03  0.00000000000E+00 0. -1.
    9000010    2    1    2  501    0 -0.14633930699E+03  0.37633573701E+03  0.65536681629E+03  0.12568961666E+04  0.99359877723E+03 0.  0.
   -9000010    2    1    2    0  502  0.14633930699E+03 -0.37633573701E+03  0.62931871529E+03  0.12429768039E+04  0.99292774661E+03 0.  0.
        -13    1    3    3    0    0 -0.55337713521E+03  0.23677563450E+03  0.54661793678E+03  0.81306834574E+03  0.10566000000E+00 0.  1.
          4    1    3    3  501    0  0.40703782822E+03  0.13956010251E+03  0.10874887951E+03  0.44382782090E+03  0.00000000000E+00 0.  1.
         13    1    4    4    0    0 -0.21467315854E+03  0.21436354604E+03  0.42311442299E+03  0.52063626552E+03  0.10566000000E+00 0. -1.
         -4    1    4    4    0  502  0.36101246553E+03 -0.59069928305E+03  0.20620429230E+03  0.72234053841E+03  0.00000000000E+00 0. -1.
<mgrwt>
<rscale>  2 0.10723567E+04</rscale>
<asrwt>0</asrwt>
<pdfrwt beam="1">  1       21 0.29111988E+00 0.10725121E+04</pdfrwt>
<pdfrwt beam="2">  1       21 0.93475958E-01 0.10725121E+04</pdfrwt>
<totfact> 0.14396538E+01</totfact>
</mgrwt>
</event>
<event>
 8    1  0.1094795E-005  0.1088812E+04  0.7818608E-02  0.8706813E-01
         21   -1    0    0  501  502  0.00000000000E+00  0.00000000000E+00  0.16910466777E+04  0.16910466777E+04  0.00000000000E+00 0. -1.
         21   -1    0    0  502  503 -0.00000000000E+00 -0.00000000000E+00 -0.67333689680E+03  0.67333689680E+03  0.00000000000E+00 0. -1.
   -9000010    2    1    2    0  503  0.32708789370E+03 -0.27219796349E+03  0.38654519346E+03  0.11058601742E+04  0.94468582963E+03 0.  0.
    9000010    2    1    2  501    0 -0.32708789370E+03  0.27219796349E+03  0.63116458746E+03  0.12585234003E+04  0.10022146433E+04 0.  0.
        -13    1    4    4    0    0 -0.12679875969E+03 -0.18204902801E+03 -0.19454021712E+03  0.29506894330E+03  0.10566000000E+00 0.  1.
          4    1    4    4  501    0 -0.20028913401E+03  0.45424699150E+03  0.82570480458E+03  0.96345445704E+03  0.00000000000E+00 0.  1.
         13    1    3    3    0    0 -0.24294532351E+03  0.17823698909E+03  0.17816544341E+03  0.35004826936E+03  0.10566000000E+00 0. -1.
         -4    1    3    3    0  503  0.57003321721E+03 -0.45043495258E+03  0.20837975005E+03  0.75581190481E+03  0.00000000000E+00 0. -1.
<mgrwt>
<rscale>  2 0.10753888E+04</rscale>
<asrwt>0</asrwt>
<pdfrwt beam="1">  1       21 0.26016103E+00 0.10888124E+04</pdfrwt>
<pdfrwt beam="2">  1       21 0.10359029E+00 0.10888124E+04</pdfrwt>
<totfact> 0.18273812E+01</totfact>
</mgrwt>
</event>
<event>
 8    1  0.1094795E-005  0.1090203E+04  0.7818608E-02  0.8717878E-01
         21   -1    0    0  501  502  0.00000000000E+00  0.00000000000E+00  0.16529487900E+04  0.16529487900E+04  0.00000000000E+00 0. -1.
         21   -1    0    0  502  503 -0.00000000000E+00 -0.00000000000E+00 -0.66026669555E+03  0.66026669555E+03  0.00000000000E+00 0. -1.
   -9000010    2    1    2    0  503 -0.89396731639E+02  0.38567684322E+03  0.33226810362E+03  0.10385826442E+04  0.90084039270E+03 0.  0.
    9000010    2    1    2  501    0  0.89396731639E+02 -0.38567684322E+03  0.66041399079E+03  0.12746328413E+04  0.10157774549E+04 0.  0.
        -13    1    4    4    0    0 -0.17087020999E+03  0.55508611859E+02 -0.20276525278E+03  0.27090882885E+03  0.10566000000E+00 0.  1.
          4    1    4    4  501    0  0.26026694163E+03 -0.44118545508E+03  0.86317924356E+03  0.10037240125E+04  0.00000000000E+00 0.  1.
         13    1    3    3    0    0 -0.31777038337E+03 -0.18344337959E+03  0.80291971806E+02  0.37560125394E+03  0.10566000000E+00 0. -1.
         -4    1    3    3    0  503  0.22837365173E+03  0.56912022281E+03  0.25197613181E+03  0.66298139025E+03  0.00000000000E+00 0. -1.
<mgrwt>
<rscale>  2 0.10626225E+04</rscale>
<asrwt>0</asrwt>
<pdfrwt beam="1">  1       21 0.25429981E+00 0.10902028E+04</pdfrwt>
<pdfrwt beam="2">  1       21 0.10157949E+00 0.10902028E+04</pdfrwt>
<totfact> 0.21214957E+01</totfact>
</mgrwt>
</event>
<event>
 8    1  0.1094795E-005  0.1123086E+04  0.7818608E-02  0.8679042E-01
         21   -1    0    0  501  502  0.00000000000E+00  0.00000000000E+00  0.40354970161E+03  0.40354970161E+03  0.00000000000E+00 0.  1.
         21   -1    0    0  502  503 -0.00000000000E+00 -0.00000000000E+00 -0.29672602308E+04  0.29672602308E+04  0.00000000000E+00 0.  1.
   -9000010    2    1    2    0  503  0.13062895663E+03  0.40346669273E+03 -0.12841448282E+04  0.16682795361E+04  0.97687224044E+03 0.  0.
    9000010    2    1    2  501    0 -0.13062895663E+03 -0.40346669273E+03 -0.12795657009E+04  0.17025303963E+04  0.10399384938E+04 0.  0.
        -13    1    4    4    0    0  0.31706061748E+03 -0.14047513506E+03 -0.28448466911E+02  0.34795118215E+03  0.10566000000E+00 0.  1.
          4    1    4    4  501    0 -0.44768957411E+03 -0.26299155768E+03 -0.12511172340E+04  0.13545792142E+04  0.00000000000E+00 0.  1.
         13    1    3    3    0    0  0.34551975730E+03  0.62683391657E+03 -0.10851542778E+04  0.12999478757E+04  0.10566000000E+00 0. -1.
         -4    1    3    3    0  503 -0.21489080067E+03 -0.22336722383E+03 -0.19899055041E+03  0.36833166039E+03  0.00000000000E+00 0. -1.
<mgrwt>
<rscale>  2 0.11082620E+04</rscale>
<asrwt>0</asrwt>
<pdfrwt beam="1">  1       21 0.62084569E-01 0.11230856E+04</pdfrwt>
<pdfrwt beam="2">  1       21 0.45650158E+00 0.11230856E+04</pdfrwt>
<totfact> 0.26940711E+00</totfact>
</mgrwt>
</event>
<event>
 8    1  0.1094795E-005  0.1106234E+04  0.7818608E-02  0.8691887E-01
         21   -1    0    0  503  502  0.00000000000E+00  0.00000000000E+00  0.15630798815E+04  0.15630798815E+04  0.00000000000E+00 0.  1.
         21   -1    0    0  501  503 -0.00000000000E+00 -0.00000000000E+00 -0.77466389963E+03  0.77466389963E+03  0.00000000000E+00 0.  1.
    9000010    2    1    2  501    0  0.40395185394E+03 -0.27557362423E+03  0.17981515132E+03  0.11207530853E+04  0.99228829829E+03 0.  0.
   -9000010    2    1    2    0  502 -0.40395185394E+03  0.27557362423E+03  0.60860083059E+03  0.12169906959E+04  0.93357027595E+03 0.  0.
        -13    1    3    3    0    0  0.23631398523E+03 -0.57335454980E+03 -0.15829640548E+03  0.64002929819E+03  0.10566000000E+00 0.  1.
          4    1    3    3  501    0  0.16763786871E+03  0.29778092558E+03  0.33811155680E+03  0.48072378712E+03  0.00000000000E+00 0.  1.
         13    1    4    4    0    0 -0.14884157930E+03  0.40812318227E+02  0.80423625897E+03  0.81891112610E+03  0.10566000000E+00 0. -1.
         -4    1    4    4    0  502 -0.25511027464E+03  0.23476130600E+03 -0.19563542838E+03  0.39807956976E+03  0.00000000000E+00 0. -1.
<mgrwt>
<rscale>  2 0.10929077E+04</rscale>
<asrwt>0</asrwt>
<pdfrwt beam="1">  1       21 0.24047383E+00 0.11062341E+04</pdfrwt>
<pdfrwt beam="2">  1       21 0.11917906E+00 0.11062341E+04</pdfrwt>
<totfact> 0.17292508E+01</totfact>
</mgrwt>
</event>
<event>
 8    1  0.1094795E-005  0.1321376E+04  0.7818608E-02  0.8520444E-01
         21   -1    0    0  503  502  0.00000000000E+00  0.00000000000E+00  0.31688883571E+04  0.31688883571E+04  0.00000000000E+00 0.  1.
         21   -1    0    0  501  503 -0.00000000000E+00 -0.00000000000E+00 -0.55102957771E+03  0.55102957771E+03  0.00000000000E+00 0.  1.
    9000010    2    1    2  501    0 -0.66086592358E+03  0.55511697857E+03  0.12720306655E+04  0.18341474558E+04  0.10005679620E+04 0.  0.
   -9000010    2    1    2    0  502  0.66086592358E+03 -0.55511697857E+03  0.13458281138E+04  0.18857704790E+04  0.99998917931E+03 0.  0.
        -13    1    3    3    0    0 -0.41190256011E+03  0.78824588639E+03  0.57760715028E+03  0.10604835348E+04  0.10566000000E+00 0.  1.
          4    1    3    3  501    0 -0.24896336347E+03 -0.23312890782E+03  0.69442351524E+03  0.77366392092E+03  0.00000000000E+00 0.  1.
         13    1    4    4    0    0  0.13486473173E+03 -0.68893137142E+02 -0.15873977845E+03  0.21939254462E+03  0.10566000000E+00 0. -1.
         -4    1    4    4    0  502  0.52600119184E+03 -0.48622384143E+03  0.15045678923E+04  0.16663779344E+04  0.00000000000E+00 0. -1.
<mgrwt>
<rscale>  2 0.13212666E+04</rscale>
<asrwt>0</asrwt>
<pdfrwt beam="1">  1       21 0.48752128E+00 0.13213761E+04</pdfrwt>
<pdfrwt beam="2">  1       21 0.84773783E-01 0.13213761E+04</pdfrwt>
<totfact> 0.74810334E-01</totfact>
</mgrwt>
</event>
<event>
 8    1  0.1094795E-005  0.1057493E+04  0.7818608E-02  0.8751057E-01
         21   -1    0    0  501  502  0.00000000000E+00  0.00000000000E+00  0.12723851562E+04  0.12723851562E+04  0.00000000000E+00 0.  1.
         21   -1    0    0  502  503 -0.00000000000E+00 -0.00000000000E+00 -0.78013464406E+03  0.78013464406E+03  0.00000000000E+00 0.  1.
   -9000010    2    1    2    0  503  0.43186669368E+02  0.35810864997E+03  0.24818746289E+03  0.10862268745E+04  0.99407490292E+03 0.  0.
    9000010    2    1    2  501    0 -0.43186669368E+02 -0.35810864997E+03  0.24406304925E+03  0.96629292573E+03  0.86258237445E+03 0.  0.
        -13    1    4    4    0    0 -0.45250244039E+03 -0.17095013600E+03  0.15056635312E+03  0.50660896697E+03  0.10566000000E+00 0.  1.
          4    1    4    4  501    0  0.40931577102E+03 -0.18715851398E+03  0.93496696126E+02  0.45968395877E+03  0.00000000000E+00 0.  1.
         13    1    3    3    0    0  0.34749798993E+03  0.39358252701E+03  0.47263898345E+03  0.70643448275E+03  0.10566000000E+00 0. -1.
         -4    1    3    3    0  503 -0.30431132056E+03 -0.35473877035E+02 -0.22445152056E+03  0.37979239178E+03  0.00000000000E+00 0. -1.
<mgrwt>
<rscale>  2 0.10254317E+04</rscale>
<asrwt>0</asrwt>
<pdfrwt beam="1">  1       21 0.19575156E+00 0.10574932E+04</pdfrwt>
<pdfrwt beam="2">  1       21 0.12002071E+00 0.10574932E+04</pdfrwt>
<totfact> 0.37393950E+01</totfact>
</mgrwt>
</event>
<event>
 8    1  0.1094795E-005  0.1121275E+04  0.7818608E-02  0.8673427E-01
         21   -1    0    0  501  502  0.00000000000E+00  0.00000000000E+00  0.15050375955E+04  0.15050375955E+04  0.00000000000E+00 0.  1.
         21   -1    0    0  502  503 -0.00000000000E+00 -0.00000000000E+00 -0.81802041073E+03  0.81802041073E+03  0.00000000000E+00 0.  1.
   -9000010    2    1    2    0  503 -0.31249605242E+02 -0.53199751374E+03  0.30819566440E+03  0.11628594126E+04  0.98653917994E+03 0.  0.
    9000010    2    1    2  501    0  0.31249605242E+02  0.53199751374E+03  0.37882152040E+03  0.11601985936E+04  0.95841386669E+03 0.  0.
        -13    1    4    4    0    0 -0.81481771720E+02 -0.21728830511E+03  0.32664248318E+03  0.40068542480E+03  0.10566000000E+00 0.  1.
          4    1    4    4  501    0  0.11273137696E+03  0.74928581885E+03  0.52179037214E+02  0.75951316882E+03  0.00000000000E+00 0.  1.
         13    1    3    3    0    0 -0.50459154293E+03 -0.19963151256E+03  0.16149522683E+03  0.56616789511E+03  0.10566000000E+00 0. -1.
         -4    1    3    3    0  503  0.47334193768E+03 -0.33236600117E+03  0.14670043757E+03  0.59669151753E+03  0.00000000000E+00 0. -1.
<mgrwt>
<rscale>  2 0.11150573E+04</rscale>
<asrwt>0</asrwt>
<pdfrwt beam="1">  1       21 0.23154424E+00 0.11212749E+04</pdfrwt>
<pdfrwt beam="2">  1       21 0.12584929E+00 0.11212749E+04</pdfrwt>
<totfact> 0.17203845E+01</totfact>
</mgrwt>
</event>
<event>
 8    1  0.1094795E-005  0.1526213E+04  0.7818608E-02  0.8394764E-01
         21   -1    0    0  501  502  0.00000000000E+00  0.00000000000E+00  0.13801778293E+04  0.13801778293E+04  0.00000000000E+00 0.  1.
         21   -1    0    0  502  503 -0.00000000000E+00 -0.00000000000E+00 -0.20912523765E+04  0.20912523765E+04  0.00000000000E+00 0.  1.
   -9000010    2    1    2    0  503  0.25240495740E+03  0.11214534597E+04 -0.11195637140E+04  0.18928147383E+04  0.10039714135E+04 0.  0.
    9000010    2    1    2  501    0 -0.25240495740E+03 -0.11214534597E+04  0.40848916685E+03  0.15786154675E+04  0.10018968361E+04 0.  0.
        -13    1    4    4    0    0  0.35370227805E+03 -0.20675972848E+03  0.22075009528E+03  0.46538747571E+03  0.10566000000E+00 0.  1.
          4    1    4    4  501    0 -0.60610723545E+03 -0.91469373118E+03  0.18773907157E+03  0.11132279918E+04  0.00000000000E+00 0.  1.
         13    1    3    3    0    0 -0.96130444272E+02  0.11425697538E+04 -0.68609187355E+03  0.13361993769E+04  0.10566000000E+00 0. -1.
         -4    1    3    3    0  503  0.34853540167E+03 -0.21116294190E+02 -0.43347184048E+03  0.55661536143E+03  0.00000000000E+00 0. -1.
<mgrwt>
<rscale>  2 0.15258715E+04</rscale>
<asrwt>0</asrwt>
<pdfrwt beam="1">  1       21 0.21233505E+00 0.15262125E+04</pdfrwt>
<pdfrwt beam="2">  1       21 0.32173113E+00 0.15262125E+04</pdfrwt>
<totfact> 0.65291133E-01</totfact>
</mgrwt>
</event>
<event>
 8    1  0.1094795E-005  0.1260818E+04  0.7818608E-02  0.8582151E-01
         21   -1    0    0  503  502  0.00000000000E+00  0.00000000000E+00  0.15286097209E+04  0.15286097209E+04  0.00000000000E+00 0.  1.
         21   -1    0    0  501  503 -0.00000000000E+00 -0.00000000000E+00 -0.96706098145E+03  0.96706098145E+03  0.00000000000E+00 0.  1.
    9000010    2    1    2  501    0  0.79714600711E+03 -0.91369512842E+02  0.14237456074E+03  0.12688311633E+04  0.97255943818E+03 0.  0.
   -9000010    2    1    2    0  502 -0.79714600711E+03  0.91369512842E+02  0.41917417872E+03  0.12268395391E+04  0.82803267935E+03 0.  0.
        -13    1    3    3    0    0  0.62509741450E+02  0.15902235553E+03  0.41293372328E+03  0.44688907832E+03  0.10566000000E+00 0.  1.
          4    1    3    3  501    0  0.73463626566E+03 -0.25039186837E+03 -0.27055916254E+03  0.82194208494E+03  0.00000000000E+00 0.  1.
         13    1    4    4    0    0 -0.76850810386E+03  0.23974844591E+03  0.59050345675E+03  0.99838788384E+03  0.10566000000E+00 0. -1.
         -4    1    4    4    0  502 -0.28637903252E+02 -0.14837893306E+03 -0.17132927803E+03  0.22845165526E+03  0.00000000000E+00 0. -1.
<mgrwt>
<rscale>  2 0.12329555E+04</rscale>
<asrwt>0</asrwt>
<pdfrwt beam="1">  1       21 0.23517073E+00 0.12608180E+04</pdfrwt>
<pdfrwt beam="2">  1       21 0.14877861E+00 0.12608180E+04</pdfrwt>
<totfact> 0.95748916E+00</totfact>
</mgrwt>
</event>
<event>
 8    1  0.1094795E-005  0.1099169E+04  0.7818608E-02  0.8688762E-01
         21   -1    0    0  503  502  0.00000000000E+00  0.00000000000E+00  0.64355544932E+03  0.64355544932E+03  0.00000000000E+00 0.  1.
         21   -1    0    0  501  503 -0.00000000000E+00 -0.00000000000E+00 -0.20989166733E+04  0.20989166733E+04  0.00000000000E+00 0.  1.
    9000010    2    1    2  501    0  0.38782441709E+03 -0.14402859912E+03 -0.26806147450E+03  0.11313842019E+04  0.10183423994E+04 0.  0.
   -9000010    2    1    2    0  502 -0.38782441709E+03  0.14402859912E+03 -0.11872997495E+04  0.16110879207E+04  0.10073587133E+04 0.  0.
        -13    1    3    3    0    0  0.73695941530E+03 -0.64485983753E+02 -0.15460082674E+03  0.75575726837E+03  0.10566000000E+00 0.  1.
          4    1    3    3  501    0 -0.34913499821E+03 -0.79542615368E+02 -0.11346064776E+03  0.37562693357E+03  0.00000000000E+00 0.  1.
         13    1    4    4    0    0 -0.14372788499E+03  0.54500944616E+03 -0.89623750615E+03  0.10587420271E+04  0.10566000000E+00 0. -1.
         -4    1    4    4    0  502 -0.24409653210E+03 -0.40098084704E+03 -0.29106224334E+03  0.55234589360E+03  0.00000000000E+00 0. -1.
<mgrwt>
<rscale>  2 0.10966184E+04</rscale>
<asrwt>0</asrwt>
<pdfrwt beam="1">  1       21 0.99008531E-01 0.10991693E+04</pdfrwt>
<pdfrwt beam="2">  1       21 0.32291026E+00 0.10991693E+04</pdfrwt>
<totfact> 0.73636929E+00</totfact>
</mgrwt>
</event>
<event>
 8    1  0.1094795E-005  0.1200233E+04  0.7818608E-02  0.8618233E-01
         21   -1    0    0  501  502  0.00000000000E+00  0.00000000000E+00  0.15091299684E+04  0.15091299684E+04  0.00000000000E+00 0. -1.
         21   -1    0    0  502  503 -0.00000000000E+00 -0.00000000000E+00 -0.95535655971E+03  0.95535655971E+03  0.00000000000E+00 0. -1.
   -9000010    2    1    2    0  503 -0.38466151428E+03 -0.52616724421E+03  0.56238884480E+03  0.13254588002E+04  0.10078409442E+04 0.  0.
    9000010    2    1    2  501    0  0.38466151428E+03  0.52616724421E+03 -0.86154360803E+01  0.11390277280E+04  0.93407359981E+03 0.  0.
        -13    1    4    4    0    0 -0.18975742420E+03  0.84549173578E+02  0.28884070769E+03  0.35578843204E+03  0.10566000000E+00 0.  1.
          4    1    4    4  501    0  0.57441893848E+03  0.44161807063E+03 -0.29745614377E+03  0.78323929592E+03  0.00000000000E+00 0.  1.
         13    1    3    3    0    0  0.80973486699E+02 -0.26213053478E+02 -0.24993305051E+03  0.26402721568E+03  0.10566000000E+00 0. -1.
         -4    1    3    3    0  503 -0.46563500098E+03 -0.49995419073E+03  0.81232189531E+03  0.10614315845E+04  0.00000000000E+00 0. -1.
<mgrwt>
<rscale>  2 0.11846218E+04</rscale>
<asrwt>0</asrwt>
<pdfrwt beam="1">  1       21 0.23217384E+00 0.12002332E+04</pdfrwt>
<pdfrwt beam="2">  1       21 0.14697793E+00 0.12002332E+04</pdfrwt>
<totfact> 0.10589042E+01</totfact>
</mgrwt>
</event>
<event>
 8    1  0.1094795E-005  0.1521664E+04  0.7818608E-02  0.8399096E-01
         21   -1    0    0  503  502  0.00000000000E+00  0.00000000000E+00  0.90469537763E+03  0.90469537763E+03  0.00000000000E+00 0.  1.
         21   -1    0    0  501  503 -0.00000000000E+00 -0.00000000000E+00 -0.25804236443E+04  0.25804236443E+04  0.00000000000E+00 0. -1.
    9000010    2    1    2  501    0  0.35823936855E+03 -0.10912412794E+04 -0.10620613073E+04  0.18443727812E+04  0.97703314184E+03 0.  0.
   -9000010    2    1    2    0  502 -0.35823936855E+03  0.10912412794E+04 -0.61366695930E+03  0.16407462408E+04  0.99815735960E+03 0.  0.
        -13    1    3    3    0    0  0.51071753570E+03 -0.65060628519E+03 -0.11003293119E+04  0.13765338882E+04  0.10566000000E+00 0.  1.
          4    1    3    3  501    0 -0.15247816715E+03 -0.44063499423E+03  0.38268004544E+02  0.46783889296E+03  0.00000000000E+00 0.  1.
         13    1    4    4    0    0 -0.41048880327E+03  0.12486214852E+04 -0.65689642882E+03  0.14693772832E+04  0.10566000000E+00 0. -1.
         -4    1    4    4    0  502  0.52249434729E+02 -0.15738020576E+03  0.43229469517E+02  0.17136895760E+03  0.00000000000E+00 0. -1.
<mgrwt>
<rscale>  2 0.15182091E+04</rscale>
<asrwt>0</asrwt>
<pdfrwt beam="1">  1       21 0.13918391E+00 0.15216639E+04</pdfrwt>
<pdfrwt beam="2">  1       21 0.39698824E+00 0.15216639E+04</pdfrwt>
<totfact> 0.79413073E-01</totfact>
</mgrwt>
</event>
<event>
 8    1  0.1094795E-005  0.1132700E+04  0.7818608E-02  0.8662108E-01
         21   -1    0    0  501  502  0.00000000000E+00  0.00000000000E+00  0.88256480945E+03  0.88256480945E+03  0.00000000000E+00 0. -1.
         21   -1    0    0  502  503 -0.00000000000E+00 -0.00000000000E+00 -0.16421863024E+04  0.16421863024E+04  0.00000000000E+00 0. -1.
   -9000010    2    1    2    0  503 -0.49299934379E+03  0.24209832148E+03  0.66963005882E+02  0.11346776637E+04  0.99063081222E+03 0.  0.
    9000010    2    1    2  501    0  0.49299934379E+03 -0.24209832148E+03 -0.82658449880E+03  0.13900734481E+04  0.97334593402E+03 0.  0.
        -13    1    4    4    0    0  0.44591164605E+03  0.32270592987E+03 -0.38825028039E+03  0.67358340586E+03  0.10566000000E+00 0.  1.
          4    1    4    4  501    0  0.47087697734E+02 -0.56480425135E+03 -0.43833421841E+03  0.71649004226E+03  0.00000000000E+00 0.  1.
         13    1    3    3    0    0  0.33995981438E+02 -0.86710200588E+02  0.41318068094E+03  0.42354772093E+03  0.10566000000E+00 0. -1.
         -4    1    3    3    0  503 -0.52699532523E+03  0.32880852207E+03 -0.34621767505E+03  0.71112994278E+03  0.00000000000E+00 0. -1.
<mgrwt>
<rscale>  2 0.11289097E+04</rscale>
<asrwt>0</asrwt>
<pdfrwt beam="1">  1       21 0.13577920E+00 0.11327000E+04</pdfrwt>
<pdfrwt beam="2">  1       21 0.25264404E+00 0.11327000E+04</pdfrwt>
<totfact> 0.96394327E+00</totfact>
</mgrwt>
</event>
<event>
 8    1  0.1094795E-005  0.1179603E+04  0.7818608E-02  0.8623948E-01
         21   -1    0    0  501  502  0.00000000000E+00  0.00000000000E+00  0.19227968230E+04  0.19227968230E+04  0.00000000000E+00 0. -1.
         21   -1    0    0  502  503 -0.00000000000E+00 -0.00000000000E+00 -0.71980702102E+03  0.71980702102E+03  0.00000000000E+00 0. -1.
   -9000010    2    1    2    0  503 -0.55884822943E+03 -0.28079860072E+03  0.52835817826E+03  0.12837106017E+04  0.98873219160E+03 0.  0.
    9000010    2    1    2  501    0  0.55884822943E+03  0.28079860072E+03  0.67463162373E+03  0.13588932423E+04  0.10001518978E+04 0.  0.
        -13    1    4    4    0    0 -0.10086526842E+03  0.47453168748E+03  0.35205092495E+03  0.59941136936E+03  0.10566000000E+00 0.  1.
          4    1    4    4  501    0  0.65971349784E+03 -0.19373308676E+03  0.32258069878E+03  0.75948187297E+03  0.00000000000E+00 0.  1.
         13    1    3    3    0    0  0.35307944741E+02 -0.27272148516E+03  0.62394677578E+03  0.68186013933E+03  0.10566000000E+00 0. -1.
         -4    1    3    3    0  503 -0.59415617417E+03 -0.80771155593E+01 -0.95588597516E+02  0.60185046239E+03  0.00000000000E+00 0. -1.
<mgrwt>
<rscale>  2 0.11771787E+04</rscale>
<asrwt>0</asrwt>
<pdfrwt beam="1">  1       21 0.29581489E+00 0.11796029E+04</pdfrwt>
<pdfrwt beam="2">  1       21 0.11073954E+00 0.11796029E+04</pdfrwt>
<totfact> 0.83397041E+00</totfact>
</mgrwt>
</event>
<event>
 8    1  0.1094795E-005  0.1059839E+04  0.7818608E-02  0.8730928E-01
         21   -1    0    0  501  502  0.00000000000E+00  0.00000000000E+00  0.11611317105E+04  0.11611317105E+04  0.00000000000E+00 0.  1.
         21   -1    0    0  502  503 -0.00000000000E+00 -0.00000000000E+00 -0.97217421209E+03  0.97217421209E+03  0.00000000000E+00 0.  1.
   -9000010    2    1    2    0  503  0.24280348503E+03 -0.26364818746E+03  0.32816103405E+03  0.10643645760E+04  0.94695215680E+03 0.  0.
    9000010    2    1    2  501    0 -0.24280348503E+03  0.26364818746E+03 -0.13920353567E+03  0.10689413466E+04  0.99739364292E+03 0.  0.
        -13    1    4    4    0    0 -0.38524672967E+03  0.58615663067E+03 -0.14534259836E+03  0.71632333514E+03  0.10566000000E+00 0.  1.
          4    1    4    4  501    0  0.14244324464E+03 -0.32250844321E+03  0.61390626871E+01  0.35261801142E+03  0.00000000000E+00 0.  1.
         13    1    3    3    0    0  0.49754668444E+02  0.65472440100E+02  0.59378451655E+03  0.59945160831E+03  0.10566000000E+00 0. -1.
         -4    1    3    3    0  503  0.19304881658E+03 -0.32912062756E+03 -0.26562348250E+03  0.46491296769E+03  0.00000000000E+00 0. -1.
<mgrwt>
<rscale>  2 0.10478038E+04</rscale>
<asrwt>0</asrwt>
<pdfrwt beam="1">  1       21 0.17863565E+00 0.10598387E+04</pdfrwt>
<pdfrwt beam="2">  1       21 0.14956526E+00 0.10598387E+04</pdfrwt>
<totfact> 0.26907926E+01</totfact>
</mgrwt>
</event>
<event>
 8    1  0.1094795E-005  0.1125850E+04  0.7818608E-02  0.8705907E-01
         21   -1    0    0  501  502  0.00000000000E+00  0.00000000000E+00  0.86285288066E+03  0.86285288066E+03  0.00000000000E+00 0.  1.
         21   -1    0    0  502  503 -0.00000000000E+00 -0.00000000000E+00 -0.12449613024E+04  0.12449613024E+04  0.00000000000E+00 0.  1.
   -9000010    2    1    2    0  503 -0.39630052262E+03  0.30989184960E+03 -0.28908929872E+03  0.11623725884E+04  0.10071992598E+04 0.  0.
    9000010    2    1    2  501    0  0.39630052262E+03 -0.30989184960E+03 -0.93019123050E+02  0.94544159466E+03  0.79505986503E+03 0.  0.
        -13    1    4    4    0    0 -0.56481493411E+02 -0.30586112278E+03 -0.31367469631E+03  0.44173862384E+03  0.10566000000E+00 0.  1.
          4    1    4    4  501    0  0.45278201603E+03 -0.40307268208E+01  0.22065557326E+03  0.50370297081E+03  0.00000000000E+00 0.  1.
         13    1    3    3    0    0 -0.73366024073E+03  0.14561738231E+03 -0.15469856785E+03  0.76380195660E+03  0.10566000000E+00 0. -1.
         -4    1    3    3    0  503  0.33735971811E+03  0.16427446729E+03 -0.13439073086E+03  0.39857063182E+03  0.00000000000E+00 0. -1.
<mgrwt>
<rscale>  2 0.10764427E+04</rscale>
<asrwt>0</asrwt>
<pdfrwt beam="1">  1       21 0.13274660E+00 0.11258496E+04</pdfrwt>
<pdfrwt beam="2">  1       21 0.19153251E+00 0.11258496E+04</pdfrwt>
<totfact> 0.29851376E+01</totfact>
</mgrwt>
</event>
<event>
 8    1  0.1094795E-005  0.1178560E+04  0.7818608E-02  0.8625782E-01
         21   -1    0    0  501  502  0.00000000000E+00  0.00000000000E+00  0.96783291835E+03  0.96783291835E+03  0.00000000000E+00 0. -1.
         21   -1    0    0  502  503 -0.00000000000E+00 -0.00000000000E+00 -0.14173134429E+04  0.14173134429E+04  0.00000000000E+00 0. -1.
   -9000010    2    1    2    0  503  0.18273422101E+03  0.60008111609E+03 -0.20884285063E+03  0.11969204363E+04  0.99775450546E+03 0.  0.
    9000010    2    1    2  501    0 -0.18273422101E+03 -0.60008111609E+03 -0.24063767396E+03  0.11882259250E+04  0.98004347721E+03 0.  0.
        -13    1    4    4    0    0  0.24317388176E+03 -0.27324347026E+03  0.26425332259E+03  0.45124866811E+03  0.10566000000E+00 0.  1.
          4    1    4    4  501    0 -0.42590810277E+03 -0.32683764583E+03 -0.50489099654E+03  0.73697725686E+03  0.00000000000E+00 0.  1.
         13    1    3    3    0    0 -0.29792927295E+03  0.38965636580E+03  0.20203683278E+03  0.53048357943E+03  0.10566000000E+00 0. -1.
         -4    1    3    3    0  503  0.48066349396E+03  0.21042475029E+03 -0.41087968341E+03  0.66643685687E+03  0.00000000000E+00 0. -1.
<mgrwt>
<rscale>  2 0.11748029E+04</rscale>
<asrwt>0</asrwt>
<pdfrwt beam="1">  1       21 0.14889737E+00 0.11785598E+04</pdfrwt>
<pdfrwt beam="2">  1       21 0.21804822E+00 0.11785598E+04</pdfrwt>
<totfact> 0.13043438E+01</totfact>
</mgrwt>
</event>
<event>
 8    1  0.1094795E-005  0.1137449E+04  0.7818608E-02  0.8657512E-01
         21   -1    0    0  501  502  0.00000000000E+00  0.00000000000E+00  0.71382280711E+03  0.71382280711E+03  0.00000000000E+00 0. -1.
         21   -1    0    0  502  503 -0.00000000000E+00 -0.00000000000E+00 -0.18067330033E+04  0.18067330033E+04  0.00000000000E+00 0. -1.
   -9000010    2    1    2    0  503  0.28229559960E+03 -0.47847356156E+03 -0.64786072668E+03  0.12991392077E+04  0.97949548505E+03 0.  0.
    9000010    2    1    2  501    0 -0.28229559960E+03  0.47847356156E+03 -0.44504946949E+03  0.12214166027E+04  0.99255313827E+03 0.  0.
        -13    1    4    4    0    0  0.28874185728E+03  0.33205217055E+03  0.61318264217E+02  0.44428644455E+03  0.10566000000E+00 0.  1.
          4    1    4    4  501    0 -0.57103745688E+03  0.14642139101E+03 -0.50636773371E+03  0.77713015811E+03  0.00000000000E+00 0.  1.
         13    1    3    3    0    0  0.25717095167E+03 -0.69381558570E+03 -0.75514649904E+03  0.10572432130E+04  0.10566000000E+00 0. -1.
         -4    1    3    3    0  503  0.25124647934E+02  0.21534202414E+03  0.10728577237E+03  0.24189599469E+03  0.00000000000E+00 0. -1.
<mgrwt>
<rscale>  2 0.11345939E+04</rscale>
<asrwt>0</asrwt>
<pdfrwt beam="1">  1       21 0.10981890E+00 0.11374487E+04</pdfrwt>
<pdfrwt beam="2">  1       21 0.27795892E+00 0.11374487E+04</pdfrwt>
<totfact> 0.11526977E+01</totfact>
</mgrwt>
</event>
<event>
 8    1  0.1094795E-005  0.1078800E+04  0.7818608E-02  0.8704545E-01
         21   -1    0    0  501  502  0.00000000000E+00  0.00000000000E+00  0.20361866506E+04  0.20361866506E+04  0.00000000000E+00 0.  1.
         21   -1    0    0  502  503 -0.00000000000E+00 -0.00000000000E+00 -0.59697715649E+03  0.59697715649E+03  0.00000000000E+00 0.  1.
   -9000010    2    1    2    0  503  0.40835998308E+03 -0.31502977465E+02  0.43838183577E+03  0.11616115098E+04  0.99469208927E+03 0.  0.
    9000010    2    1    2  501    0 -0.40835998308E+03  0.31502977465E+02  0.10008276584E+04  0.14715522973E+04  0.99802797984E+03 0.  0.
        -13    1    4    4    0    0 -0.36138855393E+03  0.39082083915E+03  0.97177893632E+03  0.11080148589E+04  0.10566000000E+00 0.  1.
          4    1    4    4  501    0 -0.46971429149E+02 -0.35931786168E+03  0.29048722034E+02  0.36353743842E+03  0.00000000000E+00 0.  1.
         13    1    3    3    0    0 -0.20097723141E+03 -0.27500020219E+03 -0.49140733404E+02  0.34413918928E+03  0.10566000000E+00 0. -1.
         -4    1    3    3    0  503  0.60933721450E+03  0.24349722473E+03  0.48752256918E+03  0.81747232056E+03  0.00000000000E+00 0. -1.
<mgrwt>
<rscale>  2 0.10780282E+04</rscale>
<asrwt>0</asrwt>
<pdfrwt beam="1">  1       21 0.31325948E+00 0.10788003E+04</pdfrwt>
<pdfrwt beam="2">  1       21 0.91842640E-01 0.10788003E+04</pdfrwt>
<totfact> 0.10488321E+01</totfact>
</mgrwt>
</event>
<event>
 8    1  0.1094795E-005  0.1160397E+04  0.7818608E-02  0.8656492E-01
         21   -1    0    0  501  502  0.00000000000E+00  0.00000000000E+00  0.11429882318E+04  0.11429882318E+04  0.00000000000E+00 0.  1.
         21   -1    0    0  502  503 -0.00000000000E+00 -0.00000000000E+00 -0.11158100972E+04  0.11158100972E+04  0.00000000000E+00 0.  1.
   -9000010    2    1    2    0  503  0.43695374932E+03  0.37872581561E+03 -0.17892467870E+03  0.10802400159E+04  0.89473047828E+03 0.  0.
    9000010    2    1    2  501    0 -0.43695374932E+03 -0.37872581561E+03  0.20610281334E+03  0.11785583132E+04  0.10060613825E+04 0.  0.
        -13    1    4    4    0    0 -0.75414569516E+03 -0.31514891382E+03  0.48697072732E+02  0.81879544666E+03  0.10566000000E+00 0.  1.
          4    1    4    4  501    0  0.31719194584E+03 -0.63576901785E+02  0.15740574061E+03  0.35976286652E+03  0.00000000000E+00 0.  1.
         13    1    3    3    0    0 -0.24436339978E+03 -0.62974503344E+02 -0.22569528364E+02  0.25335479864E+03  0.10566000000E+00 0. -1.
         -4    1    3    3    0  503  0.68131714910E+03  0.44170031895E+03 -0.15635515033E+03  0.82688521722E+03  0.00000000000E+00 0. -1.
<mgrwt>
<rscale>  2 0.11358602E+04</rscale>
<asrwt>0</asrwt>
<pdfrwt beam="1">  1       21 0.17584434E+00 0.11603971E+04</pdfrwt>
<pdfrwt beam="2">  1       21 0.17166309E+00 0.11603971E+04</pdfrwt>
<totfact> 0.17900702E+01</totfact>
</mgrwt>
</event>
<event>
 8    1  0.1094795E-005  0.1342937E+04  0.7818608E-02  0.8519560E-01
         21   -1    0    0  501  502  0.00000000000E+00  0.00000000000E+00  0.84647617952E+03  0.84647617952E+03  0.00000000000E+00 0. -1.
         21   -1    0    0  502  503 -0.00000000000E+00 -0.00000000000E+00 -0.21572268967E+04  0.21572268967E+04  0.00000000000E+00 0.  1.
   -9000010    2    1    2    0  503 -0.35150018369E+03  0.69809450606E+03 -0.10711892040E+04  0.17178263078E+04  0.10920588787E+04 0.  0.
    9000010    2    1    2  501    0  0.35150018369E+03 -0.69809450606E+03 -0.23956151320E+03  0.12858767684E+04  0.99257293257E+03 0.  0.
        -13    1    4    4    0    0 -0.34699774246E+03 -0.26613197655E+03 -0.30239475711E+02  0.43834700783E+03  0.10566000000E+00 0.  1.
          4    1    4    4  501    0  0.69849792615E+03 -0.43196252951E+03 -0.20932203749E+03  0.84752976061E+03  0.00000000000E+00 0.  1.
         13    1    3    3    0    0 -0.38177280424E+03 -0.18857326781E+03 -0.18629159436E+03  0.46477405337E+03  0.10566000000E+00 0. -1.
         -4    1    3    3    0  503  0.30272620547E+02  0.88666777387E+03 -0.88489760965E+03  0.12530522544E+04  0.00000000000E+00 0. -1.
<mgrwt>
<rscale>  2 0.13225862E+04</rscale>
<asrwt>0</asrwt>
<pdfrwt beam="1">  1       21 0.13022711E+00 0.13429374E+04</pdfrwt>
<pdfrwt beam="2">  1       21 0.33188105E+00 0.13429374E+04</pdfrwt>
<totfact> 0.28514966E+00</totfact>
</mgrwt>
</event>
<event>
 8    1  0.1094795E-005  0.1154734E+04  0.7818608E-02  0.8650585E-01
         21   -1    0    0  503  502  0.00000000000E+00  0.00000000000E+00  0.66610083438E+03  0.66610083438E+03  0.00000000000E+00 0.  1.
         21   -1    0    0  501  503 -0.00000000000E+00 -0.00000000000E+00 -0.19333910438E+04  0.19333910438E+04  0.00000000000E+00 0. -1.
    9000010    2    1    2  501    0 -0.30452724000E+03 -0.40894974250E+03 -0.73692832487E+03  0.13698441347E+04  0.10360660527E+04 0.  0.
   -9000010    2    1    2    0  502  0.30452724000E+03  0.40894974250E+03 -0.53036188457E+03  0.12296477435E+04  0.98527819047E+03 0.  0.
        -13    1    3    3    0    0  0.11971248703E+03 -0.50595823839E+03 -0.77472249008E+03  0.93301648771E+03  0.10566000000E+00 0.  1.
          4    1    3    3  501    0 -0.42423972704E+03  0.97008495885E+02  0.37794165208E+02  0.43682764701E+03  0.00000000000E+00 0.  1.
         13    1    4    4    0    0 -0.26195884872E+03  0.25227549370E+03 -0.52892488888E+03  0.64189322506E+03  0.10566000000E+00 0. -1.
         -4    1    4    4    0  502  0.56648608872E+03  0.15667424881E+03 -0.14369956942E+01  0.58775451841E+03  0.00000000000E+00 0. -1.
<mgrwt>
<rscale>  2 0.11432272E+04</rscale>
<asrwt>0</asrwt>
<pdfrwt beam="1">  1       21 0.10247705E+00 0.11547336E+04</pdfrwt>
<pdfrwt beam="2">  1       21 0.29744478E+00 0.11547336E+04</pdfrwt>
<totfact> 0.10049013E+01</totfact>
</mgrwt>
</event>
<event>
 8    1  0.1094795E-005  0.1132176E+04  0.7818608E-02  0.8665398E-01
         21   -1    0    0  503  502  0.00000000000E+00  0.00000000000E+00  0.56643302773E+03  0.56643302773E+03  0.00000000000E+00 0.  1.
         21   -1    0    0  501  503 -0.00000000000E+00 -0.00000000000E+00 -0.24957721315E+04  0.24957721315E+04  0.00000000000E+00 0.  1.
    9000010    2    1    2  501    0  0.14849614857E+03 -0.44166721999E+03 -0.14758067554E+04  0.18425679704E+04  0.99996505289E+03 0.  0.
   -9000010    2    1    2    0  502 -0.14849614857E+03  0.44166721999E+03 -0.45353234842E+03  0.12196371888E+04  0.10318440977E+04 0.  0.
        -13    1    3    3    0    0 -0.30242209376E+03 -0.50533928123E+02 -0.68889344812E+02  0.31425873683E+03  0.10566000000E+00 0.  1.
          4    1    3    3  501    0  0.45091824232E+03 -0.39113329186E+03 -0.14069174106E+04  0.15283092336E+04  0.00000000000E+00 0.  1.
         13    1    4    4    0    0  0.23314827251E+03  0.63976451281E+03 -0.39077576429E+03  0.78508754794E+03  0.10566000000E+00 0. -1.
         -4    1    4    4    0  502 -0.38164442107E+03 -0.19809729282E+03 -0.62756584128E+02  0.43454964090E+03  0.00000000000E+00 0. -1.
<mgrwt>
<rscale>  2 0.11248618E+04</rscale>
<asrwt>0</asrwt>
<pdfrwt beam="1">  1       21 0.87143541E-01 0.11321763E+04</pdfrwt>
<pdfrwt beam="2">  1       21 0.38396495E+00 0.11321763E+04</pdfrwt>
<totfact> 0.37850436E+00</totfact>
</mgrwt>
</event>
<event>
 8    1  0.1094795E-005  0.1080191E+04  0.7818608E-02  0.8723635E-01
         21   -1    0    0  503  502  0.00000000000E+00  0.00000000000E+00  0.13536202695E+04  0.13536202695E+04  0.00000000000E+00 0. -1.
         21   -1    0    0  501  503 -0.00000000000E+00 -0.00000000000E+00 -0.80417961680E+03  0.80417961680E+03  0.00000000000E+00 0. -1.
    9000010    2    1    2  501    0  0.26213384034E+03  0.22857051561E+03  0.11495554958E+03  0.99350186355E+03  0.92351098729E+03 0.  0.
   -9000010    2    1    2    0  502 -0.26213384034E+03 -0.22857051561E+03  0.43448510315E+03  0.11642980228E+04  0.10226700104E+04 0.  0.
        -13    1    3    3    0    0 -0.45423895413E+02 -0.26424756974E+03 -0.19832145411E+03  0.33349890362E+03  0.10566000000E+00 0.  1.
          4    1    3    3  501    0  0.30755773576E+03  0.49281808536E+03  0.31327700369E+03  0.66000295993E+03  0.00000000000E+00 0.  1.
         13    1    4    4    0    0 -0.38359226654E+03 -0.46687972172E+03 -0.54742010875E+02  0.60672596814E+03  0.10566000000E+00 0. -1.
         -4    1    4    4    0  502  0.12145842619E+03  0.23830920610E+03  0.48922711403E+03  0.55757205463E+03  0.00000000000E+00 0. -1.
<mgrwt>
<rscale>  2 0.10560534E+04</rscale>
<asrwt>0</asrwt>
<pdfrwt beam="1">  1       21 0.20824927E+00 0.10801910E+04</pdfrwt>
<pdfrwt beam="2">  1       21 0.12371994E+00 0.10801910E+04</pdfrwt>
<totfact> 0.27313133E+01</totfact>
</mgrwt>
</event>
<event>
 8    1  0.1094795E-005  0.1105756E+04  0.7818608E-02  0.8681777E-01
         21   -1    0    0  501  502  0.00000000000E+00  0.00000000000E+00  0.38025070914E+04  0.38025070914E+04  0.00000000000E+00 0.  1.
         21   -1    0    0  502  503 -0.00000000000E+00 -0.00000000000E+00 -0.33384278119E+03  0.33384278119E+03  0.00000000000E+00 0.  1.
   -9000010    2    1    2    0  503  0.41265151544E+03  0.22253122016E+03  0.13206430589E+04  0.17204250826E+04  0.99797943806E+03 0.  0.
    9000010    2    1    2  501    0 -0.41265151544E+03 -0.22253122016E+03  0.21480212514E+04  0.24159247900E+04  0.10014468920E+04 0.  0.
        -13    1    4    4    0    0  0.12312404731E+02 -0.22003897084E+03 -0.59178161411E+01  0.22046264017E+03  0.10566000000E+00 0.  1.
          4    1    4    4  501    0 -0.42496392017E+03 -0.24922493161E+01  0.21539390675E+04  0.21954621498E+04  0.00000000000E+00 0.  1.
         13    1    3    3    0    0  0.19067507220E+03 -0.27928657163E+03  0.10605944847E+04  0.11132019783E+04  0.10566000000E+00 0. -1.
         -4    1    3    3    0  503  0.22197644324E+03  0.50181779179E+03  0.26004857413E+03  0.60722310432E+03  0.00000000000E+00 0. -1.
<mgrwt>
<rscale>  2 0.11049708E+04</rscale>
<asrwt>0</asrwt>
<pdfrwt beam="1">  1       21 0.58500106E+00 0.11057564E+04</pdfrwt>
<pdfrwt beam="2">  1       21 0.51360431E-01 0.11057564E+04</pdfrwt>
<totfact> 0.50316572E-01</totfact>
</mgrwt>
</event>
<event>
 8    1  0.1094795E-005  0.1157521E+04  0.7818608E-02  0.8640463E-01
         21   -1    0    0  503  502  0.00000000000E+00  0.00000000000E+00  0.66590318895E+03  0.66590318895E+03  0.00000000000E+00 0. -1.
         21   -1    0    0  501  503 -0.00000000000E+00 -0.00000000000E+00 -0.20206622718E+04  0.20206622718E+04  0.00000000000E+00 0. -1.
    9000010    2    1    2  501    0 -0.33087829228E+03  0.48485241216E+03 -0.54465657085E+03  0.12737242902E+04  0.99053545184E+03 0.  0.
   -9000010    2    1    2    0  502  0.33087829228E+03 -0.48485241216E+03 -0.81010251202E+03  0.14128411706E+04  0.99764311627E+03 0.  0.
        -13    1    3    3    0    0  0.24857279657E+03  0.44480894856E+03 -0.46053663523E+03  0.68683144910E+03  0.10566000000E+00 0.  1.
          4    1    3    3  501    0 -0.57945108885E+03  0.40043463594E+02 -0.84119935618E+02  0.58689284108E+03  0.00000000000E+00 0.  1.
         13    1    4    4    0    0 -0.33316706973E+03 -0.33831012056E+03 -0.28614691125E+03  0.55437721816E+03  0.10566000000E+00 0. -1.
         -4    1    4    4    0  502  0.66404536201E+03 -0.14654229159E+03 -0.52395560077E+03  0.85846395243E+03  0.00000000000E+00 0. -1.
<mgrwt>
<rscale>  2 0.11559875E+04</rscale>
<asrwt>0</asrwt>
<pdfrwt beam="1">  1       21 0.10244665E+00 0.11575207E+04</pdfrwt>
<pdfrwt beam="2">  1       21 0.31087111E+00 0.11575207E+04</pdfrwt>
<totfact> 0.80771937E+00</totfact>
</mgrwt>
</event>
<event>
 8    1  0.1094795E-005  0.1173019E+04  0.7818608E-02  0.8627459E-01
         21   -1    0    0  501  502  0.00000000000E+00  0.00000000000E+00  0.23238475599E+04  0.23238475599E+04  0.00000000000E+00 0. -1.
         21   -1    0    0  502  503 -0.00000000000E+00 -0.00000000000E+00 -0.66708190469E+03  0.66708190469E+03  0.00000000000E+00 0. -1.
   -9000010    2    1    2    0  503  0.39817940358E+03 -0.46296731277E+03  0.32396855169E+03  0.12154513486E+04  0.99974036040E+03 0.  0.
    9000010    2    1    2  501    0 -0.39817940358E+03  0.46296731277E+03  0.13327971035E+04  0.17754781160E+04  0.10015432347E+04 0.  0.
        -13    1    4    4    0    0  0.80194982043E+02  0.40643685422E+03  0.12091636972E+04  0.12781623564E+04  0.10566000000E+00 0.  1.
          4    1    4    4  501    0 -0.47837438562E+03  0.56530458558E+02  0.12363340636E+03  0.49731575959E+03  0.00000000000E+00 0.  1.
         13    1    3    3    0    0  0.56505362088E+03  0.91641129887E+02  0.27253488407E+03  0.63400233860E+03  0.10566000000E+00 0. -1.
         -4    1    3    3    0  503 -0.16687421730E+03 -0.55460844266E+03  0.51433667617E+02  0.58144901000E+03  0.00000000000E+00 0. -1.
<mgrwt>
<rscale>  2 0.11726344E+04</rscale>
<asrwt>0</asrwt>
<pdfrwt beam="1">  1       21 0.35751501E+00 0.11730194E+04</pdfrwt>
<pdfrwt beam="2">  1       21 0.10262799E+00 0.11730194E+04</pdfrwt>
<totfact> 0.37694417E+00</totfact>
</mgrwt>
</event>
<event>
 8    1  0.1094795E-005  0.1072739E+04  0.7818608E-02  0.8746088E-01
         21   -1    0    0  501  502  0.00000000000E+00  0.00000000000E+00  0.11904938370E+04  0.11904938370E+04  0.00000000000E+00 0. -1.
         21   -1    0    0  502  503 -0.00000000000E+00 -0.00000000000E+00 -0.86975395028E+03  0.86975395028E+03  0.00000000000E+00 0. -1.
   -9000010    2    1    2    0  503 -0.42691395844E+02 -0.36658498534E+03  0.36874386592E+03  0.98643528875E+03  0.83718303464E+03 0.  0.
    9000010    2    1    2  501    0  0.42691395844E+02  0.36658498534E+03 -0.48003979222E+02  0.10738124985E+04  0.10072545821E+04 0.  0.
        -13    1    4    4    0    0 -0.30853143294E+02 -0.30035057127E+03 -0.22888512219E+03  0.37888097397E+03  0.10566000000E+00 0.  1.
          4    1    4    4  501    0  0.73544539138E+02  0.66693555661E+03  0.18088114296E+03  0.69493152454E+03  0.00000000000E+00 0.  1.
         13    1    3    3    0    0 -0.13696513933E+03 -0.25470292710E+03 -0.23035864855E+03  0.36972712721E+03  0.10566000000E+00 0. -1.
         -4    1    3    3    0  503  0.94273743489E+02 -0.11188205823E+03  0.59910251447E+03  0.61670816154E+03  0.00000000000E+00 0. -1.
<mgrwt>
<rscale>  2 0.10309001E+04</rscale>
<asrwt>0</asrwt>
<pdfrwt beam="1">  1       21 0.18315290E+00 0.10727390E+04</pdfrwt>
<pdfrwt beam="2">  1       21 0.13380830E+00 0.10727390E+04</pdfrwt>
<totfact> 0.34429789E+01</totfact>
</mgrwt>
</event>
<event>
 8    1  0.1094795E-005  0.1061775E+04  0.7818608E-02  0.8723121E-01
         21   -1    0    0  501  502  0.00000000000E+00  0.00000000000E+00  0.17329189134E+04  0.17329189134E+04  0.00000000000E+00 0. -1.
         21   -1    0    0  502  503 -0.00000000000E+00 -0.00000000000E+00 -0.91057521859E+03  0.91057521859E+03  0.00000000000E+00 0. -1.
   -9000010    2    1    2    0  503 -0.26854547298E+03 -0.10815363145E+03 -0.30900728358E+03  0.11058266920E+04  0.10215445622E+04 0.  0.
    9000010    2    1    2  501    0  0.26854547298E+03  0.10815363145E+03  0.11313509784E+04  0.15376674400E+04  0.10003260671E+04 0.  0.
        -13    1    4    4    0    0  0.64526258111E+03  0.73428828146E+02  0.83074932129E+03  0.10544667076E+04  0.10566000000E+00 0.  1.
          4    1    4    4  501    0 -0.37671710812E+03  0.34724803300E+02  0.30060165711E+03  0.48320073238E+03  0.00000000000E+00 0.  1.
         13    1    3    3    0    0  0.37346840584E+03 -0.16948880764E+03 -0.18107849705E+03  0.44832414538E+03  0.10566000000E+00 0. -1.
         -4    1    3    3    0  503 -0.64201387882E+03  0.61335176195E+02 -0.12792878653E+03  0.65750254666E+03  0.00000000000E+00 0. -1.
<mgrwt>
<rscale>  2 0.10566387E+04</rscale>
<asrwt>0</asrwt>
<pdfrwt beam="1">  1       21 0.26660291E+00 0.10617755E+04</pdfrwt>
<pdfrwt beam="2">  1       21 0.14008850E+00 0.10617755E+04</pdfrwt>
<totfact> 0.70793189E+00</totfact>
</mgrwt>
</event>
<event>
 8    1  0.1094795E-005  0.1070295E+04  0.7818608E-02  0.8714073E-01
         21   -1    0    0  501  502  0.00000000000E+00  0.00000000000E+00  0.51760758541E+03  0.51760758541E+03  0.00000000000E+00 0.  1.
         21   -1    0    0  502  503 -0.00000000000E+00 -0.00000000000E+00 -0.23936995381E+04  0.23936995381E+04  0.00000000000E+00 0.  1.
   -9000010    2    1    2    0  503  0.21739470717E+03  0.22535560148E+03 -0.13721053975E+04  0.17401734338E+04  0.10234670253E+04 0.  0.
    9000010    2    1    2  501    0 -0.21739470717E+03 -0.22535560148E+03 -0.50398655516E+03  0.11711336897E+04  0.10097059302E+04 0.  0.
        -13    1    4    4    0    0  0.26322416738E+03 -0.31412796722E+02 -0.58902516326E+03  0.64592908296E+03  0.10566000000E+00 0.  1.
          4    1    4    4  501    0 -0.48061887455E+03 -0.19394280476E+03  0.85038608101E+02  0.52520460676E+03  0.00000000000E+00 0.  1.
         13    1    3    3    0    0  0.97677816532E+02 -0.35897121434E+03 -0.19373900383E+03  0.41944737612E+03  0.10566000000E+00 0. -1.
         -4    1    3    3    0  503  0.11971689064E+03  0.58432681582E+03 -0.11783663937E+04  0.13207260577E+04  0.00000000000E+00 0. -1.
<mgrwt>
<rscale>  2 0.10669914E+04</rscale>
<asrwt>0</asrwt>
<pdfrwt beam="1">  1       21 0.79631935E-01 0.10702945E+04</pdfrwt>
<pdfrwt beam="2">  1       21 0.36826147E+00 0.10702945E+04</pdfrwt>
<totfact> 0.61868996E+00</totfact>
</mgrwt>
</event>
<event>
 8    1  0.1094795E-005  0.1101915E+04  0.7818608E-02  0.8692435E-01
         21   -1    0    0  503  502  0.00000000000E+00  0.00000000000E+00  0.12853894440E+04  0.12853894440E+04  0.00000000000E+00 0.  1.
         21   -1    0    0  501  503 -0.00000000000E+00 -0.00000000000E+00 -0.97429862411E+03  0.97429862411E+03  0.00000000000E+00 0.  1.
    9000010    2    1    2  501    0  0.22016325778E+03 -0.38577239819E+03 -0.13215003577E+03  0.10719677466E+04  0.96662247778E+03 0.  0.
   -9000010    2    1    2    0  502 -0.22016325778E+03  0.38577239819E+03  0.44324085562E+03  0.11877203214E+04  0.10084269446E+04 0.  0.
        -13    1    3    3    0    0  0.14358670895E+03  0.26257222146E+03  0.17904770642E+03  0.34873974079E+03  0.10566000000E+00 0.  1.
          4    1    3    3  501    0  0.76576548827E+02 -0.64834461965E+03 -0.31119774220E+03  0.72322800582E+03  0.00000000000E+00 0.  1.
         13    1    4    4    0    0 -0.40527268956E+03  0.65726319260E+03  0.33564239246E+03  0.84196002520E+03  0.10566000000E+00 0. -1.
         -4    1    4    4    0  502  0.18510943178E+03 -0.27149079441E+03  0.10759846317E+03  0.34576029625E+03  0.00000000000E+00 0. -1.
<mgrwt>
<rscale>  2 0.10922579E+04</rscale>
<asrwt>0</asrwt>
<pdfrwt beam="1">  1       21 0.19775222E+00 0.11019152E+04</pdfrwt>
<pdfrwt beam="2">  1       21 0.14989210E+00 0.11019152E+04</pdfrwt>
<totfact> 0.18611574E+01</totfact>
</mgrwt>
</event>
<event>
 8    1  0.1094795E-005  0.1029634E+04  0.7818608E-02  0.8752569E-01
         21   -1    0    0  503  502  0.00000000000E+00  0.00000000000E+00  0.18559443866E+04  0.18559443866E+04  0.00000000000E+00 0. -1.
         21   -1    0    0  501  503 -0.00000000000E+00 -0.00000000000E+00 -0.55932731475E+03  0.55932731475E+03  0.00000000000E+00 0. -1.
    9000010    2    1    2  501    0 -0.26411542750E+03 -0.81564732306E+02  0.59167805212E+03  0.11674397600E+04  0.96768947048E+03 0.  0.
   -9000010    2    1    2    0  502  0.26411542750E+03  0.81564732306E+02  0.70493901971E+03  0.12478319413E+04  0.99183454651E+03 0.  0.
        -13    1    3    3    0    0 -0.53266695201E+03  0.23406386248E+03  0.42611199874E+03  0.72117364075E+03  0.10566000000E+00 0.  1.
          4    1    3    3  501    0  0.26855152451E+03 -0.31562859479E+03  0.16556605338E+03  0.44626611926E+03  0.00000000000E+00 0.  1.
         13    1    4    4    0    0  0.17906226862E+03  0.45109809793E+03  0.72003829175E+03  0.86833630740E+03  0.10566000000E+00 0. -1.
         -4    1    4    4    0  502  0.85053158875E+02 -0.36953336562E+03 -0.15099272046E+02  0.37949563391E+03  0.00000000000E+00 0. -1.
<mgrwt>
<rscale>  2 0.10237744E+04</rscale>
<asrwt>0</asrwt>
<pdfrwt beam="1">  1       21 0.28552990E+00 0.10296337E+04</pdfrwt>
<pdfrwt beam="2">  1       21 0.86050357E-01 0.10296337E+04</pdfrwt>
<totfact> 0.19678493E+01</totfact>
</mgrwt>
</event>
<event>
 8    1  0.1094795E-005  0.1155316E+04  0.7818608E-02  0.8654533E-01
         21   -1    0    0  503  502  0.00000000000E+00  0.00000000000E+00  0.12824090966E+04  0.12824090966E+04  0.00000000000E+00 0. -1.
         21   -1    0    0  501  503 -0.00000000000E+00 -0.00000000000E+00 -0.10039056105E+04  0.10039056105E+04  0.00000000000E+00 0. -1.
    9000010    2    1    2  501    0 -0.27664708513E+03  0.39132042654E+03 -0.26669438461E+02  0.11556234421E+04  0.10512321318E+04 0.  0.
   -9000010    2    1    2    0  502  0.27664708513E+03 -0.39132042654E+03  0.30517292454E+03  0.11306912651E+04  0.97758218943E+03 0.  0.
        -13    1    3    3    0    0 -0.25675603858E+03  0.24881645362E+02 -0.49646677521E+03  0.55948371707E+03  0.10566000000E+00 0.  1.
          4    1    3    3  501    0 -0.19891046550E+02  0.36643878118E+03  0.46979733674E+03  0.59613972498E+03  0.00000000000E+00 0.  1.
         13    1    4    4    0    0  0.92683023648E+02 -0.69522864722E+03  0.70468247740E+02  0.70491049070E+03  0.10566000000E+00 0. -1.
         -4    1    4    4    0  502  0.18396406148E+03  0.30390822068E+03  0.23470467680E+03  0.42578077437E+03  0.00000000000E+00 0. -1.
<mgrwt>
<rscale>  2 0.11382968E+04</rscale>
<asrwt>0</asrwt>
<pdfrwt beam="1">  1       21 0.19729371E+00 0.11553157E+04</pdfrwt>
<pdfrwt beam="2">  1       21 0.15444702E+00 0.11553157E+04</pdfrwt>
<totfact> 0.16909468E+01</totfact>
</mgrwt>
</event>
<event>
 8    1  0.1094795E-005  0.1085366E+04  0.7818608E-02  0.8703060E-01
         21   -1    0    0  503  502  0.00000000000E+00  0.00000000000E+00  0.27498949655E+04  0.27498949655E+04  0.00000000000E+00 0. -1.
         21   -1    0    0  501  503 -0.00000000000E+00 -0.00000000000E+00 -0.42416545764E+03  0.42416545764E+03  0.00000000000E+00 0. -1.
    9000010    2    1    2  501    0 -0.29718150482E+03 -0.21490488853E+03  0.98724333788E+03  0.14508179544E+04  0.99785889321E+03 0.  0.
   -9000010    2    1    2    0  502  0.29718150482E+03  0.21490488853E+03  0.13384861700E+04  0.17232424687E+04  0.10215274940E+04 0.  0.
        -13    1    3    3    0    0  0.28862167186E+03 -0.33832352309E+03  0.28576268337E+03  0.52860722481E+03  0.10566000000E+00 0.  1.
          4    1    3    3  501    0 -0.58580317668E+03  0.12341863457E+03  0.70148065451E+03  0.92221072961E+03  0.00000000000E+00 0.  1.
         13    1    4    4    0    0  0.58037256813E+03 -0.18405565294E+02  0.11962240689E+04  0.13297079066E+04  0.10566000000E+00 0. -1.
         -4    1    4    4    0  502 -0.28319106331E+03  0.23331045382E+03  0.14226210110E+03  0.39353456216E+03  0.00000000000E+00 0. -1.
<mgrwt>
<rscale>  2 0.10797611E+04</rscale>
<asrwt>0</asrwt>
<pdfrwt beam="1">  1       21 0.42306075E+00 0.10853660E+04</pdfrwt>
<pdfrwt beam="2">  1       21 0.65256226E-01 0.10853660E+04</pdfrwt>
<totfact> 0.41229237E+00</totfact>
</mgrwt>
</event>
<event>
 8    1  0.1094795E-005  0.1139516E+04  0.7818608E-02  0.8653841E-01
         21   -1    0    0  503  502  0.00000000000E+00  0.00000000000E+00  0.20076490846E+04  0.20076490846E+04  0.00000000000E+00 0. -1.
         21   -1    0    0  501  503 -0.00000000000E+00 -0.00000000000E+00 -0.67316003856E+03  0.67316003856E+03  0.00000000000E+00 0. -1.
    9000010    2    1    2  501    0 -0.10453546987E+03  0.52782982323E+03  0.39824013768E+03  0.12071006415E+04  0.10044723813E+04 0.  0.
   -9000010    2    1    2    0  502  0.10453546987E+03 -0.52782982323E+03  0.93624890834E+03  0.14737084816E+04  0.10028572599E+04 0.  0.
        -13    1    3    3    0    0 -0.50619031768E+03  0.50549558618E+03  0.13962928561E+03  0.72886951777E+03  0.10566000000E+00 0.  1.
          4    1    3    3  501    0  0.40165484781E+03  0.22334237042E+02  0.25861085206E+03  0.47823112375E+03  0.00000000000E+00 0.  1.
         13    1    4    4    0    0 -0.56828587772E+02 -0.11404514571E+03  0.10147246410E+04  0.10226934496E+04  0.10566000000E+00 0. -1.
         -4    1    4    4    0  502  0.16136405764E+03 -0.41378467751E+03 -0.78475732704E+02  0.45101503197E+03  0.00000000000E+00 0. -1.
<mgrwt>
<rscale>  2 0.11391600E+04</rscale>
<asrwt>0</asrwt>
<pdfrwt beam="1">  1       21 0.30886909E+00 0.11395160E+04</pdfrwt>
<pdfrwt beam="2">  1       21 0.10356308E+00 0.11395160E+04</pdfrwt>
<totfact> 0.81378341E+00</totfact>
</mgrwt>
</event>
<event>
 8    1  0.1094795E-005  0.1088079E+04  0.7818608E-02  0.8709199E-01
         21   -1    0    0  501  502  0.00000000000E+00  0.00000000000E+00  0.65049632785E+03  0.65049632785E+03  0.00000000000E+00 0.  1.
         21   -1    0    0  502  503 -0.00000000000E+00 -0.00000000000E+00 -0.17233554603E+04  0.17233554603E+04  0.00000000000E+00 0.  1.
   -9000010    2    1    2    0  503  0.20788568142E+03  0.51258422496E+02 -0.57205299533E+03  0.11760530882E+04  0.10049937087E+04 0.  0.
    9000010    2    1    2  501    0 -0.20788568142E+03 -0.51258422496E+02 -0.50080613708E+03  0.11977986999E+04  0.10668041320E+04 0.  0.
        -13    1    4    4    0    0 -0.18155917374E+03 -0.43856383758E+03 -0.62988164779E+03  0.78870328679E+03  0.10566000000E+00 0.  1.
          4    1    4    4  501    0 -0.26326507684E+02  0.38730541508E+03  0.12907551071E+03  0.40909541310E+03  0.00000000000E+00 0.  1.
         13    1    3    3    0    0 -0.26682717619E+03  0.74813716547E+02  0.14732119308E+03  0.31384292127E+03  0.10566000000E+00 0. -1.
         -4    1    3    3    0  503  0.47471285761E+03 -0.23555294051E+02 -0.71937418841E+03  0.86221016696E+03  0.00000000000E+00 0. -1.
<mgrwt>
<rscale>  2 0.10726197E+04</rscale>
<asrwt>0</asrwt>
<pdfrwt beam="1">  1       21 0.10007636E+00 0.10880786E+04</pdfrwt>
<pdfrwt beam="2">  1       21 0.26513161E+00 0.10880786E+04</pdfrwt>
<totfact> 0.18437402E+01</totfact>
</mgrwt>
</event>
<event>
 8    1  0.1094795E-005  0.1495321E+04  0.7818608E-02  0.8412395E-01
         21   -1    0    0  503  502  0.00000000000E+00  0.00000000000E+00  0.65042375964E+03  0.65042375964E+03  0.00000000000E+00 0.  1.
         21   -1    0    0  501  503 -0.00000000000E+00 -0.00000000000E+00 -0.34420241589E+04  0.34420241589E+04  0.00000000000E+00 0. -1.
    9000010    2    1    2  501    0 -0.39562888012E+03 -0.10427835343E+04 -0.13012657585E+04  0.19822402686E+04  0.99602419544E+03 0.  0.
   -9000010    2    1    2    0  502  0.39562888012E+03  0.10427835343E+04 -0.14903346408E+04  0.21102076500E+04  0.99396140498E+03 0.  0.
        -13    1    3    3    0    0 -0.16965795515E+03 -0.12441845819E+03  0.14405769657E+03  0.25498314766E+03  0.10566000000E+00 0.  1.
          4    1    3    3  501    0 -0.22597092497E+03 -0.91836507607E+03 -0.14453234551E+04  0.17272571209E+04  0.00000000000E+00 0.  1.
         13    1    4    4    0    0 -0.23712273018E+03  0.62441942881E+02 -0.58191699254E+03  0.63146938387E+03  0.10566000000E+00 0. -1.
         -4    1    4    4    0  502  0.63275161030E+03  0.98034159137E+03 -0.90841764822E+03  0.14787382661E+04  0.00000000000E+00 0. -1.
<mgrwt>
<rscale>  2 0.14949772E+04</rscale>
<asrwt>0</asrwt>
<pdfrwt beam="1">  1       21 0.10006519E+00 0.14953207E+04</pdfrwt>
<pdfrwt beam="2">  1       21 0.52954218E+00 0.14953207E+04</pdfrwt>
<totfact> 0.23988152E-01</totfact>
</mgrwt>
</event>
<event>
 8    1  0.1094795E-005  0.1304045E+04  0.7818608E-02  0.8537818E-01
         21   -1    0    0  501  502  0.00000000000E+00  0.00000000000E+00  0.12289547525E+04  0.12289547525E+04  0.00000000000E+00 0. -1.
         21   -1    0    0  502  503 -0.00000000000E+00 -0.00000000000E+00 -0.13534286066E+04  0.13534286066E+04  0.00000000000E+00 0.  1.
   -9000010    2    1    2    0  503  0.64554067774E+02  0.77954607690E+03 -0.13966787760E+03  0.13115034818E+04  0.10433958755E+04 0.  0.
    9000010    2    1    2  501    0 -0.64554067774E+02 -0.77954607690E+03  0.15194023557E+02  0.12708798773E+04  0.10015215877E+04 0.  0.
        -13    1    4    4    0    0  0.69494510321E+02 -0.46177438132E+03 -0.47853144558E+03  0.66862352769E+03  0.10566000000E+00 0.  1.
          4    1    4    4  501    0 -0.13404857810E+03 -0.31777169558E+03  0.49372546914E+03  0.60225634963E+03  0.00000000000E+00 0.  1.
         13    1    3    3    0    0  0.40099073637E+03  0.17043699287E+03 -0.37712938826E+03  0.57625421981E+03  0.10566000000E+00 0. -1.
         -4    1    3    3    0  503 -0.33643666860E+03  0.60910908403E+03  0.23746151066E+03  0.73524926200E+03  0.00000000000E+00 0. -1.
<mgrwt>
<rscale>  2 0.12956506E+04</rscale>
<asrwt>0</asrwt>
<pdfrwt beam="1">  1       21 0.18906996E+00 0.13040453E+04</pdfrwt>
<pdfrwt beam="2">  1       21 0.20821978E+00 0.13040453E+04</pdfrwt>
<totfact> 0.69199448E+00</totfact>
</mgrwt>
</event>
<event>
 8    1  0.1094795E-005  0.1126862E+04  0.7818608E-02  0.8664869E-01
         21   -1    0    0  501  502  0.00000000000E+00  0.00000000000E+00  0.89202507785E+03  0.89202507785E+03  0.00000000000E+00 0.  1.
         21   -1    0    0  502  503 -0.00000000000E+00 -0.00000000000E+00 -0.15055700222E+04  0.15055700222E+04  0.00000000000E+00 0.  1.
   -9000010    2    1    2    0  503 -0.49542997309E+03  0.14913418491E+03 -0.16242510123E+02  0.11269791462E+04  0.10010625922E+04 0.  0.
    9000010    2    1    2  501    0  0.49542997309E+03 -0.14913418491E+03 -0.59730243424E+03  0.12706159539E+04  0.99498886474E+03 0.  0.
        -13    1    4    4    0    0  0.63754120248E+03 -0.21760972963E+03 -0.21932720061E+02  0.67401323033E+03  0.10566000000E+00 0.  1.
          4    1    4    4  501    0 -0.14211122939E+03  0.68475544716E+02 -0.57536971418E+03  0.59660272355E+03  0.00000000000E+00 0.  1.
         13    1    3    3    0    0 -0.10121840519E+03  0.51239232358E+01 -0.48634362588E+03  0.49679125771E+03  0.10566000000E+00 0. -1.
         -4    1    3    3    0  503 -0.39421156791E+03  0.14401026168E+03  0.47010111576E+03  0.63018788847E+03  0.00000000000E+00 0. -1.
<mgrwt>
<rscale>  2 0.11255116E+04</rscale>
<asrwt>0</asrwt>
<pdfrwt beam="1">  1       21 0.13723463E+00 0.11268621E+04</pdfrwt>
<pdfrwt beam="2">  1       21 0.23162615E+00 0.11268621E+04</pdfrwt>
<totfact> 0.13340686E+01</totfact>
</mgrwt>
</event>
<event>
 8    1  0.1094795E-005  0.1141764E+04  0.7818608E-02  0.8655662E-01
         21   -1    0    0  501  502  0.00000000000E+00  0.00000000000E+00  0.20657958782E+04  0.20657958782E+04  0.00000000000E+00 0. -1.
         21   -1    0    0  502  503 -0.00000000000E+00 -0.00000000000E+00 -0.62179917178E+03  0.62179917178E+03  0.00000000000E+00 0. -1.
   -9000010    2    1    2    0  503 -0.49461662003E+03 -0.13351024632E+03  0.79197422931E+03  0.13895492490E+04  0.10203692218E+04 0.  0.
    9000010    2    1    2  501    0  0.49461662003E+03  0.13351024632E+03  0.65202247710E+03  0.12980458010E+04  0.99865860235E+03 0.  0.
        -13    1    4    4    0    0  0.60554393656E+03 -0.29659407005E+03  0.33938801719E+03  0.75487465110E+03  0.10566000000E+00 0.  1.
          4    1    4    4  501    0 -0.11092731653E+03  0.43010431637E+03  0.31263445992E+03  0.54317114986E+03  0.00000000000E+00 0.  1.
         13    1    3    3    0    0 -0.63226195415E+03 -0.44398234418E+03  0.68762168126E+03  0.10342625819E+04  0.10566000000E+00 0. -1.
         -4    1    3    3    0  503  0.13764533411E+03  0.31047209786E+03  0.10435254804E+03  0.35528666712E+03  0.00000000000E+00 0. -1.
<mgrwt>
<rscale>  2 0.11368924E+04</rscale>
<asrwt>0</asrwt>
<pdfrwt beam="1">  1       21 0.31781475E+00 0.11417635E+04</pdfrwt>
<pdfrwt beam="2">  1       21 0.95661412E-01 0.11417635E+04</pdfrwt>
<totfact> 0.86619138E+00</totfact>
</mgrwt>
</event>
<event>
 8    1  0.1094795E-005  0.1777145E+04  0.7818608E-02  0.8267287E-01
         21   -1    0    0  501  502  0.00000000000E+00  0.00000000000E+00  0.17695275292E+04  0.17695275292E+04  0.00000000000E+00 0.  1.
         21   -1    0    0  502  503 -0.00000000000E+00 -0.00000000000E+00 -0.23687924323E+04  0.23687924323E+04  0.00000000000E+00 0. -1.
   -9000010    2    1    2    0  503 -0.23084904955E+03 -0.14702065892E+04  0.74036561715E+03  0.19128191038E+04  0.94653947519E+03 0.  0.
    9000010    2    1    2  501    0  0.23084904955E+03  0.14702065892E+04 -0.13396305203E+04  0.22255008577E+04  0.97131119520E+03 0.  0.
        -13    1    4    4    0    0  0.45859395368E+01 -0.30560711258E+02 -0.48047822104E+03  0.48147099599E+03  0.10566000000E+00 0.  1.
          4    1    4    4  501    0  0.22626311001E+03  0.15007673005E+04 -0.85915229928E+03  0.17440298617E+04  0.00000000000E+00 0.  1.
         13    1    3    3    0    0 -0.37488361006E+03 -0.10694793715E+04  0.91103270178E+03  0.14540647998E+04  0.10566000000E+00 0. -1.
         -4    1    3    3    0  503  0.14403456051E+03 -0.40072721775E+03 -0.17066708463E+03  0.45875430400E+03  0.00000000000E+00 0. -1.
<mgrwt>
<rscale>  2 0.17737811E+04</rscale>
<asrwt>0</asrwt>
<pdfrwt beam="1">  1       21 0.27223500E+00 0.17771449E+04</pdfrwt>
<pdfrwt beam="2">  1       21 0.36442961E+00 0.17771449E+04</pdfrwt>
<totfact> 0.11311055E-01</totfact>
</mgrwt>
</event>
<event>
 8    1  0.1094795E-005  0.1223019E+04  0.7818608E-02  0.8623386E-01
         21   -1    0    0  503  502  0.00000000000E+00  0.00000000000E+00  0.15707016532E+04  0.15707016532E+04  0.00000000000E+00 0.  1.
         21   -1    0    0  501  503 -0.00000000000E+00 -0.00000000000E+00 -0.83234276227E+03  0.83234276227E+03  0.00000000000E+00 0. -1.
    9000010    2    1    2  501    0  0.66776350728E+03 -0.22139883832E+03  0.22195166287E+03  0.10754711790E+04  0.78259195556E+03 0.  0.
   -9000010    2    1    2    0  502 -0.66776350728E+03  0.22139883832E+03  0.51640722809E+03  0.13275732365E+04  0.10004242729E+04 0.  0.
        -13    1    3    3    0    0  0.38252178496E+03  0.26383014455E+03 -0.14632807073E+02  0.46491224048E+03  0.10566000000E+00 0.  1.
          4    1    3    3  501    0  0.28524172232E+03 -0.48522898287E+03  0.23658446994E+03  0.61055893850E+03  0.00000000000E+00 0.  1.
         13    1    4    4    0    0 -0.53747324485E+03 -0.11400930502E+03 -0.15060105484E+03  0.56969842851E+03  0.10566000000E+00 0. -1.
         -4    1    4    4    0  502 -0.13029026243E+03  0.33540814334E+03  0.66700828293E+03  0.75787480800E+03  0.00000000000E+00 0. -1.
<mgrwt>
<rscale>  2 0.11779087E+04</rscale>
<asrwt>0</asrwt>
<pdfrwt beam="1">  1       21 0.24164641E+00 0.12230185E+04</pdfrwt>
<pdfrwt beam="2">  1       21 0.12805273E+00 0.12230185E+04</pdfrwt>
<totfact> 0.13503068E+01</totfact>
</mgrwt>
</event>
<event>
 8    1  0.1094795E-005  0.1096547E+04  0.7818608E-02  0.8692136E-01
         21   -1    0    0  501  502  0.00000000000E+00  0.00000000000E+00  0.19685241978E+04  0.19685241978E+04  0.00000000000E+00 0.  1.
         21   -1    0    0  502  503 -0.00000000000E+00 -0.00000000000E+00 -0.60428940514E+03  0.60428940514E+03  0.00000000000E+00 0.  1.
   -9000010    2    1    2    0  503  0.37097188349E+03  0.27038807757E+03  0.61012058323E+03  0.12548555835E+04  0.99583410191E+03 0.  0.
    9000010    2    1    2  501    0 -0.37097188349E+03 -0.27038807757E+03  0.75411420947E+03  0.13179580195E+04  0.97856795847E+03 0.  0.
        -13    1    4    4    0    0  0.29935045784E+03 -0.13219437039E+03  0.41426011607E+02  0.32985174515E+03  0.10566000000E+00 0.  1.
          4    1    4    4  501    0 -0.67032234134E+03 -0.13819370718E+03  0.71268819786E+03  0.98810627433E+03  0.00000000000E+00 0.  1.
         13    1    3    3    0    0  0.66588868988E+03 -0.81100796424E+01  0.24648181126E+03  0.71008930082E+03  0.10566000000E+00 0. -1.
         -4    1    3    3    0  503 -0.29491680638E+03  0.27849815722E+03  0.36363877198E+03  0.54476628268E+03  0.00000000000E+00 0. -1.
<mgrwt>
<rscale>  2 0.10926119E+04</rscale>
<asrwt>0</asrwt>
<pdfrwt beam="1">  1       21 0.30284987E+00 0.10965470E+04</pdfrwt>
<pdfrwt beam="2">  1       21 0.92967602E-01 0.10965470E+04</pdfrwt>
<totfact> 0.11992642E+01</totfact>
</mgrwt>
</event>
<event>
 8    1  0.1094795E-005  0.1344210E+04  0.7818608E-02  0.8507086E-01
         21   -1    0    0  501  502  0.00000000000E+00  0.00000000000E+00  0.12760868860E+04  0.12760868860E+04  0.00000000000E+00 0. -1.
         21   -1    0    0  502  503 -0.00000000000E+00 -0.00000000000E+00 -0.35068785578E+04  0.35068785578E+04  0.00000000000E+00 0. -1.
   -9000010    2    1    2    0  503 -0.78243112947E+03 -0.37987719155E+03 -0.29691165828E+04  0.32592258521E+04  0.10248876621E+04 0.  0.
    9000010    2    1    2  501    0  0.78243112947E+03  0.37987719155E+03  0.73832491101E+03  0.15237395916E+04  0.10100264927E+04 0.  0.
        -13    1    4    4    0    0  0.92941685690E+03  0.56112567902E+03  0.51842542881E+03  0.12030971108E+04  0.10566000000E+00 0.  1.
          4    1    4    4  501    0 -0.14698572742E+03 -0.18124848746E+03  0.21989948220E+03  0.32064248088E+03  0.00000000000E+00 0.  1.
         13    1    3    3    0    0 -0.85109657075E+03  0.77429218859E+02 -0.15971484760E+04  0.18114204156E+04  0.10566000000E+00 0. -1.
         -4    1    3    3    0  503  0.68665441279E+02 -0.45730641041E+03 -0.13719681069E+04  0.14478054365E+04  0.00000000000E+00 0. -1.
<mgrwt>
<rscale>  2 0.13413768E+04</rscale>
<asrwt>0</asrwt>
<pdfrwt beam="1">  1       21 0.19632106E+00 0.13442098E+04</pdfrwt>
<pdfrwt beam="2">  1       21 0.53951979E+00 0.13442098E+04</pdfrwt>
<totfact> 0.27024367E-02</totfact>
</mgrwt>
</event>
<event>
 8    1  0.1094795E-005  0.1250567E+04  0.7818608E-02  0.8572056E-01
         21   -1    0    0  503  502  0.00000000000E+00  0.00000000000E+00  0.84875379898E+03  0.84875379898E+03  0.00000000000E+00 0. -1.
         21   -1    0    0  501  503 -0.00000000000E+00 -0.00000000000E+00 -0.18786004527E+04  0.18786004527E+04  0.00000000000E+00 0. -1.
    9000010    2    1    2  501    0  0.15732472111E+03  0.69771949770E+03 -0.27355908030E+03  0.12658866214E+04  0.10080033742E+04 0.  0.
   -9000010    2    1    2    0  502 -0.15732472111E+03 -0.69771949770E+03 -0.75628757344E+03  0.14614676303E+04  0.10258426660E+04 0.  0.
        -13    1    3    3    0    0  0.13728988672E+03  0.71653408893E+02  0.34957320007E+03  0.38234036849E+03  0.10566000000E+00 0.  1.
          4    1    3    3  501    0  0.20034834393E+02  0.62606608881E+03 -0.62313228037E+03  0.88354625289E+03  0.00000000000E+00 0.  1.
         13    1    4    4    0    0 -0.57711670800E+03 -0.54802161511E+03 -0.56738154202E+03  0.97740125367E+03  0.10566000000E+00 0. -1.
         -4    1    4    4    0  502  0.41979198688E+03 -0.14969788259E+03 -0.18890603141E+03  0.48406637665E+03  0.00000000000E+00 0. -1.
<mgrwt>
<rscale>  2 0.12469026E+04</rscale>
<asrwt>0</asrwt>
<pdfrwt beam="1">  1       21 0.13057751E+00 0.12505666E+04</pdfrwt>
<pdfrwt beam="2">  1       21 0.28901545E+00 0.12505666E+04</pdfrwt>
<totfact> 0.57820087E+00</totfact>
</mgrwt>
</event>
<event>
 8    1  0.1094795E-005  0.1149770E+04  0.7818608E-02  0.8646392E-01
         21   -1    0    0  503  502  0.00000000000E+00  0.00000000000E+00  0.84579339448E+03  0.84579339448E+03  0.00000000000E+00 0.  1.
         21   -1    0    0  501  503 -0.00000000000E+00 -0.00000000000E+00 -0.15946299900E+04  0.15946299900E+04  0.00000000000E+00 0.  1.
    9000010    2    1    2  501    0 -0.24360126268E+03  0.52886581525E+03 -0.18547489189E+03  0.11646337043E+04  0.99142831511E+03 0.  0.
   -9000010    2    1    2    0  502  0.24360126268E+03 -0.52886581525E+03 -0.56336170363E+03  0.12757896802E+04  0.98550610002E+03 0.  0.
        -13    1    3    3    0    0 -0.17992853219E+03  0.78016735050E+03 -0.33210952333E+03  0.86679416134E+03  0.10566000000E+00 0.  1.
          4    1    3    3  501    0 -0.63672730489E+02 -0.25130153525E+03  0.14663463143E+03  0.29783954298E+03  0.00000000000E+00 0.  1.
         13    1    4    4    0    0 -0.31422993546E+03  0.18537885090E+01  0.12217258004E+02  0.31447283099E+03  0.10566000000E+00 0. -1.
         -4    1    4    4    0  502  0.55783119814E+03 -0.53071960376E+03 -0.57557896163E+03  0.96131684918E+03  0.00000000000E+00 0. -1.
<mgrwt>
<rscale>  2 0.11484921E+04</rscale>
<asrwt>0</asrwt>
<pdfrwt beam="1">  1       21 0.13012206E+00 0.11497699E+04</pdfrwt>
<pdfrwt beam="2">  1       21 0.24532769E+00 0.11497699E+04</pdfrwt>
<totfact> 0.12296564E+01</totfact>
</mgrwt>
</event>
<event>
 8    1  0.1094795E-005  0.1059628E+04  0.7818608E-02  0.8721845E-01
         21   -1    0    0  501  502  0.00000000000E+00  0.00000000000E+00  0.81884278638E+03  0.81884278638E+03  0.00000000000E+00 0. -1.
         21   -1    0    0  502  503 -0.00000000000E+00 -0.00000000000E+00 -0.13634965963E+04  0.13634965963E+04  0.00000000000E+00 0. -1.
   -9000010    2    1    2    0  503  0.31584589327E+03 -0.22645528592E+03 -0.28654106813E+03  0.10976871194E+04  0.98578425816E+03 0.  0.
    9000010    2    1    2  501    0 -0.31584589327E+03  0.22645528592E+03 -0.25811274183E+03  0.10846522633E+04  0.97918727521E+03 0.  0.
        -13    1    4    4    0    0  0.12616526309E+03  0.49224393005E+03 -0.56475864088E+00  0.50815557696E+03  0.10566000000E+00 0.  1.
          4    1    4    4  501    0 -0.44201115636E+03 -0.26578864412E+03 -0.25754798319E+03  0.57649668632E+03  0.00000000000E+00 0.  1.
         13    1    3    3    0    0  0.73465308079E+02 -0.50758207369E+03  0.14060404972E+03  0.53179528297E+03  0.10566000000E+00 0. -1.
         -4    1    3    3    0  503  0.24238058519E+03  0.28112678777E+03 -0.42714511786E+03  0.56589183647E+03  0.00000000000E+00 0. -1.
<mgrwt>
<rscale>  2 0.10580909E+04</rscale>
<asrwt>0</asrwt>
<pdfrwt beam="1">  1       21 0.12597582E+00 0.10596279E+04</pdfrwt>
<pdfrwt beam="2">  1       21 0.20976870E+00 0.10596279E+04</pdfrwt>
<totfact> 0.25367202E+01</totfact>
</mgrwt>
</event>
<event>
 8    1  0.1094795E-005  0.1386261E+04  0.7818608E-02  0.8500043E-01
         21   -1    0    0  503  502  0.00000000000E+00  0.00000000000E+00  0.88520361265E+03  0.88520361265E+03  0.00000000000E+00 0.  1.
         21   -1    0    0  501  503 -0.00000000000E+00 -0.00000000000E+00 -0.28984960374E+04  0.28984960374E+04  0.00000000000E+00 0.  1.
    9000010    2    1    2  501    0 -0.93858361826E+02  0.75337378852E+03 -0.20425461960E+04  0.23971297563E+04  0.99892674822E+03 0.  0.
   -9000010    2    1    2    0  502  0.93858361826E+02 -0.75337378852E+03  0.29253771232E+02  0.13865698938E+04  0.11598874212E+04 0.  0.
        -13    1    3    3    0    0  0.14803920174E+03  0.65713182271E+03 -0.20273738534E+04  0.21363479563E+04  0.10566000000E+00 0.  1.
          4    1    3    3  501    0 -0.24189756356E+03  0.96241965812E+02 -0.15172342623E+02  0.26078180002E+03  0.00000000000E+00 0.  1.
         13    1    4    4    0    0 -0.30778404205E+03 -0.99892730347E+02  0.41641016223E+03  0.52735851988E+03  0.10566000000E+00 0. -1.
         -4    1    4    4    0  502  0.40164240388E+03 -0.65348105817E+03 -0.38715639100E+03  0.85921137392E+03  0.00000000000E+00 0. -1.
<mgrwt>
<rscale>  2 0.13521272E+04</rscale>
<asrwt>0</asrwt>
<pdfrwt beam="1">  1       21 0.13618517E+00 0.13862613E+04</pdfrwt>
<pdfrwt beam="2">  1       21 0.44592247E+00 0.13862613E+04</pdfrwt>
<totfact> 0.39791614E-01</totfact>
</mgrwt>
</event>
<event>
 8    1  0.1094795E-005  0.1250876E+04  0.7818608E-02  0.8603241E-01
         21   -1    0    0  501  502  0.00000000000E+00  0.00000000000E+00  0.12238960864E+04  0.12238960864E+04  0.00000000000E+00 0. -1.
         21   -1    0    0  502  503 -0.00000000000E+00 -0.00000000000E+00 -0.15402724348E+04  0.15402724348E+04  0.00000000000E+00 0. -1.
   -9000010    2    1    2    0  503 -0.37872641122E+03  0.24056389845E+03 -0.88268366298E+03  0.13910718530E+04  0.97705975631E+03 0.  0.
    9000010    2    1    2  501    0  0.37872641122E+03 -0.24056389845E+03  0.56630731454E+03  0.13730966683E+04  0.11676411273E+04 0.  0.
        -13    1    4    4    0    0 -0.29163440302E+03  0.27795409216E+03  0.16428469169E+03  0.43508455898E+03  0.10566000000E+00 0.  1.
          4    1    4    4  501    0  0.67036081424E+03 -0.51851799061E+03  0.40202262285E+03  0.93801210927E+03  0.00000000000E+00 0.  1.
         13    1    3    3    0    0  0.31219183087E+03  0.67488089457E+01 -0.11671502686E+03  0.33336420675E+03  0.10566000000E+00 0. -1.
         -4    1    3    3    0  503 -0.69091824208E+03  0.23381508951E+03 -0.76596863612E+03  0.10577076462E+04  0.00000000000E+00 0. -1.
<mgrwt>
<rscale>  2 0.12044203E+04</rscale>
<asrwt>0</asrwt>
<pdfrwt beam="1">  1       21 0.18829171E+00 0.12508759E+04</pdfrwt>
<pdfrwt beam="2">  1       21 0.23696499E+00 0.12508759E+04</pdfrwt>
<totfact> 0.43074126E+00</totfact>
</mgrwt>
</event>
<event>
 8    1  0.1094795E-005  0.1260301E+04  0.7818608E-02  0.8567383E-01
         21   -1    0    0  503  502  0.00000000000E+00  0.00000000000E+00  0.13629638042E+04  0.13629638042E+04  0.00000000000E+00 0. -1.
         21   -1    0    0  501  503 -0.00000000000E+00 -0.00000000000E+00 -0.11403571219E+04  0.11403571219E+04  0.00000000000E+00 0. -1.
    9000010    2    1    2  501    0 -0.35061974029E+03 -0.62006813192E+03  0.10212811301E+03  0.12644321671E+04  0.10396825782E+04 0.  0.
   -9000010    2    1    2    0  502  0.35061974029E+03  0.62006813192E+03  0.12047856929E+03  0.12388887590E+04  0.10064350854E+04 0.  0.
        -13    1    3    3    0    0  0.16423310967E+03  0.10925268073E+02 -0.31053576947E+03  0.35146031224E+03  0.10566000000E+00 0.  1.
          4    1    3    3  501    0 -0.51485284996E+03 -0.63099340000E+03  0.41266388247E+03  0.91297185491E+03  0.00000000000E+00 0.  1.
         13    1    4    4    0    0 -0.11187199656E+01  0.73602878181E+03  0.33740024090E+03  0.80967805510E+03  0.10566000000E+00 0. -1.
         -4    1    4    4    0  502  0.35173846025E+03 -0.11596064988E+03 -0.21692167161E+03  0.42921070391E+03  0.00000000000E+00 0. -1.
<mgrwt>
<rscale>  2 0.12534238E+04</rscale>
<asrwt>0</asrwt>
<pdfrwt beam="1">  1       21 0.20968674E+00 0.12603010E+04</pdfrwt>
<pdfrwt beam="2">  1       21 0.17543956E+00 0.12603010E+04</pdfrwt>
<totfact> 0.87809393E+00</totfact>
</mgrwt>
</event>
<event>
 8    1  0.1094795E-005  0.1103008E+04  0.7818608E-02  0.8689914E-01
         21   -1    0    0  501  502  0.00000000000E+00  0.00000000000E+00  0.87041581309E+03  0.87041581309E+03  0.00000000000E+00 0.  1.
         21   -1    0    0  502  503 -0.00000000000E+00 -0.00000000000E+00 -0.13813773018E+04  0.13813773018E+04  0.00000000000E+00 0.  1.
   -9000010    2    1    2    0  503  0.11043066173E+02 -0.44011723715E+03 -0.39486992274E+03  0.11426922574E+04  0.97775160822E+03 0.  0.
    9000010    2    1    2  501    0 -0.11043066173E+02  0.44011723715E+03 -0.11609156600E+03  0.11091008576E+04  0.10113369017E+04 0.  0.
        -13    1    4    4    0    0  0.28366945163E+03  0.86001336615E+02 -0.45088356294E+03  0.53959298196E+03  0.10566000000E+00 0.  1.
          4    1    4    4  501    0 -0.29471251780E+03  0.35411590054E+03  0.33479199694E+03  0.56950787561E+03  0.00000000000E+00 0.  1.
         13    1    3    3    0    0 -0.22073847528E+03  0.23960013129E+03 -0.24859740382E+03  0.40979797186E+03  0.10566000000E+00 0. -1.
         -4    1    3    3    0  503  0.23178154146E+03 -0.67971736845E+03 -0.14627251892E+03  0.73289428550E+03  0.00000000000E+00 0. -1.
<mgrwt>
<rscale>  2 0.10952493E+04</rscale>
<asrwt>0</asrwt>
<pdfrwt beam="1">  1       21 0.13391013E+00 0.11030084E+04</pdfrwt>
<pdfrwt beam="2">  1       21 0.21251958E+00 0.11030084E+04</pdfrwt>
<totfact> 0.20069347E+01</totfact>
</mgrwt>
</event>
<event>
 8    1  0.1094795E-005  0.1102826E+04  0.7818608E-02  0.8692083E-01
         21   -1    0    0  501  502  0.00000000000E+00  0.00000000000E+00  0.14418268398E+04  0.14418268398E+04  0.00000000000E+00 0. -1.
         21   -1    0    0  502  503 -0.00000000000E+00 -0.00000000000E+00 -0.99428129149E+03  0.99428129149E+03  0.00000000000E+00 0. -1.
   -9000010    2    1    2    0  503 -0.21231210258E+03  0.31703307319E+03 -0.29938688790E+03  0.11041423134E+04  0.99192305208E+03 0.  0.
    9000010    2    1    2  501    0  0.21231210258E+03 -0.31703307319E+03  0.74693243617E+03  0.13319658178E+04  0.10347166169E+04 0.  0.
        -13    1    4    4    0    0  0.30462551123E+02  0.22024842665E+03 -0.15178776886E+03  0.26921529378E+03  0.10566000000E+00 0.  1.
          4    1    4    4  501    0  0.18184955145E+03 -0.53728149984E+03  0.89872020503E+03  0.10627505240E+04  0.00000000000E+00 0.  1.
         13    1    3    3    0    0  0.10823481641E+03  0.37916741878E+03  0.24868376034E+03  0.46618272251E+03  0.10566000000E+00 0. -1.
         -4    1    3    3    0  503 -0.32054691899E+03 -0.62134345594E+02 -0.54807064824E+03  0.63795959091E+03  0.00000000000E+00 0. -1.
<mgrwt>
<rscale>  2 0.10926747E+04</rscale>
<asrwt>0</asrwt>
<pdfrwt beam="1">  1       21 0.22181951E+00 0.11028259E+04</pdfrwt>
<pdfrwt beam="2">  1       21 0.15296635E+00 0.11028259E+04</pdfrwt>
<totfact> 0.11420700E+01</totfact>
</mgrwt>
</event>
<event>
 8    1  0.1094795E-005  0.1167507E+04  0.7818608E-02  0.8650625E-01
         21   -1    0    0  503  502  0.00000000000E+00  0.00000000000E+00  0.14091500335E+04  0.14091500335E+04  0.00000000000E+00 0. -1.
         21   -1    0    0  501  503 -0.00000000000E+00 -0.00000000000E+00 -0.96462733643E+03  0.96462733643E+03  0.00000000000E+00 0. -1.
    9000010    2    1    2  501    0 -0.73095370731E+02  0.44539612681E+03 -0.97327819618E+02  0.11715571681E+04  0.10767324880E+04 0.  0.
   -9000010    2    1    2    0  502  0.73095370731E+02 -0.44539612681E+03  0.54185051664E+03  0.12022202017E+04  0.97365845556E+03 0.  0.
        -13    1    3    3    0    0  0.39796111907E+03  0.54192092002E+03 -0.14676001929E+03  0.68817864706E+03  0.10566000000E+00 0.  1.
          4    1    3    3  501    0 -0.47105648980E+03 -0.96524793214E+02  0.49432199671E+02  0.48337852109E+03  0.00000000000E+00 0.  1.
         13    1    4    4    0    0  0.46322748118E+03 -0.85621393041E+02  0.41593305603E+02  0.47290668901E+03  0.10566000000E+00 0. -1.
         -4    1    4    4    0  502 -0.39013211045E+03 -0.35977473376E+03  0.50025721103E+03  0.72931351273E+03  0.00000000000E+00 0. -1.
<mgrwt>
<rscale>  2 0.11431774E+04</rscale>
<asrwt>0</asrwt>
<pdfrwt beam="1">  1       21 0.21679231E+00 0.11675074E+04</pdfrwt>
<pdfrwt beam="2">  1       21 0.14840421E+00 0.11675074E+04</pdfrwt>
<totfact> 0.13499881E+01</totfact>
</mgrwt>
</event>
<event>
 8    1  0.1094795E-005  0.1028536E+04  0.7818608E-02  0.8752380E-01
         21   -1    0    0  501  502  0.00000000000E+00  0.00000000000E+00  0.18255500099E+04  0.18255500099E+04  0.00000000000E+00 0. -1.
         21   -1    0    0  502  503 -0.00000000000E+00 -0.00000000000E+00 -0.56943327833E+03  0.56943327833E+03  0.00000000000E+00 0. -1.
   -9000010    2    1    2    0  503  0.18110114435E+03 -0.14236084174E+03  0.61796343328E+03  0.11999024813E+04  0.10024085624E+04 0.  0.
    9000010    2    1    2  501    0 -0.18110114435E+03  0.14236084174E+03  0.63815329832E+03  0.11950808069E+04  0.98382634100E+03 0.  0.
        -13    1    4    4    0    0  0.24455535595E+02 -0.32652477746E+03  0.59770825364E+03  0.68152158524E+03  0.10566000000E+00 0.  1.
          4    1    4    4  501    0 -0.20555667995E+03  0.46888561920E+03  0.40445044677E+02  0.51355922171E+03  0.00000000000E+00 0.  1.
         13    1    3    3    0    0  0.15717192869E+03  0.31847541872E+02 -0.25946696548E+03  0.30502524228E+03  0.10566000000E+00 0. -1.
         -4    1    3    3    0  503  0.23929215663E+02 -0.17420838361E+03  0.87743039876E+03  0.89487723904E+03  0.00000000000E+00 0. -1.
<mgrwt>
<rscale>  2 0.10239808E+04</rscale>
<asrwt>0</asrwt>
<pdfrwt beam="1">  1       21 0.28085385E+00 0.10285364E+04</pdfrwt>
<pdfrwt beam="2">  1       21 0.87605120E-01 0.10285364E+04</pdfrwt>
<totfact> 0.20302849E+01</totfact>
</mgrwt>
</event>
<event>
 8    1  0.1094795E-005  0.1038911E+04  0.7818608E-02  0.8740798E-01
         21   -1    0    0  503  502  0.00000000000E+00  0.00000000000E+00  0.13077014543E+04  0.13077014543E+04  0.00000000000E+00 0. -1.
         21   -1    0    0  501  503 -0.00000000000E+00 -0.00000000000E+00 -0.86749642087E+03  0.86749642087E+03  0.00000000000E+00 0. -1.
    9000010    2    1    2  501    0  0.45505064988E+02 -0.23998978125E+03 -0.39036213586E+02  0.10310791015E+04  0.10009667735E+04 0.  0.
   -9000010    2    1    2    0  502 -0.45505064988E+02  0.23998978125E+03  0.47924124706E+03  0.11441187737E+04  0.10097870020E+04 0.  0.
        -13    1    3    3    0    0  0.54494348791E+01 -0.33056183930E+03 -0.47793875311E+03  0.58114222771E+03  0.10566000000E+00 0.  1.
          4    1    3    3  501    0  0.40055630109E+02  0.90572058055E+02  0.43890253952E+03  0.44993687380E+03  0.00000000000E+00 0.  1.
         13    1    4    4    0    0  0.40105022224E+03  0.38439326824E+03  0.16572407364E+03  0.57971022518E+03  0.10566000000E+00 0. -1.
         -4    1    4    4    0  502 -0.44655528723E+03 -0.14440348700E+03  0.31351717342E+03  0.56440854852E+03  0.00000000000E+00 0. -1.
<mgrwt>
<rscale>  2 0.10367614E+04</rscale>
<asrwt>0</asrwt>
<pdfrwt beam="1">  1       21 0.20118484E+00 0.10389108E+04</pdfrwt>
<pdfrwt beam="2">  1       21 0.13346099E+00 0.10389108E+04</pdfrwt>
<totfact> 0.25133608E+01</totfact>
</mgrwt>
</event>
<event>
 8    1  0.1094795E-005  0.1133350E+04  0.7818608E-02  0.8663765E-01
         21   -1    0    0  501  502  0.00000000000E+00  0.00000000000E+00  0.53242866121E+03  0.53242866121E+03  0.00000000000E+00 0. -1.
         21   -1    0    0  502  503 -0.00000000000E+00 -0.00000000000E+00 -0.23708319714E+04  0.23708319714E+04  0.00000000000E+00 0. -1.
   -9000010    2    1    2    0  503 -0.49376024205E+03  0.10326897701E+03 -0.82327892473E+03  0.14008109521E+04  0.10148987523E+04 0.  0.
    9000010    2    1    2  501    0  0.49376024205E+03 -0.10326897701E+03 -0.10151243854E+04  0.15024496804E+04  0.98611047357E+03 0.  0.
        -13    1    4    4    0    0  0.16994995843E+02  0.28219582287E+03  0.36603941886E+02  0.28506696065E+03  0.10566000000E+00 0.  1.
          4    1    4    4  501    0  0.47676524621E+03 -0.38546479988E+03 -0.10517283273E+04  0.12173827198E+04  0.00000000000E+00 0.  1.
         13    1    3    3    0    0 -0.37568825484E+03  0.55159614868E+03 -0.52987140393E+03  0.85215238774E+03  0.10566000000E+00 0. -1.
         -4    1    3    3    0  503 -0.11807198722E+03 -0.44832717168E+03 -0.29340752080E+03  0.54865856440E+03  0.00000000000E+00 0. -1.
<mgrwt>
<rscale>  2 0.11268687E+04</rscale>
<asrwt>0</asrwt>
<pdfrwt beam="1">  1       21 0.81912101E-01 0.11333504E+04</pdfrwt>
<pdfrwt beam="2">  1       21 0.36474338E+00 0.11333504E+04</pdfrwt>
<totfact> 0.60298919E+00</totfact>
</mgrwt>
</event>
<event>
 8    1  0.1094795E-005  0.1028005E+04  0.7818608E-02  0.8752253E-01
         21   -1    0    0  503  502  0.00000000000E+00  0.00000000000E+00  0.14020789344E+04  0.14020789344E+04  0.00000000000E+00 0. -1.
         21   -1    0    0  501  503 -0.00000000000E+00 -0.00000000000E+00 -0.77788777358E+03  0.77788777358E+03  0.00000000000E+00 0. -1.
    9000010    2    1    2  501    0  0.13870820270E+03 -0.54126536149E+02  0.54248415614E+03  0.11487196949E+04  0.10015479171E+04 0.  0.
   -9000010    2    1    2    0  502 -0.13870820270E+03  0.54126536149E+02  0.81707004693E+02  0.10312470131E+04  0.10171650407E+04 0.  0.
        -13    1    3    3    0    0  0.50234021217E+03  0.95689070922E+02  0.43272953931E+02  0.51320039630E+03  0.10566000000E+00 0.  1.
          4    1    3    3  501    0 -0.36363200947E+03 -0.14981560707E+03  0.49921120221E+03  0.63551929856E+03  0.00000000000E+00 0.  1.
         13    1    4    4    0    0 -0.22701572165E+03  0.30151071122E+03  0.44464540092E+03  0.58322756329E+03  0.10566000000E+00 0. -1.
         -4    1    4    4    0  502  0.88307518950E+02 -0.24738417507E+03 -0.36293839623E+03  0.44801944984E+03  0.00000000000E+00 0. -1.
<mgrwt>
<rscale>  2 0.10241206E+04</rscale>
<asrwt>0</asrwt>
<pdfrwt beam="1">  1       21 0.21570445E+00 0.10280050E+04</pdfrwt>
<pdfrwt beam="2">  1       21 0.11967504E+00 0.10280050E+04</pdfrwt>
<totfact> 0.26608491E+01</totfact>
</mgrwt>
</event>
<event>
 8    1  0.1094795E-005  0.1090408E+04  0.7818608E-02  0.8699896E-01
         21   -1    0    0  501  502  0.00000000000E+00  0.00000000000E+00  0.67842722586E+03  0.67842722586E+03  0.00000000000E+00 0. -1.
         21   -1    0    0  502  503 -0.00000000000E+00 -0.00000000000E+00 -0.17146684928E+04  0.17146684928E+04  0.00000000000E+00 0. -1.
   -9000010    2    1    2    0  503  0.29277418172E+03 -0.21602344393E+03 -0.44050669633E+03  0.11505626613E+04  0.99868185039E+03 0.  0.
    9000010    2    1    2  501    0 -0.29277418172E+03  0.21602344393E+03 -0.59573457060E+03  0.12425330573E+04  0.10279133573E+04 0.  0.
        -13    1    4    4    0    0 -0.61575421079E+03 -0.10095749119E+03 -0.24647987010E+03  0.67089343465E+03  0.10566000000E+00 0.  1.
          4    1    4    4  501    0  0.32298002907E+03  0.31698093512E+03 -0.34925470051E+03  0.57163962270E+03  0.00000000000E+00 0.  1.
         13    1    3    3    0    0  0.24695318179E+03  0.35061241444E+03  0.40840310080E+01  0.42887250976E+03  0.10566000000E+00 0. -1.
         -4    1    3    3    0  503  0.45820999935E+02 -0.56663585836E+03 -0.44459072734E+03  0.72169015156E+03  0.00000000000E+00 0. -1.
<mgrwt>
<rscale>  2 0.10834637E+04</rscale>
<asrwt>0</asrwt>
<pdfrwt beam="1">  1       21 0.10437342E+00 0.10904076E+04</pdfrwt>
<pdfrwt beam="2">  1       21 0.26379515E+00 0.10904076E+04</pdfrwt>
<totfact> 0.16858612E+01</totfact>
</mgrwt>
</event>
<event>
 8    1  0.1094795E-005  0.1176602E+04  0.7818608E-02  0.8626940E-01
         21   -1    0    0  503  502  0.00000000000E+00  0.00000000000E+00  0.91778353638E+03  0.91778353638E+03  0.00000000000E+00 0. -1.
         21   -1    0    0  501  503 -0.00000000000E+00 -0.00000000000E+00 -0.18230148934E+04  0.18230148934E+04  0.00000000000E+00 0. -1.
    9000010    2    1    2  501    0  0.23772417792E+03  0.57476737856E+03 -0.10348168686E+04  0.15570818008E+04  0.98325350678E+03 0.  0.
   -9000010    2    1    2    0  502 -0.23772417792E+03 -0.57476737856E+03  0.12958551160E+03  0.11837166290E+04  0.99876039601E+03 0.  0.
        -13    1    3    3    0    0  0.13363002617E+03 -0.44841960156E+02  0.15626656516E+03  0.21044485224E+03  0.10566000000E+00 0.  1.
          4    1    3    3  501    0  0.10409415174E+03  0.61960933872E+03 -0.11910834337E+04  0.13466369485E+04  0.00000000000E+00 0.  1.
         13    1    4    4    0    0 -0.45977123532E+03  0.32045608878E+02 -0.14278012934E+03  0.48249630710E+03  0.10566000000E+00 0. -1.
         -4    1    4    4    0  502  0.22204705740E+03 -0.60681298744E+03  0.27236564093E+03  0.70122032185E+03  0.00000000000E+00 0. -1.
<mgrwt>
<rscale>  2 0.11733048E+04</rscale>
<asrwt>0</asrwt>
<pdfrwt beam="1">  1       21 0.14119747E+00 0.11766022E+04</pdfrwt>
<pdfrwt beam="2">  1       21 0.28046383E+00 0.11766022E+04</pdfrwt>
<totfact> 0.53615043E+00</totfact>
</mgrwt>
</event>
<event>
 8    1  0.1094795E-005  0.1326658E+04  0.7818608E-02  0.8527598E-01
         21   -1    0    0  503  502  0.00000000000E+00  0.00000000000E+00  0.12888423536E+04  0.12888423536E+04  0.00000000000E+00 0. -1.
         21   -1    0    0  501  503 -0.00000000000E+00 -0.00000000000E+00 -0.13109509448E+04  0.13109509448E+04  0.00000000000E+00 0. -1.
    9000010    2    1    2  501    0 -0.23876186505E+03 -0.83024839455E+03 -0.12052574188E+03  0.12694897846E+04  0.92236556410E+03 0.  0.
   -9000010    2    1    2    0  502  0.23876186505E+03  0.83024839455E+03  0.98417150715E+02  0.13303035139E+04  0.10068276310E+04 0.  0.
        -13    1    3    3    0    0 -0.50768349313E+03 -0.46111303869E+03  0.19662676739E+03  0.71346328599E+03  0.10566000000E+00 0.  1.
          4    1    3    3  501    0  0.26892162808E+03 -0.36913535586E+03 -0.31715250927E+03  0.55602649858E+03  0.00000000000E+00 0.  1.
         13    1    4    4    0    0 -0.14106798941E+03 -0.19069042102E+03  0.98356953333E+01  0.23740211956E+03  0.10566000000E+00 0. -1.
         -4    1    4    4    0  502  0.37982985446E+03  0.10209388156E+04  0.88581455382E+02  0.10929013943E+04  0.00000000000E+00 0. -1.
<mgrwt>
<rscale>  2 0.13106448E+04</rscale>
<asrwt>0</asrwt>
<pdfrwt beam="1">  1       21 0.19828344E+00 0.13266580E+04</pdfrwt>
<pdfrwt beam="2">  1       21 0.20168476E+00 0.13266580E+04</pdfrwt>
<totfact> 0.65428784E+00</totfact>
</mgrwt>
</event>
<event>
 8    1  0.1094795E-005  0.1195015E+04  0.7818608E-02  0.8615046E-01
         21   -1    0    0  501  502  0.00000000000E+00  0.00000000000E+00  0.18504006492E+04  0.18504006492E+04  0.00000000000E+00 0.  1.
         21   -1    0    0  502  503 -0.00000000000E+00 -0.00000000000E+00 -0.82066499789E+03  0.82066499789E+03  0.00000000000E+00 0.  1.
   -9000010    2    1    2    0  503 -0.46889666655E+03 -0.44744027381E+03  0.13476410888E+03  0.11780700930E+04  0.97448493910E+03 0.  0.
    9000010    2    1    2  501    0  0.46889666655E+03  0.44744027381E+03  0.89497154239E+03  0.14929955540E+04  0.10039894323E+04 0.  0.
        -13    1    4    4    0    0  0.69904745713E+03  0.11219105351E+02  0.57351186391E+03  0.90427268279E+03  0.10566000000E+00 0.  1.
          4    1    4    4  501    0 -0.23015079057E+03  0.43622116846E+03  0.32145967848E+03  0.58872287122E+03  0.00000000000E+00 0.  1.
         13    1    3    3    0    0  0.28207674619E+03  0.24542214621E+02  0.42339277020E+02  0.28629047588E+03  0.10566000000E+00 0. -1.
         -4    1    3    3    0  503 -0.75097341274E+03 -0.47198248843E+03  0.92424831859E+02  0.89177961715E+03  0.00000000000E+00 0. -1.
<mgrwt>
<rscale>  2 0.11887973E+04</rscale>
<asrwt>0</asrwt>
<pdfrwt beam="1">  1       21 0.28467702E+00 0.11950153E+04</pdfrwt>
<pdfrwt beam="2">  1       21 0.12625615E+00 0.11950153E+04</pdfrwt>
<totfact> 0.69163480E+00</totfact>
</mgrwt>
</event>
<event>
 8    1  0.1094795E-005  0.1294558E+04  0.7818608E-02  0.8542636E-01
         21   -1    0    0  501  502  0.00000000000E+00  0.00000000000E+00  0.19647238144E+04  0.19647238144E+04  0.00000000000E+00 0.  1.
         21   -1    0    0  502  503 -0.00000000000E+00 -0.00000000000E+00 -0.84452378468E+03  0.84452378468E+03  0.00000000000E+00 0.  1.
   -9000010    2    1    2    0  503 -0.79470754759E+03  0.51081417579E+02  0.69235234508E+03  0.14680706009E+04  0.10206420147E+04 0.  0.
    9000010    2    1    2  501    0  0.79470754759E+03 -0.51081417579E+02  0.42784768465E+03  0.13411769982E+04  0.99072332249E+03 0.  0.
        -13    1    4    4    0    0  0.73032589952E+02 -0.18337243580E+03 -0.26608201421E+03  0.33129874563E+03  0.10566000000E+00 0.  1.
          4    1    4    4  501    0  0.72167495763E+03  0.13229101822E+03  0.69392969886E+03  0.10098782525E+04  0.00000000000E+00 0.  1.
         13    1    3    3    0    0 -0.83224826050E+03  0.37398985395E+03  0.68837394898E+03  0.11429629402E+04  0.10566000000E+00 0. -1.
         -4    1    3    3    0  503  0.37540712917E+02 -0.32290843637E+03  0.39783961034E+01  0.32510766069E+03  0.00000000000E+00 0. -1.
<mgrwt>
<rscale>  2 0.12886537E+04</rscale>
<asrwt>0</asrwt>
<pdfrwt beam="1">  1       21 0.30226520E+00 0.12945577E+04</pdfrwt>
<pdfrwt beam="2">  1       21 0.12992674E+00 0.12945577E+04</pdfrwt>
<totfact> 0.46839538E+00</totfact>
</mgrwt>
</event>
<event>
 8    1  0.1094795E-005  0.1040344E+04  0.7818608E-02  0.8744011E-01
         21   -1    0    0  503  502  0.00000000000E+00  0.00000000000E+00  0.56600092972E+03  0.56600092972E+03  0.00000000000E+00 0.  1.
         21   -1    0    0  501  503 -0.00000000000E+00 -0.00000000000E+00 -0.18649722460E+04  0.18649722460E+04  0.00000000000E+00 0.  1.
    9000010    2    1    2  501    0  0.20320669664E+02  0.20134894957E+03 -0.59927456779E+03  0.12006022725E+04  0.10204712049E+04 0.  0.
   -9000010    2    1    2    0  502 -0.20320669664E+02 -0.20134894957E+03 -0.69969674845E+03  0.12303709031E+04  0.99160611656E+03 0.  0.
        -13    1    3    3    0    0  0.12445908842E+03 -0.21121140818E+03  0.18581807755E+03  0.30761777053E+03  0.10566000000E+00 0.  1.
          4    1    3    3  501    0 -0.10413841876E+03  0.41256035775E+03 -0.78509264534E+03  0.89298450200E+03  0.00000000000E+00 0.  1.
         13    1    4    4    0    0 -0.23453672764E+03 -0.63043293841E+02  0.18777968918E+03  0.30699048249E+03  0.10566000000E+00 0. -1.
         -4    1    4    4    0  502  0.21421605798E+03 -0.13830565573E+03 -0.88747643762E+03  0.92338042065E+03  0.00000000000E+00 0. -1.
<mgrwt>
<rscale>  2 0.10331962E+04</rscale>
<asrwt>0</asrwt>
<pdfrwt beam="1">  1       21 0.87077067E-01 0.10403441E+04</pdfrwt>
<pdfrwt beam="2">  1       21 0.28691880E+00 0.10403441E+04</pdfrwt>
<totfact> 0.18621294E+01</totfact>
</mgrwt>
</event>
<event>
 8    1  0.1094795E-005  0.1108164E+04  0.7818608E-02  0.8681967E-01
         21   -1    0    0  501  502  0.00000000000E+00  0.00000000000E+00  0.38574904138E+03  0.38574904138E+03  0.00000000000E+00 0.  1.
         21   -1    0    0  502  503 -0.00000000000E+00 -0.00000000000E+00 -0.32345632094E+04  0.32345632094E+04  0.00000000000E+00 0. -1.
   -9000010    2    1    2    0  503 -0.25631092706E+01 -0.50759829725E+03 -0.17350481216E+04  0.20587423765E+04  0.98507136153E+03 0.  0.
    9000010    2    1    2  501    0  0.25631092706E+01  0.50759829725E+03 -0.11137660464E+04  0.15615698744E+04  0.96972319012E+03 0.  0.
        -13    1    4    4    0    0  0.23006177841E+03  0.49147323916E+03 -0.13858150196E+03  0.56007071923E+03  0.10566000000E+00 0.  1.
          4    1    4    4  501    0 -0.22749866914E+03  0.16125058094E+02 -0.97518454446E+03  0.10014991551E+04  0.00000000000E+00 0.  1.
         13    1    3    3    0    0  0.12884390435E+03 -0.46709061587E+03 -0.18290714164E+04  0.18921618991E+04  0.10566000000E+00 0. -1.
         -4    1    3    3    0  503 -0.13140701362E+03 -0.40507681378E+02  0.94023294727E+02  0.16658047734E+03  0.00000000000E+00 0. -1.
<mgrwt>
<rscale>  2 0.11047433E+04</rscale>
<asrwt>0</asrwt>
<pdfrwt beam="1">  1       21 0.59346009E-01 0.11081643E+04</pdfrwt>
<pdfrwt beam="2">  1       21 0.49762509E+00 0.11081643E+04</pdfrwt>
<totfact> 0.15512823E+00</totfact>
</mgrwt>
</event>
<event>
 8    1  0.1094795E-005  0.1051289E+04  0.7818608E-02  0.8728905E-01
         21   -1    0    0  501  502  0.00000000000E+00  0.00000000000E+00  0.15606093338E+04  0.15606093338E+04  0.00000000000E+00 0.  1.
         21   -1    0    0  502  503 -0.00000000000E+00 -0.00000000000E+00 -0.70587457260E+03  0.70587457260E+03  0.00000000000E+00 0.  1.
   -9000010    2    1    2    0  503 -0.17121715853E+03  0.28738023067E+03  0.38740717375E+03  0.11203983393E+04  0.99664708300E+03 0.  0.
    9000010    2    1    2  501    0  0.17121715853E+03 -0.28738023067E+03  0.46732758747E+03  0.11460855671E+04  0.99157165188E+03 0.  0.
        -13    1    4    4    0    0 -0.24086221163E+03 -0.51567875314E+03  0.19327947030E+03  0.60107915139E+03  0.10566000000E+00 0.  1.
          4    1    4    4  501    0  0.41207937016E+03  0.22829852247E+03  0.27404811717E+03  0.54500641574E+03  0.00000000000E+00 0.  1.
         13    1    3    3    0    0 -0.38343479047E+03  0.31493103817E+03 -0.16906133365E+03  0.52419990752E+03  0.10566000000E+00 0. -1.
         -4    1    3    3    0  503  0.21221763194E+03 -0.27550807498E+02  0.55646850741E+03  0.59619843176E+03  0.00000000000E+00 0. -1.
<mgrwt>
<rscale>  2 0.10500841E+04</rscale>
<asrwt>0</asrwt>
<pdfrwt beam="1">  1       21 0.24009374E+00 0.10512888E+04</pdfrwt>
<pdfrwt beam="2">  1       21 0.10859609E+00 0.10512888E+04</pdfrwt>
<totfact> 0.22733919E+01</totfact>
</mgrwt>
</event>
<event>
 8    1  0.1094795E-005  0.1344530E+04  0.7818608E-02  0.8505274E-01
         21   -1    0    0  503  502  0.00000000000E+00  0.00000000000E+00  0.15139360883E+04  0.15139360883E+04  0.00000000000E+00 0.  1.
         21   -1    0    0  501  503 -0.00000000000E+00 -0.00000000000E+00 -0.12451001160E+04  0.12451001160E+04  0.00000000000E+00 0.  1.
    9000010    2    1    2  501    0 -0.74287806622E+03 -0.51043501796E+03 -0.14858929422E+03  0.13527160580E+04  0.99767240437E+03 0.  0.
   -9000010    2    1    2    0  502  0.74287806622E+03  0.51043501796E+03  0.41742526654E+03  0.14063201463E+04  0.99553039732E+03 0.  0.
        -13    1    3    3    0    0 -0.25866865336E+02  0.12344960003E+03  0.27772444664E+03  0.30502422510E+03  0.10566000000E+00 0.  1.
          4    1    3    3  501    0 -0.71701120089E+03 -0.63388461799E+03 -0.42631374086E+03  0.10476918329E+04  0.00000000000E+00 0.  1.
         13    1    4    4    0    0  0.85999531383E+03  0.32379713271E+03  0.61876950432E+03  0.11078412493E+04  0.10566000000E+00 0. -1.
         -4    1    4    4    0  502 -0.11711724761E+03  0.18663788525E+03 -0.20134423778E+03  0.29847889705E+03  0.00000000000E+00 0. -1.
<mgrwt>
<rscale>  2 0.13441330E+04</rscale>
<asrwt>0</asrwt>
<pdfrwt beam="1">  1       21 0.23291324E+00 0.13445304E+04</pdfrwt>
<pdfrwt beam="2">  1       21 0.19155386E+00 0.13445304E+04</pdfrwt>
<totfact> 0.42669921E+00</totfact>
</mgrwt>
</event>
<event>
 8    1  0.1094795E-005  0.1385451E+04  0.7818608E-02  0.8479621E-01
         21   -1    0    0  501  502  0.00000000000E+00  0.00000000000E+00  0.14597425016E+04  0.14597425016E+04  0.00000000000E+00 0.  1.
         21   -1    0    0  502  503 -0.00000000000E+00 -0.00000000000E+00 -0.13170549333E+04  0.13170549333E+04  0.00000000000E+00 0. -1.
   -9000010    2    1    2    0  503 -0.96861033755E+03 -0.19740199548E+03  0.17980635605E+03  0.13970700887E+04  0.97072188252E+03 0.  0.
    9000010    2    1    2  501    0  0.96861033755E+03  0.19740199548E+03 -0.37118787713E+02  0.13797273462E+04  0.96181921978E+03 0.  0.
        -13    1    4    4    0    0 -0.70925959020E+02 -0.18780321898E+03 -0.17015783770E+03  0.26316200641E+03  0.10566000000E+00 0.  1.
          4    1    4    4  501    0  0.10395362966E+04  0.38520521446E+03  0.13303904999E+03  0.11165653398E+04  0.00000000000E+00 0.  1.
         13    1    3    3    0    0 -0.99933645834E+03 -0.18873352193E+03  0.45919409825E+03  0.11158642078E+04  0.10566000000E+00 0. -1.
         -4    1    3    3    0  503  0.30726120797E+02 -0.86684735528E+01 -0.27938774221E+03  0.28120588086E+03  0.00000000000E+00 0. -1.
<mgrwt>
<rscale>  2 0.13838926E+04</rscale>
<asrwt>0</asrwt>
<pdfrwt beam="1">  1       21 0.22457577E+00 0.13854510E+04</pdfrwt>
<pdfrwt beam="2">  1       21 0.20262384E+00 0.13854510E+04</pdfrwt>
<totfact> 0.39974376E+00</totfact>
</mgrwt>
</event>
<event>
 8    1  0.1094795E-005  0.1044793E+04  0.7818608E-02  0.8736352E-01
         21   -1    0    0  501  502  0.00000000000E+00  0.00000000000E+00  0.51380977281E+03  0.51380977281E+03  0.00000000000E+00 0. -1.
         21   -1    0    0  502  503 -0.00000000000E+00 -0.00000000000E+00 -0.21615773153E+04  0.21615773153E+04  0.00000000000E+00 0. -1.
   -9000010    2    1    2    0  503 -0.67402494028E+02 -0.29497845936E+03 -0.59280136056E+03  0.11906159308E+04  0.98721702475E+03 0.  0.
    9000010    2    1    2  501    0  0.67402494028E+02  0.29497845936E+03 -0.10549661819E+04  0.14847711573E+04  0.10000181782E+04 0.  0.
        -13    1    4    4    0    0 -0.14981857934E+02  0.41922617938E+03 -0.12033860073E+04  0.12744068971E+04  0.10566000000E+00 0.  1.
          4    1    4    4  501    0  0.82384351962E+02 -0.12424772002E+03  0.14841982543E+03  0.21036426017E+03  0.00000000000E+00 0.  1.
         13    1    3    3    0    0  0.42795763162E+03 -0.31375276809E+03 -0.24136148616E+03  0.58296132986E+03  0.10566000000E+00 0. -1.
         -4    1    3    3    0  503 -0.49536012565E+03  0.18774308724E+02 -0.35143987440E+03  0.60765460096E+03  0.00000000000E+00 0. -1.
<mgrwt>
<rscale>  2 0.10417177E+04</rscale>
<asrwt>0</asrwt>
<pdfrwt beam="1">  1       21 0.79047658E-01 0.10447927E+04</pdfrwt>
<pdfrwt beam="2">  1       21 0.33255035E+00 0.10447927E+04</pdfrwt>
<totfact> 0.11277652E+01</totfact>
</mgrwt>
</event>
<event>
 8    1  0.1094795E-005  0.1014983E+04  0.7818608E-02  0.8762565E-01
         21   -1    0    0  501  502  0.00000000000E+00  0.00000000000E+00  0.17309888549E+04  0.17309888549E+04  0.00000000000E+00 0.  1.
         21   -1    0    0  502  503 -0.00000000000E+00 -0.00000000000E+00 -0.13069308729E+04  0.13069308729E+04  0.00000000000E+00 0.  1.
   -9000010    2    1    2    0  503 -0.12607775240E+03  0.11059899618E+03 -0.91315422954E+03  0.13591323034E+04  0.99260376469E+03 0.  0.
    9000010    2    1    2  501    0  0.12607775240E+03 -0.11059899618E+03  0.13372122116E+04  0.16787874244E+04  0.10010309584E+04 0.  0.
        -13    1    4    4    0    0 -0.29593239339E+03 -0.37654147702E+03  0.88125527340E+03  0.10029807244E+04  0.10566000000E+00 0.  1.
          4    1    4    4  501    0  0.42201014579E+03  0.26594248085E+03  0.45595693819E+03  0.67580669999E+03  0.00000000000E+00 0.  1.
         13    1    3    3    0    0 -0.16032849775E+03 -0.13625886715E+03  0.15560758970E+03  0.26169722812E+03  0.10566000000E+00 0. -1.
         -4    1    3    3    0  503  0.34250745353E+02  0.24685786333E+03 -0.10687618192E+04  0.10974350753E+04  0.00000000000E+00 0. -1.
<mgrwt>
<rscale>  2 0.10128991E+04</rscale>
<asrwt>0</asrwt>
<pdfrwt beam="1">  1       21 0.26630598E+00 0.10149831E+04</pdfrwt>
<pdfrwt beam="2">  1       21 0.20106629E+00 0.10149831E+04</pdfrwt>
<totfact> 0.22084313E+00</totfact>
</mgrwt>
</event>
<event>
 8    1  0.1094795E-005  0.1078254E+04  0.7818608E-02  0.8705951E-01
         21   -1    0    0  501  502  0.00000000000E+00  0.00000000000E+00  0.99543470197E+03  0.99543470197E+03  0.00000000000E+00 0.  1.
         21   -1    0    0  502  503 -0.00000000000E+00 -0.00000000000E+00 -0.12002445433E+04  0.12002445433E+04  0.00000000000E+00 0.  1.
   -9000010    2    1    2    0  503  0.41311040255E+03 -0.11412339549E+02  0.99153162242E+02  0.10753997564E+04  0.98785770242E+03 0.  0.
    9000010    2    1    2  501    0 -0.41311040255E+03  0.11412339549E+02 -0.30396300361E+03  0.11202794889E+04  0.99591273693E+03 0.  0.
        -13    1    4    4    0    0 -0.55116756774E+03  0.69633273992E+01 -0.58706202192E+03  0.80528007824E+03  0.10566000000E+00 0.  1.
          4    1    4    4  501    0  0.13805716520E+03  0.44490121496E+01  0.28309901831E+03  0.31499941070E+03  0.00000000000E+00 0.  1.
         13    1    3    3    0    0  0.34643656363E+03  0.45989276326E+03  0.15463109848E+03  0.59617986724E+03  0.10566000000E+00 0. -1.
         -4    1    3    3    0  503  0.66673838914E+02 -0.47130510281E+03 -0.55477936239E+02  0.47921988913E+03  0.00000000000E+00 0. -1.
<mgrwt>
<rscale>  2 0.10763907E+04</rscale>
<asrwt>0</asrwt>
<pdfrwt beam="1">  1       21 0.15314380E+00 0.10782544E+04</pdfrwt>
<pdfrwt beam="2">  1       21 0.18465301E+00 0.10782544E+04</pdfrwt>
<totfact> 0.22254096E+01</totfact>
</mgrwt>
</event>
<event>
 8    1  0.1094795E-005  0.1252849E+04  0.7818608E-02  0.8575916E-01
         21   -1    0    0  503  502  0.00000000000E+00  0.00000000000E+00  0.91859538210E+03  0.91859538210E+03  0.00000000000E+00 0.  1.
         21   -1    0    0  501  503 -0.00000000000E+00 -0.00000000000E+00 -0.18061392917E+04  0.18061392917E+04  0.00000000000E+00 0. -1.
    9000010    2    1    2  501    0 -0.68582083732E+03  0.41011751784E+03 -0.33931705922E+02  0.12087252201E+04  0.90626635029E+03 0.  0.
   -9000010    2    1    2    0  502  0.68582083732E+03 -0.41011751784E+03 -0.85361220372E+03  0.15160094538E+04  0.96492708026E+03 0.  0.
        -13    1    3    3    0    0 -0.28587297351E+03  0.27907910389E+03 -0.46038938639E+03  0.60956287737E+03  0.10566000000E+00 0.  1.
          4    1    3    3  501    0 -0.39994786381E+03  0.13103841395E+03  0.42645768047E+03  0.59916234271E+03  0.00000000000E+00 0.  1.
         13    1    4    4    0    0  0.56917904472E+03 -0.35007979612E+03 -0.16235727890E+02  0.66841922371E+03  0.10566000000E+00 0. -1.
         -4    1    4    4    0  502  0.11664179260E+03 -0.60037721719E+02 -0.83737647583E+03  0.84759023005E+03  0.00000000000E+00 0. -1.
<mgrwt>
<rscale>  2 0.12415470E+04</rscale>
<asrwt>0</asrwt>
<pdfrwt beam="1">  1       21 0.14132237E+00 0.12528491E+04</pdfrwt>
<pdfrwt beam="2">  1       21 0.27786758E+00 0.12528491E+04</pdfrwt>
<totfact> 0.54929772E+00</totfact>
</mgrwt>
</event>
<event>
 8    1  0.1094795E-005  0.1093202E+04  0.7818608E-02  0.8691772E-01
         21   -1    0    0  503  502  0.00000000000E+00  0.00000000000E+00  0.18379582639E+04  0.18379582639E+04  0.00000000000E+00 0. -1.
         21   -1    0    0  501  503 -0.00000000000E+00 -0.00000000000E+00 -0.65047691876E+03  0.65047691876E+03  0.00000000000E+00 0. -1.
    9000010    2    1    2  501    0  0.21851999814E+03 -0.39718382095E+03  0.63218565692E+03  0.12622849242E+04  0.99408176117E+03 0.  0.
   -9000010    2    1    2    0  502 -0.21851999814E+03  0.39718382095E+03  0.55529568825E+03  0.12261502585E+04  0.99477895923E+03 0.  0.
        -13    1    3    3    0    0 -0.25452345500E+03  0.14657213361E+03 -0.14357023421E+02  0.29406073315E+03  0.10566000000E+00 0.  1.
          4    1    3    3  501    0  0.47304345314E+03 -0.54375595456E+03  0.64654268034E+03  0.96822419107E+03  0.00000000000E+00 0.  1.
         13    1    4    4    0    0 -0.31404970629E+03 -0.53924493776E+02 -0.17418871907E+03  0.36314844081E+03  0.10566000000E+00 0. -1.
         -4    1    4    4    0  502  0.95529708148E+02  0.45110831472E+03  0.72948440732E+03  0.86300181765E+03  0.00000000000E+00 0. -1.
<mgrwt>
<rscale>  2 0.10930436E+04</rscale>
<asrwt>0</asrwt>
<pdfrwt beam="1">  1       21 0.28276281E+00 0.10932022E+04</pdfrwt>
<pdfrwt beam="2">  1       21 0.10007337E+00 0.10932022E+04</pdfrwt>
<totfact> 0.13776744E+01</totfact>
</mgrwt>
</event>
<event>
 8    1  0.1094795E-005  0.1047278E+04  0.7818608E-02  0.8731699E-01
         21   -1    0    0  503  502  0.00000000000E+00  0.00000000000E+00  0.87403271709E+03  0.87403271709E+03  0.00000000000E+00 0.  1.
         21   -1    0    0  501  503 -0.00000000000E+00 -0.00000000000E+00 -0.16757301601E+04  0.16757301601E+04  0.00000000000E+00 0.  1.
    9000010    2    1    2  501    0  0.30295714348E+03  0.18057043468E+02 -0.10411986049E+04  0.14767823908E+04  0.10023385692E+04 0.  0.
   -9000010    2    1    2    0  502 -0.30295714348E+03 -0.18057043468E+02  0.23950116182E+03  0.10729804864E+04  0.10009082027E+04 0.  0.
        -13    1    3    3    0    0 -0.33210405893E+03 -0.95185431843E+01 -0.11130798837E+03  0.35039005132E+03  0.10566000000E+00 0.  1.
          4    1    3    3  501    0  0.63506120241E+03  0.27575586652E+02 -0.92989061650E+03  0.11263923395E+04  0.00000000000E+00 0.  1.
         13    1    4    4    0    0  0.14263932105E+03  0.32534869515E+03  0.35107840783E+03  0.49945351030E+03  0.10566000000E+00 0. -1.
         -4    1    4    4    0  502 -0.44559646453E+03 -0.34340573862E+03 -0.11157724601E+03  0.57352697613E+03  0.00000000000E+00 0. -1.
<mgrwt>
<rscale>  2 0.10469358E+04</rscale>
<asrwt>0</asrwt>
<pdfrwt beam="1">  1       21 0.13446657E+00 0.10472782E+04</pdfrwt>
<pdfrwt beam="2">  1       21 0.25780464E+00 0.10472782E+04</pdfrwt>
<totfact> 0.92790053E+00</totfact>
</mgrwt>
</event>
<event>
 8    1  0.1094795E-005  0.1133584E+04  0.7818608E-02  0.8659114E-01
         21   -1    0    0  503  502  0.00000000000E+00  0.00000000000E+00  0.59056120892E+03  0.59056120892E+03  0.00000000000E+00 0. -1.
         21   -1    0    0  501  503 -0.00000000000E+00 -0.00000000000E+00 -0.21750445285E+04  0.21750445285E+04  0.00000000000E+00 0. -1.
    9000010    2    1    2  501    0 -0.32922216826E+03  0.35381347942E+03 -0.86973245177E+03  0.14287919443E+04  0.10253978098E+04 0.  0.
   -9000010    2    1    2    0  502  0.32922216826E+03 -0.35381347942E+03 -0.71475086783E+03  0.13368137931E+04  0.10210930908E+04 0.  0.
        -13    1    3    3    0    0  0.25587090846E+03  0.25062960754E+03  0.20228517759E+02  0.35873991423E+03  0.10566000000E+00 0.  1.
          4    1    3    3  501    0 -0.58509307672E+03  0.10318387188E+03 -0.88996096953E+03  0.10700520301E+04  0.00000000000E+00 0.  1.
         13    1    4    4    0    0  0.34497405452E+03 -0.32733102889E+02  0.17684113762E+03  0.38903901274E+03  0.10566000000E+00 0. -1.
         -4    1    4    4    0  502 -0.15751886261E+02 -0.32108037653E+03 -0.89159200545E+03  0.94777478036E+03  0.00000000000E+00 0. -1.
<mgrwt>
<rscale>  2 0.11326093E+04</rscale>
<asrwt>0</asrwt>
<pdfrwt beam="1">  1       21 0.90855573E-01 0.11335836E+04</pdfrwt>
<pdfrwt beam="2">  1       21 0.33462223E+00 0.11335836E+04</pdfrwt>
<totfact> 0.75417530E+00</totfact>
</mgrwt>
</event>
<event>
 8    1  0.1094795E-005  0.1220311E+04  0.7818608E-02  0.8593500E-01
         21   -1    0    0  503  502  0.00000000000E+00  0.00000000000E+00  0.11329169658E+04  0.11329169658E+04  0.00000000000E+00 0. -1.
         21   -1    0    0  501  503 -0.00000000000E+00 -0.00000000000E+00 -0.14065398650E+04  0.14065398650E+04  0.00000000000E+00 0.  1.
    9000010    2    1    2  501    0 -0.27044507120E+03  0.60954576711E+03  0.20925846470E+03  0.12270802105E+04  0.10085882011E+04 0.  0.
   -9000010    2    1    2    0  502  0.27044507120E+03 -0.60954576711E+03 -0.48288136390E+03  0.13123766203E+04  0.10219938372E+04 0.  0.
        -13    1    3    3    0    0  0.17488018465E+02 -0.27669390590E+03  0.45055673517E+02  0.28088320211E+03  0.10566000000E+00 0.  1.
          4    1    3    3  501    0 -0.28793308966E+03  0.88623967300E+03  0.16420279118E+03  0.94619700843E+03  0.00000000000E+00 0.  1.
         13    1    4    4    0    0  0.10368748398E+03  0.18652307899E+03  0.16724161254E+03  0.27113045100E+03  0.10566000000E+00 0. -1.
         -4    1    4    4    0  502  0.16675758722E+03 -0.79606884609E+03 -0.65012297644E+03  0.10412461693E+04  0.00000000000E+00 0. -1.
<mgrwt>
<rscale>  2 0.12174997E+04</rscale>
<asrwt>0</asrwt>
<pdfrwt beam="1">  1       21 0.17429492E+00 0.12203106E+04</pdfrwt>
<pdfrwt beam="2">  1       21 0.21639075E+00 0.12203106E+04</pdfrwt>
<totfact> 0.80407018E+00</totfact>
</mgrwt>
</event>
<event>
 8    1  0.1094795E-005  0.1200931E+04  0.7818608E-02  0.8611047E-01
         21   -1    0    0  503  502  0.00000000000E+00  0.00000000000E+00  0.89719986221E+03  0.89719986221E+03  0.00000000000E+00 0.  1.
         21   -1    0    0  501  503 -0.00000000000E+00 -0.00000000000E+00 -0.16041606971E+04  0.16041606971E+04  0.00000000000E+00 0.  1.
    9000010    2    1    2  501    0 -0.17817452025E+03 -0.64632215016E+03 -0.17031486430E+03  0.11859802552E+04  0.96336054068E+03 0.  0.
   -9000010    2    1    2    0  502  0.17817452025E+03  0.64632215016E+03 -0.53664597058E+03  0.13153803041E+04  0.99637240282E+03 0.  0.
        -13    1    3    3    0    0 -0.15233336973E+03 -0.18931508224E+03 -0.54353145801E+03  0.59537560658E+03  0.10566000000E+00 0.  1.
          4    1    3    3  501    0 -0.25841150516E+02 -0.45700706792E+03  0.37321659371E+03  0.59060464866E+03  0.00000000000E+00 0.  1.
         13    1    4    4    0    0 -0.10025588182E+03  0.21079456271E+03 -0.72774733923E+03  0.76426552352E+03  0.10566000000E+00 0. -1.
         -4    1    4    4    0  502  0.27843040207E+03  0.43552758745E+03  0.19110136866E+03  0.55111478054E+03  0.00000000000E+00 0. -1.
<mgrwt>
<rscale>  2 0.11940617E+04</rscale>
<asrwt>0</asrwt>
<pdfrwt beam="1">  1       21 0.13803075E+00 0.12009315E+04</pdfrwt>
<pdfrwt beam="2">  1       21 0.24679395E+00 0.12009315E+04</pdfrwt>
<totfact> 0.99833347E+00</totfact>
</mgrwt>
</event>
<event>
 8    1  0.1094795E-005  0.1129954E+04  0.7818608E-02  0.8667183E-01
         21   -1    0    0  501  502  0.00000000000E+00  0.00000000000E+00  0.94966775480E+03  0.94966775480E+03  0.00000000000E+00 0.  1.
         21   -1    0    0  502  503 -0.00000000000E+00 -0.00000000000E+00 -0.13173524104E+04  0.13173524104E+04  0.00000000000E+00 0.  1.
   -9000010    2    1    2    0  503  0.53357917295E+03  0.18775453509E+03 -0.10366009733E+03  0.11346989618E+04  0.97818087222E+03 0.  0.
    9000010    2    1    2  501    0 -0.53357917295E+03 -0.18775453509E+03 -0.26402455830E+03  0.11323212035E+04  0.94471362920E+03 0.  0.
        -13    1    4    4    0    0 -0.71491933616E+03  0.64771746287E+02 -0.36516875182E+03  0.80539013205E+03  0.10566000000E+00 0.  1.
          4    1    4    4  501    0  0.18134016321E+03 -0.25252628137E+03  0.10114419352E+03  0.32693107142E+03  0.00000000000E+00 0.  1.
         13    1    3    3    0    0  0.32517108314E+02 -0.30080165881E+03 -0.28082808057E+03  0.41279949404E+03  0.10566000000E+00 0. -1.
         -4    1    3    3    0  503  0.50106206463E+03  0.48855619389E+03  0.17716798324E+03  0.72189946772E+03  0.00000000000E+00 0. -1.
<mgrwt>
<rscale>  2 0.11226729E+04</rscale>
<asrwt>0</asrwt>
<pdfrwt beam="1">  1       21 0.14610273E+00 0.11299541E+04</pdfrwt>
<pdfrwt beam="2">  1       21 0.20266960E+00 0.11299541E+04</pdfrwt>
<totfact> 0.18319042E+01</totfact>
</mgrwt>
</event>
<event>
 8    1  0.1094795E-005  0.1276677E+04  0.7818608E-02  0.8551814E-01
         21   -1    0    0  503  502  0.00000000000E+00  0.00000000000E+00  0.15035975648E+04  0.15035975648E+04  0.00000000000E+00 0.  1.
         21   -1    0    0  501  503 -0.00000000000E+00 -0.00000000000E+00 -0.11612370981E+04  0.11612370981E+04  0.00000000000E+00 0.  1.
    9000010    2    1    2  501    0  0.13704390784E+02 -0.79536964781E+03  0.52423477714E+03  0.13801184496E+04  0.99855102345E+03 0.  0.
   -9000010    2    1    2    0  502 -0.13704390784E+02  0.79536964781E+03 -0.18187431051E+03  0.12847162133E+04  0.99227858829E+03 0.  0.
        -13    1    3    3    0    0 -0.15788414251E+03 -0.50021996822E+03  0.78943367779E+03  0.94781483521E+03  0.10566000000E+00 0.  1.
          4    1    3    3  501    0  0.17158853329E+03 -0.29514967960E+03 -0.26519890065E+03  0.43230361441E+03  0.00000000000E+00 0.  1.
         13    1    4    4    0    0  0.31661617318E+03  0.17560596265E+03  0.26820640839E+03  0.45057512570E+03  0.10566000000E+00 0. -1.
         -4    1    4    4    0  502 -0.33032056396E+03  0.61976368516E+03 -0.45008071890E+03  0.83414108756E+03  0.00000000000E+00 0. -1.
<mgrwt>
<rscale>  2 0.12754505E+04</rscale>
<asrwt>0</asrwt>
<pdfrwt beam="1">  1       21 0.23132270E+00 0.12766773E+04</pdfrwt>
<pdfrwt beam="2">  1       21 0.17865186E+00 0.12766773E+04</pdfrwt>
<totfact> 0.56511208E+00</totfact>
</mgrwt>
</event>
<event>
 8    1  0.1094795E-005  0.1168653E+04  0.7818608E-02  0.8637771E-01
         21   -1    0    0  503  502  0.00000000000E+00  0.00000000000E+00  0.15693956219E+04  0.15693956219E+04  0.00000000000E+00 0.  1.
         21   -1    0    0  501  503 -0.00000000000E+00 -0.00000000000E+00 -0.84418359822E+03  0.84418359822E+03  0.00000000000E+00 0.  1.
    9000010    2    1    2  501    0  0.97513260771E+02 -0.59870248083E+03  0.31665571535E+03  0.11755696280E+04  0.95589728095E+03 0.  0.
   -9000010    2    1    2    0  502 -0.97513260771E+02  0.59870248083E+03  0.40855630828E+03  0.12380095920E+04  0.99889739031E+03 0.  0.
        -13    1    3    3    0    0 -0.36837626117E+03 -0.30376316621E+03 -0.95792634442E+02  0.48697984652E+03  0.10566000000E+00 0.  1.
          4    1    3    3  501    0  0.46588952194E+03 -0.29493931462E+03  0.41244834979E+03  0.68858978152E+03  0.00000000000E+00 0.  1.
         13    1    4    4    0    0 -0.81374433801E+02 -0.88714560276E+02  0.52673931957E+03  0.54032063964E+03  0.10566000000E+00 0. -1.
         -4    1    4    4    0  502 -0.16138826969E+02  0.68741704110E+03 -0.11818301129E+03  0.69768895239E+03  0.00000000000E+00 0. -1.
<mgrwt>
<rscale>  2 0.11594103E+04</rscale>
<asrwt>0</asrwt>
<pdfrwt beam="1">  1       21 0.24144548E+00 0.11686529E+04</pdfrwt>
<pdfrwt beam="2">  1       21 0.12987440E+00 0.11686529E+04</pdfrwt>
<totfact> 0.13150156E+01</totfact>
</mgrwt>
</event>
<event>
 8    1  0.1094795E-005  0.1085378E+04  0.7818608E-02  0.8704690E-01
         21   -1    0    0  503  502  0.00000000000E+00  0.00000000000E+00  0.73136933007E+03  0.73136933007E+03  0.00000000000E+00 0.  1.
         21   -1    0    0  501  503 -0.00000000000E+00 -0.00000000000E+00 -0.17209861260E+04  0.17209861260E+04  0.00000000000E+00 0.  1.
    9000010    2    1    2  501    0  0.37221643179E+03 -0.76794375737E+02 -0.86796772595E+03  0.13897528797E+04  0.10166625030E+04 0.  0.
   -9000010    2    1    2    0  502 -0.37221643179E+03  0.76794375737E+02 -0.12164907003E+03  0.10626025764E+04  0.98482652836E+03 0.  0.
        -13    1    3    3    0    0  0.12070308228E+02 -0.40320451257E+03 -0.80398390152E+03  0.89950525089E+03  0.10566000000E+00 0.  1.
          4    1    3    3  501    0  0.36014612356E+03  0.32641013684E+03 -0.63983824424E+02  0.49024762879E+03  0.00000000000E+00 0.  1.
         13    1    4    4    0    0  0.61835113637E+00  0.42403146615E+03 -0.30369273388E+03  0.52156720987E+03  0.10566000000E+00 0. -1.
         -4    1    4    4    0  502 -0.37283478292E+03 -0.34723709041E+03  0.18204366386E+03  0.54103536655E+03  0.00000000000E+00 0. -1.
<mgrwt>
<rscale>  2 0.10778597E+04</rscale>
<asrwt>0</asrwt>
<pdfrwt beam="1">  1       21 0.11251836E+00 0.10853779E+04</pdfrwt>
<pdfrwt beam="2">  1       21 0.26476710E+00 0.10853779E+04</pdfrwt>
<totfact> 0.13562329E+01</totfact>
</mgrwt>
</event>
<event>
 8    1  0.1094795E-005  0.1109421E+04  0.7818608E-02  0.8706653E-01
         21   -1    0    0  503  502  0.00000000000E+00  0.00000000000E+00  0.24260552633E+04  0.24260552633E+04  0.00000000000E+00 0.  1.
         21   -1    0    0  501  503 -0.00000000000E+00 -0.00000000000E+00 -0.46016650554E+03  0.46016650554E+03  0.00000000000E+00 0.  1.
    9000010    2    1    2  501    0 -0.42495596590E+03 -0.10186122508E+03  0.82748213158E+03  0.13840307005E+04  0.10197308565E+04 0.  0.
   -9000010    2    1    2    0  502  0.42495596590E+03  0.10186122508E+03  0.11384066261E+04  0.15021910683E+04  0.87729417930E+03 0.  0.
        -13    1    3    3    0    0  0.67173493537E+02  0.84028274718E+02  0.85067748434E+03  0.85745275247E+03  0.10566000000E+00 0.  1.
          4    1    3    3  501    0 -0.49212945944E+03 -0.18588949980E+03 -0.23195352762E+02  0.52657794805E+03  0.00000000000E+00 0.  1.
         13    1    4    4    0    0 -0.12137083173E+03 -0.77533974685E+01  0.87931508687E+03  0.88768577049E+03  0.10566000000E+00 0. -1.
         -4    1    4    4    0  502  0.54632679763E+03  0.10961462255E+03  0.25909153928E+03  0.61450529779E+03  0.00000000000E+00 0. -1.
<mgrwt>
<rscale>  2 0.10755745E+04</rscale>
<asrwt>0</asrwt>
<pdfrwt beam="1">  1       21 0.37323926E+00 0.11094207E+04</pdfrwt>
<pdfrwt beam="2">  1       21 0.70794848E-01 0.11094207E+04</pdfrwt>
<totfact> 0.75134189E+00</totfact>
</mgrwt>
</event>
<event>
 8    1  0.1094795E-005  0.1037208E+04  0.7818608E-02  0.8741010E-01
         21   -1    0    0  501  502  0.00000000000E+00  0.00000000000E+00  0.10419335432E+04  0.10419335432E+04  0.00000000000E+00 0.  1.
         21   -1    0    0  502  503 -0.00000000000E+00 -0.00000000000E+00 -0.10876372802E+04  0.10876372802E+04  0.00000000000E+00 0.  1.
   -9000010    2    1    2    0  503 -0.10514974317E+03 -0.22194681842E+03 -0.26838893664E+03  0.10687272631E+04  0.10049022255E+04 0.  0.
    9000010    2    1    2  501    0  0.10514974317E+03  0.22194681842E+03  0.22268519973E+03  0.10608435603E+04  0.10077120137E+04 0.  0.
        -13    1    4    4    0    0  0.11098598451E+03  0.30224777721E+03 -0.35402234504E+03  0.47854303833E+03  0.10566000000E+00 0.  1.
          4    1    4    4  501    0 -0.58362413442E+01 -0.80300958790E+02  0.57670754476E+03  0.58230052197E+03  0.00000000000E+00 0.  1.
         13    1    3    3    0    0 -0.45474394007E+03 -0.22616735171E+03 -0.44659790228E+03  0.67630867175E+03  0.10566000000E+00 0. -1.
         -4    1    3    3    0  503  0.34959419690E+03  0.42205332887E+01  0.17820896564E+03  0.39241859135E+03  0.00000000000E+00 0. -1.
<mgrwt>
<rscale>  2 0.10365249E+04</rscale>
<asrwt>0</asrwt>
<pdfrwt beam="1">  1       21 0.16029747E+00 0.10372080E+04</pdfrwt>
<pdfrwt beam="2">  1       21 0.16732881E+00 0.10372080E+04</pdfrwt>
<totfact> 0.27037042E+01</totfact>
</mgrwt>
</event>
<event>
 8    1  0.1094795E-005  0.1323464E+04  0.7818608E-02  0.8519920E-01
         21   -1    0    0  501  502  0.00000000000E+00  0.00000000000E+00  0.12953831346E+04  0.12953831346E+04  0.00000000000E+00 0.  1.
         21   -1    0    0  502  503 -0.00000000000E+00 -0.00000000000E+00 -0.13535277431E+04  0.13535277431E+04  0.00000000000E+00 0. -1.
   -9000010    2    1    2    0  503 -0.49395071781E+03  0.70649696188E+03  0.67244527094E+02  0.13195200171E+04  0.99673766877E+03 0.  0.
    9000010    2    1    2  501    0  0.49395071781E+03 -0.70649696188E+03 -0.12538913563E+03  0.13293908606E+04  0.10042073273E+04 0.  0.
        -13    1    4    4    0    0  0.53663849965E+03  0.72900034194E+02 -0.22063801258E+02  0.54201671264E+03  0.10566000000E+00 0.  1.
          4    1    4    4  501    0 -0.42687781841E+02 -0.77939699608E+03 -0.10332533437E+03  0.78737414800E+03  0.00000000000E+00 0.  1.
         13    1    3    3    0    0 -0.16216451220E+03  0.29373304776E+03  0.52263523237E+03  0.62106684796E+03  0.10566000000E+00 0. -1.
         -4    1    3    3    0  503 -0.33178620561E+03  0.41276391412E+03 -0.45539070527E+03  0.69845316914E+03  0.00000000000E+00 0. -1.
<mgrwt>
<rscale>  2 0.13220473E+04</rscale>
<asrwt>0</asrwt>
<pdfrwt beam="1">  1       21 0.19928971E+00 0.13234643E+04</pdfrwt>
<pdfrwt beam="2">  1       21 0.20823504E+00 0.13234643E+04</pdfrwt>
<totfact> 0.57189751E+00</totfact>
</mgrwt>
</event>
<event>
 8    1  0.1094795E-005  0.1099593E+04  0.7818608E-02  0.8691272E-01
         21   -1    0    0  501  502  0.00000000000E+00  0.00000000000E+00  0.98754551243E+03  0.98754551243E+03  0.00000000000E+00 0. -1.
         21   -1    0    0  502  503 -0.00000000000E+00 -0.00000000000E+00 -0.13555714844E+04  0.13555714844E+04  0.00000000000E+00 0.  1.
   -9000010    2    1    2    0  503  0.16197563335E+03 -0.40163087998E+03 -0.58496405834E+03  0.12455073757E+04  0.10107236041E+04 0.  0.
    9000010    2    1    2  501    0 -0.16197563335E+03  0.40163087998E+03  0.21693808637E+03  0.10976096211E+04  0.98495750033E+03 0.  0.
        -13    1    4    4    0    0  0.27958148316E+03 -0.17043337761E+03 -0.41670704158E+02  0.33007544695E+03  0.10566000000E+00 0.  1.
          4    1    4    4  501    0 -0.44155711651E+03  0.57206425759E+03  0.25860879053E+03  0.76753417415E+03  0.00000000000E+00 0.  1.
         13    1    3    3    0    0  0.51384826259E+03  0.54054147910E+02 -0.34783438742E+03  0.62285685362E+03  0.10566000000E+00 0. -1.
         -4    1    3    3    0  503 -0.35187262924E+03 -0.45568502789E+03 -0.23712967093E+03  0.62265052211E+03  0.00000000000E+00 0. -1.
<mgrwt>
<rscale>  2 0.10936362E+04</rscale>
<asrwt>0</asrwt>
<pdfrwt beam="1">  1       21 0.15193008E+00 0.10995934E+04</pdfrwt>
<pdfrwt beam="2">  1       21 0.20854946E+00 0.10995934E+04</pdfrwt>
<totfact> 0.14724728E+01</totfact>
</mgrwt>
</event>
<event>
 8    1  0.1094795E-005  0.1055829E+04  0.7818608E-02  0.8736775E-01
         21   -1    0    0  503  502  0.00000000000E+00  0.00000000000E+00  0.11315086517E+04  0.11315086517E+04  0.00000000000E+00 0. -1.
         21   -1    0    0  501  503 -0.00000000000E+00 -0.00000000000E+00 -0.94210251297E+03  0.94210251297E+03  0.00000000000E+00 0. -1.
    9000010    2    1    2  501    0  0.93781545696E+02 -0.26955218949E+03  0.20130781072E+03  0.10748487284E+04  0.10165242708E+04 0.  0.
   -9000010    2    1    2    0  502 -0.93781545696E+02  0.26955218949E+03 -0.11901672011E+02  0.99876243626E+03  0.95704304664E+03 0.  0.
        -13    1    3    3    0    0 -0.24828692058E+03 -0.19881344122E+03  0.51503545868E+03  0.60533851207E+03  0.10566000000E+00 0.  1.
          4    1    3    3  501    0  0.34206846627E+03 -0.70738748271E+02 -0.31372764796E+03  0.46951021631E+03  0.00000000000E+00 0.  1.
         13    1    4    4    0    0 -0.17813507453E+03 -0.33047012535E+03  0.85565279789E+02  0.38505069380E+03  0.10566000000E+00 0. -1.
         -4    1    4    4    0  502  0.84353528837E+02  0.60002231484E+03 -0.97466951801E+02  0.61371174246E+03  0.00000000000E+00 0. -1.
<mgrwt>
<rscale>  2 0.10412453E+04</rscale>
<asrwt>0</asrwt>
<pdfrwt beam="1">  1       21 0.17407825E+00 0.10558290E+04</pdfrwt>
<pdfrwt beam="2">  1       21 0.14493885E+00 0.10558290E+04</pdfrwt>
<totfact> 0.32323466E+01</totfact>
</mgrwt>
</event>
<event>
 8    1  0.1094795E-005  0.1244818E+04  0.7818608E-02  0.8576982E-01
         21   -1    0    0  501  502  0.00000000000E+00  0.00000000000E+00  0.11178649970E+04  0.11178649970E+04  0.00000000000E+00 0. -1.
         21   -1    0    0  502  503 -0.00000000000E+00 -0.00000000000E+00 -0.14667854240E+04  0.14667854240E+04  0.00000000000E+00 0.  1.
   -9000010    2    1    2    0  503  0.42203326702E+03  0.60841262099E+03 -0.51569807048E+03  0.13474109604E+04  0.10006466911E+04 0.  0.
    9000010    2    1    2  501    0 -0.42203326702E+03 -0.60841262099E+03  0.16677764340E+03  0.12372394606E+04  0.97707149413E+03 0.  0.
        -13    1    4    4    0    0 -0.63725447573E+03 -0.16242693636E+03  0.30236908460E+03  0.72381133659E+03  0.10566000000E+00 0.  1.
          4    1    4    4  501    0  0.21522120871E+03 -0.44598568463E+03 -0.13559144120E+03  0.51342812399E+03  0.00000000000E+00 0.  1.
         13    1    3    3    0    0  0.40035240266E+03  0.39484141797E+03 -0.80821422657E+03  0.98457708629E+03  0.10566000000E+00 0. -1.
         -4    1    3    3    0  503  0.21680864361E+02  0.21357120302E+03  0.29251615609E+03  0.36283387412E+03  0.00000000000E+00 0. -1.
<mgrwt>
<rscale>  2 0.12400732E+04</rscale>
<asrwt>0</asrwt>
<pdfrwt beam="1">  1       21 0.17197923E+00 0.12448180E+04</pdfrwt>
<pdfrwt beam="2">  1       21 0.22565930E+00 0.12448180E+04</pdfrwt>
<totfact> 0.71205226E+00</totfact>
</mgrwt>
</event>
<event>
 8    1  0.1094795E-005  0.1053769E+04  0.7818608E-02  0.8725699E-01
         21   -1    0    0  501  502  0.00000000000E+00  0.00000000000E+00  0.25251206457E+04  0.25251206457E+04  0.00000000000E+00 0.  1.
         21   -1    0    0  502  503 -0.00000000000E+00 -0.00000000000E+00 -0.54356360950E+03  0.54356360950E+03  0.00000000000E+00 0.  1.
   -9000010    2    1    2    0  503 -0.78050540448E+02  0.36644674122E+03  0.31984370380E+03  0.11010153976E+04  0.98466228215E+03 0.  0.
    9000010    2    1    2  501    0  0.78050540448E+02 -0.36644674122E+03  0.16617133324E+04  0.19676688576E+04  0.98491341399E+03 0.  0.
        -13    1    4    4    0    0  0.45901446181E+03 -0.46490018676E+03  0.11438526806E+04  0.13172795549E+04  0.10566000000E+00 0.  1.
          4    1    4    4  501    0 -0.38096392136E+03  0.98453445544E+02  0.51786065180E+03  0.65038930265E+03  0.00000000000E+00 0.  1.
         13    1    3    3    0    0  0.25977088832E+03  0.30614070121E+03 -0.22264487869E+03  0.45910107441E+03  0.10566000000E+00 0. -1.
         -4    1    3    3    0  503 -0.33782142877E+03  0.60306040010E+02  0.54248858249E+03  0.64191432320E+03  0.00000000000E+00 0. -1.
<mgrwt>
<rscale>  2 0.10537105E+04</rscale>
<asrwt>0</asrwt>
<pdfrwt beam="1">  1       21 0.38848009E+00 0.10537692E+04</pdfrwt>
<pdfrwt beam="2">  1       21 0.83625172E-01 0.10537692E+04</pdfrwt>
<totfact> 0.39713030E+00</totfact>
</mgrwt>
</event>
<event>
 8    1  0.1094795E-005  0.1085877E+04  0.7818608E-02  0.8699655E-01
         21   -1    0    0  503  502  0.00000000000E+00  0.00000000000E+00  0.69849419233E+03  0.69849419233E+03  0.00000000000E+00 0. -1.
         21   -1    0    0  501  503 -0.00000000000E+00 -0.00000000000E+00 -0.16771739697E+04  0.16771739697E+04  0.00000000000E+00 0. -1.
    9000010    2    1    2  501    0  0.42705510107E+02  0.42244834921E+03 -0.44770402042E+03  0.11745502373E+04  0.99942133338E+03 0.  0.
   -9000010    2    1    2    0  502 -0.42705510107E+02 -0.42244834921E+03 -0.53097575692E+03  0.12011179247E+04  0.99018313779E+03 0.  0.
        -13    1    3    3    0    0  0.22737578403E+03 -0.21833702030E+03 -0.39533951927E+03  0.50563242406E+03  0.10566000000E+00 0.  1.
          4    1    3    3  501    0 -0.18467027392E+03  0.64078536951E+03 -0.52364501156E+02  0.66891781321E+03  0.00000000000E+00 0.  1.
         13    1    4    4    0    0  0.39416710223E+03 -0.57536104590E+01 -0.43967599363E+03  0.59052163301E+03  0.10566000000E+00 0. -1.
         -4    1    4    4    0  502 -0.43687261234E+03 -0.41669473875E+03 -0.91299763292E+02  0.61059629174E+03  0.00000000000E+00 0. -1.
<mgrwt>
<rscale>  2 0.10837468E+04</rscale>
<asrwt>0</asrwt>
<pdfrwt beam="1">  1       21 0.10746065E+00 0.10858772E+04</pdfrwt>
<pdfrwt beam="2">  1       21 0.25802676E+00 0.10858772E+04</pdfrwt>
<totfact> 0.17180455E+01</totfact>
</mgrwt>
</event>
<event>
 8    1  0.1094795E-005  0.1027350E+04  0.7818608E-02  0.8769220E-01
         21   -1    0    0  503  502  0.00000000000E+00  0.00000000000E+00  0.35827851609E+03  0.35827851609E+03  0.00000000000E+00 0.  1.
         21   -1    0    0  501  503 -0.00000000000E+00 -0.00000000000E+00 -0.27326648647E+04  0.27326648647E+04  0.00000000000E+00 0.  1.
    9000010    2    1    2  501    0 -0.20619884827E+03 -0.13002259365E+03 -0.99837373567E+03  0.13737191958E+04  0.91155387826E+03 0.  0.
   -9000010    2    1    2    0  502  0.20619884827E+03  0.13002259365E+03 -0.13760126129E+04  0.17172241850E+04  0.99801019566E+03 0.  0.
        -13    1    3    3    0    0 -0.12700372733E+02 -0.37888562939E+03 -0.60008770634E+02  0.38381855524E+03  0.10566000000E+00 0.  1.
          4    1    3    3  501    0 -0.19349847553E+03  0.24886303574E+03 -0.93836496504E+03  0.98990064057E+03  0.00000000000E+00 0.  1.
         13    1    4    4    0    0 -0.25705343835E+03 -0.25673671448E+02 -0.14181520023E+01  0.25833627289E+03  0.10566000000E+00 0. -1.
         -4    1    4    4    0  502  0.46325228662E+03  0.15569626510E+03 -0.13745944609E+04  0.14588879121E+04  0.00000000000E+00 0. -1.
<mgrwt>
<rscale>  2 0.10057365E+04</rscale>
<asrwt>0</asrwt>
<pdfrwt beam="1">  1       21 0.55119774E-01 0.10273501E+04</pdfrwt>
<pdfrwt beam="2">  1       21 0.42040996E+00 0.10273501E+04</pdfrwt>
<totfact> 0.64109385E+00</totfact>
</mgrwt>
</event>
<event>
 8    1  0.1094795E-005  0.1053878E+04  0.7818608E-02  0.8726876E-01
         21   -1    0    0  503  502  0.00000000000E+00  0.00000000000E+00  0.10146832642E+04  0.10146832642E+04  0.00000000000E+00 0. -1.
         21   -1    0    0  501  503 -0.00000000000E+00 -0.00000000000E+00 -0.10914938624E+04  0.10914938624E+04  0.00000000000E+00 0. -1.
    9000010    2    1    2  501    0  0.25327419857E+03  0.19743254889E+03  0.17758708770E+02  0.10540275111E+04  0.10037585324E+04 0.  0.
   -9000010    2    1    2    0  502 -0.25327419857E+03 -0.19743254889E+03 -0.94569306944E+02  0.10521496155E+04  0.99747081593E+03 0.  0.
        -13    1    3    3    0    0  0.51350651170E+03  0.16023301634E+03  0.34136927244E+03  0.63710010863E+03  0.10566000000E+00 0.  1.
          4    1    3    3  501    0 -0.26023231313E+03  0.37199532552E+02 -0.32361056367E+03  0.41692740248E+03  0.00000000000E+00 0.  1.
         13    1    4    4    0    0  0.37037889952E+03  0.26982413491E+02  0.47224686719E+02  0.37435112134E+03  0.10566000000E+00 0. -1.
         -4    1    4    4    0  502 -0.62365309809E+03 -0.22441496238E+03 -0.14179399366E+03  0.67779849420E+03  0.00000000000E+00 0. -1.
<mgrwt>
<rscale>  2 0.10523780E+04</rscale>
<asrwt>0</asrwt>
<pdfrwt beam="1">  1       21 0.15610512E+00 0.10538779E+04</pdfrwt>
<pdfrwt beam="2">  1       21 0.16792213E+00 0.10538779E+04</pdfrwt>
<totfact> 0.28955766E+01</totfact>
</mgrwt>
</event>
<event>
 8    1  0.1094795E-005  0.1456344E+04  0.7818608E-02  0.8436988E-01
         21   -1    0    0  503  502  0.00000000000E+00  0.00000000000E+00  0.17675875158E+04  0.17675875158E+04  0.00000000000E+00 0.  1.
         21   -1    0    0  501  503 -0.00000000000E+00 -0.00000000000E+00 -0.16669335829E+04  0.16669335829E+04  0.00000000000E+00 0. -1.
    9000010    2    1    2  501    0  0.98595483785E+03  0.33159577985E+03 -0.86863619975E+03  0.16957200736E+04  0.10192521851E+04 0.  0.
   -9000010    2    1    2    0  502 -0.98595483785E+03 -0.33159577985E+03  0.96929013264E+03  0.17388010251E+04  0.10009210459E+04 0.  0.
        -13    1    3    3    0    0  0.69182614189E+03 -0.25429686352E+03 -0.70515655538E+03  0.10200667057E+04  0.10566000000E+00 0.  1.
          4    1    3    3  501    0  0.29412869596E+03  0.58589264337E+03 -0.16347964437E+03  0.67565336783E+03  0.00000000000E+00 0.  1.
         13    1    4    4    0    0 -0.97996731775E+03 -0.55775674545E+03  0.53270395816E+03  0.12470774030E+04  0.10566000000E+00 0. -1.
         -4    1    4    4    0  502 -0.59875201056E+01  0.22616096560E+03  0.43658617447E+03  0.49172362207E+03  0.00000000000E+00 0. -1.
<mgrwt>
<rscale>  2 0.14531409E+04</rscale>
<asrwt>0</asrwt>
<pdfrwt beam="1">  1       21 0.27193654E+00 0.14563440E+04</pdfrwt>
<pdfrwt beam="2">  1       21 0.25645132E+00 0.14563440E+04</pdfrwt>
<totfact> 0.70091653E-01</totfact>
</mgrwt>
</event>
<event>
 8    1  0.1094795E-005  0.1351448E+04  0.7818608E-02  0.8502908E-01
         21   -1    0    0  503  502  0.00000000000E+00  0.00000000000E+00  0.89833122334E+03  0.89833122334E+03  0.00000000000E+00 0. -1.
         21   -1    0    0  501  503 -0.00000000000E+00 -0.00000000000E+00 -0.25910888308E+04  0.25910888308E+04  0.00000000000E+00 0.  1.
    9000010    2    1    2  501    0 -0.32930604223E+02 -0.91433724175E+03 -0.16755271313E+04  0.21526270345E+04  0.99464313480E+03 0.  0.
   -9000010    2    1    2    0  502  0.32930604223E+02  0.91433724175E+03 -0.17230476181E+02  0.13367930197E+04  0.97448533686E+03 0.  0.
        -13    1    3    3    0    0 -0.15479809275E+03 -0.10776398083E+04 -0.16000974882E+04  0.19353506113E+04  0.10566000000E+00 0.  1.
          4    1    3    3  501    0  0.12186748853E+03  0.16330256656E+03 -0.75429643138E+02  0.21727642318E+03  0.00000000000E+00 0.  1.
         13    1    4    4    0    0  0.20078035976E+03  0.96117409775E+03  0.25415155915E+03  0.10142787710E+04  0.10566000000E+00 0. -1.
         -4    1    4    4    0  502 -0.16784975553E+03 -0.46836855999E+02 -0.27138203533E+03  0.32251424870E+03  0.00000000000E+00 0. -1.
<mgrwt>
<rscale>  2 0.13477413E+04</rscale>
<asrwt>0</asrwt>
<pdfrwt beam="1">  1       21 0.13820481E+00 0.13514481E+04</pdfrwt>
<pdfrwt beam="2">  1       21 0.39862904E+00 0.13514481E+04</pdfrwt>
<totfact> 0.81402808E-01</totfact>
</mgrwt>
</event>
<event>
 8    1  0.1094795E-005  0.1340456E+04  0.7818608E-02  0.8509216E-01
         21   -1    0    0  501  502  0.00000000000E+00  0.00000000000E+00  0.73134819428E+03  0.73134819428E+03  0.00000000000E+00 0. -1.
         21   -1    0    0  502  503 -0.00000000000E+00 -0.00000000000E+00 -0.31622717007E+04  0.31622717007E+04  0.00000000000E+00 0. -1.
   -9000010    2    1    2    0  503 -0.39062475881E+03 -0.80346686931E+03 -0.21426378702E+04  0.25225138385E+04  0.98693075242E+03 0.  0.
    9000010    2    1    2  501    0  0.39062475881E+03  0.80346686931E+03 -0.28828563619E+03  0.13711060565E+04  0.99933802983E+03 0.  0.
        -13    1    4    4    0    0 -0.33669420289E+00  0.31805959638E+03  0.35415179855E+03  0.47601000808E+03  0.10566000000E+00 0.  1.
          4    1    4    4  501    0  0.39096145302E+03  0.48540727293E+03 -0.64243743474E+03  0.89509604843E+03  0.00000000000E+00 0.  1.
         13    1    3    3    0    0 -0.72354366363E+03 -0.51115466691E+03 -0.14971153506E+04  0.17395829704E+04  0.10566000000E+00 0. -1.
         -4    1    3    3    0  503  0.33291890482E+03 -0.29231220240E+03 -0.64552251957E+03  0.78293086804E+03  0.00000000000E+00 0. -1.
<mgrwt>
<rscale>  2 0.13381443E+04</rscale>
<asrwt>0</asrwt>
<pdfrwt beam="1">  1       21 0.11251511E+00 0.13404563E+04</pdfrwt>
<pdfrwt beam="2">  1       21 0.48650333E+00 0.13404563E+04</pdfrwt>
<totfact> 0.36069763E-01</totfact>
</mgrwt>
</event>
<event>
 8    1  0.1094795E-005  0.1101770E+04  0.7818608E-02  0.8684856E-01
         21   -1    0    0  501  502  0.00000000000E+00  0.00000000000E+00  0.11100264298E+04  0.11100264298E+04  0.00000000000E+00 0.  1.
         21   -1    0    0  502  503 -0.00000000000E+00 -0.00000000000E+00 -0.11252091475E+04  0.11252091475E+04  0.00000000000E+00 0. -1.
   -9000010    2    1    2    0  503 -0.44184315492E+03 -0.99826515145E+02  0.18547736902E+03  0.11153422766E+04  0.10021955063E+04 0.  0.
    9000010    2    1    2  501    0  0.44184315492E+03  0.99826515145E+02 -0.20066008671E+03  0.11198933008E+04  0.10043434811E+04 0.  0.
        -13    1    4    4    0    0  0.38223846060E+03 -0.35469168258E+03  0.15016458728E+03  0.54264338648E+03  0.10566000000E+00 0.  1.
          4    1    4    4  501    0  0.59604694320E+02  0.45451819773E+03 -0.35082467399E+03  0.57724991427E+03  0.00000000000E+00 0.  1.
         13    1    3    3    0    0  0.17287744858E+03 -0.34932679396E+03 -0.84958018955E+02  0.39891565193E+03  0.10566000000E+00 0. -1.
         -4    1    3    3    0  503 -0.61472060350E+03  0.24950027882E+03  0.27043538797E+03  0.71642662469E+03  0.00000000000E+00 0. -1.
<mgrwt>
<rscale>  2 0.11012800E+04</rscale>
<asrwt>0</asrwt>
<pdfrwt beam="1">  1       21 0.17077330E+00 0.11017697E+04</pdfrwt>
<pdfrwt beam="2">  1       21 0.17310910E+00 0.11017697E+04</pdfrwt>
<totfact> 0.19425073E+01</totfact>
</mgrwt>
</event>
<event>
 8    1  0.1094795E-005  0.1090946E+04  0.7818608E-02  0.8695435E-01
         21   -1    0    0  501  502  0.00000000000E+00  0.00000000000E+00  0.98403751868E+03  0.98403751868E+03  0.00000000000E+00 0.  1.
         21   -1    0    0  502  503 -0.00000000000E+00 -0.00000000000E+00 -0.13100045402E+04  0.13100045402E+04  0.00000000000E+00 0.  1.
   -9000010    2    1    2    0  503  0.23083920941E+00  0.45980942198E+03  0.17059458697E+03  0.10954023040E+04  0.97947891078E+03 0.  0.
    9000010    2    1    2  501    0 -0.23083920941E+00 -0.45980942198E+03 -0.49656160848E+03  0.11986397549E+04  0.98931242442E+03 0.  0.
        -13    1    4    4    0    0 -0.24895431657E+03 -0.57585501160E+03 -0.63378923210E+03  0.89178251161E+03  0.10566000000E+00 0.  1.
          4    1    4    4  501    0  0.24872347736E+03  0.11604558961E+03  0.13722762361E+03  0.30685724326E+03  0.00000000000E+00 0.  1.
         13    1    3    3    0    0 -0.22205352063E+03  0.66491318416E+03  0.30492753092E+03  0.76445936372E+03  0.10566000000E+00 0. -1.
         -4    1    3    3    0  503  0.22228435984E+03 -0.20510376218E+03 -0.13433294395E+03  0.33094294028E+03  0.00000000000E+00 0. -1.
<mgrwt>
<rscale>  2 0.10887121E+04</rscale>
<asrwt>0</asrwt>
<pdfrwt beam="1">  1       21 0.15139039E+00 0.10909463E+04</pdfrwt>
<pdfrwt beam="2">  1       21 0.20153916E+00 0.10909463E+04</pdfrwt>
<totfact> 0.16898991E+01</totfact>
</mgrwt>
</event>
<event>
 8    1  0.1094795E-005  0.1334582E+04  0.7818608E-02  0.8514155E-01
         21   -1    0    0  501  502  0.00000000000E+00  0.00000000000E+00  0.24424860796E+04  0.24424860796E+04  0.00000000000E+00 0.  1.
         21   -1    0    0  502  503 -0.00000000000E+00 -0.00000000000E+00 -0.74924462567E+03  0.74924462567E+03  0.00000000000E+00 0.  1.
   -9000010    2    1    2    0  503  0.66656182531E+03 -0.57169635735E+03  0.11529528507E+04  0.17519314568E+04  0.98428764164E+03 0.  0.
    9000010    2    1    2  501    0 -0.66656182531E+03  0.57169635735E+03  0.54028860322E+03  0.14397992485E+04  0.10049719942E+04 0.  0.
        -13    1    4    4    0    0 -0.88266046633E+03  0.64445575256E+03  0.36513975412E+03  0.11522759075E+04  0.10566000000E+00 0.  1.
          4    1    4    4  501    0  0.21609864103E+03 -0.72759395212E+02  0.17514884910E+03  0.28752334094E+03  0.00000000000E+00 0.  1.
         13    1    3    3    0    0  0.17387604523E+03 -0.54485221110E+03  0.88567481926E+02  0.57874089286E+03  0.10566000000E+00 0. -1.
         -4    1    3    3    0  503  0.49268578008E+03 -0.26844146246E+02  0.10643853688E+04  0.11731905640E+04  0.00000000000E+00 0. -1.
<mgrwt>
<rscale>  2 0.13306890E+04</rscale>
<asrwt>0</asrwt>
<pdfrwt beam="1">  1       21 0.37576709E+00 0.13345824E+04</pdfrwt>
<pdfrwt beam="2">  1       21 0.11526840E+00 0.13345824E+04</pdfrwt>
<totfact> 0.19860905E+00</totfact>
</mgrwt>
</event>
<event>
 8    1  0.1094795E-005  0.1204070E+04  0.7818608E-02  0.8605056E-01
         21   -1    0    0  501  502  0.00000000000E+00  0.00000000000E+00  0.64936922442E+03  0.64936922442E+03  0.00000000000E+00 0.  1.
         21   -1    0    0  502  503 -0.00000000000E+00 -0.00000000000E+00 -0.22250293654E+04  0.22250293654E+04  0.00000000000E+00 0. -1.
   -9000010    2    1    2    0  503  0.65559254449E+03 -0.91649463899E+02 -0.86966150120E+03  0.14786128988E+04  0.99588341140E+03 0.  0.
    9000010    2    1    2  501    0 -0.65559254449E+03  0.91649463899E+02 -0.70599863983E+03  0.13957856911E+04  0.10057745311E+04 0.  0.
        -13    1    4    4    0    0 -0.49040594567E+03  0.47045005276E+02  0.15615855624E+03  0.51681401870E+03  0.10566000000E+00 0.  1.
          4    1    4    4  501    0 -0.16518659882E+03  0.44604458623E+02 -0.86215719607E+03  0.87897167241E+03  0.00000000000E+00 0.  1.
         13    1    3    3    0    0  0.14297905027E+03 -0.13783515828E+03 -0.93855124782E+03  0.95933309941E+03  0.10566000000E+00 0. -1.
         -4    1    3    3    0  503  0.51261349422E+03  0.46185694383E+02  0.68889746626E+02  0.51927979935E+03  0.00000000000E+00 0. -1.
<mgrwt>
<rscale>  2 0.12020018E+04</rscale>
<asrwt>0</asrwt>
<pdfrwt beam="1">  1       21 0.99902957E-01 0.12040696E+04</pdfrwt>
<pdfrwt beam="2">  1       21 0.34231221E+00 0.12040696E+04</pdfrwt>
<totfact> 0.51411153E+00</totfact>
</mgrwt>
</event>
<event>
 8    1  0.1094795E-005  0.1204289E+04  0.7818608E-02  0.8605477E-01
         21   -1    0    0  501  502  0.00000000000E+00  0.00000000000E+00  0.14019066640E+04  0.14019066640E+04  0.00000000000E+00 0. -1.
         21   -1    0    0  502  503 -0.00000000000E+00 -0.00000000000E+00 -0.12574582266E+04  0.12574582266E+04  0.00000000000E+00 0. -1.
   -9000010    2    1    2    0  503 -0.28369179483E+03  0.58274819880E+03 -0.49999989686E+03  0.12934856283E+04  0.10015131932E+04 0.  0.
    9000010    2    1    2  501    0  0.28369179483E+03 -0.58274819880E+03  0.64444833420E+03  0.13658792623E+04  0.10150054217E+04 0.  0.
        -13    1    4    4    0    0  0.63823915924E+01 -0.45437470389E+03  0.87306352884E+03  0.98424440207E+03  0.10566000000E+00 0.  1.
          4    1    4    4  501    0  0.27730940324E+03 -0.12837349491E+03 -0.22861519464E+03  0.38163486023E+03  0.00000000000E+00 0.  1.
         13    1    3    3    0    0 -0.23987935130E+03 -0.25691287439E+03 -0.12812171597E+03  0.37411430536E+03  0.10566000000E+00 0. -1.
         -4    1    3    3    0  503 -0.43812443530E+02  0.83966107319E+03 -0.37187818089E+03  0.91937132295E+03  0.00000000000E+00 0. -1.
<mgrwt>
<rscale>  2 0.12014418E+04</rscale>
<asrwt>0</asrwt>
<pdfrwt beam="1">  1       21 0.21567795E+00 0.12042892E+04</pdfrwt>
<pdfrwt beam="2">  1       21 0.19345511E+00 0.12042892E+04</pdfrwt>
<totfact> 0.57116709E+00</totfact>
</mgrwt>
</event>
<event>
 8    1  0.1094795E-005  0.1137388E+04  0.7818608E-02  0.8666794E-01
         21   -1    0    0  501  502  0.00000000000E+00  0.00000000000E+00  0.11101064743E+04  0.11101064743E+04  0.00000000000E+00 0.  1.
         21   -1    0    0  502  503 -0.00000000000E+00 -0.00000000000E+00 -0.13371947455E+04  0.13371947455E+04  0.00000000000E+00 0.  1.
   -9000010    2    1    2    0  503  0.30174874804E+03 -0.43729513192E+03 -0.61677492558E+03  0.12450085302E+04  0.94199553722E+03 0.  0.
    9000010    2    1    2  501    0 -0.30174874804E+03  0.43729513192E+03  0.38968665438E+03  0.12022926896E+04  0.10056702658E+04 0.  0.
        -13    1    4    4    0    0  0.27882552419E+03  0.41664260361E+03 -0.25409501990E+01  0.50133940567E+03  0.10566000000E+00 0.  1.
          4    1    4    4  501    0 -0.58057427222E+03  0.20652528308E+02  0.39222760458E+03  0.70095328395E+03  0.00000000000E+00 0.  1.
         13    1    3    3    0    0 -0.15166993494E+03  0.22932426723E+03 -0.17068002495E+03  0.32361253187E+03  0.10566000000E+00 0. -1.
         -4    1    3    3    0  503  0.45341868297E+03 -0.66661939915E+03 -0.44609490062E+03  0.92139599834E+03  0.00000000000E+00 0. -1.
<mgrwt>
<rscale>  2 0.11231502E+04</rscale>
<asrwt>0</asrwt>
<pdfrwt beam="1">  1       21 0.17078561E+00 0.11373882E+04</pdfrwt>
<pdfrwt beam="2">  1       21 0.20572227E+00 0.11373882E+04</pdfrwt>
<totfact> 0.10566261E+01</totfact>
</mgrwt>
</event>
<event>
 8    1  0.1094795E-005  0.1056240E+04  0.7818608E-02  0.8726369E-01
         21   -1    0    0  501  502  0.00000000000E+00  0.00000000000E+00  0.79489534090E+03  0.79489534090E+03  0.00000000000E+00 0. -1.
         21   -1    0    0  502  503 -0.00000000000E+00 -0.00000000000E+00 -0.14122643186E+04  0.14122643186E+04  0.00000000000E+00 0. -1.
   -9000010    2    1    2    0  503  0.31007885894E+03  0.12154396363E+03 -0.16056218347E+03  0.10683741014E+04  0.10023578063E+04 0.  0.
    9000010    2    1    2  501    0 -0.31007885894E+03 -0.12154396363E+03 -0.45680679427E+03  0.11387855581E+04  0.98855362338E+03 0.  0.
        -13    1    4    4    0    0 -0.19481453038E+03  0.39385542088E+03 -0.42244737963E+03  0.60953801647E+03  0.10566000000E+00 0.  1.
          4    1    4    4  501    0 -0.11526432856E+03 -0.51539938451E+03 -0.34359414634E+02  0.52924754167E+03  0.00000000000E+00 0.  1.
         13    1    3    3    0    0 -0.74709419112E+02  0.36934747302E+03  0.25107783813E+03  0.45281248337E+03  0.10566000000E+00 0. -1.
         -4    1    3    3    0  503  0.38478827806E+03 -0.24780350939E+03 -0.41164002160E+03  0.61556161802E+03  0.00000000000E+00 0. -1.
<mgrwt>
<rscale>  2 0.10529520E+04</rscale>
<asrwt>0</asrwt>
<pdfrwt beam="1">  1       21 0.12229159E+00 0.10562400E+04</pdfrwt>
<pdfrwt beam="2">  1       21 0.21727143E+00 0.10562400E+04</pdfrwt>
<totfact> 0.24214937E+01</totfact>
</mgrwt>
</event>
<event>
 8    1  0.1094795E-005  0.1223567E+04  0.7818608E-02  0.8599105E-01
         21   -1    0    0  503  502  0.00000000000E+00  0.00000000000E+00  0.96736502893E+03  0.96736502893E+03  0.00000000000E+00 0. -1.
         21   -1    0    0  501  503 -0.00000000000E+00 -0.00000000000E+00 -0.16114371821E+04  0.16114371821E+04  0.00000000000E+00 0. -1.
    9000010    2    1    2  501    0  0.41352262022E+03  0.46258684275E+03 -0.69594081442E+03  0.14076401796E+04  0.10545756082E+04 0.  0.
   -9000010    2    1    2    0  502 -0.41352262022E+03 -0.46258684275E+03  0.51868661250E+02  0.11711620315E+04  0.99193880930E+03 0.  0.
        -13    1    3    3    0    0 -0.26365329124E+03  0.18724562089E+03 -0.58476066630E+03  0.66822079325E+03  0.10566000000E+00 0.  1.
          4    1    3    3  501    0  0.67717591146E+03  0.27534122186E+03 -0.11118014812E+03  0.73941938631E+03  0.00000000000E+00 0.  1.
         13    1    4    4    0    0 -0.59490039319E+03 -0.56284361538E+02  0.29250901561E+03  0.66530890761E+03  0.10566000000E+00 0. -1.
         -4    1    4    4    0  502  0.18137777297E+03 -0.40630248121E+03 -0.24064035436E+03  0.50585312385E+03  0.00000000000E+00 0. -1.
<mgrwt>
<rscale>  2 0.12099533E+04</rscale>
<asrwt>0</asrwt>
<pdfrwt beam="1">  1       21 0.14882539E+00 0.12235674E+04</pdfrwt>
<pdfrwt beam="2">  1       21 0.24791341E+00 0.12235674E+04</pdfrwt>
<totfact> 0.77664503E+00</totfact>
</mgrwt>
</event>
<event>
 8    1  0.1094795E-005  0.1471314E+04  0.7818608E-02  0.8427360E-01
         21   -1    0    0  503  502  0.00000000000E+00  0.00000000000E+00  0.16966192001E+04  0.16966192001E+04  0.00000000000E+00 0.  1.
         21   -1    0    0  501  503 -0.00000000000E+00 -0.00000000000E+00 -0.13492583249E+04  0.13492583249E+04  0.00000000000E+00 0.  1.
    9000010    2    1    2  501    0  0.68459878797E+03 -0.81859892594E+03  0.54522426986E+03  0.15690873291E+04  0.10129095912E+04 0.  0.
   -9000010    2    1    2    0  502 -0.68459878797E+03  0.81859892594E+03 -0.19786339465E+03  0.14767901959E+04  0.10014887207E+04 0.  0.
        -13    1    3    3    0    0 -0.10203165270E+03  0.10476105565E+03  0.29684874600E+03  0.33091468099E+03  0.10566000000E+00 0.  1.
          4    1    3    3  501    0  0.78663044067E+03 -0.92335998159E+03  0.24837552386E+03  0.12381726482E+04  0.00000000000E+00 0.  1.
         13    1    4    4    0    0  0.16395987651E+03 -0.11152242678E+03  0.19039047057E+02  0.19920489266E+03  0.10566000000E+00 0. -1.
         -4    1    4    4    0  502 -0.84855866448E+03  0.93012135272E+03 -0.21690244171E+03  0.12775853032E+04  0.00000000000E+00 0. -1.
<mgrwt>
<rscale>  2 0.14693505E+04</rscale>
<asrwt>0</asrwt>
<pdfrwt beam="1">  1       21 0.26101834E+00 0.14713142E+04</pdfrwt>
<pdfrwt beam="2">  1       21 0.20757820E+00 0.14713142E+04</pdfrwt>
<totfact> 0.19415072E+00</totfact>
</mgrwt>
</event>
<event>
 8    1  0.1094795E-005  0.1262811E+04  0.7818608E-02  0.8562706E-01
         21   -1    0    0  501  502  0.00000000000E+00  0.00000000000E+00  0.14631502270E+04  0.14631502270E+04  0.00000000000E+00 0. -1.
         21   -1    0    0  502  503 -0.00000000000E+00 -0.00000000000E+00 -0.10805357790E+04  0.10805357790E+04  0.00000000000E+00 0. -1.
   -9000010    2    1    2    0  503  0.10381904436E+03 -0.74949868408E+03  0.16896504507E+03  0.12629290629E+04  0.99695233585E+03 0.  0.
    9000010    2    1    2  501    0 -0.10381904436E+03  0.74949868408E+03  0.21364940295E+03  0.12807569431E+04  0.10110220613E+04 0.  0.
        -13    1    4    4    0    0 -0.41580421498E+03 -0.25460126972E+02 -0.72397665779E+01  0.41664587919E+03  0.10566000000E+00 0.  1.
          4    1    4    4  501    0  0.31198517062E+03  0.77495881105E+03  0.22088916953E+03  0.86411106388E+03  0.00000000000E+00 0.  1.
         13    1    3    3    0    0 -0.41660230995E+03 -0.45031184842E+03 -0.68703989237E+02  0.61729935589E+03  0.10566000000E+00 0. -1.
         -4    1    3    3    0  503  0.52042135431E+03 -0.29918683566E+03  0.23766903431E+03  0.64562970697E+03  0.00000000000E+00 0. -1.
<mgrwt>
<rscale>  2 0.12599928E+04</rscale>
<asrwt>0</asrwt>
<pdfrwt beam="1">  1       21 0.22510004E+00 0.12628113E+04</pdfrwt>
<pdfrwt beam="2">  1       21 0.16623627E+00 0.12628113E+04</pdfrwt>
<totfact> 0.80084913E+00</totfact>
</mgrwt>
</event>
<event>
 8    1  0.1094795E-005  0.1155852E+04  0.7818608E-02  0.8642799E-01
         21   -1    0    0  503  502  0.00000000000E+00  0.00000000000E+00  0.18046974756E+04  0.18046974756E+04  0.00000000000E+00 0.  1.
         21   -1    0    0  501  503 -0.00000000000E+00 -0.00000000000E+00 -0.88509167443E+03  0.88509167443E+03  0.00000000000E+00 0.  1.
    9000010    2    1    2  501    0 -0.48720688841E+03 -0.30899602657E+03 -0.99387293178E+02  0.11488993136E+04  0.98855586700E+03 0.  0.
   -9000010    2    1    2    0  502  0.48720688841E+03  0.30899602657E+03  0.10189930943E+04  0.15408898364E+04  0.10015714977E+04 0.  0.
        -13    1    3    3    0    0  0.26334637362E+03  0.97023001559E+02 -0.92613327506E+02  0.29553682499E+03  0.10566000000E+00 0.  1.
          4    1    3    3  501    0 -0.75055326203E+03 -0.40601902813E+03 -0.67739656719E+01  0.85336248860E+03  0.00000000000E+00 0.  1.
         13    1    4    4    0    0  0.26566115916E+03 -0.16385185505E+03 -0.81676458657E+02  0.32263654001E+03  0.10566000000E+00 0. -1.
         -4    1    4    4    0  502  0.22154572925E+03  0.47284788162E+03  0.11006695530E+04  0.12182532964E+04  0.00000000000E+00 0. -1.
<mgrwt>
<rscale>  2 0.11530270E+04</rscale>
<asrwt>0</asrwt>
<pdfrwt beam="1">  1       21 0.27764577E+00 0.11558523E+04</pdfrwt>
<pdfrwt beam="2">  1       21 0.13616795E+00 0.11558523E+04</pdfrwt>
<totfact> 0.62842855E+00</totfact>
</mgrwt>
</event>
<event>
 8    1  0.1094795E-005  0.1145162E+04  0.7818608E-02  0.8653601E-01
         21   -1    0    0  503  502  0.00000000000E+00  0.00000000000E+00  0.75618267015E+03  0.75618267015E+03  0.00000000000E+00 0. -1.
         21   -1    0    0  501  503 -0.00000000000E+00 -0.00000000000E+00 -0.17879814125E+04  0.17879814125E+04  0.00000000000E+00 0.  1.
    9000010    2    1    2  501    0  0.58002288746E+03  0.38374156870E+02 -0.80278069733E+03  0.13985179628E+04  0.98665927166E+03 0.  0.
   -9000010    2    1    2    0  502 -0.58002288746E+03 -0.38374156870E+02 -0.22901804501E+03  0.11456461198E+04  0.96028987345E+03 0.  0.
        -13    1    3    3    0    0  0.82996332537E+03 -0.12179343014E+03 -0.66878070255E+03  0.10728189038E+04  0.10566000000E+00 0.  1.
          4    1    3    3  501    0 -0.24994043790E+03  0.16016758701E+03 -0.13399999477E+03  0.32569905899E+03  0.00000000000E+00 0.  1.
         13    1    4    4    0    0  0.96612559914E+02 -0.26193370429E+03 -0.32292217014E+03  0.42687467869E+03  0.10566000000E+00 0. -1.
         -4    1    4    4    0  502 -0.67663544738E+03  0.22355954742E+03  0.93904125136E+02  0.71877144114E+03  0.00000000000E+00 0. -1.
<mgrwt>
<rscale>  2 0.11394594E+04</rscale>
<asrwt>0</asrwt>
<pdfrwt beam="1">  1       21 0.11633580E+00 0.11451618E+04</pdfrwt>
<pdfrwt beam="2">  1       21 0.27507406E+00 0.11451618E+04</pdfrwt>
<totfact> 0.10302387E+01</totfact>
</mgrwt>
</event>
<event>
 8    1  0.1094795E-005  0.1607039E+04  0.7818608E-02  0.8351020E-01
         21   -1    0    0  501  502  0.00000000000E+00  0.00000000000E+00  0.37237493998E+04  0.37237493998E+04  0.00000000000E+00 0. -1.
         21   -1    0    0  502  503 -0.00000000000E+00 -0.00000000000E+00 -0.76066120069E+03  0.76066120069E+03  0.00000000000E+00 0.  1.
   -9000010    2    1    2    0  503  0.83898386590E+03 -0.92875203888E+03  0.80788844745E+03  0.17986820550E+04  0.10080174178E+04 0.  0.
    9000010    2    1    2  501    0 -0.83898386590E+03  0.92875203888E+03  0.21551997517E+04  0.26857285455E+04  0.10008883921E+04 0.  0.
        -13    1    4    4    0    0 -0.31083847135E+03  0.57348369662E+03  0.18842080459E+04  0.19939267983E+04  0.10566000000E+00 0.  1.
          4    1    4    4  501    0 -0.52814539454E+03  0.35526834226E+03  0.27099170579E+03  0.69180174718E+03  0.00000000000E+00 0.  1.
         13    1    3    3    0    0  0.48834654576E+03 -0.84388064427E+03  0.70219497164E+02  0.97752119132E+03  0.10566000000E+00 0. -1.
         -4    1    3    3    0  503  0.35063732014E+03 -0.84871394612E+02  0.73766895028E+03  0.82116086372E+03  0.00000000000E+00 0. -1.
<mgrwt>
<rscale>  2 0.16059220E+04</rscale>
<asrwt>0</asrwt>
<pdfrwt beam="1">  1       21 0.57288451E+00 0.16070387E+04</pdfrwt>
<pdfrwt beam="2">  1       21 0.11702480E+00 0.16070387E+04</pdfrwt>
<totfact> 0.74211702E-02</totfact>
</mgrwt>
</event>
<event>
 8    1  0.1094795E-005  0.1045141E+04  0.7818608E-02  0.8783370E-01
         21   -1    0    0  501  502  0.00000000000E+00  0.00000000000E+00  0.18900858554E+04  0.18900858554E+04  0.00000000000E+00 0.  1.
         21   -1    0    0  502  503 -0.00000000000E+00 -0.00000000000E+00 -0.48038917118E+03  0.48038917118E+03  0.00000000000E+00 0.  1.
   -9000010    2    1    2    0  503 -0.31203010270E+03  0.63522268593E+02  0.93468072970E+03  0.14021228799E+04  0.99545097335E+03 0.  0.
    9000010    2    1    2  501    0  0.31203010270E+03 -0.63522268593E+02  0.47501595454E+03  0.96835214667E+03  0.78145240373E+03 0.  0.
        -13    1    4    4    0    0 -0.22279981007E+03  0.34717026197E+02  0.34014647037E+03  0.40809883576E+03  0.10566000000E+00 0.  1.
          4    1    4    4  501    0  0.53482991277E+03 -0.98239294789E+02  0.13486948417E+03  0.56025331092E+03  0.00000000000E+00 0.  1.
         13    1    3    3    0    0 -0.29035649763E+03  0.43586464603E+03  0.16879955253E+03  0.55025283777E+03  0.10566000000E+00 0. -1.
         -4    1    3    3    0  503 -0.21673605071E+02 -0.37234237743E+03  0.76588117717E+03  0.85187004216E+03  0.00000000000E+00 0. -1.
<mgrwt>
<rscale>  2 0.99070942E+03</rscale>
<asrwt>0</asrwt>
<pdfrwt beam="1">  1       21 0.29078243E+00 0.10451414E+04</pdfrwt>
<pdfrwt beam="2">  1       21 0.73906028E-01 0.10451414E+04</pdfrwt>
<totfact> 0.26121955E+01</totfact>
</mgrwt>
</event>
<event>
 8    1  0.1094795E-005  0.1054696E+04  0.7818608E-02  0.8740575E-01
         21   -1    0    0  501  502  0.00000000000E+00  0.00000000000E+00  0.71864581079E+03  0.71864581079E+03  0.00000000000E+00 0.  1.
         21   -1    0    0  502  503 -0.00000000000E+00 -0.00000000000E+00 -0.16012382102E+04  0.16012382102E+04  0.00000000000E+00 0.  1.
   -9000010    2    1    2    0  503  0.25776731168E+03 -0.17450523095E+03 -0.78610058181E+03  0.12607833718E+04  0.93526708656E+03 0.  0.
    9000010    2    1    2  501    0 -0.25776731168E+03  0.17450523095E+03 -0.96491817577E+02  0.10591006492E+04  0.10077139731E+04 0.  0.
        -13    1    4    4    0    0  0.15710614454E+03  0.33264291517E+02 -0.46156803602E+03  0.48870637072E+03  0.10566000000E+00 0.  1.
          4    1    4    4  501    0 -0.41487345622E+03  0.14124093943E+03  0.36507621844E+03  0.57039427848E+03  0.00000000000E+00 0.  1.
         13    1    3    3    0    0  0.47510499319E+03  0.19832973098E+03 -0.60055820595E+03  0.79103072421E+03  0.10566000000E+00 0. -1.
         -4    1    3    3    0  503 -0.21733768151E+03 -0.37283496193E+03 -0.18554237586E+03  0.46975264755E+03  0.00000000000E+00 0. -1.
<mgrwt>
<rscale>  2 0.10370090E+04</rscale>
<asrwt>0</asrwt>
<pdfrwt beam="1">  1       21 0.11056089E+00 0.10546959E+04</pdfrwt>
<pdfrwt beam="2">  1       21 0.24634434E+00 0.10546959E+04</pdfrwt>
<totfact> 0.19476667E+01</totfact>
</mgrwt>
</event>
<event>
 8    1  0.1094795E-005  0.1264343E+04  0.7818608E-02  0.8560417E-01
         21   -1    0    0  501  502  0.00000000000E+00  0.00000000000E+00  0.18784468557E+04  0.18784468557E+04  0.00000000000E+00 0.  1.
         21   -1    0    0  502  503 -0.00000000000E+00 -0.00000000000E+00 -0.85294530055E+03  0.85294530055E+03  0.00000000000E+00 0.  1.
   -9000010    2    1    2    0  503  0.45153143270E+03 -0.60339952115E+03  0.61773076034E+03  0.14071797244E+04  0.10151807069E+04 0.  0.
    9000010    2    1    2  501    0 -0.45153143270E+03  0.60339952115E+03  0.40777079477E+03  0.13242124318E+04  0.10095988939E+04 0.  0.
        -13    1    4    4    0    0 -0.49894128479E+03  0.47098296252E+03 -0.18852492383E+03  0.71155394365E+03  0.10566000000E+00 0.  1.
          4    1    4    4  501    0  0.47409852090E+02  0.13241655864E+03  0.59629571860E+03  0.61265848815E+03  0.00000000000E+00 0.  1.
         13    1    3    3    0    0 -0.16836491624E+03 -0.81642543101E+02 -0.18747510513E+03  0.26487577479E+03  0.10566000000E+00 0. -1.
         -4    1    3    3    0  503  0.61989634894E+03 -0.52175697805E+03  0.80520586547E+03  0.11423039496E+04  0.00000000000E+00 0. -1.
<mgrwt>
<rscale>  2 0.12632223E+04</rscale>
<asrwt>0</asrwt>
<pdfrwt beam="1">  1       21 0.28899182E+00 0.12643431E+04</pdfrwt>
<pdfrwt beam="2">  1       21 0.13122235E+00 0.12643431E+04</pdfrwt>
<totfact> 0.56866237E+00</totfact>
</mgrwt>
</event>
<event>
 8    1  0.1094795E-005  0.1228727E+04  0.7818608E-02  0.8586096E-01
         21   -1    0    0  501  502  0.00000000000E+00  0.00000000000E+00  0.13359188833E+04  0.13359188833E+04  0.00000000000E+00 0.  1.
         21   -1    0    0  502  503 -0.00000000000E+00 -0.00000000000E+00 -0.12309392629E+04  0.12309392629E+04  0.00000000000E+00 0.  1.
   -9000010    2    1    2    0  503  0.44410483418E+03  0.52612123277E+03 -0.32244170214E+03  0.12703300139E+04  0.10177116673E+04 0.  0.
    9000010    2    1    2  501    0 -0.44410483418E+03 -0.52612123277E+03  0.42742132253E+03  0.12965281322E+04  0.10120590672E+04 0.  0.
        -13    1    4    4    0    0  0.17253802343E+03 -0.57931108729E+03  0.18994201957E+03  0.63359978484E+03  0.10566000000E+00 0.  1.
          4    1    4    4  501    0 -0.61664285761E+03  0.53189854521E+02  0.23747930296E+03  0.66292834740E+03  0.00000000000E+00 0.  1.
         13    1    3    3    0    0  0.43131180949E+03  0.82129338169E+03 -0.29581513115E+03  0.97368336680E+03  0.10566000000E+00 0. -1.
         -4    1    3    3    0  503  0.12793024688E+02 -0.29517214892E+03 -0.26626570989E+02  0.29664664714E+03  0.00000000000E+00 0. -1.
<mgrwt>
<rscale>  2 0.12275557E+04</rscale>
<asrwt>0</asrwt>
<pdfrwt beam="1">  1       21 0.20552598E+00 0.12287269E+04</pdfrwt>
<pdfrwt beam="2">  1       21 0.18937527E+00 0.12287269E+04</pdfrwt>
<totfact> 0.73270616E+00</totfact>
</mgrwt>
</event>
<event>
 8    1  0.1094795E-005  0.1072930E+04  0.7818608E-02  0.8714567E-01
         21   -1    0    0  501  502  0.00000000000E+00  0.00000000000E+00  0.11764083910E+04  0.11764083910E+04  0.00000000000E+00 0. -1.
         21   -1    0    0  502  503 -0.00000000000E+00 -0.00000000000E+00 -0.96813491372E+03  0.96813491372E+03  0.00000000000E+00 0. -1.
   -9000010    2    1    2    0  503  0.10534556065E+03  0.37196958752E+03 -0.18694126737E+02  0.10730933245E+04  0.10008600059E+04 0.  0.
    9000010    2    1    2  501    0 -0.10534556065E+03 -0.37196958752E+03  0.22696760405E+03  0.10714499803E+04  0.97315554038E+03 0.  0.
        -13    1    4    4    0    0  0.78300098886E+02 -0.95195993894E+02  0.57634452016E+03  0.58937780737E+03  0.10566000000E+00 0.  1.
          4    1    4    4  501    0 -0.18364565953E+03 -0.27677359362E+03 -0.34937691610E+03  0.48207217291E+03  0.00000000000E+00 0.  1.
         13    1    3    3    0    0  0.16069751048E+03 -0.14480728583E+03  0.36691451194E+03  0.42593322263E+03  0.10566000000E+00 0. -1.
         -4    1    3    3    0  503 -0.55351949836E+02  0.51677687335E+03 -0.38560863868E+03  0.64716010183E+03  0.00000000000E+00 0. -1.
<mgrwt>
<rscale>  2 0.10664225E+04</rscale>
<asrwt>0</asrwt>
<pdfrwt beam="1">  1       21 0.18098591E+00 0.10729305E+04</pdfrwt>
<pdfrwt beam="2">  1       21 0.14894383E+00 0.10729305E+04</pdfrwt>
<totfact> 0.26002835E+01</totfact>
</mgrwt>
</event>
<event>
 8    1  0.1094795E-005  0.1193236E+04  0.7818608E-02  0.8613354E-01
         21   -1    0    0  503  502  0.00000000000E+00  0.00000000000E+00  0.23912838713E+04  0.23912838713E+04  0.00000000000E+00 0.  1.
         21   -1    0    0  501  503 -0.00000000000E+00 -0.00000000000E+00 -0.78359731122E+03  0.78359731122E+03  0.00000000000E+00 0. -1.
    9000010    2    1    2  501    0 -0.61344330132E+03 -0.15884903038E+03  0.14632326653E+02  0.11844960863E+04  0.10006353857E+04 0.  0.
   -9000010    2    1    2    0  502  0.61344330132E+03  0.15884903038E+03  0.15930542334E+04  0.19903850963E+04  0.10110713834E+04 0.  0.
        -13    1    3    3    0    0 -0.79169889782E+03 -0.41381228005E+02 -0.26210665259E+03  0.83498470605E+03  0.10566000000E+00 0.  1.
          4    1    3    3  501    0  0.17825559650E+03 -0.11746780238E+03  0.27673897924E+03  0.34951138023E+03  0.00000000000E+00 0.  1.
         13    1    4    4    0    0 -0.20894657065E+03 -0.77243291787E+02  0.53576114107E+02  0.22911919753E+03  0.10566000000E+00 0. -1.
         -4    1    4    4    0  502  0.82238987197E+03  0.23609232217E+03  0.15394781193E+04  0.17612658987E+04  0.00000000000E+00 0. -1.
<mgrwt>
<rscale>  2 0.11910219E+04</rscale>
<asrwt>0</asrwt>
<pdfrwt beam="1">  1       21 0.36788982E+00 0.11932355E+04</pdfrwt>
<pdfrwt beam="2">  1       21 0.12055343E+00 0.11932355E+04</pdfrwt>
<totfact> 0.20465858E+00</totfact>
</mgrwt>
</event>
<event>
 8    1  0.1094795E-005  0.1078929E+04  0.7818608E-02  0.8722020E-01
         21   -1    0    0  503  502  0.00000000000E+00  0.00000000000E+00  0.58393391342E+03  0.58393391342E+03  0.00000000000E+00 0. -1.
         21   -1    0    0  501  503 -0.00000000000E+00 -0.00000000000E+00 -0.18454426574E+04  0.18454426574E+04  0.00000000000E+00 0. -1.
    9000010    2    1    2  501    0 -0.37570028453E+03  0.19115503996E+03 -0.64899328367E+03  0.12590787903E+04  0.99317479071E+03 0.  0.
   -9000010    2    1    2    0  502  0.37570028453E+03 -0.19115503996E+03 -0.61251546035E+03  0.11702977805E+04  0.90373157123E+03 0.  0.
        -13    1    3    3    0    0  0.20141738423E+03  0.41272556424E+03 -0.24406632190E+03  0.52007666233E+03  0.10566000000E+00 0.  1.
          4    1    3    3  501    0 -0.57711766876E+03 -0.22157052428E+03 -0.40492696177E+03  0.73900212801E+03  0.00000000000E+00 0.  1.
         13    1    4    4    0    0  0.54275658948E+03 -0.30262539151E+03 -0.11258934636E+03  0.63154035112E+03  0.10566000000E+00 0. -1.
         -4    1    4    4    0  502 -0.16705630495E+03  0.11147035155E+03 -0.49992611398E+03  0.53875742941E+03  0.00000000000E+00 0. -1.
<mgrwt>
<rscale>  2 0.10578909E+04</rscale>
<asrwt>0</asrwt>
<pdfrwt beam="1">  1       21 0.89835986E-01 0.10789287E+04</pdfrwt>
<pdfrwt beam="2">  1       21 0.28391426E+00 0.10789287E+04</pdfrwt>
<totfact> 0.17900560E+01</totfact>
</mgrwt>
</event>
<event>
 8    1  0.1094795E-005  0.1496053E+04  0.7818608E-02  0.8412498E-01
         21   -1    0    0  503  502  0.00000000000E+00  0.00000000000E+00  0.21178597055E+04  0.21178597055E+04  0.00000000000E+00 0. -1.
         21   -1    0    0  501  503 -0.00000000000E+00 -0.00000000000E+00 -0.10806176465E+04  0.10806176465E+04  0.00000000000E+00 0.  1.
    9000010    2    1    2  501    0 -0.52960819824E+03  0.97507868538E+03  0.77215963832E+03  0.16791214856E+04  0.99596946243E+03 0.  0.
   -9000010    2    1    2    0  502  0.52960819824E+03 -0.97507868538E+03  0.26508242073E+03  0.15193558664E+04  0.10034491879E+04 0.  0.
        -13    1    3    3    0    0 -0.59377348173E+03  0.50289553332E+03  0.75265180557E+01  0.77815649113E+03  0.10566000000E+00 0.  1.
          4    1    3    3  501    0  0.64165283494E+02  0.47218315205E+03  0.76463312027E+03  0.90096499449E+03  0.00000000000E+00 0.  1.
         13    1    4    4    0    0  0.36576513929E+03 -0.12283000131E+03  0.48918270431E+03  0.62303376771E+03  0.10566000000E+00 0. -1.
         -4    1    4    4    0  502  0.16384305895E+03 -0.85224868406E+03 -0.22410028359E+03  0.89632209867E+03  0.00000000000E+00 0. -1.
<mgrwt>
<rscale>  2 0.14947994E+04</rscale>
<asrwt>0</asrwt>
<pdfrwt beam="1">  1       21 0.32582457E+00 0.14960527E+04</pdfrwt>
<pdfrwt beam="2">  1       21 0.16624887E+00 0.14960527E+04</pdfrwt>
<totfact> 0.14442361E+00</totfact>
</mgrwt>
</event>
<event>
 8    1  0.1094795E-005  0.1351016E+04  0.7818608E-02  0.8501224E-01
         21   -1    0    0  501  502  0.00000000000E+00  0.00000000000E+00  0.17030733857E+04  0.17030733857E+04  0.00000000000E+00 0. -1.
         21   -1    0    0  502  503 -0.00000000000E+00 -0.00000000000E+00 -0.11054762608E+04  0.11054762608E+04  0.00000000000E+00 0. -1.
   -9000010    2    1    2    0  503  0.60176942446E+03  0.61072658967E+03  0.55174999195E+03  0.14567558799E+04  0.10404788477E+04 0.  0.
    9000010    2    1    2  501    0 -0.60176942446E+03 -0.61072658967E+03  0.45847132924E+02  0.13517937665E+04  0.10440933962E+04 0.  0.
        -13    1    4    4    0    0 -0.20976822409E+03  0.29500217266E+03  0.45874165077E+02  0.36487455364E+03  0.10566000000E+00 0.  1.
          4    1    4    4  501    0 -0.39200120037E+03 -0.90572876233E+03 -0.27032152694E-01  0.98691921287E+03  0.00000000000E+00 0.  1.
         13    1    3    3    0    0  0.13110853723E+03  0.34285885672E+03  0.78540582718E+03  0.86695096096E+03  0.10566000000E+00 0. -1.
         -4    1    3    3    0  503  0.47066088723E+03  0.26786773295E+03 -0.23365583523E+03  0.58980491899E+03  0.00000000000E+00 0. -1.
<mgrwt>
<rscale>  2 0.13503177E+04</rscale>
<asrwt>0</asrwt>
<pdfrwt beam="1">  1       21 0.26201129E+00 0.13510161E+04</pdfrwt>
<pdfrwt beam="2">  1       21 0.17007327E+00 0.13510161E+04</pdfrwt>
<totfact> 0.39124268E+00</totfact>
</mgrwt>
</event>
<event>
 8    1  0.1094795E-005  0.1207000E+04  0.7818608E-02  0.8610540E-01
         21   -1    0    0  501  502  0.00000000000E+00  0.00000000000E+00  0.11272204622E+04  0.11272204622E+04  0.00000000000E+00 0. -1.
         21   -1    0    0  502  503 -0.00000000000E+00 -0.00000000000E+00 -0.12532082233E+04  0.12532082233E+04  0.00000000000E+00 0. -1.
   -9000010    2    1    2    0  503 -0.14253468200E+03  0.65617566163E+03  0.54786216293E+02  0.11599660986E+04  0.94426542134E+03 0.  0.
    9000010    2    1    2  501    0  0.14253468200E+03 -0.65617566163E+03 -0.18077397745E+03  0.12204625869E+04  0.10029790928E+04 0.  0.
        -13    1    4    4    0    0 -0.42705676913E+03 -0.32060517051E+03 -0.16596808363E+03  0.55920530699E+03  0.10566000000E+00 0.  1.
          4    1    4    4  501    0  0.56959145113E+03 -0.33557049111E+03 -0.14805893820E+02  0.66125727988E+03  0.00000000000E+00 0.  1.
         13    1    3    3    0    0  0.85261967179E+02  0.26986768385E+03  0.47010676229E+03  0.54872447453E+03  0.10566000000E+00 0. -1.
         -4    1    3    3    0  503 -0.22779664918E+03  0.38630797778E+03 -0.41532054600E+03  0.61124162408E+03  0.00000000000E+00 0. -1.
<mgrwt>
<rscale>  2 0.11947323E+04</rscale>
<asrwt>0</asrwt>
<pdfrwt beam="1">  1       21 0.17341853E+00 0.12070003E+04</pdfrwt>
<pdfrwt beam="2">  1       21 0.19280127E+00 0.12070003E+04</pdfrwt>
<totfact> 0.12496992E+01</totfact>
</mgrwt>
</event>
<event>
 8    1  0.1094795E-005  0.1138753E+04  0.7818608E-02  0.8655109E-01
         21   -1    0    0  503  502  0.00000000000E+00  0.00000000000E+00  0.15042156286E+04  0.15042156286E+04  0.00000000000E+00 0.  1.
         21   -1    0    0  501  503 -0.00000000000E+00 -0.00000000000E+00 -0.94664937073E+03  0.94664937073E+03  0.00000000000E+00 0.  1.
    9000010    2    1    2  501    0  0.99796631500E+02  0.52255090243E+03 -0.94548819343E+02  0.11426710928E+04  0.10068460328E+04 0.  0.
   -9000010    2    1    2    0  502 -0.99796631500E+02 -0.52255090243E+03  0.65211507724E+03  0.13081939065E+04  0.10015480068E+04 0.  0.
        -13    1    3    3    0    0  0.11011547328E+03  0.82567356524E+03 -0.35918974635E+02  0.83375802107E+03  0.10566000000E+00 0.  1.
          4    1    3    3  501    0 -0.10318841785E+02 -0.30312266281E+03 -0.58629844709E+02  0.30891307175E+03  0.00000000000E+00 0.  1.
         13    1    4    4    0    0  0.60197590892E+02  0.21442419075E+03  0.48797406200E+03  0.53639554424E+03  0.10566000000E+00 0. -1.
         -4    1    4    4    0  502 -0.15999422239E+03 -0.73697509317E+03  0.16414101524E+03  0.77179836229E+03  0.00000000000E+00 0. -1.
<mgrwt>
<rscale>  2 0.11375805E+04</rscale>
<asrwt>0</asrwt>
<pdfrwt beam="1">  1       21 0.23141779E+00 0.11387527E+04</pdfrwt>
<pdfrwt beam="2">  1       21 0.14563837E+00 0.11387527E+04</pdfrwt>
<totfact> 0.11173358E+01</totfact>
</mgrwt>
</event>
<event>
 8    1  0.1094795E-005  0.1370518E+04  0.7818608E-02  0.8491513E-01
         21   -1    0    0  503  502  0.00000000000E+00  0.00000000000E+00  0.11935562982E+04  0.11935562982E+04  0.00000000000E+00 0.  1.
         21   -1    0    0  501  503 -0.00000000000E+00 -0.00000000000E+00 -0.18040246597E+04  0.18040246597E+04  0.00000000000E+00 0. -1.
    9000010    2    1    2  501    0  0.66740706104E+03  0.63891220210E+03 -0.86972594768E+03  0.16231892429E+04  0.10122643464E+04 0.  0.
   -9000010    2    1    2    0  502 -0.66740706104E+03 -0.63891220210E+03  0.25925758614E+03  0.13743917151E+04  0.98391925653E+03 0.  0.
        -13    1    3    3    0    0  0.38873610711E+03  0.85176734817E+03 -0.35703265376E+03  0.10020457591E+04  0.10566000000E+00 0.  1.
          4    1    3    3  501    0  0.27867095392E+03 -0.21285514607E+03 -0.51269329392E+03  0.62114348375E+03  0.00000000000E+00 0.  1.
         13    1    4    4    0    0  0.10299236722E+03 -0.47182601350E+03 -0.12290723932E+03  0.49833062856E+03  0.10566000000E+00 0. -1.
         -4    1    4    4    0  502 -0.77039942826E+03 -0.16708618861E+03  0.38216482546E+03  0.87606108651E+03  0.00000000000E+00 0. -1.
<mgrwt>
<rscale>  2 0.13652882E+04</rscale>
<asrwt>0</asrwt>
<pdfrwt beam="1">  1       21 0.18362405E+00 0.13705182E+04</pdfrwt>
<pdfrwt beam="2">  1       21 0.27754226E+00 0.13705182E+04</pdfrwt>
<totfact> 0.23289246E+00</totfact>
</mgrwt>
</event>
<event>
 8    1  0.1094795E-005  0.1039001E+04  0.7818608E-02  0.8742279E-01
         21   -1    0    0  503  502  0.00000000000E+00  0.00000000000E+00  0.20957513420E+04  0.20957513420E+04  0.00000000000E+00 0.  1.
         21   -1    0    0  501  503 -0.00000000000E+00 -0.00000000000E+00 -0.50752742219E+03  0.50752742219E+03  0.00000000000E+00 0.  1.
    9000010    2    1    2  501    0  0.21284317957E+03 -0.81957458938E+02  0.80221580849E+03  0.13004619894E+04  0.99781357898E+03 0.  0.
   -9000010    2    1    2    0  502 -0.21284317957E+03  0.81957458938E+02  0.78600811133E+03  0.13028167748E+04  0.10136584994E+04 0.  0.
        -13    1    3    3    0    0  0.84482178664E+02  0.31140905748E+03  0.82520376265E+03  0.88604407376E+03  0.10566000000E+00 0.  1.
          4    1    3    3  501    0  0.12836100091E+03 -0.39336651642E+03 -0.22987954161E+02  0.41441791567E+03  0.00000000000E+00 0.  1.
         13    1    4    4    0    0 -0.11595256753E+03  0.54464624379E+03  0.33728855713E+03  0.65103618235E+03  0.10566000000E+00 0. -1.
         -4    1    4    4    0  502 -0.96890612041E+02 -0.46268878485E+03  0.44871955420E+03  0.65178059242E+03  0.00000000000E+00 0. -1.
<mgrwt>
<rscale>  2 0.10351160E+04</rscale>
<asrwt>0</asrwt>
<pdfrwt beam="1">  1       21 0.32242328E+00 0.10390009E+04</pdfrwt>
<pdfrwt beam="2">  1       21 0.78081143E-01 0.10390009E+04</pdfrwt>
<totfact> 0.13706240E+01</totfact>
</mgrwt>
</event>
<event>
 8    1  0.1094795E-005  0.1113071E+04  0.7818608E-02  0.8678159E-01
         21   -1    0    0  503  502  0.00000000000E+00  0.00000000000E+00  0.86422919897E+03  0.86422919897E+03  0.00000000000E+00 0. -1.
         21   -1    0    0  501  503 -0.00000000000E+00 -0.00000000000E+00 -0.14164841924E+04  0.14164841924E+04  0.00000000000E+00 0. -1.
    9000010    2    1    2  501    0  0.48152127453E+03 -0.17797090650E+03 -0.23468879408E+03  0.11375440246E+04  0.98761895306E+03 0.  0.
   -9000010    2    1    2    0  502 -0.48152127453E+03  0.17797090650E+03 -0.31756619930E+03  0.11431693667E+04  0.97079942764E+03 0.  0.
        -13    1    3    3    0    0  0.34509459341E+03 -0.34644279515E+03  0.29091775205E+03  0.56898685252E+03  0.10566000000E+00 0.  1.
          4    1    3    3  501    0  0.13642668112E+03  0.16847188865E+03 -0.52560654614E+03  0.56855717208E+03  0.00000000000E+00 0.  1.
         13    1    4    4    0    0  0.27363408085E+03 -0.72179549487E+02 -0.18126131556E+03  0.33606721538E+03  0.10566000000E+00 0. -1.
         -4    1    4    4    0  502 -0.75515535538E+03  0.25015045599E+03 -0.13630488374E+03  0.80710215136E+03  0.00000000000E+00 0. -1.
<mgrwt>
<rscale>  2 0.11093283E+04</rscale>
<asrwt>0</asrwt>
<pdfrwt beam="1">  1       21 0.13295834E+00 0.11130712E+04</pdfrwt>
<pdfrwt beam="2">  1       21 0.21792064E+00 0.11130712E+04</pdfrwt>
<totfact> 0.18605513E+01</totfact>
</mgrwt>
</event>
<event>
 8    1  0.1094795E-005  0.1124349E+04  0.7818608E-02  0.8668406E-01
         21   -1    0    0  503  502  0.00000000000E+00  0.00000000000E+00  0.20493945576E+04  0.20493945576E+04  0.00000000000E+00 0.  1.
         21   -1    0    0  501  503 -0.00000000000E+00 -0.00000000000E+00 -0.63805499851E+03  0.63805499851E+03  0.00000000000E+00 0.  1.
    9000010    2    1    2  501    0  0.47795982819E+03  0.15161422272E+03  0.99158727399E+03  0.14991354140E+04  0.10063444727E+04 0.  0.
   -9000010    2    1    2    0  502 -0.47795982819E+03 -0.15161422272E+03  0.41975228512E+03  0.11883141421E+04  0.99220262528E+03 0.  0.
        -13    1    3    3    0    0  0.60099375977E+03 -0.28271104172E+03  0.68060844671E+03  0.95097155651E+03  0.10566000000E+00 0.  1.
          4    1    3    3  501    0 -0.12303393158E+03  0.43432526444E+03  0.31097882728E+03  0.54816385750E+03  0.00000000000E+00 0.  1.
         13    1    4    4    0    0  0.13443434355E+03  0.38035529266E+02 -0.23409228777E+03  0.27261420464E+03  0.10566000000E+00 0. -1.
         -4    1    4    4    0  502 -0.61239417173E+03 -0.18964975199E+03  0.65384457289E+03  0.91569993748E+03  0.00000000000E+00 0. -1.
<mgrwt>
<rscale>  2 0.11211761E+04</rscale>
<asrwt>0</asrwt>
<pdfrwt beam="1">  1       21 0.31529147E+00 0.11243494E+04</pdfrwt>
<pdfrwt beam="2">  1       21 0.98162309E-01 0.11243494E+04</pdfrwt>
<totfact> 0.84724724E+00</totfact>
</mgrwt>
</event>
<event>
 8    1  0.1094795E-005  0.1086853E+04  0.7818608E-02  0.8697497E-01
         21   -1    0    0  501  502  0.00000000000E+00  0.00000000000E+00  0.87204960059E+03  0.87204960059E+03  0.00000000000E+00 0. -1.
         21   -1    0    0  502  503 -0.00000000000E+00 -0.00000000000E+00 -0.15609398179E+04  0.15609398179E+04  0.00000000000E+00 0. -1.
   -9000010    2    1    2    0  503  0.32289935254E+03  0.19232093457E+03 -0.78949303570E+03  0.13414905282E+04  0.10173722279E+04 0.  0.
    9000010    2    1    2  501    0 -0.32289935254E+03 -0.19232093457E+03  0.10060281840E+03  0.10914988903E+04  0.10198027096E+04 0.  0.
        -13    1    4    4    0    0 -0.61433954523E+03  0.11262436186E+03  0.20426573169E+03  0.65713151197E+03  0.10566000000E+00 0.  1.
          4    1    4    4  501    0  0.29144019269E+03 -0.30494529643E+03 -0.10366291328E+03  0.43436737829E+03  0.00000000000E+00 0.  1.
         13    1    3    3    0    0  0.82618203993E+02 -0.28961045022E+03  0.86386116161E+02  0.31330903712E+03  0.10566000000E+00 0. -1.
         -4    1    3    3    0  503  0.24028114855E+03  0.48193138479E+03 -0.87587915186E+03  0.10281814911E+04  0.00000000000E+00 0. -1.
<mgrwt>
<rscale>  2 0.10862822E+04</rscale>
<asrwt>0</asrwt>
<pdfrwt beam="1">  1       21 0.13416148E+00 0.10868528E+04</pdfrwt>
<pdfrwt beam="2">  1       21 0.24014458E+00 0.10868528E+04</pdfrwt>
<totfact> 0.12447025E+01</totfact>
</mgrwt>
</event>
<event>
 8    1  0.1094795E-005  0.1181403E+04  0.7818608E-02  0.8620718E-01
         21   -1    0    0  501  502  0.00000000000E+00  0.00000000000E+00  0.12529893796E+04  0.12529893796E+04  0.00000000000E+00 0. -1.
         21   -1    0    0  502  503 -0.00000000000E+00 -0.00000000000E+00 -0.11235707866E+04  0.11235707866E+04  0.00000000000E+00 0. -1.
   -9000010    2    1    2    0  503 -0.59549462494E+03  0.11193761877E+03  0.17544582342E+03  0.11942606330E+04  0.10140677215E+04 0.  0.
    9000010    2    1    2  501    0  0.59549462494E+03 -0.11193761877E+03 -0.46027230399E+02  0.11822995332E+04  0.10141843035E+04 0.  0.
        -13    1    4    4    0    0  0.88085750616E+03 -0.39839324221E+02 -0.83003111769E+02  0.88565605380E+03  0.10566000000E+00 0.  1.
          4    1    4    4  501    0 -0.28536288121E+03 -0.72098294548E+02  0.36975881371E+02  0.29664347937E+03  0.00000000000E+00 0.  1.
         13    1    3    3    0    0  0.18130502637E+03  0.23534579109E+03  0.27076920018E+03  0.40196408409E+03  0.10566000000E+00 0. -1.
         -4    1    3    3    0  503 -0.77679965132E+03 -0.12340817232E+03 -0.95323376752E+02  0.79229654893E+03  0.00000000000E+00 0. -1.
<mgrwt>
<rscale>  2 0.11813782E+04</rscale>
<asrwt>0</asrwt>
<pdfrwt beam="1">  1       21 0.19276760E+00 0.11814033E+04</pdfrwt>
<pdfrwt beam="2">  1       21 0.17285704E+00 0.11814033E+04</pdfrwt>
<totfact> 0.12706169E+01</totfact>
</mgrwt>
</event>
<event>
 8    1  0.1094795E-005  0.1130590E+04  0.7818608E-02  0.8680308E-01
         21   -1    0    0  503  502  0.00000000000E+00  0.00000000000E+00  0.75547700352E+03  0.75547700352E+03  0.00000000000E+00 0.  1.
         21   -1    0    0  501  503 -0.00000000000E+00 -0.00000000000E+00 -0.16067326117E+04  0.16067326117E+04  0.00000000000E+00 0.  1.
    9000010    2    1    2  501    0  0.11304904661E+03  0.40625961749E+03 -0.65194903839E+03  0.13050944123E+04  0.10490028182E+04 0.  0.
   -9000010    2    1    2    0  502 -0.11304904661E+03 -0.40625961749E+03 -0.19930656982E+03  0.10571152030E+04  0.94865298180E+03 0.  0.
        -13    1    3    3    0    0 -0.46430168495E+03  0.12948936022E+03 -0.20250128786E+03  0.52282916120E+03  0.10566000000E+00 0.  1.
          4    1    3    3  501    0  0.57735073156E+03  0.27677025728E+03 -0.44944775054E+03  0.78226525105E+03  0.00000000000E+00 0.  1.
         13    1    4    4    0    0 -0.35349497786E+03 -0.47171425722E+03 -0.42036332564E+03  0.72400164126E+03  0.10566000000E+00 0. -1.
         -4    1    4    4    0  502  0.24044593126E+03  0.65454639723E+02  0.22105675582E+03  0.33311356173E+03  0.00000000000E+00 0. -1.
<mgrwt>
<rscale>  2 0.11067374E+04</rscale>
<asrwt>0</asrwt>
<pdfrwt beam="1">  1       21 0.11622723E+00 0.11305901E+04</pdfrwt>
<pdfrwt beam="2">  1       21 0.24718963E+00 0.11305901E+04</pdfrwt>
<totfact> 0.16469220E+01</totfact>
</mgrwt>
</event>
<event>
 8    1  0.1094795E-005  0.1054713E+04  0.7818608E-02  0.8728650E-01
         21   -1    0    0  501  502  0.00000000000E+00  0.00000000000E+00  0.20240038150E+04  0.20240038150E+04  0.00000000000E+00 0. -1.
         21   -1    0    0  502  503 -0.00000000000E+00 -0.00000000000E+00 -0.55789758318E+03  0.55789758318E+03  0.00000000000E+00 0. -1.
   -9000010    2    1    2    0  503  0.28043286623E+03  0.55278565801E+02  0.96585349291E+03  0.14301375826E+04  0.10152449079E+04 0.  0.
    9000010    2    1    2  501    0 -0.28043286623E+03 -0.55278565801E+02  0.50025273892E+03  0.11517638156E+04  0.99730074292E+03 0.  0.
        -13    1    4    4    0    0 -0.18104734429E+03  0.36332984141E+03 -0.95378501491E+02  0.41699374605E+03  0.10566000000E+00 0.  1.
          4    1    4    4  501    0 -0.99385521943E+02 -0.41860840721E+03  0.59563124041E+03  0.73477006955E+03  0.00000000000E+00 0.  1.
         13    1    3    3    0    0  0.34418079853E+03 -0.16685438874E+03 -0.52330793097E+02  0.38605612570E+03  0.10566000000E+00 0. -1.
         -4    1    3    3    0  503 -0.63747932294E+02  0.22213295455E+03  0.10181842860E+04  0.10440814569E+04  0.00000000000E+00 0. -1.
<mgrwt>
<rscale>  2 0.10503714E+04</rscale>
<asrwt>0</asrwt>
<pdfrwt beam="1">  1       21 0.31138520E+00 0.10547135E+04</pdfrwt>
<pdfrwt beam="2">  1       21 0.85830399E-01 0.10547135E+04</pdfrwt>
<totfact> 0.12926009E+01</totfact>
</mgrwt>
</event>
<event>
 8    1  0.1094795E-005  0.1195908E+04  0.7818608E-02  0.8610127E-01
         21   -1    0    0  501  502  0.00000000000E+00  0.00000000000E+00  0.26458524815E+04  0.26458524815E+04  0.00000000000E+00 0.  1.
         21   -1    0    0  502  503 -0.00000000000E+00 -0.00000000000E+00 -0.63468242740E+03  0.63468242740E+03  0.00000000000E+00 0.  1.
   -9000010    2    1    2    0  503 -0.10448485002E+03  0.63972742610E+03  0.36916044871E+03  0.12491830513E+04  0.10020032910E+04 0.  0.
    9000010    2    1    2  501    0  0.10448485002E+03 -0.63972742610E+03  0.16420096054E+04  0.20313518575E+04  0.10050007768E+04 0.  0.
        -13    1    4    4    0    0  0.22610776513E+03 -0.61336010884E+03  0.17490388558E+04  0.18672097565E+04  0.10566000000E+00 0.  1.
          4    1    4    4  501    0 -0.12162291510E+03 -0.26367317260E+02 -0.10702925040E+03  0.16414210106E+03  0.00000000000E+00 0.  1.
         13    1    3    3    0    0  0.62162581561E+02 -0.24963183792E+03 -0.32315365253E+02  0.25927694661E+03  0.10566000000E+00 0. -1.
         -4    1    3    3    0  503 -0.16664743159E+03  0.88935926402E+03  0.40147581396E+03  0.98990610471E+03  0.00000000000E+00 0. -1.
<mgrwt>
<rscale>  2 0.11952776E+04</rscale>
<asrwt>0</asrwt>
<pdfrwt beam="1">  1       21 0.40705422E+00 0.11959075E+04</pdfrwt>
<pdfrwt beam="2">  1       21 0.97643452E-01 0.11959075E+04</pdfrwt>
<totfact> 0.19263443E+00</totfact>
</mgrwt>
</event>
<event>
 8    1  0.1094795E-005  0.1063681E+04  0.7818608E-02  0.8718152E-01
         21   -1    0    0  503  502  0.00000000000E+00  0.00000000000E+00  0.20434006138E+04  0.20434006138E+04  0.00000000000E+00 0. -1.
         21   -1    0    0  501  503 -0.00000000000E+00 -0.00000000000E+00 -0.55290798930E+03  0.55290798930E+03  0.00000000000E+00 0. -1.
    9000010    2    1    2  501    0 -0.15782221389E+02  0.31550562205E+03  0.82644627334E+03  0.13470082170E+04  0.10156893314E+04 0.  0.
   -9000010    2    1    2    0  502  0.15782221389E+02 -0.31550562205E+03  0.66404635114E+03  0.12493003861E+04  0.10099509998E+04 0.  0.
        -13    1    3    3    0    0  0.31518662987E+03 -0.22419435951E+03  0.13541138860E+03  0.40980724470E+03  0.10566000000E+00 0.  1.
          4    1    3    3  501    0 -0.33096885126E+03  0.53969998156E+03  0.69103488474E+03  0.93720097232E+03  0.00000000000E+00 0.  1.
         13    1    4    4    0    0 -0.36018900882E+03  0.19890160423E+03  0.34381430107E+03  0.53619609755E+03  0.10566000000E+00 0. -1.
         -4    1    4    4    0  502  0.37597123021E+03 -0.51440722627E+03  0.32023205007E+03  0.71310428850E+03  0.00000000000E+00 0. -1.
<mgrwt>
<rscale>  2 0.10623090E+04</rscale>
<asrwt>0</asrwt>
<pdfrwt beam="1">  1       21 0.31436932E+00 0.10636812E+04</pdfrwt>
<pdfrwt beam="2">  1       21 0.85062769E-01 0.10636812E+04</pdfrwt>
<totfact> 0.12574894E+01</totfact>
</mgrwt>
</event>
<event>
 8    1  0.1094795E-005  0.9772713E+03  0.7818608E-02  0.8800510E-01
         21   -1    0    0  501  502  0.00000000000E+00  0.00000000000E+00  0.93919835916E+03  0.93919835916E+03  0.00000000000E+00 0. -1.
         21   -1    0    0  502  503 -0.00000000000E+00 -0.00000000000E+00 -0.99935104403E+03  0.99935104403E+03  0.00000000000E+00 0. -1.
   -9000010    2    1    2    0  503  0.15350860350E+03  0.11616408857E+03 -0.68401276226E+01  0.97729527176E+03  0.95812330837E+03 0.  0.
    9000010    2    1    2  501    0 -0.15350860350E+03 -0.11616408857E+03 -0.53312557249E+02  0.96125413143E+03  0.94027032795E+03 0.  0.
        -13    1    4    4    0    0 -0.18750898615E+03 -0.17649053171E+03  0.41470119251E+03  0.48814507875E+03  0.10566000000E+00 0.  1.
          4    1    4    4  501    0  0.34000382656E+02  0.60326443145E+02 -0.46801374976E+03  0.47310905268E+03  0.00000000000E+00 0.  1.
         13    1    3    3    0    0 -0.20096159076E+03 -0.33329753172E+03  0.82782106033E+02  0.39790161328E+03  0.10566000000E+00 0. -1.
         -4    1    3    3    0  503  0.35447019425E+03  0.44946162028E+03 -0.89622233656E+02  0.57939365848E+03  0.00000000000E+00 0. -1.
<mgrwt>
<rscale>  2 0.97286747E+03</rscale>
<asrwt>0</asrwt>
<pdfrwt beam="1">  1       21 0.14449206E+00 0.97727133E+03</pdfrwt>
<pdfrwt beam="2">  1       21 0.15374631E+00 0.97727133E+03</pdfrwt>
<totfact> 0.49502562E+01</totfact>
</mgrwt>
</event>
<event>
 8    1  0.1094795E-005  0.1538042E+04  0.7818608E-02  0.8398751E-01
         21   -1    0    0  503  502  0.00000000000E+00  0.00000000000E+00  0.20277025475E+04  0.20277025475E+04  0.00000000000E+00 0.  1.
         21   -1    0    0  501  503 -0.00000000000E+00 -0.00000000000E+00 -0.11128611583E+04  0.11128611583E+04  0.00000000000E+00 0. -1.
    9000010    2    1    2  501    0  0.94202125206E+03 -0.54693745948E+03  0.52435754293E+03  0.15537268876E+04  0.97599784037E+03 0.  0.
   -9000010    2    1    2    0  502 -0.94202125206E+03  0.54693745948E+03  0.39048384623E+03  0.15868368182E+04  0.10858309396E+04 0.  0.
        -13    1    3    3    0    0 -0.69174621927E+02 -0.19570856138E+03  0.43201349053E+03  0.47929389364E+03  0.10566000000E+00 0.  1.
          4    1    3    3  501    0  0.10111958740E+04 -0.35122889810E+03  0.92344052404E+02  0.10744329939E+04  0.00000000000E+00 0.  1.
         13    1    4    4    0    0  0.16186644223E+03  0.37121855875E+03  0.20451924293E+03  0.45368722197E+03  0.10566000000E+00 0. -1.
         -4    1    4    4    0  502 -0.11038876943E+04  0.17571890072E+03  0.18596460330E+03  0.11331495962E+04  0.00000000000E+00 0. -1.
<mgrwt>
<rscale>  2 0.15188171E+04</rscale>
<asrwt>0</asrwt>
<pdfrwt beam="1">  1       21 0.31195424E+00 0.15380421E+04</pdfrwt>
<pdfrwt beam="2">  1       21 0.17120941E+00 0.15380421E+04</pdfrwt>
<totfact> 0.16299936E+00</totfact>
</mgrwt>
</event>
<event>
 8    1  0.1094795E-005  0.1218521E+04  0.7818608E-02  0.8597515E-01
         21   -1    0    0  503  502  0.00000000000E+00  0.00000000000E+00  0.17769040016E+04  0.17769040016E+04  0.00000000000E+00 0. -1.
         21   -1    0    0  501  503 -0.00000000000E+00 -0.00000000000E+00 -0.84099728170E+03  0.84099728170E+03  0.00000000000E+00 0. -1.
    9000010    2    1    2  501    0 -0.64642661815E+03  0.14129782144E+01  0.25724519169E+03  0.12453785465E+04  0.10329197772E+04 0.  0.
   -9000010    2    1    2    0  502  0.64642661815E+03 -0.14129782144E+01  0.67866152820E+03  0.13725227368E+04  0.10026803200E+04 0.  0.
        -13    1    3    3    0    0  0.31065071309E+02  0.23911291412E+03 -0.26445089322E+03  0.35787471333E+03  0.10566000000E+00 0.  1.
          4    1    3    3  501    0 -0.67749168946E+03 -0.23769993590E+03  0.52169608491E+03  0.88750383314E+03  0.00000000000E+00 0.  1.
         13    1    4    4    0    0  0.42854154444E+03  0.48277210112E+03  0.25822895629E+03  0.69526898532E+03  0.10566000000E+00 0. -1.
         -4    1    4    4    0  502  0.21788507372E+03 -0.48418507933E+03  0.42043257191E+03  0.67725375150E+03  0.00000000000E+00 0. -1.
<mgrwt>
<rscale>  2 0.12120885E+04</rscale>
<asrwt>0</asrwt>
<pdfrwt beam="1">  1       21 0.27336985E+00 0.12185207E+04</pdfrwt>
<pdfrwt beam="2">  1       21 0.12938420E+00 0.12185207E+04</pdfrwt>
<totfact> 0.77260570E+00</totfact>
</mgrwt>
</event>
<event>
 8    1  0.1094795E-005  0.1146842E+04  0.7818608E-02  0.8649395E-01
         21   -1    0    0  501  502  0.00000000000E+00  0.00000000000E+00  0.12733601511E+04  0.12733601511E+04  0.00000000000E+00 0.  1.
         21   -1    0    0  502  503 -0.00000000000E+00 -0.00000000000E+00 -0.10255001466E+04  0.10255001466E+04  0.00000000000E+00 0.  1.
   -9000010    2    1    2    0  503 -0.16413526562E+03 -0.53656895027E+03  0.14115157922E+03  0.11554957233E+04  0.10001999672E+04 0.  0.
    9000010    2    1    2  501    0  0.16413526562E+03  0.53656895027E+03  0.10670842523E+03  0.11433645744E+04  0.99047929721E+03 0.  0.
        -13    1    4    4    0    0  0.30889785393E+03  0.29973626998E+03  0.50142465536E+03  0.66082252676E+03  0.10566000000E+00 0.  1.
          4    1    4    4  501    0 -0.14476258831E+03  0.23683268029E+03 -0.39471623013E+03  0.48254204766E+03  0.00000000000E+00 0.  1.
         13    1    3    3    0    0  0.57776111347E+02 -0.33802460645E+03 -0.40668288977E+03  0.53196775993E+03  0.10566000000E+00 0. -1.
         -4    1    3    3    0  503 -0.22191137697E+03 -0.19854434382E+03  0.54783446900E+03  0.62352796338E+03  0.00000000000E+00 0. -1.
<mgrwt>
<rscale>  2 0.11447192E+04</rscale>
<asrwt>0</asrwt>
<pdfrwt beam="1">  1       21 0.19590156E+00 0.11468420E+04</pdfrwt>
<pdfrwt beam="2">  1       21 0.15776925E+00 0.11468420E+04</pdfrwt>
<totfact> 0.16248357E+01</totfact>
</mgrwt>
</event>
<event>
 8    1  0.1094795E-005  0.1202555E+04  0.7818608E-02  0.8605908E-01
         21   -1    0    0  503  502  0.00000000000E+00  0.00000000000E+00  0.20246130212E+04  0.20246130212E+04  0.00000000000E+00 0. -1.
         21   -1    0    0  501  503 -0.00000000000E+00 -0.00000000000E+00 -0.71154150455E+03  0.71154150455E+03  0.00000000000E+00 0. -1.
    9000010    2    1    2  501    0  0.65045465179E+03  0.87470341084E+02  0.71575518191E+03  0.13994438640E+04  0.10076682656E+04 0.  0.
   -9000010    2    1    2    0  502 -0.65045465179E+03 -0.87470341084E+02  0.59731633468E+03  0.13367106617E+04  0.99963307012E+03 0.  0.
        -13    1    3    3    0    0  0.87265174287E+00 -0.37209609116E+03  0.79172308009E+02  0.38042677101E+03  0.10566000000E+00 0.  1.
          4    1    3    3  501    0  0.64958200004E+03  0.45956643225E+03  0.63658287390E+03  0.10190170930E+04  0.00000000000E+00 0.  1.
         13    1    4    4    0    0 -0.47829720858E+03  0.17290114249E+02  0.87278252526E+03  0.99539766694E+03  0.10566000000E+00 0. -1.
         -4    1    4    4    0  502 -0.17215744321E+03 -0.10476045533E+03 -0.27546619058E+03  0.34131299478E+03  0.00000000000E+00 0. -1.
<mgrwt>
<rscale>  2 0.12008699E+04</rscale>
<asrwt>0</asrwt>
<pdfrwt beam="1">  1       21 0.31147892E+00 0.12025546E+04</pdfrwt>
<pdfrwt beam="2">  1       21 0.10946792E+00 0.12025546E+04</pdfrwt>
<totfact> 0.66365045E+00</totfact>
</mgrwt>
</event>
<event>
 8    1  0.1094795E-005  0.1124779E+04  0.7818608E-02  0.8690454E-01
         21   -1    0    0  501  502  0.00000000000E+00  0.00000000000E+00  0.10006562365E+04  0.10006562365E+04  0.00000000000E+00 0. -1.
         21   -1    0    0  502  503 -0.00000000000E+00 -0.00000000000E+00 -0.11398204707E+04  0.11398204707E+04  0.00000000000E+00 0. -1.
   -9000010    2    1    2    0  503  0.26039492842E+03  0.31121142050E+02 -0.11544454353E+03  0.10154478401E+04  0.97418315993E+03 0.  0.
    9000010    2    1    2  501    0 -0.26039492842E+03 -0.31121142050E+02 -0.23719690713E+02  0.11250288671E+04  0.10937793580E+04 0.  0.
        -13    1    4    4    0    0 -0.54554825155E+03 -0.30140334495E+03 -0.25010611899E+03  0.67158019107E+03  0.10566000000E+00 0.  1.
          4    1    4    4  501    0  0.28515332314E+03  0.27028220290E+03  0.22638642828E+03  0.45344867605E+03  0.00000000000E+00 0.  1.
         13    1    3    3    0    0 -0.20530735271E+03  0.25217234700E+03  0.22699583535E+03  0.39657171117E+03  0.10566000000E+00 0. -1.
         -4    1    3    3    0  503  0.46570228113E+03 -0.22105120495E+03 -0.34244037888E+03  0.61887612892E+03  0.00000000000E+00 0. -1.
<mgrwt>
<rscale>  2 0.10946077E+04</rscale>
<asrwt>0</asrwt>
<pdfrwt beam="1">  1       21 0.15394711E+00 0.11247788E+04</pdfrwt>
<pdfrwt beam="2">  1       21 0.17535700E+00 0.11247788E+04</pdfrwt>
<totfact> 0.25821903E+01</totfact>
</mgrwt>
</event>
<event>
 8    1  0.1094795E-005  0.1385215E+04  0.7818608E-02  0.8519940E-01
         21   -1    0    0  503  502  0.00000000000E+00  0.00000000000E+00  0.11324861658E+04  0.11324861658E+04  0.00000000000E+00 0. -1.
         21   -1    0    0  501  503 -0.00000000000E+00 -0.00000000000E+00 -0.14185206649E+04  0.14185206649E+04  0.00000000000E+00 0. -1.
    9000010    2    1    2  501    0 -0.50163789785E+03  0.26866030370E+03 -0.15486094272E+03  0.11595953217E+04  0.99842899553E+03 0.  0.
   -9000010    2    1    2    0  502  0.50163789785E+03 -0.26866030370E+03 -0.13117355637E+03  0.13914115090E+04  0.12629333102E+04 0.  0.
        -13    1    3    3    0    0  0.23621062269E+03  0.25813814850E+03 -0.22866006185E+03  0.41799066621E+03  0.10566000000E+00 0.  1.
          4    1    3    3  501    0 -0.73784852054E+03  0.10522155199E+02  0.73799119134E+02  0.74160465546E+03  0.00000000000E+00 0.  1.
         13    1    4    4    0    0  0.34297645265E+03 -0.50755818281E+03  0.43868795126E+03  0.75345556323E+03  0.10566000000E+00 0. -1.
         -4    1    4    4    0  502  0.15866144520E+03  0.23889787910E+03 -0.56986150764E+03  0.63795594575E+03  0.00000000000E+00 0. -1.
<mgrwt>
<rscale>  2 0.13220183E+04</rscale>
<asrwt>0</asrwt>
<pdfrwt beam="1">  1       21 0.17422864E+00 0.13852146E+04</pdfrwt>
<pdfrwt beam="2">  1       21 0.21823395E+00 0.13852146E+04</pdfrwt>
<totfact> 0.75550994E+00</totfact>
</mgrwt>
</event>
<event>
 8    1  0.1094795E-005  0.1308879E+04  0.7818608E-02  0.8531473E-01
         21   -1    0    0  503  502  0.00000000000E+00  0.00000000000E+00  0.17395562365E+04  0.17395562365E+04  0.00000000000E+00 0. -1.
         21   -1    0    0  501  503 -0.00000000000E+00 -0.00000000000E+00 -0.10031107097E+04  0.10031107097E+04  0.00000000000E+00 0. -1.
    9000010    2    1    2  501    0 -0.80017799522E+03 -0.19849892553E+03  0.12866836265E+03  0.12995597789E+04  0.99629986644E+03 0.  0.
   -9000010    2    1    2    0  502  0.80017799522E+03  0.19849892553E+03  0.60777716420E+03  0.14431071673E+04  0.10166014793E+04 0.  0.
        -13    1    3    3    0    0  0.14473951378E+03 -0.22064802859E+03 -0.16328710548E+03  0.31031881888E+03  0.10566000000E+00 0.  1.
          4    1    3    3  501    0 -0.94491750900E+03  0.22149103059E+02  0.29195546813E+03  0.98924096001E+03  0.00000000000E+00 0.  1.
         13    1    4    4    0    0  0.76475844550E+03 -0.28289676398E+02 -0.29400212327E+02  0.76584604810E+03  0.10566000000E+00 0. -1.
         -4    1    4    4    0  502  0.35419549729E+02  0.22678860192E+03  0.63717737653E+03  0.67726111923E+03  0.00000000000E+00 0. -1.
<mgrwt>
<rscale>  2 0.13049353E+04</rscale>
<asrwt>0</asrwt>
<pdfrwt beam="1">  1       21 0.26762404E+00 0.13088794E+04</pdfrwt>
<pdfrwt beam="2">  1       21 0.15432472E+00 0.13088794E+04</pdfrwt>
<totfact> 0.49108177E+00</totfact>
</mgrwt>
</event>
<event>
 8    1  0.1094795E-005  0.1220162E+04  0.7818608E-02  0.8595421E-01
         21   -1    0    0  501  502  0.00000000000E+00  0.00000000000E+00  0.13818022790E+04  0.13818022790E+04  0.00000000000E+00 0.  1.
         21   -1    0    0  502  503 -0.00000000000E+00 -0.00000000000E+00 -0.11329208938E+04  0.11329208938E+04  0.00000000000E+00 0.  1.
   -9000010    2    1    2    0  503  0.63482639921E+03  0.18176119020E+03  0.44445634645E+03  0.12789867516E+04  0.10011113722E+04 0.  0.
    9000010    2    1    2  501    0 -0.63482639921E+03 -0.18176119020E+03 -0.19557496121E+03  0.12357364211E+04  0.10260376453E+04 0.  0.
        -13    1    4    4    0    0 -0.63648963854E+03 -0.10119662778E+03  0.31604795738E+03  0.71780647808E+03  0.10566000000E+00 0.  1.
          4    1    4    4  501    0  0.16632393342E+01 -0.80564562424E+02 -0.51162291859E+03  0.51792994305E+03  0.00000000000E+00 0.  1.
         13    1    3    3    0    0  0.80534494163E+03 -0.14679211327E+03  0.22630151434E+03  0.84931783573E+03  0.10566000000E+00 0. -1.
         -4    1    3    3    0  503 -0.17051854242E+03  0.32855330348E+03  0.21815483211E+03  0.42966891592E+03  0.00000000000E+00 0. -1.
<mgrwt>
<rscale>  2 0.12149068E+04</rscale>
<asrwt>0</asrwt>
<pdfrwt beam="1">  1       21 0.21258496E+00 0.12201618E+04</pdfrwt>
<pdfrwt beam="2">  1       21 0.17429552E+00 0.12201618E+04</pdfrwt>
<totfact> 0.85957218E+00</totfact>
</mgrwt>
</event>
<event>
 8    1  0.1094795E-005  0.1071432E+04  0.7818608E-02  0.8712110E-01
         21   -1    0    0  501  502  0.00000000000E+00  0.00000000000E+00  0.12148370489E+04  0.12148370489E+04  0.00000000000E+00 0.  1.
         21   -1    0    0  502  503 -0.00000000000E+00 -0.00000000000E+00 -0.94127983162E+03  0.94127983162E+03  0.00000000000E+00 0.  1.
   -9000010    2    1    2    0  503  0.31494501179E+03 -0.19497467225E+03  0.67347464561E+02  0.10735462546E+04  0.10053658023E+04 0.  0.
    9000010    2    1    2  501    0 -0.31494501179E+03  0.19497467225E+03  0.20620975276E+03  0.10825706260E+04  0.99610803370E+03 0.  0.
        -13    1    4    4    0    0 -0.39265350011E+02  0.82388124474E+02  0.58987965531E+03  0.59689830765E+03  0.10566000000E+00 0.  1.
          4    1    4    4  501    0 -0.27567966178E+03  0.11258654778E+03 -0.38366990255E+03  0.48567231832E+03  0.00000000000E+00 0.  1.
         13    1    3    3    0    0  0.17261064699E+03 -0.59383516416E+03  0.16268091994E+03  0.63945268044E+03  0.10566000000E+00 0. -1.
         -4    1    3    3    0  503  0.14233436480E+03  0.39886049191E+03 -0.95333455382E+02  0.43409357416E+03  0.00000000000E+00 0. -1.
<mgrwt>
<rscale>  2 0.10692545E+04</rscale>
<asrwt>0</asrwt>
<pdfrwt beam="1">  1       21 0.18689801E+00 0.10714317E+04</pdfrwt>
<pdfrwt beam="2">  1       21 0.14481228E+00 0.10714317E+04</pdfrwt>
<totfact> 0.25386531E+01</totfact>
</mgrwt>
</event>
<event>
 8    1  0.1094795E-005  0.1039882E+04  0.7818608E-02  0.8740737E-01
         21   -1    0    0  501  502  0.00000000000E+00  0.00000000000E+00  0.10186368595E+04  0.10186368595E+04  0.00000000000E+00 0. -1.
         21   -1    0    0  502  503 -0.00000000000E+00 -0.00000000000E+00 -0.10732536112E+04  0.10732536112E+04  0.00000000000E+00 0. -1.
   -9000010    2    1    2    0  503 -0.19799647659E+03  0.18958795600E+03 -0.18375967897E+03  0.10440196707E+04  0.99048637316E+03 0.  0.
    9000010    2    1    2  501    0  0.19799647659E+03 -0.18958795600E+03  0.12914292734E+03  0.10478708000E+04  0.10030997557E+04 0.  0.
        -13    1    4    4    0    0 -0.67349627943E+02 -0.34635309340E+03 -0.33774553817E+03  0.48843474222E+03  0.10566000000E+00 0.  1.
          4    1    4    4  501    0  0.26534610453E+03  0.15676513740E+03  0.46688846551E+03  0.55943605776E+03  0.00000000000E+00 0.  1.
         13    1    3    3    0    0 -0.39264422020E+03  0.20262002505E+03 -0.50324244857E+03  0.66968450140E+03  0.10566000000E+00 0. -1.
         -4    1    3    3    0  503  0.19464774361E+03 -0.13032069060E+02  0.31948276960E+03  0.37433516932E+03  0.00000000000E+00 0. -1.
<mgrwt>
<rscale>  2 0.10368285E+04</rscale>
<asrwt>0</asrwt>
<pdfrwt beam="1">  1       21 0.15671336E+00 0.10398824E+04</pdfrwt>
<pdfrwt beam="2">  1       21 0.16511594E+00 0.10398824E+04</pdfrwt>
<totfact> 0.30304565E+01</totfact>
</mgrwt>
</event>
<event>
 8    1  0.1094795E-005  0.1046931E+04  0.7818608E-02  0.8736461E-01
         21   -1    0    0  501  502  0.00000000000E+00  0.00000000000E+00  0.50217474596E+03  0.50217474596E+03  0.00000000000E+00 0.  1.
         21   -1    0    0  502  503 -0.00000000000E+00 -0.00000000000E+00 -0.21458589078E+04  0.21458589078E+04  0.00000000000E+00 0.  1.
   -9000010    2    1    2    0  503 -0.23053409513E+03  0.12826247189E+03 -0.73703669526E+03  0.12630882234E+04  0.99124746616E+03 0.  0.
    9000010    2    1    2  501    0  0.23053409513E+03 -0.12826247189E+03 -0.90664746661E+03  0.13849454304E+04  0.10131470702E+04 0.  0.
        -13    1    4    4    0    0  0.70757354490E+02 -0.43772867032E+03 -0.93571185869E+03  0.10354562693E+04  0.10566000000E+00 0.  1.
          4    1    4    4  501    0  0.15977674064E+03  0.30946619843E+03  0.29064392086E+02  0.34948916107E+03  0.00000000000E+00 0.  1.
         13    1    3    3    0    0 -0.57898039490E+03  0.13770709962E+03 -0.20977428564E+03  0.63102044741E+03  0.10566000000E+00 0. -1.
         -4    1    3    3    0  503  0.34844629977E+03 -0.94446277247E+01 -0.52726240962E+03  0.63206777597E+03  0.00000000000E+00 0. -1.
<mgrwt>
<rscale>  2 0.10415957E+04</rscale>
<asrwt>0</asrwt>
<pdfrwt beam="1">  1       21 0.77257652E-01 0.10469309E+04</pdfrwt>
<pdfrwt beam="2">  1       21 0.33013214E+00 0.10469309E+04</pdfrwt>
<totfact> 0.12391684E+01</totfact>
</mgrwt>
</event>
<event>
 8    1  0.1094795E-005  0.1093035E+04  0.7818608E-02  0.8745404E-01
         21   -1    0    0  503  502  0.00000000000E+00  0.00000000000E+00  0.11333580566E+04  0.11333580566E+04  0.00000000000E+00 0. -1.
         21   -1    0    0  501  503 -0.00000000000E+00 -0.00000000000E+00 -0.88151887287E+03  0.88151887287E+03  0.00000000000E+00 0. -1.
    9000010    2    1    2  501    0  0.46572755416E+03 -0.89664629319E+01 -0.83792825524E+02  0.87147188477E+03  0.73175095228E+03 0.  0.
   -9000010    2    1    2    0  502 -0.46572755416E+03  0.89664629319E+01  0.33563200922E+03  0.11434050447E+04  0.98880923256E+03 0.  0.
        -13    1    3    3    0    0 -0.16260970599E+03 -0.15235047232E+03 -0.15304513462E+02  0.22335358111E+03  0.10566000000E+00 0.  1.
          4    1    3    3  501    0  0.62833726015E+03  0.14338400939E+03 -0.68488312062E+02  0.64811830366E+03  0.00000000000E+00 0.  1.
         13    1    4    4    0    0  0.57144450589E+02  0.73734513299E+02  0.56219995887E+03  0.56988689369E+03  0.10566000000E+00 0. -1.
         -4    1    4    4    0  502 -0.52287200475E+03 -0.64768050367E+02 -0.22656794964E+03  0.57351815098E+03  0.00000000000E+00 0. -1.
<mgrwt>
<rscale>  2 0.10316557E+04</rscale>
<asrwt>0</asrwt>
<pdfrwt beam="1">  1       21 0.17436278E+00 0.10930353E+04</pdfrwt>
<pdfrwt beam="2">  1       21 0.13561829E+00 0.10930353E+04</pdfrwt>
<totfact> 0.38901465E+01</totfact>
</mgrwt>
</event>
<event>
 8    1  0.1094795E-005  0.1158811E+04  0.7818608E-02  0.8651140E-01
         21   -1    0    0  503  502  0.00000000000E+00  0.00000000000E+00  0.16636388374E+04  0.16636388374E+04  0.00000000000E+00 0. -1.
         21   -1    0    0  501  503 -0.00000000000E+00 -0.00000000000E+00 -0.84841813562E+03  0.84841813562E+03  0.00000000000E+00 0. -1.
    9000010    2    1    2  501    0  0.49178367750E+03  0.70867430727E+02 -0.28048853397E+00  0.10950582890E+04  0.97584793867E+03 0.  0.
   -9000010    2    1    2    0  502 -0.49178367750E+03 -0.70867430727E+02  0.81550119028E+03  0.14169986840E+04  0.10468857153E+04 0.  0.
        -13    1    3    3    0    0  0.29356123069E+03 -0.96608417094E+02 -0.46761307307E+03  0.56051171236E+03  0.10566000000E+00 0.  1.
          4    1    3    3  501    0  0.19822244681E+03  0.16747584782E+03  0.46733258453E+03  0.53454657663E+03  0.00000000000E+00 0.  1.
         13    1    4    4    0    0 -0.75207390576E+03  0.23234199909E+02  0.85328757084E+03  0.11376531446E+04  0.10566000000E+00 0. -1.
         -4    1    4    4    0  502  0.26029022826E+03 -0.94101630636E+02 -0.37786380554E+02  0.27934553938E+03  0.00000000000E+00 0. -1.
<mgrwt>
<rscale>  2 0.11425331E+04</rscale>
<asrwt>0</asrwt>
<pdfrwt beam="1">  1       21 0.25594444E+00 0.11588111E+04</pdfrwt>
<pdfrwt beam="2">  1       21 0.13052587E+00 0.11588111E+04</pdfrwt>
<totfact> 0.10180480E+01</totfact>
</mgrwt>
</event>
<event>
 8    1  0.1094795E-005  0.1171578E+04  0.7818608E-02  0.8630674E-01
         21   -1    0    0  503  502  0.00000000000E+00  0.00000000000E+00  0.57675180041E+03  0.57675180041E+03  0.00000000000E+00 0.  1.
         21   -1    0    0  501  503 -0.00000000000E+00 -0.00000000000E+00 -0.34145457931E+04  0.34145457931E+04  0.00000000000E+00 0. -1.
    9000010    2    1    2  501    0 -0.18473842933E+03 -0.56954531146E+03 -0.25357448211E+04  0.27933130666E+04  0.10070183421E+04 0.  0.
   -9000010    2    1    2    0  502  0.18473842933E+03  0.56954531146E+03 -0.30204917163E+03  0.11979845269E+04  0.99268478159E+03 0.  0.
        -13    1    3    3    0    0 -0.33981187747E+03 -0.75389289042E+03 -0.23434664947E+04  0.24850878908E+04  0.10566000000E+00 0.  1.
          4    1    3    3  501    0  0.15507344813E+03  0.18434757896E+03 -0.19227832641E+03  0.30822517579E+03  0.00000000000E+00 0.  1.
         13    1    4    4    0    0  0.50050872957E+03  0.87529663253E+02  0.68777183623E+02  0.51273847377E+03  0.10566000000E+00 0. -1.
         -4    1    4    4    0  502 -0.31577030024E+03  0.48201564821E+03 -0.37082635525E+03  0.68524605316E+03  0.00000000000E+00 0. -1.
<mgrwt>
<rscale>  2 0.11684920E+04</rscale>
<asrwt>0</asrwt>
<pdfrwt beam="1">  1       21 0.88731044E-01 0.11715785E+04</pdfrwt>
<pdfrwt beam="2">  1       21 0.52531475E+00 0.11715785E+04</pdfrwt>
<totfact> 0.37214163E-01</totfact>
</mgrwt>
</event>
<event>
 8    1  0.1094795E-005  0.1213731E+04  0.7818608E-02  0.8596572E-01
         21   -1    0    0  503  502  0.00000000000E+00  0.00000000000E+00  0.26781023463E+04  0.26781023463E+04  0.00000000000E+00 0. -1.
         21   -1    0    0  501  503 -0.00000000000E+00 -0.00000000000E+00 -0.55973260873E+03  0.55973260873E+03  0.00000000000E+00 0. -1.
    9000010    2    1    2  501    0 -0.87479043416E+02  0.67182200047E+03  0.12785873886E+04  0.17619019265E+04  0.10052439032E+04 0.  0.
   -9000010    2    1    2    0  502  0.87479043416E+02 -0.67182200047E+03  0.83978234893E+03  0.14759330285E+04  0.10070484237E+04 0.  0.
        -13    1    3    3    0    0  0.11510212680E+03 -0.21600293855E+03  0.81830382225E+02  0.25807361677E+03  0.10566000000E+00 0.  1.
          4    1    3    3  501    0 -0.20258117021E+03  0.88782493902E+03  0.11967570064E+04  0.15038283097E+04  0.00000000000E+00 0.  1.
         13    1    4    4    0    0 -0.42311473171E+03 -0.53912043122E+03  0.50173773995E+03  0.84936310634E+03  0.10566000000E+00 0. -1.
         -4    1    4    4    0  502  0.51059377513E+03 -0.13270156924E+03  0.33804460898E+03  0.62656992214E+03  0.00000000000E+00 0. -1.
<mgrwt>
<rscale>  2 0.12133570E+04</rscale>
<asrwt>0</asrwt>
<pdfrwt beam="1">  1       21 0.41201574E+00 0.12137314E+04</pdfrwt>
<pdfrwt beam="2">  1       21 0.86112711E-01 0.12137314E+04</pdfrwt>
<totfact> 0.24502529E+00</totfact>
</mgrwt>
</event>
<event>
 8    1  0.1094795E-005  0.1071081E+04  0.7818608E-02  0.8713687E-01
         21   -1    0    0  501  502  0.00000000000E+00  0.00000000000E+00  0.10909920459E+04  0.10909920459E+04  0.00000000000E+00 0.  1.
         21   -1    0    0  502  503 -0.00000000000E+00 -0.00000000000E+00 -0.11190682806E+04  0.11190682806E+04  0.00000000000E+00 0.  1.
   -9000010    2    1    2    0  503  0.36200845678E+03 -0.10170068740E+03 -0.31256633334E+03  0.11018418326E+04  0.98740293640E+03 0.  0.
    9000010    2    1    2  501    0 -0.36200845678E+03  0.10170068740E+03  0.28449009868E+03  0.11082184939E+04  0.10029060082E+04 0.  0.
        -13    1    4    4    0    0  0.11263193717E+03  0.24088600113E+03 -0.26048819678E+03  0.37224471875E+03  0.10566000000E+00 0.  1.
          4    1    4    4  501    0 -0.47464039396E+03 -0.13918531373E+03  0.54497829546E+03  0.73597377512E+03  0.00000000000E+00 0.  1.
         13    1    3    3    0    0  0.17065055885E+03 -0.40881060076E+03 -0.52129894938E+03  0.68410549356E+03  0.10566000000E+00 0. -1.
         -4    1    3    3    0  503  0.19135789793E+03  0.30710991336E+03  0.20873261604E+03  0.41773633908E+03  0.00000000000E+00 0. -1.
<mgrwt>
<rscale>  2 0.10674365E+04</rscale>
<asrwt>0</asrwt>
<pdfrwt beam="1">  1       21 0.16784493E+00 0.10710806E+04</pdfrwt>
<pdfrwt beam="2">  1       21 0.17216435E+00 0.10710806E+04</pdfrwt>
<totfact> 0.21074226E+01</totfact>
</mgrwt>
</event>
<event>
 8    1  0.1094795E-005  0.1086112E+04  0.7818608E-02  0.8698900E-01
         21   -1    0    0  501  502  0.00000000000E+00  0.00000000000E+00  0.40782007099E+03  0.40782007099E+03  0.00000000000E+00 0. -1.
         21   -1    0    0  502  503 -0.00000000000E+00 -0.00000000000E+00 -0.30446045357E+04  0.30446045357E+04  0.00000000000E+00 0. -1.
   -9000010    2    1    2    0  503 -0.28357362558E+03 -0.26789627289E+03 -0.17269815714E+04  0.20401236111E+04  0.10136353321E+04 0.  0.
    9000010    2    1    2  501    0  0.28357362558E+03  0.26789627289E+03 -0.90980289338E+03  0.14123009957E+04  0.10073084847E+04 0.  0.
        -13    1    4    4    0    0 -0.31233378377E+03  0.33065350485E+03 -0.54866581770E+03  0.71268388745E+03  0.10566000000E+00 0.  1.
          4    1    4    4  501    0  0.59590740935E+03 -0.62757231962E+02 -0.36113707569E+03  0.69961710822E+03  0.00000000000E+00 0.  1.
         13    1    3    3    0    0 -0.20744341465E+03  0.37337830640E+03 -0.53647503429E+03  0.68574747798E+03  0.10566000000E+00 0. -1.
         -4    1    3    3    0  503 -0.76130210926E+02 -0.64127457929E+03 -0.11905065371E+04  0.13543761331E+04  0.00000000000E+00 0. -1.
<mgrwt>
<rscale>  2 0.10846333E+04</rscale>
<asrwt>0</asrwt>
<pdfrwt beam="1">  1       21 0.62741549E-01 0.10861119E+04</pdfrwt>
<pdfrwt beam="2">  1       21 0.46840070E+00 0.10861119E+04</pdfrwt>
<totfact> 0.21885695E+00</totfact>
</mgrwt>
</event>
<event>
 8    1  0.1094795E-005  0.1084716E+04  0.7818608E-02  0.8708529E-01
         21   -1    0    0  501  502  0.00000000000E+00  0.00000000000E+00  0.93647519147E+03  0.93647519147E+03  0.00000000000E+00 0. -1.
         21   -1    0    0  502  503 -0.00000000000E+00 -0.00000000000E+00 -0.12080542047E+04  0.12080542047E+04  0.00000000000E+00 0. -1.
   -9000010    2    1    2    0  503  0.22374910977E+03  0.19963582093E+03 -0.81991766410E+02  0.10433698136E+04  0.99598182364E+03 0.  0.
    9000010    2    1    2  501    0 -0.22374910977E+03 -0.19963582093E+03 -0.18958724685E+03  0.11011595826E+04  0.10424447118E+04 0.  0.
        -13    1    4    4    0    0  0.29539680503E+03  0.13660123814E+03  0.18863022971E+03  0.37616558243E+03  0.10566000000E+00 0.  1.
          4    1    4    4  501    0 -0.51914591480E+03 -0.33623705907E+03 -0.37821747656E+03  0.72499400019E+03  0.00000000000E+00 0.  1.
         13    1    3    3    0    0  0.41018853703E+03  0.41740145472E+03 -0.32336498522E+03  0.66861314312E+03  0.10566000000E+00 0. -1.
         -4    1    3    3    0  503 -0.18643942727E+03 -0.21776563379E+03  0.24137321881E+03  0.37475667047E+03  0.00000000000E+00 0. -1.
<mgrwt>
<rscale>  2 0.10733970E+04</rscale>
<asrwt>0</asrwt>
<pdfrwt beam="1">  1       21 0.14407311E+00 0.10847161E+04</pdfrwt>
<pdfrwt beam="2">  1       21 0.18585449E+00 0.10847161E+04</pdfrwt>
<totfact> 0.26210906E+01</totfact>
</mgrwt>
</event>
<event>
 8    1  0.1094795E-005  0.1302419E+04  0.7818608E-02  0.8537787E-01
         21   -1    0    0  503  502  0.00000000000E+00  0.00000000000E+00  0.17564618169E+04  0.17564618169E+04  0.00000000000E+00 0. -1.
         21   -1    0    0  501  503 -0.00000000000E+00 -0.00000000000E+00 -0.94722170234E+03  0.94722170234E+03  0.00000000000E+00 0. -1.
    9000010    2    1    2  501    0 -0.10512786278E+03  0.81149198488E+03  0.44778757675E+03  0.13520391306E+04  0.97873642406E+03 0.  0.
   -9000010    2    1    2    0  502  0.10512786278E+03 -0.81149198488E+03  0.36145253782E+03  0.13516443886E+04  0.10132736586E+04 0.  0.
        -13    1    3    3    0    0 -0.41140486296E+03  0.79089411530E+03  0.11432419764E+03  0.89879780608E+03  0.10566000000E+00 0.  1.
          4    1    3    3  501    0  0.30627700018E+03  0.20597869587E+02  0.33346337910E+03  0.45324132454E+03  0.00000000000E+00 0.  1.
         13    1    4    4    0    0 -0.41419138694E+03 -0.21232366178E+03  0.30554944693E+03  0.55677312979E+03  0.10566000000E+00 0. -1.
         -4    1    4    4    0  502  0.51931924973E+03 -0.59916832310E+03  0.55903090882E+02  0.79487125883E+03  0.00000000000E+00 0. -1.
<mgrwt>
<rscale>  2 0.12956956E+04</rscale>
<asrwt>0</asrwt>
<pdfrwt beam="1">  1       21 0.27022489E+00 0.13024188E+04</pdfrwt>
<pdfrwt beam="2">  1       21 0.14572642E+00 0.13024188E+04</pdfrwt>
<totfact> 0.56237712E+00</totfact>
</mgrwt>
</event>
<event>
 8    1  0.1094795E-005  0.1508331E+04  0.7818608E-02  0.8405697E-01
         21   -1    0    0  501  502  0.00000000000E+00  0.00000000000E+00  0.26848987855E+04  0.26848987855E+04  0.00000000000E+00 0. -1.
         21   -1    0    0  502  503 -0.00000000000E+00 -0.00000000000E+00 -0.90590953137E+03  0.90590953137E+03  0.00000000000E+00 0.  1.
   -9000010    2    1    2    0  503 -0.10260724849E+04 -0.46751479327E+03  0.41648894857E+03  0.15582065944E+04  0.99153916729E+03 0.  0.
    9000010    2    1    2  501    0  0.10260724849E+04  0.46751479327E+03  0.13625003056E+04  0.20326017225E+04  0.10018322482E+04 0.  0.
        -13    1    4    4    0    0  0.44153653715E+03  0.73967979183E+03  0.72592980266E+03  0.11265233232E+04  0.10566000000E+00 0.  1.
          4    1    4    4  501    0  0.58453594773E+03 -0.27216499856E+03  0.63657050291E+03  0.90607839937E+03  0.00000000000E+00 0.  1.
         13    1    3    3    0    0 -0.10510009829E+04 -0.37212550685E+03 -0.15567369332E+02  0.11150438615E+04  0.10566000000E+00 0. -1.
         -4    1    3    3    0  503  0.24928497998E+02 -0.95389286420E+02  0.43205631791E+03  0.44316273289E+03  0.00000000000E+00 0. -1.
<mgrwt>
<rscale>  2 0.15066240E+04</rscale>
<asrwt>0</asrwt>
<pdfrwt beam="1">  1       21 0.41306135E+00 0.15083311E+04</pdfrwt>
<pdfrwt beam="2">  1       21 0.13937070E+00 0.15083311E+04</pdfrwt>
<totfact> 0.61363601E-01</totfact>
</mgrwt>
</event>
<event>
 8    1  0.1094795E-005  0.1055224E+04  0.7818608E-02  0.8728284E-01
         21   -1    0    0  501  502  0.00000000000E+00  0.00000000000E+00  0.18470691117E+04  0.18470691117E+04  0.00000000000E+00 0.  1.
         21   -1    0    0  502  503 -0.00000000000E+00 -0.00000000000E+00 -0.60247157089E+03  0.60247157089E+03  0.00000000000E+00 0.  1.
   -9000010    2    1    2    0  503 -0.13947436154E+03 -0.32486477172E+03  0.77225256797E+03  0.12934233581E+04  0.97548948589E+03 0.  0.
    9000010    2    1    2  501    0  0.13947436154E+03  0.32486477172E+03  0.47234497284E+03  0.11561173245E+04  0.99423703270E+03 0.  0.
        -13    1    4    4    0    0  0.48084637023E+02  0.75666797840E+02 -0.31380906287E+03  0.32636442164E+03  0.10566000000E+00 0.  1.
          4    1    4    4  501    0  0.91389724518E+02  0.24919797388E+03  0.78615403570E+03  0.82975290285E+03  0.00000000000E+00 0.  1.
         13    1    3    3    0    0 -0.13868323636E+01 -0.57352904816E+03  0.12580265694E+03  0.58716591526E+03  0.10566000000E+00 0. -1.
         -4    1    3    3    0  503 -0.13808752918E+03  0.24866427643E+03  0.64644991103E+03  0.70625744283E+03  0.00000000000E+00 0. -1.
<mgrwt>
<rscale>  2 0.10507847E+04</rscale>
<asrwt>0</asrwt>
<pdfrwt beam="1">  1       21 0.28416448E+00 0.10552239E+04</pdfrwt>
<pdfrwt beam="2">  1       21 0.92687935E-01 0.10552239E+04</pdfrwt>
<totfact> 0.16542807E+01</totfact>
</mgrwt>
</event>
<event>
 8    1  0.1094795E-005  0.1101805E+04  0.7818608E-02  0.8684877E-01
         21   -1    0    0  503  502  0.00000000000E+00  0.00000000000E+00  0.17878766493E+04  0.17878766493E+04  0.00000000000E+00 0.  1.
         21   -1    0    0  501  503 -0.00000000000E+00 -0.00000000000E+00 -0.68559086551E+03  0.68559086551E+03  0.00000000000E+00 0.  1.
    9000010    2    1    2  501    0  0.36243148902E+02  0.45030862432E+03  0.41857278694E+03  0.11786334914E+04  0.10049290054E+04 0.  0.
   -9000010    2    1    2    0  502 -0.36243148902E+02 -0.45030862432E+03  0.68371299682E+03  0.12948340234E+04  0.10025169641E+04 0.  0.
        -13    1    3    3    0    0 -0.45005041272E+03  0.41766259724E+03  0.21709385134E+03  0.65124278927E+03  0.10566000000E+00 0.  1.
          4    1    3    3  501    0  0.48629356162E+03  0.32646027080E+02  0.20147893560E+03  0.52739070209E+03  0.00000000000E+00 0.  1.
         13    1    4    4    0    0  0.20218644196E+03 -0.70276212944E+03  0.57719471867E+03  0.93161565161E+03  0.10566000000E+00 0. -1.
         -4    1    4    4    0  502 -0.23842959086E+03  0.25245350513E+03  0.10651827814E+03  0.36321837182E+03  0.00000000000E+00 0. -1.
<mgrwt>
<rscale>  2 0.11012545E+04</rscale>
<asrwt>0</asrwt>
<pdfrwt beam="1">  1       21 0.27505794E+00 0.11018048E+04</pdfrwt>
<pdfrwt beam="2">  1       21 0.10547552E+00 0.11018048E+04</pdfrwt>
<totfact> 0.13578155E+01</totfact>
</mgrwt>
</event>
<event>
 8    1  0.1094795E-005  0.1061174E+04  0.7818608E-02  0.8731163E-01
         21   -1    0    0  503  502  0.00000000000E+00  0.00000000000E+00  0.17720456914E+04  0.17720456914E+04  0.00000000000E+00 0.  1.
         21   -1    0    0  501  503 -0.00000000000E+00 -0.00000000000E+00 -0.60928955460E+03  0.60928955460E+03  0.00000000000E+00 0.  1.
    9000010    2    1    2  501    0 -0.10255266133E+02 -0.29468443197E+03  0.45392702292E+03  0.11051969820E+04  0.96356968714E+03 0.  0.
   -9000010    2    1    2    0  502  0.10255266133E+02  0.29468443197E+03  0.70882911393E+03  0.12761382640E+04  0.10193851437E+04 0.  0.
        -13    1    3    3    0    0 -0.27736954281E+03  0.61173106479E+02 -0.17586990026E+03  0.33407520892E+03  0.10566000000E+00 0.  1.
          4    1    3    3  501    0  0.26711427667E+03 -0.35585753845E+03  0.62979692319E+03  0.77112177309E+03  0.00000000000E+00 0.  1.
         13    1    4    4    0    0 -0.12246532596E+03  0.58847395138E+03  0.73873080506E+03  0.95237732072E+03  0.10566000000E+00 0. -1.
         -4    1    4    4    0  502  0.13272059210E+03 -0.29378951941E+03 -0.29901691127E+02  0.32376094332E+03  0.00000000000E+00 0. -1.
<mgrwt>
<rscale>  2 0.10475389E+04</rscale>
<asrwt>0</asrwt>
<pdfrwt beam="1">  1       21 0.27262241E+00 0.10611740E+04</pdfrwt>
<pdfrwt beam="2">  1       21 0.93736855E-01 0.10611740E+04</pdfrwt>
<totfact> 0.19403318E+01</totfact>
</mgrwt>
</event>
<event>
 8    1  0.1094795E-005  0.1149175E+04  0.7818608E-02  0.8657699E-01
         21   -1    0    0  503  502  0.00000000000E+00  0.00000000000E+00  0.67773634909E+03  0.67773634909E+03  0.00000000000E+00 0. -1.
         21   -1    0    0  501  503 -0.00000000000E+00 -0.00000000000E+00 -0.20729882995E+04  0.20729882995E+04  0.00000000000E+00 0. -1.
    9000010    2    1    2  501    0 -0.54262858318E+03  0.30011298541E+03 -0.11634656281E+04  0.16353152211E+04  0.96751745258E+03 0.  0.
   -9000010    2    1    2    0  502  0.54262858318E+03 -0.30011298541E+03 -0.23178632228E+03  0.11154094276E+04  0.89771917023E+03 0.  0.
        -13    1    3    3    0    0  0.17713375793E+03  0.26849138475E+02  0.60714999185E+02  0.18916544802E+03  0.10566000000E+00 0.  1.
          4    1    3    3  501    0 -0.71976234111E+03  0.27326384694E+03 -0.12241806273E+04  0.14461497730E+04  0.00000000000E+00 0.  1.
         13    1    4    4    0    0  0.11353378787E+03 -0.53733226455E+03  0.47323328059E+02  0.55123079745E+03  0.10566000000E+00 0. -1.
         -4    1    4    4    0  502  0.42909479531E+03  0.23721927914E+03 -0.27910965034E+03  0.56417863011E+03  0.00000000000E+00 0. -1.
<mgrwt>
<rscale>  2 0.11343626E+04</rscale>
<asrwt>0</asrwt>
<pdfrwt beam="1">  1       21 0.10426713E+00 0.11491752E+04</pdfrwt>
<pdfrwt beam="2">  1       21 0.31892127E+00 0.11491752E+04</pdfrwt>
<totfact> 0.67789094E+00</totfact>
</mgrwt>
</event>
<event>
 8    1  0.1094795E-005  0.1269912E+04  0.7818608E-02  0.8555701E-01
         21   -1    0    0  501  502  0.00000000000E+00  0.00000000000E+00  0.28167358117E+04  0.28167358117E+04  0.00000000000E+00 0. -1.
         21   -1    0    0  502  503 -0.00000000000E+00 -0.00000000000E+00 -0.59584501903E+03  0.59584501903E+03  0.00000000000E+00 0. -1.
   -9000010    2    1    2    0  503 -0.42064000321E+03  0.62400665446E+03  0.77289205344E+03  0.14866198099E+04  0.10229144714E+04 0.  0.
    9000010    2    1    2  501    0  0.42064000321E+03 -0.62400665446E+03  0.14479987392E+04  0.19259610208E+04  0.10228896264E+04 0.  0.
        -13    1    4    4    0    0  0.43995731222E+03  0.14307929004E+03  0.32317845340E+03  0.56433894400E+03  0.10566000000E+00 0.  1.
          4    1    4    4  501    0 -0.19317309010E+02 -0.76708594450E+03  0.11248202858E+04  0.13616220768E+04  0.00000000000E+00 0.  1.
         13    1    3    3    0    0  0.47010778710E+02  0.49894572650E+03  0.85941669598E+03  0.99486376947E+03  0.10566000000E+00 0. -1.
         -4    1    3    3    0  503 -0.46765078192E+03  0.12506092797E+03 -0.86524642539E+02  0.49175604043E+03  0.00000000000E+00 0. -1.
<mgrwt>
<rscale>  2 0.12699069E+04</rscale>
<asrwt>0</asrwt>
<pdfrwt beam="1">  1       21 0.43334396E+00 0.12699119E+04</pdfrwt>
<pdfrwt beam="2">  1       21 0.91668466E-01 0.12699119E+04</pdfrwt>
<totfact> 0.14709758E+00</totfact>
</mgrwt>
</event>
<event>
 8    1  0.1094795E-005  0.1230042E+04  0.7818608E-02  0.8585032E-01
         21   -1    0    0  501  502  0.00000000000E+00  0.00000000000E+00  0.20855111457E+04  0.20855111457E+04  0.00000000000E+00 0. -1.
         21   -1    0    0  502  503 -0.00000000000E+00 -0.00000000000E+00 -0.75420227401E+03  0.75420227401E+03  0.00000000000E+00 0.  1.
   -9000010    2    1    2    0  503 -0.68482853466E+03 -0.20094737698E+03  0.37817121686E+03  0.12868634369E+04  0.10018153850E+04 0.  0.
    9000010    2    1    2  501    0  0.68482853466E+03  0.20094737698E+03  0.95313765481E+03  0.15528499828E+04  0.99674555928E+03 0.  0.
        -13    1    4    4    0    0  0.85996519318E+03  0.31730198606E+03  0.97883419625E+03  0.13410209091E+04  0.10566000000E+00 0.  1.
          4    1    4    4  501    0 -0.17513665853E+03 -0.11635460908E+03 -0.25696541443E+02  0.21182907368E+03  0.00000000000E+00 0.  1.
         13    1    3    3    0    0 -0.17956473610E+03  0.32447704966E+03 -0.13580896269E+03  0.39493409034E+03  0.10566000000E+00 0. -1.
         -4    1    3    3    0  503 -0.50526379855E+03 -0.52542442663E+03  0.51398017955E+03  0.89192934653E+03  0.00000000000E+00 0. -1.
<mgrwt>
<rscale>  2 0.12290096E+04</rscale>
<asrwt>0</asrwt>
<pdfrwt beam="1">  1       21 0.32084787E+00 0.12300423E+04</pdfrwt>
<pdfrwt beam="2">  1       21 0.11603112E+00 0.12300423E+04</pdfrwt>
<totfact> 0.48338900E+00</totfact>
</mgrwt>
</event>
<event>
 8    1  0.1094795E-005  0.1069524E+04  0.7818608E-02  0.8716944E-01
         21   -1    0    0  501  502  0.00000000000E+00  0.00000000000E+00  0.81229889180E+03  0.81229889180E+03  0.00000000000E+00 0. -1.
         21   -1    0    0  502  503 -0.00000000000E+00 -0.00000000000E+00 -0.13796711961E+04  0.13796711961E+04  0.00000000000E+00 0. -1.
   -9000010    2    1    2    0  503  0.31171618717E+03 -0.16343901057E+03 -0.32599685658E+03  0.11181035321E+04  0.10099516159E+04 0.  0.
    9000010    2    1    2  501    0 -0.31171618717E+03  0.16343901057E+03 -0.24137544775E+03  0.10738665559E+04  0.98541766857E+03 0.  0.
        -13    1    4    4    0    0  0.64932948546E+02 -0.37814276604E+03 -0.12834656789E+03  0.40457519939E+03  0.10566000000E+00 0.  1.
          4    1    4    4  501    0 -0.37664913571E+03  0.54158177660E+03 -0.11302887986E+03  0.66929135648E+03  0.00000000000E+00 0.  1.
         13    1    3    3    0    0 -0.29101231061E+03  0.95442869216E+02  0.11558265758E+03  0.32734823676E+03  0.10566000000E+00 0. -1.
         -4    1    3    3    0  503  0.60272849778E+03 -0.25888187978E+03 -0.44157951416E+03  0.79075529530E+03  0.00000000000E+00 0. -1.
<mgrwt>
<rscale>  2 0.10636924E+04</rscale>
<asrwt>0</asrwt>
<pdfrwt beam="1">  1       21 0.12496906E+00 0.10695240E+04</pdfrwt>
<pdfrwt beam="2">  1       21 0.21225710E+00 0.10695240E+04</pdfrwt>
<totfact> 0.24787260E+01</totfact>
</mgrwt>
</event>
<event>
 8    1  0.1094795E-005  0.1425614E+04  0.7818608E-02  0.8453838E-01
         21   -1    0    0  501  502  0.00000000000E+00  0.00000000000E+00  0.26518451791E+04  0.26518451791E+04  0.00000000000E+00 0. -1.
         21   -1    0    0  502  503 -0.00000000000E+00 -0.00000000000E+00 -0.82500932051E+03  0.82500932051E+03  0.00000000000E+00 0. -1.
   -9000010    2    1    2    0  503 -0.58548890123E+03 -0.83226953681E+03  0.44768212054E+03  0.14942541226E+04  0.99845193495E+03 0.  0.
    9000010    2    1    2  501    0  0.58548890123E+03  0.83226953681E+03  0.13791537380E+04  0.19826003770E+04  0.99657884109E+03 0.  0.
        -13    1    4    4    0    0  0.19882457222E+03  0.98338479248E+03  0.89122939851E+03  0.13419637523E+04  0.10566000000E+00 0.  1.
          4    1    4    4  501    0  0.38666432900E+03 -0.15111525567E+03  0.48792433954E+03  0.64063662472E+03  0.00000000000E+00 0.  1.
         13    1    3    3    0    0  0.26725629930E+03 -0.36369157036E+03  0.17146418834E+03  0.48280168487E+03  0.10566000000E+00 0. -1.
         -4    1    3    3    0  503 -0.85274520053E+03 -0.46857796645E+03  0.27621793219E+03  0.10114524377E+04  0.00000000000E+00 0. -1.
<mgrwt>
<rscale>  2 0.14252864E+04</rscale>
<asrwt>0</asrwt>
<pdfrwt beam="1">  1       21 0.40797618E+00 0.14256143E+04</pdfrwt>
<pdfrwt beam="2">  1       21 0.12692451E+00 0.14256143E+04</pdfrwt>
<totfact> 0.88785105E-01</totfact>
</mgrwt>
</event>
<event>
 8    1  0.1094795E-005  0.1113851E+04  0.7818608E-02  0.8682294E-01
         21   -1    0    0  503  502  0.00000000000E+00  0.00000000000E+00  0.10545977979E+04  0.10545977979E+04  0.00000000000E+00 0. -1.
         21   -1    0    0  501  503 -0.00000000000E+00 -0.00000000000E+00 -0.11900068250E+04  0.11900068250E+04  0.00000000000E+00 0. -1.
    9000010    2    1    2  501    0 -0.24981522229E+03 -0.42211011972E+03 -0.30533610453E+03  0.11549433608E+04  0.10000397150E+04 0.  0.
   -9000010    2    1    2    0  502  0.24981522229E+03  0.42211011972E+03  0.16992707745E+03  0.10896612621E+04  0.95807194720E+03 0.  0.
        -13    1    3    3    0    0 -0.24383943380E+03 -0.74824216276E+03 -0.23432523765E+03  0.82111651535E+03  0.10566000000E+00 0.  1.
          4    1    3    3  501    0 -0.59757884925E+01  0.32613204304E+03 -0.71010866882E+02  0.33382684548E+03  0.00000000000E+00 0.  1.
         13    1    4    4    0    0  0.20915104133E+02 -0.29278532820E+03 -0.69702079870E+02  0.30169368752E+03  0.10566000000E+00 0. -1.
         -4    1    4    4    0  502  0.22890011815E+03  0.71489544792E+03  0.23962915732E+03  0.78796757458E+03  0.00000000000E+00 0. -1.
<mgrwt>
<rscale>  2 0.11043499E+04</rscale>
<asrwt>0</asrwt>
<pdfrwt beam="1">  1       21 0.16224582E+00 0.11138510E+04</pdfrwt>
<pdfrwt beam="2">  1       21 0.18307797E+00 0.11138510E+04</pdfrwt>
<totfact> 0.18950535E+01</totfact>
</mgrwt>
</event>
<event>
 8    1  0.1094795E-005  0.1004946E+04  0.7818608E-02  0.8772469E-01
         21   -1    0    0  501  502  0.00000000000E+00  0.00000000000E+00  0.95122630750E+03  0.95122630750E+03  0.00000000000E+00 0.  1.
         21   -1    0    0  502  503 -0.00000000000E+00 -0.00000000000E+00 -0.10645335355E+04  0.10645335355E+04  0.00000000000E+00 0.  1.
   -9000010    2    1    2    0  503  0.57993967782E+02 -0.44110199748E+02  0.59049630823E+02  0.10066794867E+04  0.10023012122E+04 0.  0.
    9000010    2    1    2  501    0 -0.57993967782E+02  0.44110199748E+02 -0.17235685885E+03  0.10090803564E+04  0.99157817080E+03 0.  0.
        -13    1    4    4    0    0  0.33002428499E+03 -0.15138052489E+03 -0.38168835850E+03  0.52679987299E+03  0.10566000000E+00 0.  1.
          4    1    4    4  501    0 -0.38801825278E+03  0.19549072464E+03  0.20933149965E+03  0.48228048338E+03  0.00000000000E+00 0.  1.
         13    1    3    3    0    0 -0.11882367733E+03 -0.38517492032E+03 -0.28282813636E+03  0.49241298868E+03  0.10566000000E+00 0. -1.
         -4    1    3    3    0  503  0.17681764511E+03  0.34106472058E+03  0.34187776719E+03  0.51426649798E+03  0.00000000000E+00 0. -1.
<mgrwt>
<rscale>  2 0.10022618E+04</rscale>
<asrwt>0</asrwt>
<pdfrwt beam="1">  1       21 0.14634251E+00 0.10049461E+04</pdfrwt>
<pdfrwt beam="2">  1       21 0.16377439E+00 0.10049461E+04</pdfrwt>
<totfact> 0.38754520E+01</totfact>
</mgrwt>
</event>
<event>
 8    1  0.1094795E-005  0.1039025E+04  0.7818608E-02  0.8744097E-01
         21   -1    0    0  503  502  0.00000000000E+00  0.00000000000E+00  0.14961396962E+04  0.14961396962E+04  0.00000000000E+00 0. -1.
         21   -1    0    0  501  503 -0.00000000000E+00 -0.00000000000E+00 -0.70920047278E+03  0.70920047278E+03  0.00000000000E+00 0. -1.
    9000010    2    1    2  501    0  0.17536559677E+02 -0.27388167753E+03  0.30774813039E+03  0.10611386342E+04  0.97774617619E+03 0.  0.
   -9000010    2    1    2    0  502 -0.17536559677E+02  0.27388167753E+03  0.47919109306E+03  0.11442015348E+04  0.10021249145E+04 0.  0.
        -13    1    3    3    0    0 -0.10311987021E+02  0.26777927843E+03 -0.18718789475E+03  0.32688132118E+03  0.10566000000E+00 0.  1.
          4    1    3    3  501    0  0.27848546698E+02 -0.54166095596E+03  0.49493602514E+03  0.73425731304E+03  0.00000000000E+00 0.  1.
         13    1    4    4    0    0  0.14696298028E+03  0.46794640880E+03  0.66704179375E+03  0.82795937391E+03  0.10566000000E+00 0. -1.
         -4    1    4    4    0  502 -0.16449953996E+03 -0.19406473126E+03 -0.18785070069E+03  0.31624216088E+03  0.00000000000E+00 0. -1.
<mgrwt>
<rscale>  2 0.10331014E+04</rscale>
<asrwt>0</asrwt>
<pdfrwt beam="1">  1       21 0.23017534E+00 0.10390250E+04</pdfrwt>
<pdfrwt beam="2">  1       21 0.10910777E+00 0.10390250E+04</pdfrwt>
<totfact> 0.26645597E+01</totfact>
</mgrwt>
</event>
<event>
 8    1  0.1094795E-005  0.1108486E+04  0.7818608E-02  0.8692917E-01
         21   -1    0    0  501  502  0.00000000000E+00  0.00000000000E+00  0.66406966923E+03  0.66406966923E+03  0.00000000000E+00 0. -1.
         21   -1    0    0  502  503 -0.00000000000E+00 -0.00000000000E+00 -0.17436167641E+04  0.17436167641E+04  0.00000000000E+00 0. -1.
   -9000010    2    1    2    0  503  0.30738900042E+03 -0.25073347304E+03 -0.49024734347E+03  0.11522921523E+04  0.96440628081E+03 0.  0.
    9000010    2    1    2  501    0 -0.30738900042E+03  0.25073347304E+03 -0.58929975136E+03  0.12553942810E+04  0.10350774520E+04 0.  0.
        -13    1    4    4    0    0 -0.49934666090E+03  0.45461287267E+03 -0.87753922730E+02  0.68097042070E+03  0.10566000000E+00 0.  1.
          4    1    4    4  501    0  0.19195766049E+03 -0.20387939964E+03 -0.50154582863E+03  0.57442386026E+03  0.00000000000E+00 0.  1.
         13    1    3    3    0    0  0.55693684844E+02 -0.28460793538E+03 -0.74079619022E+03  0.79553910653E+03  0.10566000000E+00 0. -1.
         -4    1    3    3    0  503  0.25169531557E+03  0.33874462343E+02  0.25054884675E+03  0.35675304580E+03  0.00000000000E+00 0. -1.
<mgrwt>
<rscale>  2 0.10916866E+04</rscale>
<asrwt>0</asrwt>
<pdfrwt beam="1">  1       21 0.10216456E+00 0.11084857E+04</pdfrwt>
<pdfrwt beam="2">  1       21 0.26824873E+00 0.11084857E+04</pdfrwt>
<totfact> 0.16511556E+01</totfact>
</mgrwt>
</event>
<event>
 8    1  0.1094795E-005  0.8961150E+03  0.7818608E-02  0.8903796E-01
         21   -1    0    0  503  502  0.00000000000E+00  0.00000000000E+00  0.15159521039E+04  0.15159521039E+04  0.00000000000E+00 0.  1.
         21   -1    0    0  501  503 -0.00000000000E+00 -0.00000000000E+00 -0.47998627619E+03  0.47998627619E+03  0.00000000000E+00 0.  1.
    9000010    2    1    2  501    0 -0.26204216915E+03 -0.68775931629E+02  0.49771042407E+03  0.10250550056E+04  0.85418140409E+03 0.  0.
   -9000010    2    1    2    0  502  0.26204216915E+03  0.68775931629E+02  0.53825540364E+03  0.97088337448E+03  0.76124859285E+03 0.  0.
        -13    1    3    3    0    0 -0.10788921626E+03 -0.10317664157E+03 -0.23341127402E+03  0.27706738595E+03  0.10566000000E+00 0.  1.
          4    1    3    3  501    0 -0.15415295289E+03  0.34400709938E+02  0.73112169809E+03  0.74798761965E+03  0.00000000000E+00 0.  1.
         13    1    4    4    0    0  0.48545398567E+01 -0.24792100356E+03 -0.51995102723E+02  0.25336118968E+03  0.10566000000E+00 0. -1.
         -4    1    4    4    0  502  0.25718762929E+03  0.31669693519E+03  0.59025050636E+03  0.71752218480E+03  0.00000000000E+00 0. -1.
<mgrwt>
<rscale>  2 0.87322927E+03</rscale>
<asrwt>0</asrwt>
<pdfrwt beam="1">  1       21 0.23322340E+00 0.89611500E+03</pdfrwt>
<pdfrwt beam="2">  1       21 0.73844043E-01 0.89611500E+03</pdfrwt>
<totfact> 0.70383952E+01</totfact>
</mgrwt>
</event>
<event>
 8    1  0.1094795E-005  0.1268547E+04  0.7818608E-02  0.8557498E-01
         21   -1    0    0  501  502  0.00000000000E+00  0.00000000000E+00  0.19100738511E+04  0.19100738511E+04  0.00000000000E+00 0.  1.
         21   -1    0    0  502  503 -0.00000000000E+00 -0.00000000000E+00 -0.87184234690E+03  0.87184234690E+03  0.00000000000E+00 0.  1.
   -9000010    2    1    2    0  503  0.32070628474E+03  0.69868476490E+03  0.24955781519E+03  0.12881903763E+04  0.10030665087E+04 0.  0.
    9000010    2    1    2  501    0 -0.32070628474E+03 -0.69868476490E+03  0.78867368899E+03  0.14937258216E+04  0.10090578382E+04 0.  0.
        -13    1    4    4    0    0  0.35069205780E+03 -0.30280245482E+03  0.44319751729E+03  0.64116947569E+03  0.10566000000E+00 0.  1.
          4    1    4    4  501    0 -0.67139834254E+03 -0.39588231009E+03  0.34547617170E+03  0.85255634595E+03  0.00000000000E+00 0.  1.
         13    1    3    3    0    0 -0.55312109471E+02  0.84944857008E+03  0.23378335931E+03  0.88276665825E+03  0.10566000000E+00 0. -1.
         -4    1    3    3    0  503  0.37601839421E+03 -0.15076380517E+03  0.15774455875E+02  0.40542371809E+03  0.00000000000E+00 0. -1.
<mgrwt>
<rscale>  2 0.12673548E+04</rscale>
<asrwt>0</asrwt>
<pdfrwt beam="1">  1       21 0.29385752E+00 0.12685467E+04</pdfrwt>
<pdfrwt beam="2">  1       21 0.13412959E+00 0.12685467E+04</pdfrwt>
<totfact> 0.49222219E+00</totfact>
</mgrwt>
</event>
<event>
 8    1  0.1094795E-005  0.1386835E+04  0.7818608E-02  0.8493413E-01
         21   -1    0    0  503  502  0.00000000000E+00  0.00000000000E+00  0.16577088550E+04  0.16577088550E+04  0.00000000000E+00 0. -1.
         21   -1    0    0  501  503 -0.00000000000E+00 -0.00000000000E+00 -0.10872903634E+04  0.10872903634E+04  0.00000000000E+00 0. -1.
    9000010    2    1    2  501    0 -0.36934752676E+03  0.55370050445E+03  0.19770017374E+03  0.14008555403E+04  0.12166795148E+04 0.  0.
   -9000010    2    1    2    0  502  0.36934752676E+03 -0.55370050445E+03  0.37271831790E+03  0.13441436781E+04  0.11067074766E+04 0.  0.
        -13    1    3    3    0    0 -0.57735899121E+03  0.68295792849E+03 -0.21607765237E+03  0.92003505359E+03  0.10566000000E+00 0.  1.
          4    1    3    3  501    0  0.20801146445E+03 -0.12925742404E+03  0.41377782611E+03  0.48082048666E+03  0.00000000000E+00 0.  1.
         13    1    4    4    0    0  0.39232008959E+03  0.15580640361E+03 -0.16538363337E+03  0.45336789195E+03  0.10566000000E+00 0. -1.
         -4    1    4    4    0  502 -0.22972562828E+02 -0.70950690805E+03  0.53810195127E+03  0.89077578614E+03  0.00000000000E+00 0. -1.
<mgrwt>
<rscale>  2 0.13623436E+04</rscale>
<asrwt>0</asrwt>
<pdfrwt beam="1">  1       21 0.25503213E+00 0.13868348E+04</pdfrwt>
<pdfrwt beam="2">  1       21 0.16727544E+00 0.13868348E+04</pdfrwt>
<totfact> 0.46109982E+00</totfact>
</mgrwt>
</event>
<event>
 8    1  0.1094795E-005  0.1384324E+04  0.7818608E-02  0.8481306E-01
         21   -1    0    0  501  502  0.00000000000E+00  0.00000000000E+00  0.11707910054E+04  0.11707910054E+04  0.00000000000E+00 0.  1.
         21   -1    0    0  502  503 -0.00000000000E+00 -0.00000000000E+00 -0.16222942613E+04  0.16222942613E+04  0.00000000000E+00 0.  1.
   -9000010    2    1    2    0  503  0.16540538858E+03  0.93272622727E+03 -0.22310079035E+03  0.13900455574E+04  0.99252986418E+03 0.  0.
    9000010    2    1    2  501    0 -0.16540538858E+03 -0.93272622727E+03 -0.22840246553E+03  0.14030397093E+04  0.10094630166E+04 0.  0.
        -13    1    4    4    0    0 -0.25650963094E+03 -0.16110413787E+03  0.32869093359E+03  0.44697815941E+03  0.10566000000E+00 0.  1.
          4    1    4    4  501    0  0.91104242358E+02 -0.77162208940E+03 -0.55709339911E+03  0.95606154988E+03  0.00000000000E+00 0.  1.
         13    1    3    3    0    0  0.17277637637E+03 -0.14827644143E+03  0.11805226518E+03  0.25646428171E+03  0.10566000000E+00 0. -1.
         -4    1    3    3    0  503 -0.73709877923E+01  0.10810026687E+04 -0.34115305553E+03  0.11335812756E+04  0.00000000000E+00 0. -1.
<mgrwt>
<rscale>  2 0.13812389E+04</rscale>
<asrwt>0</asrwt>
<pdfrwt beam="1">  1       21 0.18012169E+00 0.13843239E+04</pdfrwt>
<pdfrwt beam="2">  1       21 0.24958373E+00 0.13843239E+04</pdfrwt>
<totfact> 0.39494028E+00</totfact>
</mgrwt>
</event>
<event>
 8    1  0.1094795E-005  0.1010966E+04  0.7818608E-02  0.8766481E-01
         21   -1    0    0  503  502  0.00000000000E+00  0.00000000000E+00  0.10612647262E+04  0.10612647262E+04  0.00000000000E+00 0.  1.
         21   -1    0    0  501  503 -0.00000000000E+00 -0.00000000000E+00 -0.95903871543E+03  0.95903871543E+03  0.00000000000E+00 0.  1.
    9000010    2    1    2  501    0 -0.14696800104E+03  0.92659257309E+02 -0.19044100436E+02  0.10111449055E+04  0.99592470140E+03 0.  0.
   -9000010    2    1    2    0  502  0.14696800104E+03 -0.92659257309E+02  0.12127011116E+03  0.10091585361E+04  0.98666568796E+03 0.  0.
        -13    1    3    3    0    0  0.15626281902E+03  0.35844273169E+03 -0.32220321516E+03  0.50666969865E+03  0.10566000000E+00 0.  1.
          4    1    3    3  501    0 -0.30323082006E+03 -0.26578347438E+03  0.30315911472E+03  0.50447520685E+03  0.00000000000E+00 0.  1.
         13    1    4    4    0    0 -0.26430613805E+03 -0.38227091370E+03 -0.72008167222E+02  0.47029137073E+03  0.10566000000E+00 0. -1.
         -4    1    4    4    0  502  0.41127413909E+03  0.28961165639E+03  0.19327827838E+03  0.53886716535E+03  0.00000000000E+00 0. -1.
<mgrwt>
<rscale>  2 0.10086778E+04</rscale>
<asrwt>0</asrwt>
<pdfrwt beam="1">  1       21 0.16327150E+00 0.10109655E+04</pdfrwt>
<pdfrwt beam="2">  1       21 0.14754442E+00 0.10109655E+04</pdfrwt>
<totfact> 0.38123337E+01</totfact>
</mgrwt>
</event>
<event>
 8    1  0.1094795E-005  0.1027804E+04  0.7818608E-02  0.8749844E-01
         21   -1    0    0  503  502  0.00000000000E+00  0.00000000000E+00  0.65575013222E+03  0.65575013222E+03  0.00000000000E+00 0.  1.
         21   -1    0    0  501  503 -0.00000000000E+00 -0.00000000000E+00 -0.16649751838E+04  0.16649751838E+04  0.00000000000E+00 0.  1.
    9000010    2    1    2  501    0  0.12813327567E+03 -0.15268876906E+03 -0.72684500447E+03  0.12588425700E+04  0.10082901164E+04 0.  0.
   -9000010    2    1    2    0  502 -0.12813327567E+03  0.15268876906E+03 -0.28238004712E+03  0.10618827461E+04  0.10040540219E+04 0.  0.
        -13    1    3    3    0    0 -0.43002972579E+03 -0.11597360670E+03 -0.45573509454E+03  0.63723616507E+03  0.10566000000E+00 0.  1.
          4    1    3    3  501    0  0.55816300146E+03 -0.36715162359E+02 -0.27110990993E+03  0.62160640490E+03  0.00000000000E+00 0.  1.
         13    1    4    4    0    0  0.23688738410E+03  0.36913721736E+03 -0.42838333981E+03  0.61309886232E+03  0.10566000000E+00 0. -1.
         -4    1    4    4    0  502 -0.36502065977E+03 -0.21644844830E+03  0.14600329268E+03  0.44878388374E+03  0.00000000000E+00 0. -1.
<mgrwt>
<rscale>  2 0.10267635E+04</rscale>
<asrwt>0</asrwt>
<pdfrwt beam="1">  1       21 0.10088464E+00 0.10278039E+04</pdfrwt>
<pdfrwt beam="2">  1       21 0.25615002E+00 0.10278039E+04</pdfrwt>
<totfact> 0.21234775E+01</totfact>
</mgrwt>
</event>
<event>
 8    1  0.1094795E-005  0.1015401E+04  0.7818608E-02  0.8767630E-01
         21   -1    0    0  501  502  0.00000000000E+00  0.00000000000E+00  0.11118502281E+04  0.11118502281E+04  0.00000000000E+00 0.  1.
         21   -1    0    0  502  503 -0.00000000000E+00 -0.00000000000E+00 -0.91634322929E+03  0.91634322929E+03  0.00000000000E+00 0.  1.
   -9000010    2    1    2    0  503  0.17147306773E+03  0.21519035069E+03  0.23953189843E+03  0.10432716268E+04  0.97740997379E+03 0.  0.
    9000010    2    1    2  501    0 -0.17147306773E+03 -0.21519035069E+03 -0.44024899625E+02  0.98492183062E+03  0.94468138579E+03 0.  0.
        -13    1    4    4    0    0  0.22733358089E+03 -0.71199188161E+02  0.33846133797E+03  0.41389125366E+03  0.10566000000E+00 0.  1.
          4    1    4    4  501    0 -0.39880664862E+03 -0.14399116253E+03 -0.38248623760E+03  0.57103057696E+03  0.00000000000E+00 0.  1.
         13    1    3    3    0    0  0.42244110382E+03 -0.24600834419E+03  0.87289569948E+02  0.49658440551E+03  0.10566000000E+00 0. -1.
         -4    1    3    3    0  503 -0.25096803610E+03  0.46119869488E+03  0.15224232849E+03  0.54668722126E+03  0.00000000000E+00 0. -1.
<mgrwt>
<rscale>  2 0.10074424E+04</rscale>
<asrwt>0</asrwt>
<pdfrwt beam="1">  1       21 0.17105388E+00 0.10154015E+04</pdfrwt>
<pdfrwt beam="2">  1       21 0.14097588E+00 0.10154015E+04</pdfrwt>
<totfact> 0.37566768E+01</totfact>
</mgrwt>
</event>
<event>
 8    1  0.1094795E-005  0.1032861E+04  0.7818608E-02  0.8746605E-01
         21   -1    0    0  503  502  0.00000000000E+00  0.00000000000E+00  0.18147395623E+04  0.18147395623E+04  0.00000000000E+00 0.  1.
         21   -1    0    0  501  503 -0.00000000000E+00 -0.00000000000E+00 -0.59933829113E+03  0.59933829113E+03  0.00000000000E+00 0.  1.
    9000010    2    1    2  501    0  0.23002389823E+02 -0.28761201257E+03  0.40024793637E+03  0.10982976686E+04  0.98122860664E+03 0.  0.
   -9000010    2    1    2    0  502 -0.23002389823E+02  0.28761201257E+03  0.81515333479E+03  0.13157801848E+04  0.99174228300E+03 0.  0.
        -13    1    3    3    0    0  0.10583378043E+03 -0.49624073570E+03  0.60836808298E+03  0.79219151245E+03  0.10566000000E+00 0.  1.
          4    1    3    3  501    0 -0.82831390604E+02  0.20862872313E+03 -0.20812014661E+03  0.30610615611E+03  0.00000000000E+00 0.  1.
         13    1    4    4    0    0 -0.10333391591E+03 -0.20278499054E+03  0.78567230301E+03  0.81797348945E+03  0.10566000000E+00 0. -1.
         -4    1    4    4    0  502  0.80331526083E+02  0.49039700311E+03  0.29481031780E+02  0.49780669539E+03  0.00000000000E+00 0. -1.
<mgrwt>
<rscale>  2 0.10303293E+04</rscale>
<asrwt>0</asrwt>
<pdfrwt beam="1">  1       21 0.27919070E+00 0.10328613E+04</pdfrwt>
<pdfrwt beam="2">  1       21 0.92205892E-01 0.10328613E+04</pdfrwt>
<totfact> 0.18280375E+01</totfact>
</mgrwt>
</event>
<event>
 8    1  0.1094795E-005  0.1104061E+04  0.7818608E-02  0.8691794E-01
         21   -1    0    0  503  502  0.00000000000E+00  0.00000000000E+00  0.12040168726E+04  0.12040168726E+04  0.00000000000E+00 0.  1.
         21   -1    0    0  501  503 -0.00000000000E+00 -0.00000000000E+00 -0.97290376616E+03  0.97290376616E+03  0.00000000000E+00 0.  1.
    9000010    2    1    2  501    0  0.46612305988E+03  0.26483538046E+01  0.12151734468E+03  0.11107280349E+04  0.10008359415E+04 0.  0.
   -9000010    2    1    2    0  502 -0.46612305988E+03 -0.26483538046E+01  0.10959576180E+03  0.10661926039E+04  0.95261624845E+03 0.  0.
        -13    1    3    3    0    0  0.70963866704E+02  0.42608285979E+03  0.27436410687E+03  0.51172077160E+03  0.10566000000E+00 0.  1.
          4    1    3    3  501    0  0.39515919317E+03 -0.42343450598E+03 -0.15284676219E+03  0.59900726332E+03  0.00000000000E+00 0.  1.
         13    1    4    4    0    0  0.42957467822E+02  0.40534500893E+03  0.58601815785E+02  0.41180590608E+03  0.10566000000E+00 0. -1.
         -4    1    4    4    0  502 -0.50908052770E+03 -0.40799336273E+03  0.50993946012E+02  0.65438669779E+03  0.00000000000E+00 0. -1.
<mgrwt>
<rscale>  2 0.10930172E+04</rscale>
<asrwt>0</asrwt>
<pdfrwt beam="1">  1       21 0.18523337E+00 0.11040608E+04</pdfrwt>
<pdfrwt beam="2">  1       21 0.14967750E+00 0.11040608E+04</pdfrwt>
<totfact> 0.23501676E+01</totfact>
</mgrwt>
</event>
<event>
 8    1  0.1094795E-005  0.1307228E+04  0.7818608E-02  0.8537472E-01
         21   -1    0    0  503  502  0.00000000000E+00  0.00000000000E+00  0.16339842167E+04  0.16339842167E+04  0.00000000000E+00 0. -1.
         21   -1    0    0  501  503 -0.00000000000E+00 -0.00000000000E+00 -0.10936175363E+04  0.10936175363E+04  0.00000000000E+00 0. -1.
    9000010    2    1    2  501    0  0.76879603245E+03  0.73054167879E+02 -0.10858665119E+03  0.12681550375E+04  0.10000209435E+04 0.  0.
   -9000010    2    1    2    0  502 -0.76879603245E+03 -0.73054167879E+02  0.64895333162E+03  0.14594467154E+04  0.10547322113E+04 0.  0.
        -13    1    3    3    0    0  0.62333720169E+03  0.43158879080E+03 -0.32492838613E+03  0.82486157543E+03  0.10566000000E+00 0.  1.
          4    1    3    3  501    0  0.14545883075E+03 -0.35853462292E+03  0.21634173494E+03  0.44329346211E+03  0.00000000000E+00 0.  1.
         13    1    4    4    0    0 -0.89303115146E+02  0.29264633959E+03  0.61516457478E+03  0.68705486803E+03  0.10566000000E+00 0. -1.
         -4    1    4    4    0  502 -0.67949291730E+03 -0.36570050747E+03  0.33788756837E+02  0.77239184739E+03  0.00000000000E+00 0. -1.
<mgrwt>
<rscale>  2 0.12961553E+04</rscale>
<asrwt>0</asrwt>
<pdfrwt beam="1">  1       21 0.25138219E+00 0.13072277E+04</pdfrwt>
<pdfrwt beam="2">  1       21 0.16824885E+00 0.13072277E+04</pdfrwt>
<totfact> 0.48820623E+00</totfact>
</mgrwt>
</event>
<event>
 8    1  0.1094795E-005  0.1351188E+04  0.7818608E-02  0.8501647E-01
         21   -1    0    0  501  502  0.00000000000E+00  0.00000000000E+00  0.82679608693E+03  0.82679608693E+03  0.00000000000E+00 0. -1.
         21   -1    0    0  502  503 -0.00000000000E+00 -0.00000000000E+00 -0.22976231540E+04  0.22976231540E+04  0.00000000000E+00 0. -1.
   -9000010    2    1    2    0  503 -0.26980617711E+03  0.86415056357E+03 -0.10618393451E+04  0.17184911412E+04  0.10030739942E+04 0.  0.
    9000010    2    1    2  501    0  0.26980617711E+03 -0.86415056357E+03 -0.40898772196E+03  0.14059280997E+04  0.99489260484E+03 0.  0.
        -13    1    4    4    0    0 -0.21534512395E+03 -0.78891089490E+03 -0.95272735777E+02  0.82330482074E+03  0.10566000000E+00 0.  1.
          4    1    4    4  501    0  0.48515130106E+03 -0.75239668666E+02 -0.31371498618E+03  0.58262327898E+03  0.00000000000E+00 0.  1.
         13    1    3    3    0    0  0.76237852134E+02  0.80344769235E+03 -0.11008599302E+04  0.13650029309E+04  0.10566000000E+00 0. -1.
         -4    1    3    3    0  503 -0.34604402924E+03  0.60702871221E+02  0.39020585059E+02  0.35348821028E+03  0.00000000000E+00 0. -1.
<mgrwt>
<rscale>  2 0.13496698E+04</rscale>
<asrwt>0</asrwt>
<pdfrwt beam="1">  1       21 0.12719940E+00 0.13511880E+04</pdfrwt>
<pdfrwt beam="2">  1       21 0.35348048E+00 0.13511880E+04</pdfrwt>
<totfact> 0.21495266E+00</totfact>
</mgrwt>
</event>
<event>
 8    1  0.1094795E-005  0.1128249E+04  0.7818608E-02  0.8663425E-01
         21   -1    0    0  501  502  0.00000000000E+00  0.00000000000E+00  0.76554990364E+03  0.76554990364E+03  0.00000000000E+00 0. -1.
         21   -1    0    0  502  503 -0.00000000000E+00 -0.00000000000E+00 -0.16913995170E+04  0.16913995170E+04  0.00000000000E+00 0.  1.
   -9000010    2    1    2    0  503  0.40522106725E+03 -0.44196593367E+03 -0.28728881973E+03  0.11605286878E+04  0.95118555996E+03 0.  0.
    9000010    2    1    2  501    0 -0.40522106725E+03  0.44196593367E+03 -0.63856079362E+03  0.12964207328E+04  0.95572424337E+03 0.  0.
        -13    1    4    4    0    0 -0.48356982654E+03  0.67901191351E+03 -0.63299651463E+03  0.10467003174E+04  0.10566000000E+00 0.  1.
          4    1    4    4  501    0  0.78348759286E+02 -0.23704597984E+03 -0.55642789861E+01  0.24972041534E+03  0.00000000000E+00 0.  1.
         13    1    3    3    0    0  0.46687465133E+03 -0.32028804137E+03 -0.59659173913E+03  0.82248287755E+03  0.10566000000E+00 0. -1.
         -4    1    3    3    0  503 -0.61653584080E+02 -0.12167789231E+03  0.30930291940E+03  0.33804581029E+03  0.00000000000E+00 0. -1.
<mgrwt>
<rscale>  2 0.11272877E+04</rscale>
<asrwt>0</asrwt>
<pdfrwt beam="1">  1       21 0.11777691E+00 0.11282495E+04</pdfrwt>
<pdfrwt beam="2">  1       21 0.26021531E+00 0.11282495E+04</pdfrwt>
<totfact> 0.12775680E+01</totfact>
</mgrwt>
</event>
<event>
 8    1  0.1094795E-005  0.1068827E+04  0.7818608E-02  0.8735651E-01
         21   -1    0    0  503  502  0.00000000000E+00  0.00000000000E+00  0.85247257967E+03  0.85247257967E+03  0.00000000000E+00 0.  1.
         21   -1    0    0  501  503 -0.00000000000E+00 -0.00000000000E+00 -0.12158908505E+04  0.12158908505E+04  0.00000000000E+00 0.  1.
    9000010    2    1    2  501    0 -0.25891955908E+03  0.28789372941E+03 -0.16983964012E+03  0.98214781139E+03  0.88647993917E+03 0.  0.
   -9000010    2    1    2    0  502  0.25891955908E+03 -0.28789372941E+03 -0.19357863067E+03  0.10862156187E+04  0.99622765803E+03 0.  0.
        -13    1    3    3    0    0 -0.42864177182E+03  0.31312543783E+03  0.20567838808E+03  0.56928456755E+03  0.10566000000E+00 0.  1.
          4    1    3    3  501    0  0.16972221274E+03 -0.25231708421E+02 -0.37551802820E+03  0.41286324384E+03  0.00000000000E+00 0.  1.
         13    1    4    4    0    0  0.12353783384E+03 -0.56247251334E+03 -0.41376969726E+03  0.70911374136E+03  0.10566000000E+00 0. -1.
         -4    1    4    4    0  502  0.13538172524E+03  0.27457878393E+03  0.22019106659E+03  0.37710187738E+03  0.00000000000E+00 0. -1.
<mgrwt>
<rscale>  2 0.10425015E+04</rscale>
<asrwt>0</asrwt>
<pdfrwt beam="1">  1       21 0.13114963E+00 0.10688272E+04</pdfrwt>
<pdfrwt beam="2">  1       21 0.18706013E+00 0.10688272E+04</pdfrwt>
<totfact> 0.33971417E+01</totfact>
</mgrwt>
</event>
<event>
 8    1  0.1094795E-005  0.1887543E+04  0.7818608E-02  0.8216130E-01
         21   -1    0    0  501  502  0.00000000000E+00  0.00000000000E+00  0.23984929566E+04  0.23984929566E+04  0.00000000000E+00 0.  1.
         21   -1    0    0  502  503 -0.00000000000E+00 -0.00000000000E+00 -0.15290196925E+04  0.15290196925E+04  0.00000000000E+00 0.  1.
   -9000010    2    1    2    0  503 -0.12687965908E+04  0.97495290076E+03  0.77606728766E+03  0.20408574070E+04  0.10012195429E+04 0.  0.
    9000010    2    1    2  501    0  0.12687965908E+04 -0.97495290076E+03  0.93405976476E+02  0.18866552421E+04  0.99517102972E+03 0.  0.
        -13    1    4    4    0    0  0.82300461391E+03 -0.45342823392E+03  0.52474629532E+03  0.10762399563E+04  0.10566000000E+00 0.  1.
          4    1    4    4  501    0  0.44579197691E+03 -0.52152466684E+03 -0.43134031885E+03  0.81041528581E+03  0.00000000000E+00 0.  1.
         13    1    3    3    0    0 -0.98189021082E+03  0.12673517839E+03  0.35961783148E+03  0.10533257746E+04  0.10566000000E+00 0. -1.
         -4    1    3    3    0  503 -0.28690638000E+03  0.84821772238E+03  0.41644945619E+03  0.98753163240E+03  0.00000000000E+00 0. -1.
<mgrwt>
<rscale>  2 0.18867421E+04</rscale>
<asrwt>0</asrwt>
<pdfrwt beam="1">  1       21 0.36899892E+00 0.18875430E+04</pdfrwt>
<pdfrwt beam="2">  1       21 0.23523380E+00 0.18875430E+04</pdfrwt>
<totfact> 0.19256569E-01</totfact>
</mgrwt>
</event>
<event>
 8    1  0.1094795E-005  0.1233928E+04  0.7818608E-02  0.8588076E-01
         21   -1    0    0  503  502  0.00000000000E+00  0.00000000000E+00  0.17734461079E+04  0.17734461079E+04  0.00000000000E+00 0. -1.
         21   -1    0    0  501  503 -0.00000000000E+00 -0.00000000000E+00 -0.83630147446E+03  0.83630147446E+03  0.00000000000E+00 0. -1.
    9000010    2    1    2  501    0 -0.61497876890E+03  0.24804370051E+03  0.38967266986E+03  0.12598201596E+04  0.99778629046E+03 0.  0.
   -9000010    2    1    2    0  502  0.61497876890E+03 -0.24804370051E+03  0.54747196362E+03  0.13499274228E+04  0.10406026774E+04 0.  0.
        -13    1    3    3    0    0 -0.85176819641E+03  0.31683129416E+03  0.43755520064E+03  0.10086355606E+04  0.10566000000E+00 0.  1.
          4    1    3    3  501    0  0.23678942751E+03 -0.68787593658E+02 -0.47882530785E+02  0.25118459901E+03  0.00000000000E+00 0.  1.
         13    1    4    4    0    0  0.46858693917E+03  0.16346733448E+03  0.72488605157E+03  0.87849592369E+03  0.10566000000E+00 0. -1.
         -4    1    4    4    0  502  0.14639182972E+03 -0.41151103498E+03 -0.17741408795E+03  0.47143149908E+03  0.00000000000E+00 0. -1.
<mgrwt>
<rscale>  2 0.12248567E+04</rscale>
<asrwt>0</asrwt>
<pdfrwt beam="1">  1       21 0.27283786E+00 0.12339281E+04</pdfrwt>
<pdfrwt beam="2">  1       21 0.12866177E+00 0.12339281E+04</pdfrwt>
<totfact> 0.78967955E+00</totfact>
</mgrwt>
</event>
<event>
 8    1  0.1094795E-005  0.1113579E+04  0.7818608E-02  0.8693152E-01
         21   -1    0    0  503  502  0.00000000000E+00  0.00000000000E+00  0.98512563649E+03  0.98512563649E+03  0.00000000000E+00 0. -1.
         21   -1    0    0  501  503 -0.00000000000E+00 -0.00000000000E+00 -0.14093278796E+04  0.14093278796E+04  0.00000000000E+00 0. -1.
    9000010    2    1    2  501    0  0.14371422906E+02 -0.51608284741E+03 -0.71895192173E+03  0.13254999475E+04  0.98666620594E+03 0.  0.
   -9000010    2    1    2    0  502 -0.14371422906E+02  0.51608284741E+03  0.29474967860E+03  0.10689535686E+04  0.88838973180E+03 0.  0.
        -13    1    3    3    0    0  0.34684742210E+03 -0.49037539390E+03 -0.81570790828E+02  0.60615589269E+03  0.10566000000E+00 0.  1.
          4    1    3    3  501    0 -0.33247599919E+03 -0.25707453508E+02 -0.63738113090E+03  0.71934405484E+03  0.00000000000E+00 0.  1.
         13    1    4    4    0    0 -0.78090321124E+02 -0.22903734775E+03  0.20232743801E+03  0.31542448899E+03  0.10566000000E+00 0. -1.
         -4    1    4    4    0  502  0.63718898217E+02  0.74512019516E+03  0.92422240587E+02  0.75352907959E+03  0.00000000000E+00 0. -1.
<mgrwt>
<rscale>  2 0.10914094E+04</rscale>
<asrwt>0</asrwt>
<pdfrwt beam="1">  1       21 0.15155779E+00 0.11135790E+04</pdfrwt>
<pdfrwt beam="2">  1       21 0.21681967E+00 0.11135790E+04</pdfrwt>
<totfact> 0.12790812E+01</totfact>
</mgrwt>
</event>
<event>
 8    1  0.1094795E-005  0.1264814E+04  0.7818608E-02  0.8561241E-01
         21   -1    0    0  501  502  0.00000000000E+00  0.00000000000E+00  0.20941480134E+04  0.20941480134E+04  0.00000000000E+00 0.  1.
         21   -1    0    0  502  503 -0.00000000000E+00 -0.00000000000E+00 -0.79160906947E+03  0.79160906947E+03  0.00000000000E+00 0.  1.
   -9000010    2    1    2    0  503  0.34031198554E+03 -0.70761938339E+03  0.34814040718E+03  0.13012600970E+04  0.97751657664E+03 0.  0.
    9000010    2    1    2  501    0 -0.34031198554E+03  0.70761938339E+03  0.95439853675E+03  0.15844969859E+04  0.99157283751E+03 0.  0.
        -13    1    4    4    0    0 -0.79693342745E+02 -0.59010043523E+02  0.74035512105E+03  0.74696648556E+03  0.10566000000E+00 0.  1.
          4    1    4    4  501    0 -0.26061864279E+03  0.76662942691E+03  0.21404341570E+03  0.83753050033E+03  0.00000000000E+00 0.  1.
         13    1    3    3    0    0 -0.19846393182E+03 -0.57958451632E+03  0.42009776660E+03  0.74282453409E+03  0.10566000000E+00 0. -1.
         -4    1    3    3    0  503  0.53877591736E+03 -0.12803486707E+03 -0.71957359421E+02  0.55843556288E+03  0.00000000000E+00 0. -1.
<mgrwt>
<rscale>  2 0.12620576E+04</rscale>
<asrwt>0</asrwt>
<pdfrwt beam="1">  1       21 0.32217661E+00 0.12648139E+04</pdfrwt>
<pdfrwt beam="2">  1       21 0.12178601E+00 0.12648139E+04</pdfrwt>
<totfact> 0.41041469E+00</totfact>
</mgrwt>
</event>
<event>
 8    1  0.1094795E-005  0.1233073E+04  0.7818608E-02  0.8592028E-01
         21   -1    0    0  501  502  0.00000000000E+00  0.00000000000E+00  0.18963357230E+04  0.18963357230E+04  0.00000000000E+00 0. -1.
         21   -1    0    0  502  503 -0.00000000000E+00 -0.00000000000E+00 -0.76949850367E+03  0.76949850367E+03  0.00000000000E+00 0.  1.
   -9000010    2    1    2    0  503  0.58072714297E+03 -0.20287530389E+03  0.48175029783E+03  0.12742140100E+04  0.10065463677E+04 0.  0.
    9000010    2    1    2  501    0 -0.58072714297E+03  0.20287530389E+03  0.64508692147E+03  0.13916202166E+04  0.10686754828E+04 0.  0.
        -13    1    4    4    0    0 -0.15636821559E+03  0.61431871320E+03  0.41321974422E+03  0.75669615329E+03  0.10566000000E+00 0.  1.
          4    1    4    4  501    0 -0.42435892738E+03 -0.41144340931E+03  0.23186717726E+03  0.63492406333E+03  0.00000000000E+00 0.  1.
         13    1    3    3    0    0 -0.25866042625E+03 -0.15142342292E+03  0.27826839642E+03  0.40898359469E+03  0.10566000000E+00 0. -1.
         -4    1    3    3    0  503  0.83938756921E+03 -0.51451880977E+02  0.20348190141E+03  0.86523041533E+03  0.00000000000E+00 0. -1.
<mgrwt>
<rscale>  2 0.12194909E+04</rscale>
<asrwt>0</asrwt>
<pdfrwt beam="1">  1       21 0.29174396E+00 0.12330733E+04</pdfrwt>
<pdfrwt beam="2">  1       21 0.11838439E+00 0.12330733E+04</pdfrwt>
<totfact> 0.73356118E+00</totfact>
</mgrwt>
</event>
<event>
 8    1  0.1094795E-005  0.1754026E+04  0.7818608E-02  0.8278337E-01
         21   -1    0    0  503  502  0.00000000000E+00  0.00000000000E+00  0.18349254533E+04  0.18349254533E+04  0.00000000000E+00 0.  1.
         21   -1    0    0  501  503 -0.00000000000E+00 -0.00000000000E+00 -0.18125727558E+04  0.18125727558E+04  0.00000000000E+00 0. -1.
    9000010    2    1    2  501    0  0.42491835959E+03  0.13790678878E+04 -0.51254146321E+03  0.18137263607E+04  0.97186455263E+03 0.  0.
   -9000010    2    1    2    0  502 -0.42491835959E+03 -0.13790678878E+04  0.53489416078E+03  0.18337718484E+04  0.99710760572E+03 0.  0.
        -13    1    3    3    0    0  0.20947571390E+03  0.81803233124E+02  0.21477128530E+03  0.31096392044E+03  0.10566000000E+00 0.  1.
          4    1    3    3  501    0  0.21544264570E+03  0.12972646546E+04 -0.72731274851E+03  0.15027624403E+04  0.00000000000E+00 0.  1.
         13    1    4    4    0    0 -0.57212521857E+03 -0.28771239192E+03  0.30265176682E+03  0.70831051758E+03  0.10566000000E+00 0. -1.
         -4    1    4    4    0  502  0.14720685898E+03 -0.10913554958E+04  0.23224239396E+03  0.11254613308E+04  0.00000000000E+00 0. -1.
<mgrwt>
<rscale>  2 0.17504587E+04</rscale>
<asrwt>0</asrwt>
<pdfrwt beam="1">  1       21 0.28229622E+00 0.17540261E+04</pdfrwt>
<pdfrwt beam="2">  1       21 0.27885735E+00 0.17540261E+04</pdfrwt>
<totfact> 0.38666824E-01</totfact>
</mgrwt>
</event>
<event>
 8    1  0.1094795E-005  0.1049426E+04  0.7818608E-02  0.8734551E-01
         21   -1    0    0  503  502  0.00000000000E+00  0.00000000000E+00  0.11706715102E+04  0.11706715102E+04  0.00000000000E+00 0.  1.
         21   -1    0    0  501  503 -0.00000000000E+00 -0.00000000000E+00 -0.10650608533E+04  0.10650608533E+04  0.00000000000E+00 0.  1.
    9000010    2    1    2  501    0 -0.23624454108E+03 -0.13616316119E+03  0.46497753421E+03  0.11478240525E+04  0.10133824839E+04 0.  0.
   -9000010    2    1    2    0  502  0.23624454108E+03  0.13616316119E+03 -0.35936687735E+03  0.10879083109E+04  0.98997376267E+03 0.  0.
        -13    1    3    3    0    0  0.20032091632E+03 -0.26931888854E+03 -0.16168704160E+03  0.37256387885E+03  0.10566000000E+00 0.  1.
          4    1    3    3  501    0 -0.43656545741E+03  0.13315572734E+03  0.62666457581E+03  0.77526017369E+03  0.00000000000E+00 0.  1.
         13    1    4    4    0    0 -0.11514938837E+03 -0.38269297300E+03 -0.15732599650E+03  0.42949362459E+03  0.10566000000E+00 0. -1.
         -4    1    4    4    0  502  0.35139392945E+03  0.51885613419E+03 -0.20204088086E+03  0.65841468633E+03  0.00000000000E+00 0. -1.
<mgrwt>
<rscale>  2 0.10437337E+04</rscale>
<asrwt>0</asrwt>
<pdfrwt beam="1">  1       21 0.18010331E+00 0.10494265E+04</pdfrwt>
<pdfrwt beam="2">  1       21 0.16385552E+00 0.10494265E+04</pdfrwt>
<totfact> 0.19687954E+01</totfact>
</mgrwt>
</event>
<event>
 8    1  0.1094795E-005  0.1010635E+04  0.7818608E-02  0.8767582E-01
         21   -1    0    0  503  502  0.00000000000E+00  0.00000000000E+00  0.13411144651E+04  0.13411144651E+04  0.00000000000E+00 0.  1.
         21   -1    0    0  501  503 -0.00000000000E+00 -0.00000000000E+00 -0.75329668484E+03  0.75329668484E+03  0.00000000000E+00 0.  1.
    9000010    2    1    2  501    0  0.13014810177E+03  0.49195681028E+02  0.33206603998E+03  0.10519179797E+04  0.98838496433E+03 0.  0.
   -9000010    2    1    2    0  502 -0.13014810177E+03 -0.49195681028E+02  0.25575174032E+03  0.10424931703E+04  0.10010116453E+04 0.  0.
        -13    1    3    3    0    0  0.53799106950E+03  0.11388438893E+03  0.32529400324E+03  0.63892115680E+03  0.10566000000E+00 0.  1.
          4    1    3    3  501    0 -0.40784296773E+03 -0.64688707904E+02  0.67720367420E+01  0.41299682291E+03  0.00000000000E+00 0.  1.
         13    1    4    4    0    0 -0.39136065058E+03  0.26730016056E+03  0.38676573961E+03  0.61171912113E+03  0.10566000000E+00 0. -1.
         -4    1    4    4    0  502  0.26121254881E+03 -0.31649584159E+03 -0.13101399929E+03  0.43077404913E+03  0.00000000000E+00 0. -1.
<mgrwt>
<rscale>  2 0.10074941E+04</rscale>
<asrwt>0</asrwt>
<pdfrwt beam="1">  1       21 0.20632530E+00 0.10106350E+04</pdfrwt>
<pdfrwt beam="2">  1       21 0.11589180E+00 0.10106350E+04</pdfrwt>
<totfact> 0.34443058E+01</totfact>
</mgrwt>
</event>
<event>
 8    1  0.1094795E-005  0.1123298E+04  0.7818608E-02  0.8667475E-01
         21   -1    0    0  503  502  0.00000000000E+00  0.00000000000E+00  0.12941040359E+04  0.12941040359E+04  0.00000000000E+00 0.  1.
         21   -1    0    0  501  503 -0.00000000000E+00 -0.00000000000E+00 -0.13451742213E+04  0.13451742213E+04  0.00000000000E+00 0.  1.
    9000010    2    1    2  501    0 -0.28520854119E+03  0.41137230829E+03 -0.72096972363E+03  0.13347646283E+04  0.10055984201E+04 0.  0.
   -9000010    2    1    2    0  502  0.28520854119E+03 -0.41137230829E+03  0.66989953819E+03  0.13045136289E+04  0.10012089336E+04 0.  0.
        -13    1    3    3    0    0 -0.49258528876E+03  0.15077731862E+03 -0.83637961971E+03  0.98229575279E+03  0.10566000000E+00 0.  1.
          4    1    3    3  501    0  0.20737674757E+03  0.26059498967E+03  0.11540989608E+03  0.35246887549E+03  0.00000000000E+00 0.  1.
         13    1    4    4    0    0  0.90606606460E+02 -0.73466238060E+03  0.47834731275E+03  0.88133678772E+03  0.10566000000E+00 0. -1.
         -4    1    4    4    0  502  0.19460193474E+03  0.32329007231E+03  0.19155222544E+03  0.42317684120E+03  0.00000000000E+00 0. -1.
<mgrwt>
<rscale>  2 0.11223151E+04</rscale>
<asrwt>0</asrwt>
<pdfrwt beam="1">  1       21 0.19909293E+00 0.11232984E+04</pdfrwt>
<pdfrwt beam="2">  1       21 0.20694988E+00 0.11232984E+04</pdfrwt>
<totfact> 0.61219675E+00</totfact>
</mgrwt>
</event>
<event>
 8    1  0.1094795E-005  0.1200500E+04  0.7818608E-02  0.8607873E-01
         21   -1    0    0  501  502  0.00000000000E+00  0.00000000000E+00  0.26308078160E+04  0.26308078160E+04  0.00000000000E+00 0.  1.
         21   -1    0    0  502  503 -0.00000000000E+00 -0.00000000000E+00 -0.56111008364E+03  0.56111008364E+03  0.00000000000E+00 0.  1.
   -9000010    2    1    2    0  503  0.23378727763E+03 -0.60770575081E+03  0.75038222217E+03  0.14081596316E+04  0.99793652005E+03 0.  0.
    9000010    2    1    2  501    0 -0.23378727763E+03  0.60770575081E+03  0.13193155102E+04  0.17837582680E+04  0.10085818621E+04 0.  0.
        -13    1    4    4    0    0 -0.51494886628E+03  0.30958493135E+01  0.73330587288E+03  0.89605771775E+03  0.10566000000E+00 0.  1.
          4    1    4    4  501    0  0.28116158865E+03  0.60460990150E+03  0.58600963734E+03  0.88770055028E+03  0.00000000000E+00 0.  1.
         13    1    3    3    0    0  0.32076758512E+03 -0.43836765205E+03  0.97354412151E+03  0.11148301259E+04  0.10566000000E+00 0. -1.
         -4    1    3    3    0  503 -0.86980307492E+02 -0.16933809876E+03 -0.22316189934E+03  0.29332950568E+03  0.00000000000E+00 0. -1.
<mgrwt>
<rscale>  2 0.11982613E+04</rscale>
<asrwt>0</asrwt>
<pdfrwt beam="1">  1       21 0.40473966E+00 0.12005000E+04</pdfrwt>
<pdfrwt beam="2">  1       21 0.86324630E-01 0.12005000E+04</pdfrwt>
<totfact> 0.27403499E+00</totfact>
</mgrwt>
</event>
<event>
 8    1  0.1094795E-005  0.1249380E+04  0.7818608E-02  0.8579620E-01
         21   -1    0    0  503  502  0.00000000000E+00  0.00000000000E+00  0.16464788510E+04  0.16464788510E+04  0.00000000000E+00 0.  1.
         21   -1    0    0  501  503 -0.00000000000E+00 -0.00000000000E+00 -0.15293548945E+04  0.15293548945E+04  0.00000000000E+00 0.  1.
    9000010    2    1    2  501    0 -0.34089496661E+03 -0.56445066887E+03 -0.95274406824E+03  0.15309724226E+04  0.10006704568E+04 0.  0.
   -9000010    2    1    2    0  502  0.34089496661E+03  0.56445066887E+03  0.10698680247E+04  0.16448613230E+04  0.10611961391E+04 0.  0.
        -13    1    3    3    0    0 -0.31553139080E+03 -0.85196501342E+03 -0.69263084507E+03  0.11424280902E+04  0.10566000000E+00 0.  1.
          4    1    3    3  501    0 -0.25363575802E+02  0.28751434455E+03 -0.26011322318E+03  0.38854433231E+03  0.00000000000E+00 0.  1.
         13    1    4    4    0    0  0.19642100351E+03  0.62391600203E+03  0.99060610236E+02  0.66156284953E+03  0.10566000000E+00 0. -1.
         -4    1    4    4    0  502  0.14447396309E+03 -0.59465333163E+02  0.97080741450E+03  0.98329847346E+03  0.00000000000E+00 0. -1.
<mgrwt>
<rscale>  2 0.12364347E+04</rscale>
<asrwt>0</asrwt>
<pdfrwt beam="1">  1       21 0.25330444E+00 0.12493803E+04</pdfrwt>
<pdfrwt beam="2">  1       21 0.23528537E+00 0.12493803E+04</pdfrwt>
<totfact> 0.14250825E+00</totfact>
</mgrwt>
</event>
<event>
 8    1  0.1094795E-005  0.1279295E+04  0.7818608E-02  0.8554526E-01
         21   -1    0    0  503  502  0.00000000000E+00  0.00000000000E+00  0.12541498266E+04  0.12541498266E+04  0.00000000000E+00 0.  1.
         21   -1    0    0  501  503 -0.00000000000E+00 -0.00000000000E+00 -0.12883048364E+04  0.12883048364E+04  0.00000000000E+00 0.  1.
    9000010    2    1    2  501    0 -0.72485277256E+03 -0.17141802744E+03  0.11696157109E+03  0.12846308357E+04  0.10400964825E+04 0.  0.
   -9000010    2    1    2    0  502  0.72485277256E+03  0.17141802744E+03 -0.15111658097E+03  0.12578238273E+04  0.10022419256E+04 0.  0.
        -13    1    3    3    0    0 -0.84180501572E+03 -0.45154662826E+03 -0.10682674327E+02  0.95532411917E+03  0.10566000000E+00 0.  1.
          4    1    3    3  501    0  0.11695224316E+03  0.28012860082E+03  0.12764424542E+03  0.32930671655E+03  0.00000000000E+00 0.  1.
         13    1    4    4    0    0  0.52655097976E+03 -0.38656104227E+03 -0.33380679241E+02  0.65406395298E+03  0.10566000000E+00 0. -1.
         -4    1    4    4    0  502  0.19830179280E+03  0.55797906970E+03 -0.11773590172E+03  0.60375987430E+03  0.00000000000E+00 0. -1.
<mgrwt>
<rscale>  2 0.12715802E+04</rscale>
<asrwt>0</asrwt>
<pdfrwt beam="1">  1       21 0.19294613E+00 0.12792953E+04</pdfrwt>
<pdfrwt beam="2">  1       21 0.19820074E+00 0.12792953E+04</pdfrwt>
<totfact> 0.77483941E+00</totfact>
</mgrwt>
</event>
<event>
 8    1  0.1094795E-005  0.1100933E+04  0.7818608E-02  0.8689629E-01
         21   -1    0    0  503  502  0.00000000000E+00  0.00000000000E+00  0.55939767409E+03  0.55939767409E+03  0.00000000000E+00 0. -1.
         21   -1    0    0  501  503 -0.00000000000E+00 -0.00000000000E+00 -0.21265208330E+04  0.21265208330E+04  0.00000000000E+00 0. -1.
    9000010    2    1    2  501    0  0.16392825445E+03 -0.37519239941E+03 -0.74171789862E+03  0.13099290237E+04  0.99906295936E+03 0.  0.
   -9000010    2    1    2    0  502 -0.16392825445E+03  0.37519239941E+03 -0.82540526024E+03  0.13759894834E+04  0.10219644835E+04 0.  0.
        -13    1    3    3    0    0 -0.19522932366E+02  0.93906675122E+01  0.23934821515E+03  0.24032667098E+03  0.10566000000E+00 0.  1.
          4    1    3    3  501    0  0.18345118681E+03 -0.38458306692E+03 -0.98106611377E+03  0.10696023527E+04  0.00000000000E+00 0.  1.
         13    1    4    4    0    0 -0.55825992560E+03  0.17230038172E+03 -0.21727569775E+03  0.62333803516E+03  0.10566000000E+00 0. -1.
         -4    1    4    4    0  502  0.39433167116E+03  0.20289201769E+03 -0.60812956249E+03  0.75265144821E+03  0.00000000000E+00 0. -1.
<mgrwt>
<rscale>  2 0.10955878E+04</rscale>
<asrwt>0</asrwt>
<pdfrwt beam="1">  1       21 0.86061181E-01 0.11009329E+04</pdfrwt>
<pdfrwt beam="2">  1       21 0.32715705E+00 0.11009329E+04</pdfrwt>
<totfact> 0.98476901E+00</totfact>
</mgrwt>
</event>
<event>
 8    1  0.1094795E-005  0.1337688E+04  0.7818608E-02  0.8512228E-01
         21   -1    0    0  501  502  0.00000000000E+00  0.00000000000E+00  0.20232006336E+04  0.20232006336E+04  0.00000000000E+00 0.  1.
         21   -1    0    0  502  503 -0.00000000000E+00 -0.00000000000E+00 -0.10281989134E+04  0.10281989134E+04  0.00000000000E+00 0. -1.
   -9000010    2    1    2    0  503 -0.35410392460E+03  0.81131660291E+03 -0.96511490612E+02  0.13248970420E+04  0.98102675019E+03 0.  0.
    9000010    2    1    2  501    0  0.35410392460E+03 -0.81131660291E+03  0.10915132108E+04  0.17265025049E+04  0.10028886232E+04 0.  0.
        -13    1    4    4    0    0  0.23346274566E+03 -0.86102048989E+03  0.12408096824E+04  0.15282244000E+04  0.10566000000E+00 0.  1.
          4    1    4    4  501    0  0.12064117894E+03  0.49703886971E+02 -0.14929647163E+03  0.19827810488E+03  0.00000000000E+00 0.  1.
         13    1    3    3    0    0  0.12815887576E+03  0.41437073557E+03  0.34979962658E+03  0.55721413644E+03  0.10566000000E+00 0. -1.
         -4    1    3    3    0  503 -0.48226280036E+03  0.39694586735E+03 -0.44631111719E+03  0.76768290559E+03  0.00000000000E+00 0. -1.
<mgrwt>
<rscale>  2 0.13335917E+04</rscale>
<asrwt>0</asrwt>
<pdfrwt beam="1">  1       21 0.31126164E+00 0.13376882E+04</pdfrwt>
<pdfrwt beam="2">  1       21 0.15818445E+00 0.13376882E+04</pdfrwt>
<totfact> 0.22095825E+00</totfact>
</mgrwt>
</event>
<event>
 8    1  0.1094795E-005  0.1190756E+04  0.7818608E-02  0.8615474E-01
         21   -1    0    0  501  502  0.00000000000E+00  0.00000000000E+00  0.18023607891E+04  0.18023607891E+04  0.00000000000E+00 0.  1.
         21   -1    0    0  502  503 -0.00000000000E+00 -0.00000000000E+00 -0.87608675317E+03  0.87608675317E+03  0.00000000000E+00 0.  1.
   -9000010    2    1    2    0  503  0.13945776072E+03  0.65678314883E+03  0.21523286913E+02  0.11909508796E+04  0.98340641345E+03 0.  0.
    9000010    2    1    2  501    0 -0.13945776072E+03 -0.65678314883E+03  0.90475074901E+03  0.14874966627E+04  0.97121564654E+03 0.  0.
        -13    1    4    4    0    0 -0.36140438227E+03 -0.95130884522E+02  0.78838063960E+03  0.87247180858E+03  0.10566000000E+00 0.  1.
          4    1    4    4  501    0  0.22194662155E+03 -0.56165226431E+03  0.11637010942E+03  0.61502485412E+03  0.00000000000E+00 0.  1.
         13    1    3    3    0    0 -0.12123218044E+03  0.84215251666E+03  0.11286826337E+03  0.85828745705E+03  0.10566000000E+00 0. -1.
         -4    1    3    3    0  503  0.26068994116E+03 -0.18536936782E+03 -0.91344976459E+02  0.33266342251E+03  0.00000000000E+00 0. -1.
<mgrwt>
<rscale>  2 0.11882364E+04</rscale>
<asrwt>0</asrwt>
<pdfrwt beam="1">  1       21 0.27728628E+00 0.11907564E+04</pdfrwt>
<pdfrwt beam="2">  1       21 0.13478258E+00 0.11907564E+04</pdfrwt>
<totfact> 0.64669250E+00</totfact>
</mgrwt>
</event>
<event>
 8    1  0.1094795E-005  0.1188047E+04  0.7818608E-02  0.8663097E-01
         21   -1    0    0  501  502  0.00000000000E+00  0.00000000000E+00  0.11699232122E+04  0.11699232122E+04  0.00000000000E+00 0. -1.
         21   -1    0    0  502  503 -0.00000000000E+00 -0.00000000000E+00 -0.11263676101E+04  0.11263676101E+04  0.00000000000E+00 0. -1.
   -9000010    2    1    2    0  503  0.36161964220E+03 -0.18219527821E+03 -0.37378313605E+03  0.12454598847E+04  0.11169120854E+04 0.  0.
    9000010    2    1    2  501    0 -0.36161964220E+03  0.18219527821E+03  0.41733873813E+03  0.10508309376E+04  0.87527718585E+03 0.  0.
        -13    1    4    4    0    0 -0.59712194113E+03  0.13657757608E+03  0.50659088304E+03  0.79488513687E+03  0.10566000000E+00 0.  1.
          4    1    4    4  501    0  0.23550229893E+03  0.45617702128E+02 -0.89252144910E+02  0.25594580074E+03  0.00000000000E+00 0.  1.
         13    1    3    3    0    0 -0.16720174216E+03 -0.71474496573E+02  0.31882972423E+03  0.36703873155E+03  0.10566000000E+00 0. -1.
         -4    1    3    3    0  503  0.52882138436E+03 -0.11072078164E+03 -0.69261286028E+03  0.87842115313E+03  0.00000000000E+00 0. -1.
<mgrwt>
<rscale>  2 0.11276907E+04</rscale>
<asrwt>0</asrwt>
<pdfrwt beam="1">  1       21 0.17998819E+00 0.11880473E+04</pdfrwt>
<pdfrwt beam="2">  1       21 0.17328732E+00 0.11880473E+04</pdfrwt>
<totfact> 0.15951925E+01</totfact>
</mgrwt>
</event>
<event>
 8    1  0.1094795E-005  0.1054897E+04  0.7818608E-02  0.8725488E-01
         21   -1    0    0  503  502  0.00000000000E+00  0.00000000000E+00  0.16133590663E+04  0.16133590663E+04  0.00000000000E+00 0.  1.
         21   -1    0    0  501  503 -0.00000000000E+00 -0.00000000000E+00 -0.80406083260E+03  0.80406083260E+03  0.00000000000E+00 0.  1.
    9000010    2    1    2  501    0 -0.27694728891E+03 -0.75914474476E+02 -0.55383953991E+02  0.10563502009E+04  0.10150593856E+04 0.  0.
   -9000010    2    1    2    0  502  0.27694728891E+03  0.75914474476E+02  0.86468218768E+03  0.13610696980E+04  0.10111244379E+04 0.  0.
        -13    1    3    3    0    0  0.24021495593E+03 -0.68617144513E+02 -0.37334414094E+03  0.44921865089E+03  0.10566000000E+00 0.  1.
          4    1    3    3  501    0 -0.51716224484E+03 -0.72973299630E+01  0.31796018695E+03  0.60713154999E+03  0.00000000000E+00 0.  1.
         13    1    4    4    0    0 -0.14883535616E+03  0.28983560955E+03  0.82014333454E+03  0.88249178135E+03  0.10566000000E+00 0. -1.
         -4    1    4    4    0  502  0.42578264507E+03 -0.21392113507E+03  0.44538853148E+02  0.47857791666E+03  0.00000000000E+00 0. -1.
<mgrwt>
<rscale>  2 0.10539496E+04</rscale>
<asrwt>0</asrwt>
<pdfrwt beam="1">  1       21 0.24820909E+00 0.10548973E+04</pdfrwt>
<pdfrwt beam="2">  1       21 0.12370167E+00 0.10548973E+04</pdfrwt>
<totfact> 0.13826333E+01</totfact>
</mgrwt>
</event>
<event>
 8    1  0.1094795E-005  0.1074442E+04  0.7818608E-02  0.8711488E-01
         21   -1    0    0  503  502  0.00000000000E+00  0.00000000000E+00  0.11093388376E+04  0.11093388376E+04  0.00000000000E+00 0. -1.
         21   -1    0    0  501  503 -0.00000000000E+00 -0.00000000000E+00 -0.10274754568E+04  0.10274754568E+04  0.00000000000E+00 0. -1.
    9000010    2    1    2  501    0 -0.34299110455E+03  0.65279892250E+02  0.10700165377E+03  0.10620783177E+04  0.99732473988E+03 0.  0.
   -9000010    2    1    2    0  502  0.34299110455E+03 -0.65279892250E+02 -0.25138273011E+02  0.10747359767E+04  0.10161304664E+04 0.  0.
        -13    1    3    3    0    0 -0.23934193991E+03  0.38335063890E+03 -0.29454174309E+03  0.53944149464E+03  0.10566000000E+00 0.  1.
          4    1    3    3  501    0 -0.10364916464E+03 -0.31807074666E+03  0.40154339686E+03  0.52263682301E+03  0.00000000000E+00 0.  1.
         13    1    4    4    0    0  0.63391826555E+03 -0.19869995719E+03 -0.22025384903E+03  0.69988985530E+03  0.10566000000E+00 0. -1.
         -4    1    4    4    0  502 -0.29092716100E+03  0.13342006494E+03  0.19511557601E+03  0.37484612141E+03  0.00000000000E+00 0. -1.
<mgrwt>
<rscale>  2 0.10699723E+04</rscale>
<asrwt>0</asrwt>
<pdfrwt beam="1">  1       21 0.17066751E+00 0.10744419E+04</pdfrwt>
<pdfrwt beam="2">  1       21 0.15807315E+00 0.10744419E+04</pdfrwt>
<totfact> 0.26278242E+01</totfact>
</mgrwt>
</event>
<event>
 8    1  0.1094795E-005  0.1264193E+04  0.7818608E-02  0.8569094E-01
         21   -1    0    0  503  502  0.00000000000E+00  0.00000000000E+00  0.81865952596E+03  0.81865952596E+03  0.00000000000E+00 0.  1.
         21   -1    0    0  501  503 -0.00000000000E+00 -0.00000000000E+00 -0.18926377534E+04  0.18926377534E+04  0.00000000000E+00 0.  1.
    9000010    2    1    2  501    0 -0.39626119262E+03  0.56320025455E+03 -0.66398507190E+03  0.13822828369E+04  0.99780369114E+03 0.  0.
   -9000010    2    1    2    0  502  0.39626119262E+03 -0.56320025455E+03 -0.40999315556E+03  0.13290144425E+04  0.10601733543E+04 0.  0.
        -13    1    3    3    0    0 -0.17758617875E+03  0.70620390002E+03 -0.67779828682E+02  0.73133775756E+03  0.10566000000E+00 0.  1.
          4    1    3    3  501    0 -0.21867501388E+03 -0.14300364548E+03 -0.59620524322E+03  0.65094507937E+03  0.00000000000E+00 0.  1.
         13    1    4    4    0    0  0.14944636128E+02 -0.73733778321E+03  0.72994886848E+01  0.73752535035E+03  0.10566000000E+00 0. -1.
         -4    1    4    4    0  502  0.38131655650E+03  0.17413752867E+03 -0.41729264425E+03  0.59148909212E+03  0.00000000000E+00 0. -1.
<mgrwt>
<rscale>  2 0.12510323E+04</rscale>
<asrwt>0</asrwt>
<pdfrwt beam="1">  1       21 0.12594762E+00 0.12641934E+04</pdfrwt>
<pdfrwt beam="2">  1       21 0.29117504E+00 0.12641934E+04</pdfrwt>
<totfact> 0.61770439E+00</totfact>
</mgrwt>
</event>
<event>
 8    1  0.1094795E-005  0.1150882E+04  0.7818608E-02  0.8652894E-01
         21   -1    0    0  501  502  0.00000000000E+00  0.00000000000E+00  0.18071663287E+04  0.18071663287E+04  0.00000000000E+00 0.  1.
         21   -1    0    0  502  503 -0.00000000000E+00 -0.00000000000E+00 -0.92890631164E+03  0.92890631164E+03  0.00000000000E+00 0.  1.
   -9000010    2    1    2    0  503  0.37333266389E+03  0.27741998244E+03  0.11020161974E+04  0.15636404721E+04  0.10070713490E+04 0.  0.
    9000010    2    1    2  501    0 -0.37333266389E+03 -0.27741998244E+03 -0.22375618041E+03  0.11724321682E+04  0.10527066240E+04 0.  0.
        -13    1    4    4    0    0  0.32468306729E+03 -0.73167629827E+02 -0.29092369300E+03  0.44205113115E+03  0.10566000000E+00 0.  1.
          4    1    4    4  501    0 -0.69801573118E+03 -0.20425235262E+03  0.67167512593E+02  0.73038103705E+03  0.00000000000E+00 0.  1.
         13    1    3    3    0    0  0.59125558646E+03  0.56728529200E+02  0.22800408606E+03  0.63622886525E+03  0.10566000000E+00 0. -1.
         -4    1    3    3    0  503 -0.21792292257E+03  0.22069145324E+03  0.87401211138E+03  0.92741160686E+03  0.00000000000E+00 0. -1.
<mgrwt>
<rscale>  2 0.11403412E+04</rscale>
<asrwt>0</asrwt>
<pdfrwt beam="1">  1       21 0.27802559E+00 0.11508824E+04</pdfrwt>
<pdfrwt beam="2">  1       21 0.14290866E+00 0.11508824E+04</pdfrwt>
<totfact> 0.54123707E+00</totfact>
</mgrwt>
</event>
<event>
 8    1  0.1094795E-005  0.1531167E+04  0.7818608E-02  0.8396884E-01
         21   -1    0    0  501  502  0.00000000000E+00  0.00000000000E+00  0.83334843871E+03  0.83334843871E+03  0.00000000000E+00 0.  1.
         21   -1    0    0  502  503 -0.00000000000E+00 -0.00000000000E+00 -0.27547642476E+04  0.27547642476E+04  0.00000000000E+00 0. -1.
   -9000010    2    1    2    0  503  0.95999907546E+03  0.62049460105E+03 -0.88162570670E+03  0.17668431569E+04  0.10187536893E+04 0.  0.
    9000010    2    1    2  501    0 -0.95999907546E+03 -0.62049460105E+03 -0.10397901022E+04  0.18212695294E+04  0.96397482714E+03 0.  0.
        -13    1    4    4    0    0  0.85304673506E+02  0.15565925554E+03 -0.45967472366E+02  0.18335678563E+03  0.10566000000E+00 0.  1.
          4    1    4    4  501    0 -0.10453037490E+04 -0.77615385659E+03 -0.99382262983E+03  0.16379127438E+04  0.00000000000E+00 0.  1.
         13    1    3    3    0    0  0.32391068239E+03  0.28462322294E+03  0.19402846300E+03  0.47283777855E+03  0.10566000000E+00 0. -1.
         -4    1    3    3    0  503  0.63608839307E+03  0.33587137811E+03 -0.10756541697E+04  0.12940053784E+04  0.00000000000E+00 0. -1.
<mgrwt>
<rscale>  2 0.15221147E+04</rscale>
<asrwt>0</asrwt>
<pdfrwt beam="1">  1       21 0.12820746E+00 0.15311665E+04</pdfrwt>
<pdfrwt beam="2">  1       21 0.42380987E+00 0.15311665E+04</pdfrwt>
<totfact> 0.65900304E-01</totfact>
</mgrwt>
</event>
<event>
 8    1  0.1094795E-005  0.1064883E+04  0.7818608E-02  0.8723562E-01
         21   -1    0    0  503  502  0.00000000000E+00  0.00000000000E+00  0.36213654736E+04  0.36213654736E+04  0.00000000000E+00 0.  1.
         21   -1    0    0  501  503 -0.00000000000E+00 -0.00000000000E+00 -0.30345927572E+03  0.30345927572E+03  0.00000000000E+00 0.  1.
    9000010    2    1    2  501    0  0.19378146350E+03  0.15332052209E+03  0.16147348316E+04  0.19342552844E+04  0.10358168229E+04 0.  0.
   -9000010    2    1    2    0  502 -0.19378146350E+03 -0.15332052209E+03  0.17031713663E+04  0.19905694649E+04  0.10002577937E+04 0.  0.
        -13    1    3    3    0    0 -0.16817845921E+03  0.42810658235E+03  0.31531025716E+03  0.55765563696E+03  0.10566000000E+00 0.  1.
          4    1    3    3  501    0  0.36195992271E+03 -0.27478606027E+03  0.12994245744E+04  0.13765996474E+04  0.00000000000E+00 0.  1.
         13    1    4    4    0    0  0.79080948517E+02  0.37916041484E+03  0.96853781855E+03  0.10431116593E+04  0.10566000000E+00 0. -1.
         -4    1    4    4    0  502 -0.27286241202E+03 -0.53248093692E+03  0.73463354771E+03  0.94745780566E+03  0.00000000000E+00 0. -1.
<mgrwt>
<rscale>  2 0.10561366E+04</rscale>
<asrwt>0</asrwt>
<pdfrwt beam="1">  1       21 0.55713312E+00 0.10648826E+04</pdfrwt>
<pdfrwt beam="2">  1       21 0.46686045E-01 0.10648826E+04</pdfrwt>
<totfact> 0.10099783E+00</totfact>
</mgrwt>
</event>
<event>
 8    1  0.1094795E-005  0.1172756E+04  0.7818608E-02  0.8628196E-01
         21   -1    0    0  503  502  0.00000000000E+00  0.00000000000E+00  0.10594623870E+04  0.10594623870E+04  0.00000000000E+00 0.  1.
         21   -1    0    0  501  503 -0.00000000000E+00 -0.00000000000E+00 -0.13748361883E+04  0.13748361883E+04  0.00000000000E+00 0.  1.
    9000010    2    1    2  501    0  0.47883647746E+03 -0.37833157931E+03 -0.45414226286E+03  0.12576172189E+04  0.10014672827E+04 0.  0.
   -9000010    2    1    2    0  502 -0.47883647746E+03  0.37833157931E+03  0.13876846151E+03  0.11766813564E+04  0.99644526818E+03 0.  0.
        -13    1    3    3    0    0  0.59728330602E+03 -0.29579796647E+02 -0.61310749154E+03  0.85645964258E+03  0.10566000000E+00 0.  1.
          4    1    3    3  501    0 -0.11844682856E+03 -0.34875178266E+03  0.15896522867E+03  0.40115757631E+03  0.00000000000E+00 0.  1.
         13    1    4    4    0    0 -0.41162832581E+02  0.47825459516E+03 -0.28589883288E+03  0.55871279776E+03  0.10566000000E+00 0. -1.
         -4    1    4    4    0  502 -0.43767364488E+03 -0.99923015849E+02  0.42466729439E+03  0.61796855862E+03  0.00000000000E+00 0. -1.
<mgrwt>
<rscale>  2 0.11716828E+04</rscale>
<asrwt>0</asrwt>
<pdfrwt beam="1">  1       21 0.16299421E+00 0.11727557E+04</pdfrwt>
<pdfrwt beam="2">  1       21 0.21151326E+00 0.11727557E+04</pdfrwt>
<totfact> 0.11016773E+01</totfact>
</mgrwt>
</event>
<event>
 8    1  0.1094795E-005  0.1107092E+04  0.7818608E-02  0.8682720E-01
         21   -1    0    0  501  502  0.00000000000E+00  0.00000000000E+00  0.39590212855E+03  0.39590212855E+03  0.00000000000E+00 0. -1.
         21   -1    0    0  502  503 -0.00000000000E+00 -0.00000000000E+00 -0.31533819843E+04  0.31533819843E+04  0.00000000000E+00 0. -1.
   -9000010    2    1    2    0  503  0.25565217770E+03  0.37103614758E+03 -0.16766949771E+04  0.20021095293E+04  0.99705098289E+03 0.  0.
    9000010    2    1    2  501    0 -0.25565217770E+03 -0.37103614758E+03 -0.10807848786E+04  0.15471745835E+04  0.10112504038E+04 0.  0.
        -13    1    4    4    0    0  0.36684407144E+03  0.17339146275E+02 -0.43918042533E+03  0.57249862524E+03  0.10566000000E+00 0.  1.
          4    1    4    4  501    0 -0.62249624914E+03 -0.38837529386E+03 -0.64160445329E+03  0.97467595823E+03  0.00000000000E+00 0.  1.
         13    1    3    3    0    0 -0.34045569824E+02 -0.33088867245E+03 -0.45434045264E+03  0.56309117596E+03  0.10566000000E+00 0. -1.
         -4    1    3    3    0  503  0.28969774753E+03  0.70192482003E+03 -0.12223545244E+04  0.14390183534E+04  0.00000000000E+00 0. -1.
<mgrwt>
<rscale>  2 0.11038392E+04</rscale>
<asrwt>0</asrwt>
<pdfrwt beam="1">  1       21 0.60908019E-01 0.11070922E+04</pdfrwt>
<pdfrwt beam="2">  1       21 0.48513569E+00 0.11070922E+04</pdfrwt>
<totfact> 0.17850096E+00</totfact>
</mgrwt>
</event>
<event>
 8    1  0.1094795E-005  0.1110058E+04  0.7818608E-02  0.8711884E-01
         21   -1    0    0  503  502  0.00000000000E+00  0.00000000000E+00  0.10078438093E+04  0.10078438093E+04  0.00000000000E+00 0.  1.
         21   -1    0    0  501  503 -0.00000000000E+00 -0.00000000000E+00 -0.10814061218E+04  0.10814061218E+04  0.00000000000E+00 0.  1.
    9000010    2    1    2  501    0 -0.24286213039E+03 -0.33008388467E+03 -0.18267386591E+03  0.97384259859E+03  0.86432764635E+03 0.  0.
   -9000010    2    1    2    0  502  0.24286213039E+03  0.33008388467E+03  0.10911155345E+03  0.11154073326E+04  0.10316447068E+04 0.  0.
        -13    1    3    3    0    0  0.20812249245E+03 -0.40621362295E+03 -0.23521548877E+03  0.51346939213E+03  0.10566000000E+00 0.  1.
          4    1    3    3  501    0 -0.45098462284E+03  0.76129738285E+02  0.52541622862E+02  0.46037320645E+03  0.00000000000E+00 0.  1.
         13    1    4    4    0    0 -0.23804390751E+03  0.52271328182E+03  0.15618876161E+03  0.59522182194E+03  0.10566000000E+00 0. -1.
         -4    1    4    4    0  502  0.48090603790E+03 -0.19262939715E+03 -0.47077208159E+02  0.52018551063E+03  0.00000000000E+00 0. -1.
<mgrwt>
<rscale>  2 0.10695148E+04</rscale>
<asrwt>0</asrwt>
<pdfrwt beam="1">  1       21 0.15505289E+00 0.11100577E+04</pdfrwt>
<pdfrwt beam="2">  1       21 0.16637017E+00 0.11100577E+04</pdfrwt>
<totfact> 0.30119770E+01</totfact>
</mgrwt>
</event>
<event>
 8    1  0.1094795E-005  0.1083845E+04  0.7818608E-02  0.8702318E-01
         21   -1    0    0  501  502  0.00000000000E+00  0.00000000000E+00  0.98081241568E+03  0.98081241568E+03  0.00000000000E+00 0. -1.
         21   -1    0    0  502  503 -0.00000000000E+00 -0.00000000000E+00 -0.12955976596E+04  0.12955976596E+04  0.00000000000E+00 0. -1.
   -9000010    2    1    2    0  503  0.55074596339E+02  0.35081205315E+03 -0.49291102680E+03  0.11906641863E+04  0.10240203203E+04 0.  0.
    9000010    2    1    2  501    0 -0.55074596339E+02 -0.35081205315E+03  0.17812578286E+03  0.10857458890E+04  0.10104518955E+04 0.  0.
        -13    1    4    4    0    0 -0.22573101031E+03 -0.53666643538E+03 -0.21329353392E+03  0.62004797771E+03  0.10566000000E+00 0.  1.
          4    1    4    4  501    0  0.17065641397E+03  0.18585438223E+03  0.39141931678E+03  0.46569791128E+03  0.00000000000E+00 0.  1.
         13    1    3    3    0    0 -0.47407263251E+03  0.19090925383E+03 -0.35089051077E+03  0.61993174287E+03  0.10566000000E+00 0. -1.
         -4    1    3    3    0  503  0.52914722885E+03  0.15990279932E+03 -0.14202051602E+03  0.57073244345E+03  0.00000000000E+00 0. -1.
<mgrwt>
<rscale>  2 0.10806281E+04</rscale>
<asrwt>0</asrwt>
<pdfrwt beam="1">  1       21 0.15089422E+00 0.10838450E+04</pdfrwt>
<pdfrwt beam="2">  1       21 0.19932272E+00 0.10838450E+04</pdfrwt>
<totfact> 0.17792747E+01</totfact>
</mgrwt>
</event>
<event>
 8    1  0.1094795E-005  0.1056729E+04  0.7818608E-02  0.8727333E-01
         21   -1    0    0  503  502  0.00000000000E+00  0.00000000000E+00  0.10031888211E+04  0.10031888211E+04  0.00000000000E+00 0. -1.
         21   -1    0    0  501  503 -0.00000000000E+00 -0.00000000000E+00 -0.11253162586E+04  0.11253162586E+04  0.00000000000E+00 0. -1.
    9000010    2    1    2  501    0 -0.20887375178E+03  0.25872808197E+03  0.12025175713E+03  0.10443357866E+04  0.98265369561E+03 0.  0.
   -9000010    2    1    2    0  502  0.20887375178E+03 -0.25872808197E+03 -0.24237919467E+03  0.10841692931E+04  0.10030488111E+04 0.  0.
        -13    1    3    3    0    0  0.57815572405E+02  0.27980917953E+03 -0.38095871586E+03  0.47619887833E+03  0.10566000000E+00 0.  1.
          4    1    3    3  501    0 -0.26668932418E+03 -0.21081097566E+02  0.50121047299E+03  0.56813690827E+03  0.00000000000E+00 0.  1.
         13    1    4    4    0    0 -0.18932944103E+03 -0.16243420831E+03 -0.52853342482E+03  0.58444683384E+03  0.10566000000E+00 0. -1.
         -4    1    4    4    0  502  0.39820319281E+03 -0.96293873660E+02  0.28615423015E+03  0.49972245927E+03  0.00000000000E+00 0. -1.
<mgrwt>
<rscale>  2 0.10518603E+04</rscale>
<asrwt>0</asrwt>
<pdfrwt beam="1">  1       21 0.15433674E+00 0.10567286E+04</pdfrwt>
<pdfrwt beam="2">  1       21 0.17312558E+00 0.10567286E+04</pdfrwt>
<totfact> 0.27125423E+01</totfact>
</mgrwt>
</event>
<event>
 8    1  0.1094795E-005  0.1390198E+04  0.7818608E-02  0.8475742E-01
         21   -1    0    0  503  502  0.00000000000E+00  0.00000000000E+00  0.26358018758E+04  0.26358018758E+04  0.00000000000E+00 0.  1.
         21   -1    0    0  501  503 -0.00000000000E+00 -0.00000000000E+00 -0.75452459997E+03  0.75452459997E+03  0.00000000000E+00 0.  1.
    9000010    2    1    2  501    0  0.61506805823E+01  0.97889530785E+03  0.65324933041E+03  0.15354131878E+04  0.98614659909E+03 0.  0.
   -9000010    2    1    2    0  502 -0.61506805823E+01 -0.97889530785E+03  0.12280279455E+04  0.18549132880E+04  0.98710527132E+03 0.  0.
        -13    1    3    3    0    0 -0.46655769130E+03  0.45585029804E+03  0.15024940069E+03  0.66936572000E+03  0.10566000000E+00 0.  1.
          4    1    3    3  501    0  0.47270837189E+03  0.52304500981E+03  0.50299992972E+03  0.86604746777E+03  0.00000000000E+00 0.  1.
         13    1    4    4    0    0  0.31138746720E+03 -0.10148803633E+04  0.10289562652E+04  0.14784097244E+04  0.10566000000E+00 0. -1.
         -4    1    4    4    0  502 -0.31753814778E+03  0.35985055427E+02  0.19907168030E+03  0.37650356361E+03  0.00000000000E+00 0. -1.
<mgrwt>
<rscale>  2 0.13900279E+04</rscale>
<asrwt>0</asrwt>
<pdfrwt beam="1">  1       21 0.40550798E+00 0.13901981E+04</pdfrwt>
<pdfrwt beam="2">  1       21 0.11608071E+00 0.13901981E+04</pdfrwt>
<totfact> 0.11959286E+00</totfact>
</mgrwt>
</event>
<event>
 8    1  0.1094795E-005  0.1309652E+04  0.7818608E-02  0.8529271E-01
         21   -1    0    0  503  502  0.00000000000E+00  0.00000000000E+00  0.75797267803E+03  0.75797267803E+03  0.00000000000E+00 0. -1.
         21   -1    0    0  501  503 -0.00000000000E+00 -0.00000000000E+00 -0.23958505882E+04  0.23958505882E+04  0.00000000000E+00 0.  1.
    9000010    2    1    2  501    0 -0.43843501236E+03 -0.69859730899E+03 -0.12061364397E+04  0.17804364951E+04  0.10173129026E+04 0.  0.
   -9000010    2    1    2    0  502  0.43843501236E+03  0.69859730899E+03 -0.43174147044E+03  0.13733867711E+04  0.10097163292E+04 0.  0.
        -13    1    3    3    0    0 -0.16545567285E+01 -0.54856201561E+01 -0.90891209507E+03  0.90893016085E+03  0.10566000000E+00 0.  1.
          4    1    3    3  501    0 -0.43678045563E+03 -0.69311168884E+03 -0.29722434464E+03  0.87150633427E+03  0.00000000000E+00 0.  1.
         13    1    4    4    0    0  0.59917432660E+03  0.64245885391E+03  0.32302114519E+02  0.87909424432E+03  0.10566000000E+00 0. -1.
         -4    1    4    4    0  502 -0.16073931424E+03  0.56138455079E+02 -0.46404358496E+03  0.49429252678E+03  0.00000000000E+00 0. -1.
<mgrwt>
<rscale>  2 0.13081767E+04</rscale>
<asrwt>0</asrwt>
<pdfrwt beam="1">  1       21 0.11661118E+00 0.13096522E+04</pdfrwt>
<pdfrwt beam="2">  1       21 0.36859239E+00 0.13096522E+04</pdfrwt>
<totfact> 0.21694455E+00</totfact>
</mgrwt>
</event>
<event>
 8    1  0.1094795E-005  0.1062061E+04  0.7818608E-02  0.8737007E-01
         21   -1    0    0  503  502  0.00000000000E+00  0.00000000000E+00  0.10199506328E+04  0.10199506328E+04  0.00000000000E+00 0. -1.
         21   -1    0    0  501  503 -0.00000000000E+00 -0.00000000000E+00 -0.10224508768E+04  0.10224508768E+04  0.00000000000E+00 0. -1.
    9000010    2    1    2  501    0 -0.33686523421E+03  0.14602631108E+03  0.90559999041E+01  0.98027788101E+03  0.90887889364E+03 0.  0.
   -9000010    2    1    2    0  502  0.33686523421E+03 -0.14602631108E+03 -0.11556243864E+02  0.10621236286E+04  0.99657974398E+03 0.  0.
        -13    1    3    3    0    0 -0.15823052330E+03 -0.25356990375E+03 -0.31608470182E+03  0.43502200459E+03  0.10566000000E+00 0.  1.
          4    1    3    3  501    0 -0.17863471091E+03  0.39959621483E+03  0.32514070173E+03  0.54525587642E+03  0.00000000000E+00 0.  1.
         13    1    4    4    0    0  0.50187199535E+03 -0.31188261949E+03 -0.32236568198E+03  0.67310171010E+03  0.10566000000E+00 0. -1.
         -4    1    4    4    0  502 -0.16500676113E+03  0.16585630841E+03  0.31080943811E+03  0.38902191851E+03  0.00000000000E+00 0. -1.
<mgrwt>
<rscale>  2 0.10409855E+04</rscale>
<asrwt>0</asrwt>
<pdfrwt beam="1">  1       21 0.15691548E+00 0.10620608E+04</pdfrwt>
<pdfrwt beam="2">  1       21 0.15730013E+00 0.10620608E+04</pdfrwt>
<totfact> 0.35066919E+01</totfact>
</mgrwt>
</event>
<event>
 8    1  0.1094795E-005  0.1242796E+04  0.7818608E-02  0.8578689E-01
         21   -1    0    0  503  502  0.00000000000E+00  0.00000000000E+00  0.22496694385E+04  0.22496694385E+04  0.00000000000E+00 0. -1.
         21   -1    0    0  501  503 -0.00000000000E+00 -0.00000000000E+00 -0.71189789801E+03  0.71189789801E+03  0.00000000000E+00 0. -1.
    9000010    2    1    2  501    0  0.24687497056E+03  0.68509859783E+03  0.42788073702E+03  0.12953138369E+04  0.98206347611E+03 0.  0.
   -9000010    2    1    2    0  502 -0.24687497056E+03 -0.68509859783E+03  0.11098908035E+04  0.16662534996E+04  0.10070927413E+04 0.  0.
        -13    1    3    3    0    0  0.19395482685E+03  0.28043524268E+03 -0.30434132607E+03  0.45704053881E+03  0.10566000000E+00 0.  1.
          4    1    3    3  501    0  0.52920143707E+02  0.40466335515E+03  0.73222206309E+03  0.83827329809E+03  0.00000000000E+00 0.  1.
         13    1    4    4    0    0  0.38518147926E+03 -0.24208666331E+03  0.28638961614E+03  0.53757766687E+03  0.10566000000E+00 0. -1.
         -4    1    4    4    0  502 -0.63205644982E+03 -0.44301193452E+03  0.82350118737E+03  0.11286758328E+04  0.00000000000E+00 0. -1.
<mgrwt>
<rscale>  2 0.12377169E+04</rscale>
<asrwt>0</asrwt>
<pdfrwt beam="1">  1       21 0.34610299E+00 0.12427965E+04</pdfrwt>
<pdfrwt beam="2">  1       21 0.10952275E+00 0.12427965E+04</pdfrwt>
<totfact> 0.37545742E+00</totfact>
</mgrwt>
</event>
<event>
 8    1  0.1094795E-005  0.1093872E+04  0.7818608E-02  0.8696657E-01
         21   -1    0    0  503  502  0.00000000000E+00  0.00000000000E+00  0.20090020179E+04  0.20090020179E+04  0.00000000000E+00 0. -1.
         21   -1    0    0  501  503 -0.00000000000E+00 -0.00000000000E+00 -0.65182534428E+03  0.65182534428E+03  0.00000000000E+00 0. -1.
    9000010    2    1    2  501    0  0.32167985131E+03  0.28517119990E+03  0.24874891059E+03  0.11217990280E+04  0.10058610732E+04 0.  0.
   -9000010    2    1    2    0  502 -0.32167985131E+03 -0.28517119990E+03  0.11084277631E+04  0.15390283342E+04  0.97734107029E+03 0.  0.
        -13    1    3    3    0    0  0.49304134609E+03  0.36210978843E+03 -0.19326058149E+03  0.64153170721E+03  0.10566000000E+00 0.  1.
          4    1    3    3  501    0 -0.17136149478E+03 -0.76938588523E+02  0.44200949208E+03  0.48026732076E+03  0.00000000000E+00 0.  1.
         13    1    4    4    0    0 -0.15364806860E+03 -0.56637748396E+03  0.28410988505E+03  0.65200431078E+03  0.10566000000E+00 0. -1.
         -4    1    4    4    0  502 -0.16803178271E+03  0.28120628406E+03  0.82431787801E+03  0.88702402347E+03  0.00000000000E+00 0. -1.
<mgrwt>
<rscale>  2 0.10872714E+04</rscale>
<asrwt>0</asrwt>
<pdfrwt beam="1">  1       21 0.30907723E+00 0.10938725E+04</pdfrwt>
<pdfrwt beam="2">  1       21 0.10028082E+00 0.10938725E+04</pdfrwt>
<totfact> 0.89182085E+00</totfact>
</mgrwt>
</event>
<event>
 8    1  0.1094795E-005  0.1118801E+04  0.7818608E-02  0.8674274E-01
         21   -1    0    0  503  502  0.00000000000E+00  0.00000000000E+00  0.24376012919E+04  0.24376012919E+04  0.00000000000E+00 0. -1.
         21   -1    0    0  501  503 -0.00000000000E+00 -0.00000000000E+00 -0.96429800284E+03  0.96429800284E+03  0.00000000000E+00 0. -1.
    9000010    2    1    2  501    0 -0.73744659372E+01  0.47602817737E+03 -0.44073595047E+03  0.11848605042E+04  0.99145803135E+03 0.  0.
   -9000010    2    1    2    0  502  0.73744659372E+01 -0.47602817737E+03  0.19140392395E+04  0.22170387905E+04  0.10124512729E+04 0.  0.
        -13    1    3    3    0    0 -0.27186411518E+03 -0.21027928293E+03 -0.36612058205E+02  0.34564132844E+03  0.10566000000E+00 0.  1.
          4    1    3    3  501    0  0.26448964924E+03  0.68630746031E+03 -0.40412389227E+03  0.83921917574E+03  0.00000000000E+00 0.  1.
         13    1    4    4    0    0 -0.48820998771E+03 -0.36813088949E+03  0.10647349132E+04  0.12278150473E+04  0.10566000000E+00 0. -1.
         -4    1    4    4    0  502  0.49558445364E+03 -0.10789728788E+03  0.84930432628E+03  0.98922374318E+03  0.00000000000E+00 0. -1.
<mgrwt>
<rscale>  2 0.11140298E+04</rscale>
<asrwt>0</asrwt>
<pdfrwt beam="1">  1       21 0.37501558E+00 0.11188006E+04</pdfrwt>
<pdfrwt beam="2">  1       21 0.14835354E+00 0.11188006E+04</pdfrwt>
<totfact> 0.10091805E+00</totfact>
</mgrwt>
</event>
<event>
 8    1  0.1094795E-005  0.1201449E+04  0.7818608E-02  0.8607164E-01
         21   -1    0    0  503  502  0.00000000000E+00  0.00000000000E+00  0.22909547829E+04  0.22909547829E+04  0.00000000000E+00 0. -1.
         21   -1    0    0  501  503 -0.00000000000E+00 -0.00000000000E+00 -0.67931987948E+03  0.67931987948E+03  0.00000000000E+00 0. -1.
    9000010    2    1    2  501    0  0.20982450438E+02  0.63263817203E+03  0.39012261911E+03  0.12632005959E+04  0.10211800857E+04 0.  0.
   -9000010    2    1    2    0  502 -0.20982450438E+02 -0.63263817203E+03  0.12215122843E+04  0.17070740665E+04  0.10106128279E+04 0.  0.
        -13    1    3    3    0    0 -0.30039370204E+03  0.59955358003E+03 -0.98127593480E+02  0.67773881940E+03  0.10566000000E+00 0.  1.
          4    1    3    3  501    0  0.32137615248E+03  0.33084591995E+02  0.48825021259E+03  0.58546177647E+03  0.00000000000E+00 0.  1.
         13    1    4    4    0    0 -0.44687462505E+02 -0.77665863351E+03  0.13191607481E+04  0.15314635787E+04  0.10566000000E+00 0. -1.
         -4    1    4    4    0  502  0.23705012067E+02  0.14402046148E+03 -0.97648463853E+02  0.17561048777E+03  0.00000000000E+00 0. -1.
<mgrwt>
<rscale>  2 0.11992007E+04</rscale>
<asrwt>0</asrwt>
<pdfrwt beam="1">  1       21 0.35245458E+00 0.12014492E+04</pdfrwt>
<pdfrwt beam="2">  1       21 0.10451075E+00 0.12014492E+04</pdfrwt>
<totfact> 0.38752707E+00</totfact>
</mgrwt>
</event>
<event>
 8    1  0.1094795E-005  0.1077618E+04  0.7818608E-02  0.8705289E-01
         21   -1    0    0  503  502  0.00000000000E+00  0.00000000000E+00  0.10961175313E+04  0.10961175313E+04  0.00000000000E+00 0. -1.
         21   -1    0    0  501  503 -0.00000000000E+00 -0.00000000000E+00 -0.10751906958E+04  0.10751906958E+04  0.00000000000E+00 0. -1.
    9000010    2    1    2  501    0 -0.22180576231E-01 -0.38095062125E+03  0.14917156809E+03  0.10860861883E+04  0.10060853221E+04 0.  0.
   -9000010    2    1    2    0  502  0.22180576231E-01  0.38095062125E+03 -0.12824473261E+03  0.10852220389E+04  0.10080361035E+04 0.  0.
        -13    1    3    3    0    0  0.41679090390E+03 -0.27218923504E+03  0.35227660773E+03  0.60983641804E+03  0.10566000000E+00 0.  1.
          4    1    3    3  501    0 -0.41681308448E+03 -0.10876138621E+03 -0.20310503964E+03  0.47624977023E+03  0.00000000000E+00 0.  1.
         13    1    4    4    0    0 -0.46502712027E+03  0.37947665421E+02 -0.19061059454E+03  0.50400660493E+03  0.10566000000E+00 0. -1.
         -4    1    4    4    0  502  0.46504930085E+03  0.34300295583E+03  0.62365861939E+02  0.58121543395E+03  0.00000000000E+00 0. -1.
<mgrwt>
<rscale>  2 0.10771614E+04</rscale>
<asrwt>0</asrwt>
<pdfrwt beam="1">  1       21 0.16863347E+00 0.10776178E+04</pdfrwt>
<pdfrwt beam="2">  1       21 0.16541395E+00 0.10776178E+04</pdfrwt>
<totfact> 0.23619459E+01</totfact>
</mgrwt>
</event>
<event>
 8    1  0.1094795E-005  0.1156169E+04  0.7818608E-02  0.8641210E-01
         21   -1    0    0  501  502  0.00000000000E+00  0.00000000000E+00  0.14059930105E+04  0.14059930105E+04  0.00000000000E+00 0. -1.
         21   -1    0    0  502  503 -0.00000000000E+00 -0.00000000000E+00 -0.96332109749E+03  0.96332109749E+03  0.00000000000E+00 0. -1.
   -9000010    2    1    2    0  503 -0.18848591065E+03 -0.55039820041E+03  0.66845523620E+02  0.11535956325E+04  0.99390615337E+03 0.  0.
    9000010    2    1    2  501    0  0.18848591065E+03  0.55039820041E+03  0.37582638940E+03  0.12157184755E+04  0.99913003120E+03 0.  0.
        -13    1    4    4    0    0  0.31284123789E+02  0.83171509892E+03  0.29943211676E+03  0.88452716515E+03  0.10566000000E+00 0.  1.
          4    1    4    4  501    0  0.15720178686E+03 -0.28131689851E+03  0.76394272640E+02  0.33119131038E+03  0.00000000000E+00 0.  1.
         13    1    3    3    0    0 -0.27828358762E+03  0.22981109136E+03  0.72972956778E+02  0.36821183636E+03  0.10566000000E+00 0. -1.
         -4    1    3    3    0  503  0.89797676973E+02 -0.78020929177E+03 -0.61274331587E+01  0.78538379611E+03  0.00000000000E+00 0. -1.
<mgrwt>
<rscale>  2 0.11550392E+04</rscale>
<asrwt>0</asrwt>
<pdfrwt beam="1">  1       21 0.21630662E+00 0.11561686E+04</pdfrwt>
<pdfrwt beam="2">  1       21 0.14820325E+00 0.11561686E+04</pdfrwt>
<totfact> 0.13703907E+01</totfact>
</mgrwt>
</event>
<event>
 8    1  0.1094795E-005  0.1284387E+04  0.7818608E-02  0.8560208E-01
         21   -1    0    0  503  502  0.00000000000E+00  0.00000000000E+00  0.10902144737E+04  0.10902144737E+04  0.00000000000E+00 0. -1.
         21   -1    0    0  501  503 -0.00000000000E+00 -0.00000000000E+00 -0.15145896249E+04  0.15145896249E+04  0.00000000000E+00 0. -1.
    9000010    2    1    2  501    0  0.15817525962E+03  0.68089750319E+03 -0.53324006112E+03  0.13158115989E+04  0.97896597403E+03 0.  0.
   -9000010    2    1    2    0  502 -0.15817525962E+03 -0.68089750319E+03  0.10886490990E+03  0.12889924997E+04  0.10775014028E+04 0.  0.
        -13    1    3    3    0    0  0.13448813687E+03 -0.24095889801E+03 -0.74394102020E+02  0.28580192978E+03  0.10566000000E+00 0.  1.
          4    1    3    3  501    0  0.23687122743E+02  0.92185640120E+03 -0.45884595910E+03  0.10300096691E+04  0.00000000000E+00 0.  1.
         13    1    4    4    0    0  0.18604854722E+03 -0.28459001218E+03 -0.42232945648E+03  0.54218789910E+03  0.10566000000E+00 0. -1.
         -4    1    4    4    0  502 -0.34422380684E+03 -0.39630749100E+03  0.53119436637E+03  0.74680460060E+03  0.00000000000E+00 0. -1.
<mgrwt>
<rscale>  2 0.12635170E+04</rscale>
<asrwt>0</asrwt>
<pdfrwt beam="1">  1       21 0.16772531E+00 0.12843871E+04</pdfrwt>
<pdfrwt beam="2">  1       21 0.23301379E+00 0.12843871E+04</pdfrwt>
<totfact> 0.67614371E+00</totfact>
</mgrwt>
</event>
<event>
 8    1  0.1094795E-005  0.1179028E+04  0.7818608E-02  0.8629135E-01
         21   -1    0    0  501  502  0.00000000000E+00  0.00000000000E+00  0.10062868339E+04  0.10062868339E+04  0.00000000000E+00 0.  1.
         21   -1    0    0  502  503 -0.00000000000E+00 -0.00000000000E+00 -0.14434704601E+04  0.14434704601E+04  0.00000000000E+00 0.  1.
   -9000010    2    1    2    0  503 -0.34984504436E+03  0.48515647993E+03 -0.54028446352E+03  0.12662302623E+04  0.97655691613E+03 0.  0.
    9000010    2    1    2  501    0  0.34984504436E+03 -0.48515647993E+03  0.10310083740E+03  0.11835270317E+04  0.10160403964E+04 0.  0.
        -13    1    4    4    0    0  0.61357685501E+03 -0.51321282811E+03  0.29882268395E+03  0.85390805802E+03  0.10566000000E+00 0.  1.
          4    1    4    4  501    0 -0.26373181066E+03  0.28056348176E+02 -0.19572184655E+03  0.32961897373E+03  0.00000000000E+00 0.  1.
         13    1    3    3    0    0 -0.63040594300E+03  0.37392721220E+03 -0.61331639786E+03  0.95571451179E+03  0.10566000000E+00 0. -1.
         -4    1    3    3    0  503  0.28056089865E+03  0.11122926774E+03  0.73031934342E+02  0.31051575046E+03  0.00000000000E+00 0. -1.
<mgrwt>
<rscale>  2 0.11704726E+04</rscale>
<asrwt>0</asrwt>
<pdfrwt beam="1">  1       21 0.15481336E+00 0.11790278E+04</pdfrwt>
<pdfrwt beam="2">  1       21 0.22207238E+00 0.11790278E+04</pdfrwt>
<totfact> 0.10774567E+01</totfact>
</mgrwt>
</event>
<event>
 8    1  0.1094795E-005  0.1083111E+04  0.7818608E-02  0.8703058E-01
         21   -1    0    0  503  502  0.00000000000E+00  0.00000000000E+00  0.11353229457E+04  0.11353229457E+04  0.00000000000E+00 0. -1.
         21   -1    0    0  501  503 -0.00000000000E+00 -0.00000000000E+00 -0.10224770626E+04  0.10224770626E+04  0.00000000000E+00 0. -1.
    9000010    2    1    2  501    0 -0.22381891925E+03  0.25010181987E+03  0.10200574589E+03  0.10746352071E+04  0.10157705583E+04 0.  0.
   -9000010    2    1    2    0  502  0.22381891925E+03 -0.25010181987E+03  0.10840137246E+02  0.10831648012E+04  0.10297973825E+04 0.  0.
        -13    1    3    3    0    0 -0.49513972370E+03  0.38170711601E+03 -0.19146312715E+03  0.65385151879E+03  0.10566000000E+00 0.  1.
          4    1    3    3  501    0  0.27132080445E+03 -0.13160529614E+03  0.29346887304E+03  0.42078368830E+03  0.00000000000E+00 0.  1.
         13    1    4    4    0    0  0.60357122426E+02 -0.18197881297E+03 -0.50372529794E+03  0.53897908823E+03  0.10566000000E+00 0. -1.
         -4    1    4    4    0  502  0.16346179683E+03 -0.68123006892E+02  0.51456543518E+03  0.54418571295E+03  0.00000000000E+00 0. -1.
<mgrwt>
<rscale>  2 0.10797632E+04</rscale>
<asrwt>0</asrwt>
<pdfrwt beam="1">  1       21 0.17466507E+00 0.10831106E+04</pdfrwt>
<pdfrwt beam="2">  1       21 0.15730416E+00 0.10831106E+04</pdfrwt>
<totfact> 0.24668942E+01</totfact>
</mgrwt>
</event>
<event>
 8    1  0.1094795E-005  0.1240996E+04  0.7818608E-02  0.8589529E-01
         21   -1    0    0  503  502  0.00000000000E+00  0.00000000000E+00  0.63661992725E+03  0.63661992725E+03  0.00000000000E+00 0. -1.
         21   -1    0    0  501  503 -0.00000000000E+00 -0.00000000000E+00 -0.22838103318E+04  0.22838103318E+04  0.00000000000E+00 0. -1.
    9000010    2    1    2  501    0 -0.71316877023E+03  0.87152287078E+02 -0.82823038254E+03  0.14335654129E+04  0.92354697260E+03 0.  0.
   -9000010    2    1    2    0  502  0.71316877023E+03 -0.87152287078E+02 -0.81896002204E+03  0.14868648462E+04  0.10118628055E+04 0.  0.
        -13    1    3    3    0    0  0.33304605978E+02 -0.29979984824E+03 -0.36529713865E+03  0.47374165582E+03  0.10566000000E+00 0.  1.
          4    1    3    3  501    0 -0.74647337621E+03  0.38695213532E+03 -0.46293324388E+03  0.95982375711E+03  0.00000000000E+00 0.  1.
         13    1    4    4    0    0  0.34334987584E+03 -0.29031320073E+03  0.11318961212E+03  0.46366236769E+03  0.10566000000E+00 0. -1.
         -4    1    4    4    0  502  0.36981889439E+03  0.20316091365E+03 -0.93214963416E+03  0.10232024785E+04  0.00000000000E+00 0. -1.
<mgrwt>
<rscale>  2 0.12228804E+04</rscale>
<asrwt>0</asrwt>
<pdfrwt beam="1">  1       21 0.97941527E-01 0.12409962E+04</pdfrwt>
<pdfrwt beam="2">  1       21 0.35135544E+00 0.12409962E+04</pdfrwt>
<totfact> 0.46453122E+00</totfact>
</mgrwt>
</event>
<event>
 8    1  0.1094795E-005  0.1262880E+04  0.7818608E-02  0.8565405E-01
         21   -1    0    0  503  502  0.00000000000E+00  0.00000000000E+00  0.20275901825E+04  0.20275901825E+04  0.00000000000E+00 0.  1.
         21   -1    0    0  501  503 -0.00000000000E+00 -0.00000000000E+00 -0.80994433769E+03  0.80994433769E+03  0.00000000000E+00 0.  1.
    9000010    2    1    2  501    0  0.73712796330E+03  0.76200808149E+02  0.30050216582E+03  0.12981404681E+04  0.10225961695E+04 0.  0.
   -9000010    2    1    2    0  502 -0.73712796330E+03 -0.76200808149E+02  0.91714367903E+03  0.15393940521E+04  0.98965515322E+03 0.  0.
        -13    1    3    3    0    0 -0.18025571519E+03  0.21803025661E+03  0.23461349639E+03  0.36752254286E+03  0.10566000000E+00 0.  1.
          4    1    3    3  501    0  0.91738367849E+03 -0.14182944846E+03  0.65888669435E+02  0.93061792524E+03  0.00000000000E+00 0.  1.
         13    1    4    4    0    0 -0.73166903893E+03 -0.16868370494E+03  0.14877350909E+03  0.76545891008E+03  0.10566000000E+00 0. -1.
         -4    1    4    4    0  502 -0.54589243699E+01  0.92482896795E+02  0.76837016993E+03  0.77393514205E+03  0.00000000000E+00 0. -1.
<mgrwt>
<rscale>  2 0.12561970E+04</rscale>
<asrwt>0</asrwt>
<pdfrwt beam="1">  1       21 0.31193695E+00 0.12628805E+04</pdfrwt>
<pdfrwt beam="2">  1       21 0.12460682E+00 0.12628805E+04</pdfrwt>
<totfact> 0.45410513E+00</totfact>
</mgrwt>
</event>
<event>
 8    1  0.1094795E-005  0.1090916E+04  0.7818608E-02  0.8698309E-01
         21   -1    0    0  501  502  0.00000000000E+00  0.00000000000E+00  0.13106767664E+04  0.13106767664E+04  0.00000000000E+00 0.  1.
         21   -1    0    0  502  503 -0.00000000000E+00 -0.00000000000E+00 -0.90209186970E+03  0.90209186970E+03  0.00000000000E+00 0.  1.
   -9000010    2    1    2    0  503  0.20306843256E+03 -0.32279163171E+03  0.76347846680E+02  0.10935839168E+04  0.10220888238E+04 0.  0.
    9000010    2    1    2  501    0 -0.20306843256E+03  0.32279163171E+03  0.33223704997E+03  0.11191847192E+04  0.99837956339E+03 0.  0.
        -13    1    4    4    0    0  0.50546761769E+02  0.45259614041E+03 -0.21394552711E+03  0.50316094958E+03  0.10566000000E+00 0.  1.
          4    1    4    4  501    0 -0.25361519433E+03 -0.12980450870E+03  0.54618257709E+03  0.61602376966E+03  0.00000000000E+00 0.  1.
         13    1    3    3    0    0  0.25051011635E+03  0.33986568754E+03 -0.17824053477E+02  0.42258929472E+03  0.10566000000E+00 0. -1.
         -4    1    3    3    0  503 -0.47441683791E+02 -0.66265731925E+03  0.94171900157E+02  0.67099462211E+03  0.00000000000E+00 0. -1.
<mgrwt>
<rscale>  2 0.10853275E+04</rscale>
<asrwt>0</asrwt>
<pdfrwt beam="1">  1       21 0.20164258E+00 0.10909156E+04</pdfrwt>
<pdfrwt beam="2">  1       21 0.13878336E+00 0.10909156E+04</pdfrwt>
<totfact> 0.21959385E+01</totfact>
</mgrwt>
</event>
<event>
 8    1  0.1094795E-005  0.1189311E+04  0.7818608E-02  0.8614661E-01
         21   -1    0    0  503  502  0.00000000000E+00  0.00000000000E+00  0.94784046776E+03  0.94784046776E+03  0.00000000000E+00 0.  1.
         21   -1    0    0  501  503 -0.00000000000E+00 -0.00000000000E+00 -0.19912435193E+04  0.19912435193E+04  0.00000000000E+00 0.  1.
    9000010    2    1    2  501    0  0.62250071287E+03  0.18215426650E+03 -0.12573447050E+04  0.17307155452E+04  0.99688177670E+03 0.  0.
   -9000010    2    1    2    0  502 -0.62250071287E+03 -0.18215426650E+03  0.21394165343E+03  0.12083684419E+04  0.99684298968E+03 0.  0.
        -13    1    3    3    0    0  0.22370464497E+03 -0.27831375541E+03 -0.27322953649E+02  0.35811851333E+03  0.10566000000E+00 0.  1.
          4    1    3    3  501    0  0.39879606790E+03  0.46046802191E+03 -0.12300217514E+04  0.13725970318E+04  0.00000000000E+00 0.  1.
         13    1    4    4    0    0 -0.27545804258E+03 -0.25385144703E+03  0.58539825655E+03  0.69498835984E+03  0.10566000000E+00 0. -1.
         -4    1    4    4    0  502 -0.34704267028E+03  0.71697180528E+02 -0.37145660312E+03  0.51338008210E+03  0.00000000000E+00 0. -1.
<mgrwt>
<rscale>  2 0.11893028E+04</rscale>
<asrwt>0</asrwt>
<pdfrwt beam="1">  1       21 0.14582161E+00 0.11893110E+04</pdfrwt>
<pdfrwt beam="2">  1       21 0.30634515E+00 0.11893110E+04</pdfrwt>
<totfact> 0.31778548E+00</totfact>
</mgrwt>
</event>
<event>
 8    1  0.1094795E-005  0.1396490E+04  0.7818608E-02  0.8475065E-01
         21   -1    0    0  503  502  0.00000000000E+00  0.00000000000E+00  0.17414815929E+04  0.17414815929E+04  0.00000000000E+00 0.  1.
         21   -1    0    0  501  503 -0.00000000000E+00 -0.00000000000E+00 -0.11732954838E+04  0.11732954838E+04  0.00000000000E+00 0.  1.
    9000010    2    1    2  501    0  0.73506995128E+03  0.58949876410E+03  0.63944409839E+03  0.15164700462E+04  0.10014769194E+04 0.  0.
   -9000010    2    1    2    0  502 -0.73506995128E+03 -0.58949876410E+03 -0.71257989254E+02  0.13983070304E+04  0.10307027817E+04 0.  0.
        -13    1    3    3    0    0  0.81650135833E+03  0.73014296422E+03  0.74317816927E+03  0.13236680168E+04  0.10566000000E+00 0.  1.
          4    1    3    3  501    0 -0.81431407052E+02 -0.14064420012E+03 -0.10373407088E+03  0.19280202941E+03  0.00000000000E+00 0.  1.
         13    1    4    4    0    0  0.15145739902E+03 -0.47968393683E+03 -0.35848242765E+02  0.50430261812E+03  0.10566000000E+00 0. -1.
         -4    1    4    4    0  502 -0.88652735030E+03 -0.10981482727E+03 -0.35409746488E+02  0.89400441233E+03  0.00000000000E+00 0. -1.
<mgrwt>
<rscale>  2 0.13911018E+04</rscale>
<asrwt>0</asrwt>
<pdfrwt beam="1">  1       21 0.26792024E+00 0.13964902E+04</pdfrwt>
<pdfrwt beam="2">  1       21 0.18050700E+00 0.13964902E+04</pdfrwt>
<totfact> 0.28808599E+00</totfact>
</mgrwt>
</event>
<event>
 8    1  0.1094795E-005  0.1088460E+04  0.7818608E-02  0.8695950E-01
         21   -1    0    0  501  502  0.00000000000E+00  0.00000000000E+00  0.21503055135E+04  0.21503055135E+04  0.00000000000E+00 0. -1.
         21   -1    0    0  502  503 -0.00000000000E+00 -0.00000000000E+00 -0.56037076467E+03  0.56037076467E+03  0.00000000000E+00 0. -1.
   -9000010    2    1    2    0  503 -0.22349508314E+03 -0.35965994045E+03  0.97764851253E+03  0.14630586884E+04  0.10027157059E+04 0.  0.
    9000010    2    1    2  501    0  0.22349508314E+03  0.35965994045E+03  0.61228623635E+03  0.12476175898E+04  0.10011742557E+04 0.  0.
        -13    1    4    4    0    0 -0.89597810718E+01  0.43319337657E+02 -0.27438644992E+03  0.27792944744E+03  0.10566000000E+00 0.  1.
          4    1    4    4  501    0  0.23245486422E+03  0.31634060279E+03  0.88667268626E+03  0.96968814236E+03  0.00000000000E+00 0.  1.
         13    1    3    3    0    0 -0.30529034343E+03 -0.26931354769E+03 -0.65914276858E+02  0.41240354487E+03  0.10566000000E+00 0. -1.
         -4    1    3    3    0  503  0.81795260283E+02 -0.90346392756E+02  0.10435627894E+04  0.10506551436E+04  0.00000000000E+00 0. -1.
<mgrwt>
<rscale>  2 0.10881044E+04</rscale>
<asrwt>0</asrwt>
<pdfrwt beam="1">  1       21 0.33081623E+00 0.10884595E+04</pdfrwt>
<pdfrwt beam="2">  1       21 0.86210888E-01 0.10884595E+04</pdfrwt>
<totfact> 0.92651867E+00</totfact>
</mgrwt>
</event>
<event>
 8    1  0.1094795E-005  0.1568321E+04  0.7818608E-02  0.8373966E-01
         21   -1    0    0  503  502  0.00000000000E+00  0.00000000000E+00  0.29487513827E+04  0.29487513827E+04  0.00000000000E+00 0.  1.
         21   -1    0    0  501  503 -0.00000000000E+00 -0.00000000000E+00 -0.10742900262E+04  0.10742900262E+04  0.00000000000E+00 0. -1.
    9000010    2    1    2  501    0 -0.11608001077E+04  0.24114242501E+03 -0.29941617356E+02  0.15686067119E+04  0.10266566890E+04 0.  0.
   -9000010    2    1    2    0  502  0.11608001077E+04 -0.24114242501E+03  0.19044029738E+04  0.24544346969E+04  0.99593796788E+03 0.  0.
        -13    1    3    3    0    0 -0.18758880545E+03  0.39420522304E+03  0.29993844429E+03  0.52967008536E+03  0.10566000000E+00 0.  1.
          4    1    3    3  501    0 -0.97321130224E+03 -0.15306279803E+03 -0.32988006164E+03  0.10389366266E+04  0.00000000000E+00 0.  1.
         13    1    4    4    0    0  0.13158418626E+04 -0.19504114313E+03  0.18599666943E+04  0.22866912712E+04  0.10566000000E+00 0. -1.
         -4    1    4    4    0  502 -0.15504175487E+03 -0.46101281878E+02  0.44436279512E+02  0.16774342575E+03  0.00000000000E+00 0. -1.
<mgrwt>
<rscale>  2 0.15633132E+04</rscale>
<asrwt>0</asrwt>
<pdfrwt beam="1">  1       21 0.45365406E+00 0.15683209E+04</pdfrwt>
<pdfrwt beam="2">  1       21 0.16527539E+00 0.15683209E+04</pdfrwt>
<totfact> 0.18678398E-01</totfact>
</mgrwt>
</event>
<event>
 8    1  0.1094795E-005  0.2309913E+04  0.7818608E-02  0.8052816E-01
         21   -1    0    0  503  502  0.00000000000E+00  0.00000000000E+00  0.15288132999E+04  0.15288132999E+04  0.00000000000E+00 0. -1.
         21   -1    0    0  501  503 -0.00000000000E+00 -0.00000000000E+00 -0.36706600484E+04  0.36706600484E+04  0.00000000000E+00 0.  1.
    9000010    2    1    2  501    0 -0.46166916181E+03 -0.20266347245E+04 -0.16495582946E+04  0.28376843378E+04  0.10054964507E+04 0.  0.
   -9000010    2    1    2    0  502  0.46166916181E+03  0.20266347245E+04 -0.49228845396E+03  0.23617890106E+04  0.10076272560E+04 0.  0.
        -13    1    3    3    0    0 -0.61431297943E+03 -0.90946562686E+03 -0.43539227025E+03  0.11807093644E+04  0.10566000000E+00 0.  1.
          4    1    3    3  501    0  0.15264381762E+03 -0.11171690976E+04 -0.12141660243E+04  0.16569749733E+04  0.00000000000E+00 0.  1.
         13    1    4    4    0    0 -0.29063174507E+02  0.44870246747E+03  0.28839296525E+03  0.53418076154E+03  0.10566000000E+00 0. -1.
         -4    1    4    4    0  502  0.49073233631E+03  0.15779322570E+04 -0.78068141921E+03  0.18276082490E+04  0.00000000000E+00 0. -1.
<mgrwt>
<rscale>  2 0.23096811E+04</rscale>
<asrwt>0</asrwt>
<pdfrwt beam="1">  1       21 0.23520205E+00 0.23099133E+04</pdfrwt>
<pdfrwt beam="2">  1       21 0.56471693E+00 0.23099133E+04</pdfrwt>
<totfact> 0.76246146E-03</totfact>
</mgrwt>
</event>
<event>
 8    1  0.1094795E-005  0.1100533E+04  0.7818608E-02  0.8718101E-01
         21   -1    0    0  501  502  0.00000000000E+00  0.00000000000E+00  0.22350708696E+04  0.22350708696E+04  0.00000000000E+00 0.  1.
         21   -1    0    0  502  503 -0.00000000000E+00 -0.00000000000E+00 -0.47328057342E+03  0.47328057342E+03  0.00000000000E+00 0.  1.
   -9000010    2    1    2    0  503 -0.13406015937E+03 -0.16688610743E+03  0.90425938077E+03  0.14243801056E+04  0.10795140380E+04 0.  0.
    9000010    2    1    2  501    0  0.13406015937E+03  0.16688610743E+03  0.85753091539E+03  0.12839713374E+04  0.93134312972E+03 0.  0.
        -13    1    4    4    0    0  0.42904477879E+03 -0.19739831510E+01  0.84046766679E+03  0.94364677125E+03  0.10566000000E+00 0.  1.
          4    1    4    4  501    0 -0.29498461942E+03  0.16886009058E+03  0.17063248599E+02  0.34032456616E+03  0.00000000000E+00 0.  1.
         13    1    3    3    0    0 -0.61768935014E+02 -0.61432922169E+03  0.35481660629E+03  0.71211700529E+03  0.10566000000E+00 0. -1.
         -4    1    3    3    0  503 -0.72291224358E+02  0.44744311426E+03  0.54944277448E+03  0.71226310030E+03  0.00000000000E+00 0. -1.
<mgrwt>
<rscale>  2 0.10623669E+04</rscale>
<asrwt>0</asrwt>
<pdfrwt beam="1">  1       21 0.34385705E+00 0.11005334E+04</pdfrwt>
<pdfrwt beam="2">  1       21 0.72812397E-01 0.11005334E+04</pdfrwt>
<totfact> 0.11314110E+01</totfact>
</mgrwt>
</event>
<event>
 8    1  0.1094795E-005  0.1196905E+04  0.7818608E-02  0.8624314E-01
         21   -1    0    0  501  502  0.00000000000E+00  0.00000000000E+00  0.16182346220E+04  0.16182346220E+04  0.00000000000E+00 0.  1.
         21   -1    0    0  502  503 -0.00000000000E+00 -0.00000000000E+00 -0.87854582739E+03  0.87854582739E+03  0.00000000000E+00 0.  1.
   -9000010    2    1    2    0  503  0.47354857117E+03 -0.27871993944E+03  0.58603520717E+02  0.11196606056E+04  0.97379281427E+03 0.  0.
    9000010    2    1    2  501    0 -0.47354857117E+03  0.27871993944E+03  0.68108527388E+03  0.13771198438E+04  0.10633197356E+04 0.  0.
        -13    1    4    4    0    0 -0.68009612892E+03 -0.16102521330E+03  0.30417359897E+03  0.76222139393E+03  0.10566000000E+00 0.  1.
          4    1    4    4  501    0  0.20654755775E+03  0.43974515274E+03  0.37691167491E+03  0.61489844987E+03  0.00000000000E+00 0.  1.
         13    1    3    3    0    0  0.42380026934E+03 -0.10898766571E+03 -0.42176838029E+03  0.60776110220E+03  0.10566000000E+00 0. -1.
         -4    1    3    3    0  503  0.49748301830E+02 -0.16973227373E+03  0.48037190100E+03  0.51189950337E+03  0.00000000000E+00 0. -1.
<mgrwt>
<rscale>  2 0.11767047E+04</rscale>
<asrwt>0</asrwt>
<pdfrwt beam="1">  1       21 0.24895917E+00 0.11969051E+04</pdfrwt>
<pdfrwt beam="2">  1       21 0.13516090E+00 0.11969051E+04</pdfrwt>
<totfact> 0.10253075E+01</totfact>
</mgrwt>
</event>
<event>
 8    1  0.1094795E-005  0.1014664E+04  0.7818608E-02  0.8762216E-01
         21   -1    0    0  503  502  0.00000000000E+00  0.00000000000E+00  0.14979493284E+04  0.14979493284E+04  0.00000000000E+00 0. -1.
         21   -1    0    0  501  503 -0.00000000000E+00 -0.00000000000E+00 -0.68990365869E+03  0.68990365869E+03  0.00000000000E+00 0. -1.
    9000010    2    1    2  501    0  0.97091656084E+02  0.70792504040E+02  0.30017493894E+03  0.10581345831E+04  0.10075244085E+04 0.  0.
   -9000010    2    1    2    0  502 -0.97091656084E+02 -0.70792504040E+02  0.50787073082E+03  0.11297184041E+04  0.10019444221E+04 0.  0.
        -13    1    3    3    0    0  0.22222729893E+03 -0.43751957134E+03  0.12943129896E+03  0.50750450245E+03  0.10566000000E+00 0.  1.
          4    1    3    3  501    0 -0.12513564284E+03  0.50831207538E+03  0.17074363998E+03  0.55063008062E+03  0.00000000000E+00 0.  1.
         13    1    4    4    0    0 -0.87724078261E+02 -0.73807058736E+01 -0.30340277735E+03  0.31591651618E+03  0.10566000000E+00 0. -1.
         -4    1    4    4    0  502 -0.93675778237E+01 -0.63411798166E+02  0.81127350817E+03  0.81380188788E+03  0.00000000000E+00 0. -1.
<mgrwt>
<rscale>  2 0.10132764E+04</rscale>
<asrwt>0</asrwt>
<pdfrwt beam="1">  1       21 0.23045374E+00 0.10146644E+04</pdfrwt>
<pdfrwt beam="2">  1       21 0.10613903E+00 0.10146644E+04</pdfrwt>
<totfact> 0.28713084E+01</totfact>
</mgrwt>
</event>
<event>
 8    1  0.1094795E-005  0.1134313E+04  0.7818608E-02  0.8660016E-01
         21   -1    0    0  501  502  0.00000000000E+00  0.00000000000E+00  0.60386657686E+03  0.60386657686E+03  0.00000000000E+00 0.  1.
         21   -1    0    0  502  503 -0.00000000000E+00 -0.00000000000E+00 -0.21098718075E+04  0.21098718075E+04  0.00000000000E+00 0.  1.
   -9000010    2    1    2    0  503  0.44039820043E+03 -0.24660752365E+03 -0.73559630421E+03  0.13425359122E+04  0.10032621329E+04 0.  0.
    9000010    2    1    2  501    0 -0.44039820043E+03  0.24660752365E+03 -0.77040892645E+03  0.13712024721E+04  0.10158250144E+04 0.  0.
        -13    1    4    4    0    0 -0.55744836247E+03  0.32370166746E+03 -0.60342414017E+02  0.64743545194E+03  0.10566000000E+00 0.  1.
          4    1    4    4  501    0  0.11705016204E+03 -0.77094143807E+02 -0.71006651243E+03  0.72376702019E+03  0.00000000000E+00 0.  1.
         13    1    3    3    0    0  0.57897106098E+03 -0.13009002141E+03 -0.91310395904E+03  0.10889856539E+04  0.10566000000E+00 0. -1.
         -4    1    3    3    0  503 -0.13857286055E+03 -0.11651750225E+03  0.17750765482E+03  0.25355025839E+03  0.00000000000E+00 0. -1.
<mgrwt>
<rscale>  2 0.11314935E+04</rscale>
<asrwt>0</asrwt>
<pdfrwt beam="1">  1       21 0.92902548E-01 0.11343131E+04</pdfrwt>
<pdfrwt beam="2">  1       21 0.32459567E+00 0.11343131E+04</pdfrwt>
<totfact> 0.83777532E+00</totfact>
</mgrwt>
</event>
<event>
 8    1  0.1094795E-005  0.1155037E+04  0.7818608E-02  0.8641827E-01
         21   -1    0    0  503  502  0.00000000000E+00  0.00000000000E+00  0.18689666575E+04  0.18689666575E+04  0.00000000000E+00 0.  1.
         21   -1    0    0  501  503 -0.00000000000E+00 -0.00000000000E+00 -0.72016714177E+03  0.72016714177E+03  0.00000000000E+00 0.  1.
    9000010    2    1    2  501    0  0.27769146947E+03  0.53254633749E+03  0.43493943917E+03  0.12313024280E+04  0.98296246094E+03 0.  0.
   -9000010    2    1    2    0  502 -0.27769146947E+03 -0.53254633749E+03  0.71386007653E+03  0.13578313713E+04  0.98660613729E+03 0.  0.
        -13    1    3    3    0    0  0.56789654666E+03  0.88109420009E+02  0.52502197767E+02  0.57708426554E+03  0.10566000000E+00 0.  1.
          4    1    3    3  501    0 -0.29020507719E+03  0.44443691748E+03  0.38243724141E+03  0.65421816244E+03  0.00000000000E+00 0.  1.
         13    1    4    4    0    0  0.27526451464E+03 -0.49971606444E+03  0.51712269146E+03  0.77000168004E+03  0.10566000000E+00 0. -1.
         -4    1    4    4    0  502 -0.55295598412E+03 -0.32830273045E+02  0.19673738507E+03  0.58782969122E+03  0.00000000000E+00 0. -1.
<mgrwt>
<rscale>  2 0.11542582E+04</rscale>
<asrwt>0</asrwt>
<pdfrwt beam="1">  1       21 0.28753333E+00 0.11550367E+04</pdfrwt>
<pdfrwt beam="2">  1       21 0.11079495E+00 0.11550367E+04</pdfrwt>
<totfact> 0.95829309E+00</totfact>
</mgrwt>
</event>
<event>
 8    1  0.1094795E-005  0.1208466E+04  0.7818608E-02  0.8630094E-01
         21   -1    0    0  503  502  0.00000000000E+00  0.00000000000E+00  0.38749666315E+04  0.38749666315E+04  0.00000000000E+00 0. -1.
         21   -1    0    0  501  503 -0.00000000000E+00 -0.00000000000E+00 -0.42543292580E+03  0.42543292580E+03  0.00000000000E+00 0. -1.
    9000010    2    1    2  501    0 -0.54170889041E+02  0.35936370878E+03  0.62864957226E+03  0.12315598002E+04  0.99471729467E+03 0.  0.
   -9000010    2    1    2    0  502  0.54170889041E+02 -0.35936370878E+03  0.28208841334E+04  0.30688397571E+04  0.11525247937E+04 0.  0.
        -13    1    3    3    0    0 -0.50206918160E+03  0.11288437053E+03  0.46823571444E+03  0.69574495302E+03  0.10566000000E+00 0.  1.
          4    1    3    3  501    0  0.44789829255E+03  0.24647933825E+03  0.16041385783E+03  0.53581484716E+03  0.00000000000E+00 0.  1.
         13    1    4    4    0    0 -0.41206862343E+03 -0.23061275510E+03  0.23385780351E+04  0.23857766095E+04  0.10566000000E+00 0. -1.
         -4    1    4    4    0  502  0.46623951247E+03 -0.12875095368E+03  0.48230609830E+03  0.68306314753E+03  0.00000000000E+00 0. -1.
<mgrwt>
<rscale>  2 0.11692373E+04</rscale>
<asrwt>0</asrwt>
<pdfrwt beam="1">  1       21 0.59614869E+00 0.12084660E+04</pdfrwt>
<pdfrwt beam="2">  1       21 0.65451222E-01 0.12084660E+04</pdfrwt>
<totfact> 0.23273837E-01</totfact>
</mgrwt>
</event>
<event>
 8    1  0.1094795E-005  0.1212206E+04  0.7818608E-02  0.8598046E-01
         21   -1    0    0  501  502  0.00000000000E+00  0.00000000000E+00  0.72980157458E+03  0.72980157458E+03  0.00000000000E+00 0. -1.
         21   -1    0    0  502  503 -0.00000000000E+00 -0.00000000000E+00 -0.20345096250E+04  0.20345096250E+04  0.00000000000E+00 0. -1.
   -9000010    2    1    2    0  503 -0.27157856640E+03  0.63669654834E+03 -0.81111710462E+03  0.14585456937E+04  0.99514178422E+03 0.  0.
    9000010    2    1    2  501    0  0.27157856640E+03 -0.63669654834E+03 -0.49359094582E+03  0.13057655059E+04  0.99108734344E+03 0.  0.
        -13    1    4    4    0    0 -0.22834088725E+03 -0.15027360420E+03 -0.54152451888E+03  0.60660574727E+03  0.10566000000E+00 0.  1.
          4    1    4    4  501    0  0.49991945365E+03 -0.48642294414E+03  0.47933573055E+02  0.69915975868E+03  0.00000000000E+00 0.  1.
         13    1    3    3    0    0 -0.34977807932E+02  0.10746072426E+03 -0.86866062438E+03  0.87598090494E+03  0.10566000000E+00 0. -1.
         -4    1    3    3    0  503 -0.23660075847E+03  0.52923582408E+03  0.57543519753E+02  0.58256478873E+03  0.00000000000E+00 0. -1.
<mgrwt>
<rscale>  2 0.12113741E+04</rscale>
<asrwt>0</asrwt>
<pdfrwt beam="1">  1       21 0.11227717E+00 0.12122065E+04</pdfrwt>
<pdfrwt beam="2">  1       21 0.31300148E+00 0.12122065E+04</pdfrwt>
<totfact> 0.60309095E+00</totfact>
</mgrwt>
</event>
<event>
 8    1  0.1094795E-005  0.1100197E+04  0.7818608E-02  0.8687670E-01
         21   -1    0    0  503  502  0.00000000000E+00  0.00000000000E+00  0.91896449495E+03  0.91896449495E+03  0.00000000000E+00 0.  1.
         21   -1    0    0  501  503 -0.00000000000E+00 -0.00000000000E+00 -0.13223654645E+04  0.13223654645E+04  0.00000000000E+00 0.  1.
    9000010    2    1    2  501    0 -0.17282730319E+03  0.40088853880E+03 -0.79089412847E+02  0.11030363622E+04  0.10098778063E+04 0.  0.
   -9000010    2    1    2    0  502  0.17282730319E+03 -0.40088853880E+03 -0.32431155666E+03  0.11382935973E+04  0.99997671499E+03 0.  0.
        -13    1    3    3    0    0  0.36021663440E+03  0.25591051349E+03  0.19896475583E+03  0.48459591397E+03  0.10566000000E+00 0.  1.
          4    1    3    3  501    0 -0.53304393759E+03  0.14497802532E+03 -0.27805416868E+03  0.61844044818E+03  0.00000000000E+00 0.  1.
         13    1    4    4    0    0 -0.16404527373E+03  0.96929534091E+02  0.24501285417E+03  0.31038282215E+03  0.10566000000E+00 0. -1.
         -4    1    4    4    0  502  0.33687257692E+03 -0.49781807289E+03 -0.56932441083E+03  0.82791077512E+03  0.00000000000E+00 0. -1.
<mgrwt>
<rscale>  2 0.10979199E+04</rscale>
<asrwt>0</asrwt>
<pdfrwt beam="1">  1       21 0.14137915E+00 0.11001973E+04</pdfrwt>
<pdfrwt beam="2">  1       21 0.20344084E+00 0.11001973E+04</pdfrwt>
<totfact> 0.20080055E+01</totfact>
</mgrwt>
</event>
<event>
 8    1  0.1094795E-005  0.1139010E+04  0.7818608E-02  0.8661457E-01
         21   -1    0    0  503  502  0.00000000000E+00  0.00000000000E+00  0.34038326561E+04  0.34038326561E+04  0.00000000000E+00 0. -1.
         21   -1    0    0  501  503 -0.00000000000E+00 -0.00000000000E+00 -0.37575161883E+03  0.37575161883E+03  0.00000000000E+00 0. -1.
    9000010    2    1    2  501    0  0.27399729843E+03  0.46308869990E+03  0.17926665077E+04  0.21239108858E+04  0.10039016781E+04 0.  0.
   -9000010    2    1    2    0  502 -0.27399729843E+03 -0.46308869990E+03  0.12354145296E+04  0.16556733892E+04  0.96201852801E+03 0.  0.
        -13    1    3    3    0    0  0.17412818445E+03 -0.31193973520E+03  0.53909424517E+03  0.64672222736E+03  0.10566000000E+00 0.  1.
          4    1    3    3  501    0  0.99869113971E+02  0.77502843510E+03  0.12535722625E+04  0.14771886584E+04  0.00000000000E+00 0.  1.
         13    1    4    4    0    0 -0.10118602611E+02 -0.68929043025E+03  0.10648516278E+04  0.12685159375E+04  0.10566000000E+00 0. -1.
         -4    1    4    4    0  502 -0.26387869581E+03  0.22620173035E+03  0.17056290181E+03  0.38715745168E+03  0.00000000000E+00 0. -1.
<mgrwt>
<rscale>  2 0.11297126E+04</rscale>
<asrwt>0</asrwt>
<pdfrwt beam="1">  1       21 0.52366654E+00 0.11390102E+04</pdfrwt>
<pdfrwt beam="2">  1       21 0.57807944E-01 0.11390102E+04</pdfrwt>
<totfact> 0.10748274E+00</totfact>
</mgrwt>
</event>
<event>
 8    1  0.1094795E-005  0.1220648E+04  0.7818608E-02  0.8593805E-01
         21   -1    0    0  503  502  0.00000000000E+00  0.00000000000E+00  0.78350865561E+03  0.78350865561E+03  0.00000000000E+00 0.  1.
         21   -1    0    0  501  503 -0.00000000000E+00 -0.00000000000E+00 -0.20524490204E+04  0.20524490204E+04  0.00000000000E+00 0.  1.
    9000010    2    1    2  501    0  0.41564323148E+02  0.69111774038E+03 -0.22643645243E+03  0.12414728029E+04  0.10052909675E+04 0.  0.
   -9000010    2    1    2    0  502 -0.41564323148E+02 -0.69111774038E+03 -0.10425039123E+04  0.15944848731E+04  0.98802645675E+03 0.  0.
        -13    1    3    3    0    0 -0.32867191741E+03  0.71482924673E+03 -0.33470150215E+03  0.85500361869E+03  0.10566000000E+00 0.  1.
          4    1    3    3  501    0  0.37023624055E+03 -0.23711506348E+02  0.10826504972E+03  0.38646918421E+03  0.00000000000E+00 0.  1.
         13    1    4    4    0    0 -0.41672641214E+03 -0.48490067081E+03 -0.23624207700E+03  0.68161564920E+03  0.10566000000E+00 0. -1.
         -4    1    4    4    0  502  0.37516208900E+03 -0.20621706957E+03 -0.80626183532E+03  0.91286922388E+03  0.00000000000E+00 0. -1.
<mgrwt>
<rscale>  2 0.12170876E+04</rscale>
<asrwt>0</asrwt>
<pdfrwt beam="1">  1       21 0.12053980E+00 0.12206479E+04</pdfrwt>
<pdfrwt beam="2">  1       21 0.31576138E+00 0.12206479E+04</pdfrwt>
<totfact> 0.47289966E+00</totfact>
</mgrwt>
</event>
<event>
 8    1  0.1094795E-005  0.1131287E+04  0.7818608E-02  0.8661727E-01
         21   -1    0    0  503  502  0.00000000000E+00  0.00000000000E+00  0.13634580240E+04  0.13634580240E+04  0.00000000000E+00 0. -1.
         21   -1    0    0  501  503 -0.00000000000E+00 -0.00000000000E+00 -0.15825251074E+04  0.15825251074E+04  0.00000000000E+00 0. -1.
    9000010    2    1    2  501    0 -0.52803561113E+03 -0.60188739682E+02 -0.10538983996E+04  0.15461282221E+04  0.99868230761E+03 0.  0.
   -9000010    2    1    2    0  502  0.52803561113E+03  0.60188739682E+02  0.83483131615E+03  0.13998549094E+04  0.99005360958E+03 0.  0.
        -13    1    3    3    0    0 -0.67264284778E+03  0.29570487525E+03 -0.79685477586E+03  0.10839129665E+04  0.10566000000E+00 0.  1.
          4    1    3    3  501    0  0.14460723665E+03 -0.35589361493E+03 -0.25704362370E+03  0.46221525561E+03  0.00000000000E+00 0.  1.
         13    1    4    4    0    0  0.76686853099E+03 -0.14184886141E+03  0.43769207025E+03  0.89430576585E+03  0.10566000000E+00 0. -1.
         -4    1    4    4    0  502 -0.23883291987E+03  0.20203760109E+03  0.39713924590E+03  0.50554914351E+03  0.00000000000E+00 0. -1.
<mgrwt>
<rscale>  2 0.11293799E+04</rscale>
<asrwt>0</asrwt>
<pdfrwt beam="1">  1       21 0.20976277E+00 0.11312872E+04</pdfrwt>
<pdfrwt beam="2">  1       21 0.24346540E+00 0.11312872E+04</pdfrwt>
<totfact> 0.26889703E+00</totfact>
</mgrwt>
</event>
<event>
 8    1  0.1094795E-005  0.1051571E+04  0.7818608E-02  0.8731118E-01
         21   -1    0    0  503  502  0.00000000000E+00  0.00000000000E+00  0.12321520145E+04  0.12321520145E+04  0.00000000000E+00 0. -1.
         21   -1    0    0  501  503 -0.00000000000E+00 -0.00000000000E+00 -0.88636391188E+03  0.88636391188E+03  0.00000000000E+00 0. -1.
    9000010    2    1    2  501    0  0.28260105782E+03 -0.34091205606E+02  0.22901324825E+03  0.10762192427E+04  0.10123118207E+04 0.  0.
   -9000010    2    1    2    0  502 -0.28260105782E+03  0.34091205606E+02  0.11677485437E+03  0.10422966837E+04  0.99585161648E+03 0.  0.
        -13    1    3    3    0    0  0.65154244729E+02  0.54106408093E+02 -0.39790868405E+03  0.40682171895E+03  0.10566000000E+00 0.  1.
          4    1    3    3  501    0  0.21744681309E+03 -0.88197613699E+02  0.62692193229E+03  0.66939752373E+03  0.00000000000E+00 0.  1.
         13    1    4    4    0    0 -0.19941035625E+03  0.46420100507E+03  0.27658786272E+03  0.57597562470E+03  0.10566000000E+00 0. -1.
         -4    1    4    4    0  502 -0.83190701574E+02 -0.43010979946E+03 -0.15981300835E+03  0.46632105899E+03  0.00000000000E+00 0. -1.
<mgrwt>
<rscale>  2 0.10475890E+04</rscale>
<asrwt>0</asrwt>
<pdfrwt beam="1">  1       21 0.18956185E+00 0.10515706E+04</pdfrwt>
<pdfrwt beam="2">  1       21 0.13636368E+00 0.10515706E+04</pdfrwt>
<totfact> 0.29053011E+01</totfact>
</mgrwt>
</event>
<event>
 8    1  0.1094795E-005  0.1141064E+04  0.7818608E-02  0.8658146E-01
         21   -1    0    0  503  502  0.00000000000E+00  0.00000000000E+00  0.11547315078E+04  0.11547315078E+04  0.00000000000E+00 0. -1.
         21   -1    0    0  501  503 -0.00000000000E+00 -0.00000000000E+00 -0.12438199673E+04  0.12438199673E+04  0.00000000000E+00 0. -1.
    9000010    2    1    2  501    0 -0.35239348474E+03 -0.44143310731E+03 -0.45276235748E+03  0.12009349320E+04  0.95823097540E+03 0.  0.
   -9000010    2    1    2    0  502  0.35239348474E+03  0.44143310731E+03  0.36367389797E+03  0.11976165431E+04  0.99145465051E+03 0.  0.
        -13    1    3    3    0    0 -0.40494994606E+03  0.33138647647E+02  0.14899420438E+03  0.43276080331E+03  0.10566000000E+00 0.  1.
          4    1    3    3  501    0  0.52556461320E+02 -0.47457175496E+03 -0.60175656186E+03  0.76817412868E+03  0.00000000000E+00 0.  1.
         13    1    4    4    0    0 -0.34354305790E+03  0.64307227481E+02  0.10999301198E+03  0.36640923294E+03  0.10566000000E+00 0. -1.
         -4    1    4    4    0  502  0.69593654263E+03  0.37712587983E+03  0.25368088600E+03  0.83120731020E+03  0.00000000000E+00 0. -1.
<mgrwt>
<rscale>  2 0.11338084E+04</rscale>
<asrwt>0</asrwt>
<pdfrwt beam="1">  1       21 0.17765100E+00 0.11410638E+04</pdfrwt>
<pdfrwt beam="2">  1       21 0.19135692E+00 0.11410638E+04</pdfrwt>
<totfact> 0.12000289E+01</totfact>
</mgrwt>
</event>
<event>
 8    1  0.1094795E-005  0.1046468E+04  0.7818608E-02  0.8733168E-01
         21   -1    0    0  503  502  0.00000000000E+00  0.00000000000E+00  0.91234903501E+03  0.91234903501E+03  0.00000000000E+00 0. -1.
         21   -1    0    0  501  503 -0.00000000000E+00 -0.00000000000E+00 -0.12015150570E+04  0.12015150570E+04  0.00000000000E+00 0. -1.
    9000010    2    1    2  501    0  0.20778426881E+03  0.19945910174E+03 -0.22338637483E+03  0.10700449326E+04  0.10060499241E+04 0.  0.
   -9000010    2    1    2    0  502 -0.20778426881E+03 -0.19945910174E+03 -0.65779647151E+02  0.10438191594E+04  0.10011359747E+04 0.  0.
        -13    1    3    3    0    0 -0.17506924177E+02 -0.28982490156E+03 -0.40787556608E+03  0.50066700963E+03  0.10566000000E+00 0.  1.
          4    1    3    3  501    0  0.22529119299E+03  0.48928400330E+03  0.18448919125E+03  0.56937792301E+03  0.00000000000E+00 0.  1.
         13    1    4    4    0    0  0.36557467464E+03  0.81408003874E+02  0.93025052694E+02  0.38590902740E+03  0.10566000000E+00 0. -1.
         -4    1    4    4    0  502 -0.57335894345E+03 -0.28086710561E+03 -0.15880469984E+03  0.65791013197E+03  0.00000000000E+00 0. -1.
<mgrwt>
<rscale>  2 0.10452849E+04</rscale>
<asrwt>0</asrwt>
<pdfrwt beam="1">  1       21 0.14036139E+00 0.10464677E+04</pdfrwt>
<pdfrwt beam="2">  1       21 0.18484847E+00 0.10464677E+04</pdfrwt>
<totfact> 0.29123952E+01</totfact>
</mgrwt>
</event>
<event>
 8    1  0.1094795E-005  0.1173343E+04  0.7818608E-02  0.8635567E-01
         21   -1    0    0  503  502  0.00000000000E+00  0.00000000000E+00  0.10893828699E+04  0.10893828699E+04  0.00000000000E+00 0. -1.
         21   -1    0    0  501  503 -0.00000000000E+00 -0.00000000000E+00 -0.12171143788E+04  0.12171143788E+04  0.00000000000E+00 0. -1.
    9000010    2    1    2  501    0  0.52841687823E+03  0.75297050859E+02 -0.50331990778E+02  0.11306039301E+04  0.99540840586E+03 0.  0.
   -9000010    2    1    2    0  502 -0.52841687823E+03 -0.75297050859E+02 -0.77399518115E+02  0.11758933185E+04  0.10449116556E+04 0.  0.
        -13    1    3    3    0    0 -0.23261563245E+03  0.25723775292E+03 -0.59349605866E+01  0.34686673076E+03  0.10566000000E+00 0.  1.
          4    1    3    3  501    0  0.76103251068E+03 -0.18194070206E+03 -0.44397030192E+02  0.78373719937E+03  0.00000000000E+00 0.  1.
         13    1    4    4    0    0 -0.58818372306E+03 -0.30248291804E+03 -0.40291371172E+03  0.77446463963E+03  0.10566000000E+00 0. -1.
         -4    1    4    4    0  502  0.59766844828E+02  0.22718586718E+03  0.32551419360E+03  0.40142867888E+03  0.00000000000E+00 0. -1.
<mgrwt>
<rscale>  2 0.11622211E+04</rscale>
<asrwt>0</asrwt>
<pdfrwt beam="1">  1       21 0.16759736E+00 0.11733433E+04</pdfrwt>
<pdfrwt beam="2">  1       21 0.18724837E+00 0.11733433E+04</pdfrwt>
<totfact> 0.15593918E+01</totfact>
</mgrwt>
</event>
<event>
 8    1  0.1094795E-005  0.1237011E+04  0.7818608E-02  0.8603486E-01
         21   -1    0    0  503  502  0.00000000000E+00  0.00000000000E+00  0.83061152437E+03  0.83061152437E+03  0.00000000000E+00 0.  1.
         21   -1    0    0  501  503 -0.00000000000E+00 -0.00000000000E+00 -0.16690555184E+04  0.16690555184E+04  0.00000000000E+00 0.  1.
    9000010    2    1    2  501    0  0.39484168619E+02  0.56607154656E+03 -0.49522439123E+03  0.12159243190E+04  0.95458302753E+03 0.  0.
   -9000010    2    1    2    0  502 -0.39484168619E+02 -0.56607154656E+03 -0.34321960283E+03  0.12837427238E+04  0.10991813725E+04 0.  0.
        -13    1    3    3    0    0  0.32655308241E+03 -0.30072653938E+02  0.81817277651E+02  0.33798721608E+03  0.10566000000E+00 0.  1.
          4    1    3    3  501    0 -0.28706891379E+03  0.59614420050E+03 -0.57704166888E+03  0.87793710292E+03  0.00000000000E+00 0.  1.
         13    1    4    4    0    0 -0.18560171408E+03 -0.14802929389E+03 -0.68459769855E+03  0.72459277401E+03  0.10566000000E+00 0. -1.
         -4    1    4    4    0  502  0.14611754546E+03 -0.41804225267E+03  0.34137809572E+03  0.55914994979E+03  0.00000000000E+00 0. -1.
<mgrwt>
<rscale>  2 0.12040940E+04</rscale>
<asrwt>0</asrwt>
<pdfrwt beam="1">  1       21 0.12778639E+00 0.12370108E+04</pdfrwt>
<pdfrwt beam="2">  1       21 0.25677777E+00 0.12370108E+04</pdfrwt>
<totfact> 0.10506032E+01</totfact>
</mgrwt>
</event>
<event>
 8    1  0.1094795E-005  0.1341782E+04  0.7818608E-02  0.8522074E-01
         21   -1    0    0  503  502  0.00000000000E+00  0.00000000000E+00  0.35137853537E+04  0.35137853537E+04  0.00000000000E+00 0.  1.
         21   -1    0    0  501  503 -0.00000000000E+00 -0.00000000000E+00 -0.47894560448E+03  0.47894560448E+03  0.00000000000E+00 0. -1.
    9000010    2    1    2  501    0  0.53170530986E+03 -0.70468660319E+03  0.15015301378E+04  0.19552283612E+04  0.88827441963E+03 0.  0.
   -9000010    2    1    2    0  502 -0.53170530986E+03  0.70468660319E+03  0.15333096114E+04  0.20375025969E+04  0.10104873690E+04 0.  0.
        -13    1    3    3    0    0 -0.17266166791E+03 -0.48274116714E+03  0.57465592845E+03  0.77011722048E+03  0.10566000000E+00 0.  1.
          4    1    3    3  501    0  0.70436697777E+03 -0.22194543605E+03  0.92687420937E+03  0.11851111408E+04  0.00000000000E+00 0.  1.
         13    1    4    4    0    0  0.17191175713E+03  0.56620011929E+03  0.47339299793E+03  0.75778438159E+03  0.10566000000E+00 0. -1.
         -4    1    4    4    0  502 -0.70361706699E+03  0.13848648390E+03  0.10599166134E+04  0.12797182153E+04  0.00000000000E+00 0. -1.
<mgrwt>
<rscale>  2 0.13188365E+04</rscale>
<asrwt>0</asrwt>
<pdfrwt beam="1">  1       21 0.54058235E+00 0.13417818E+04</pdfrwt>
<pdfrwt beam="2">  1       21 0.73683941E-01 0.13417818E+04</pdfrwt>
<totfact> 0.44356219E-01</totfact>
</mgrwt>
</event>
<event>
 8    1  0.1094795E-005  0.1203711E+04  0.7818608E-02  0.8603909E-01
         21   -1    0    0  501  502  0.00000000000E+00  0.00000000000E+00  0.17469368771E+04  0.17469368771E+04  0.00000000000E+00 0.  1.
         21   -1    0    0  502  503 -0.00000000000E+00 -0.00000000000E+00 -0.83244269797E+03  0.83244269797E+03  0.00000000000E+00 0.  1.
   -9000010    2    1    2    0  503 -0.19361881831E+03  0.63250878206E+03  0.37305442774E+03  0.12595020806E+04  0.10047986259E+04 0.  0.
    9000010    2    1    2  501    0  0.19361881831E+03 -0.63250878206E+03  0.54143975134E+03  0.13198774945E+04  0.10056659435E+04 0.  0.
        -13    1    4    4    0    0  0.94471010538E+02 -0.81617525774E+03  0.68237062665E+03  0.10680339444E+04  0.10566000000E+00 0.  1.
          4    1    4    4  501    0  0.99147807768E+02  0.18366647568E+03 -0.14093087531E+03  0.25184355003E+03  0.00000000000E+00 0.  1.
         13    1    3    3    0    0 -0.40277070942E+02 -0.59950922230E+02 -0.28378494532E+03  0.29283145643E+03  0.10566000000E+00 0. -1.
         -4    1    3    3    0  503 -0.15334174736E+03  0.69245970429E+03  0.65683937307E+03  0.96667062413E+03  0.00000000000E+00 0. -1.
<mgrwt>
<rscale>  2 0.12035296E+04</rscale>
<asrwt>0</asrwt>
<pdfrwt beam="1">  1       21 0.26875952E+00 0.12037108E+04</pdfrwt>
<pdfrwt beam="2">  1       21 0.12806811E+00 0.12037108E+04</pdfrwt>
<totfact> 0.86129271E+00</totfact>
</mgrwt>
</event>
<event>
 8    1  0.1094795E-005  0.1225159E+04  0.7818608E-02  0.8589705E-01
         21   -1    0    0  503  502  0.00000000000E+00  0.00000000000E+00  0.26593420813E+04  0.26593420813E+04  0.00000000000E+00 0. -1.
         21   -1    0    0  501  503 -0.00000000000E+00 -0.00000000000E+00 -0.90070574582E+03  0.90070574582E+03  0.00000000000E+00 0. -1.
    9000010    2    1    2  501    0  0.71350211710E+03 -0.58518115171E+02 -0.21799418458E+03  0.12345195064E+04  0.98183873746E+03 0.  0.
   -9000010    2    1    2    0  502 -0.71350211710E+03  0.58518115171E+02  0.19766305201E+04  0.23255283207E+04  0.99423544321E+03 0.  0.
        -13    1    3    3    0    0  0.38719430837E+03  0.21788768931E+03 -0.53994228345E+03  0.69923683985E+03  0.10566000000E+00 0.  1.
          4    1    3    3  501    0  0.32630780872E+03 -0.27640580448E+03  0.32194809887E+03  0.53528266659E+03  0.00000000000E+00 0.  1.
         13    1    4    4    0    0  0.25003268780E+03  0.72015726243E+02  0.46586671652E+03  0.53360511478E+03  0.10566000000E+00 0. -1.
         -4    1    4    4    0  502 -0.96353480489E+03 -0.13497611072E+02  0.15107638035E+04  0.17919232059E+04  0.00000000000E+00 0. -1.
<mgrwt>
<rscale>  2 0.12226413E+04</rscale>
<asrwt>0</asrwt>
<pdfrwt beam="1">  1       21 0.40912955E+00 0.12251587E+04</pdfrwt>
<pdfrwt beam="2">  1       21 0.13857012E+00 0.12251587E+04</pdfrwt>
<totfact> 0.70038654E-01</totfact>
</mgrwt>
</event>
<event>
 8    1  0.1094795E-005  0.1032818E+04  0.7818608E-02  0.8746205E-01
         21   -1    0    0  503  502  0.00000000000E+00  0.00000000000E+00  0.10919934406E+04  0.10919934406E+04  0.00000000000E+00 0.  1.
         21   -1    0    0  501  503 -0.00000000000E+00 -0.00000000000E+00 -0.98697330472E+03  0.98697330472E+03  0.00000000000E+00 0.  1.
    9000010    2    1    2  501    0  0.13732470873E+03  0.19173226546E+03  0.19202471092E+03  0.10424903411E+04  0.99714255974E+03 0.  0.
   -9000010    2    1    2    0  502 -0.13732470873E+03 -0.19173226546E+03 -0.87004574997E+02  0.10364764043E+04  0.10055318012E+04 0.  0.
        -13    1    3    3    0    0  0.45942374340E+03  0.37824833963E+03  0.28354953473E+03  0.65919824958E+03  0.10566000000E+00 0.  1.
          4    1    3    3  501    0 -0.32209903467E+03 -0.18651607417E+03 -0.91524823817E+02  0.38329209153E+03  0.00000000000E+00 0.  1.
         13    1    4    4    0    0 -0.51340830804E+03 -0.23864684077E+03  0.15475827119E+03  0.58693316403E+03  0.10566000000E+00 0. -1.
         -4    1    4    4    0  502  0.37608359931E+03  0.46914575304E+02 -0.24176284619E+03  0.44954324023E+03  0.00000000000E+00 0. -1.
<mgrwt>
<rscale>  2 0.10307707E+04</rscale>
<asrwt>0</asrwt>
<pdfrwt beam="1">  1       21 0.16799899E+00 0.10328183E+04</pdfrwt>
<pdfrwt beam="2">  1       21 0.15184205E+00 0.10328183E+04</pdfrwt>
<totfact> 0.31665938E+01</totfact>
</mgrwt>
</event>
<event>
 8    1  0.1094795E-005  0.1076979E+04  0.7818608E-02  0.8763794E-01
         21   -1    0    0  503  502  0.00000000000E+00  0.00000000000E+00  0.13785799136E+04  0.13785799136E+04  0.00000000000E+00 0. -1.
         21   -1    0    0  501  503 -0.00000000000E+00 -0.00000000000E+00 -0.67006286700E+03  0.67006286700E+03  0.00000000000E+00 0. -1.
    9000010    2    1    2  501    0  0.24010816116E+03 -0.28058635512E+03  0.22370587814E+03  0.86757287162E+03  0.75250098732E+03 0.  0.
   -9000010    2    1    2    0  502 -0.24010816116E+03  0.28058635512E+03  0.48481116843E+03  0.11810699090E+04  0.10116835617E+04 0.  0.
        -13    1    3    3    0    0  0.43672231526E+03  0.63223345517E+02  0.13796860909E+03  0.46234069724E+03  0.10566000000E+00 0.  1.
          4    1    3    3  501    0 -0.19661415410E+03 -0.34380970064E+03  0.85737269057E+02  0.40523217438E+03  0.00000000000E+00 0.  1.
         13    1    4    4    0    0  0.31758414414E+03  0.98179333378E+02 -0.10549405982E+03  0.34875188592E+03  0.10566000000E+00 0. -1.
         -4    1    4    4    0  502 -0.55769230530E+03  0.18240702175E+03  0.59030522825E+03  0.83231802304E+03  0.00000000000E+00 0. -1.
<mgrwt>
<rscale>  2 0.10115724E+04</rscale>
<asrwt>0</asrwt>
<pdfrwt beam="1">  1       21 0.21208922E+00 0.10769792E+04</pdfrwt>
<pdfrwt beam="2">  1       21 0.10308659E+00 0.10769792E+04</pdfrwt>
<totfact> 0.42081384E+01</totfact>
</mgrwt>
</event>
<event>
 8    1  0.1094795E-005  0.1216386E+04  0.7818608E-02  0.8594947E-01
         21   -1    0    0  501  502  0.00000000000E+00  0.00000000000E+00  0.77689754878E+03  0.77689754878E+03  0.00000000000E+00 0. -1.
         21   -1    0    0  502  503 -0.00000000000E+00 -0.00000000000E+00 -0.28552860971E+04  0.28552860971E+04  0.00000000000E+00 0. -1.
   -9000010    2    1    2    0  503 -0.64021308547E+03  0.23736262820E+03 -0.20910288919E+04  0.24190900388E+04  0.10066682556E+04 0.  0.
    9000010    2    1    2  501    0  0.64021308547E+03 -0.23736262820E+03  0.12640343593E+02  0.12130936071E+04  0.10026078542E+04 0.  0.
        -13    1    4    4    0    0  0.19463659273E+03  0.22628515130E+03  0.37161115010E+03  0.47663742087E+03  0.10566000000E+00 0.  1.
          4    1    4    4  501    0  0.44557649274E+03 -0.46364777950E+03 -0.35897080650E+03  0.73645618623E+03  0.00000000000E+00 0.  1.
         13    1    3    3    0    0 -0.74765683223E+03 -0.85739425500E+02 -0.18630901355E+04  0.20093399045E+04  0.10566000000E+00 0. -1.
         -4    1    3    3    0  503  0.10744374677E+03  0.32310205370E+03 -0.22793875643E+03  0.40975013424E+03  0.00000000000E+00 0. -1.
<mgrwt>
<rscale>  2 0.12155455E+04</rscale>
<asrwt>0</asrwt>
<pdfrwt beam="1">  1       21 0.11952270E+00 0.12163860E+04</pdfrwt>
<pdfrwt beam="2">  1       21 0.43927478E+00 0.12163860E+04</pdfrwt>
<totfact> 0.66590036E-01</totfact>
</mgrwt>
</event>
<event>
 8    1  0.1094795E-005  0.1294062E+04  0.7818608E-02  0.8548427E-01
         21   -1    0    0  503  502  0.00000000000E+00  0.00000000000E+00  0.13456822784E+04  0.13456822784E+04  0.00000000000E+00 0. -1.
         21   -1    0    0  501  503 -0.00000000000E+00 -0.00000000000E+00 -0.17481700261E+04  0.17481700261E+04  0.00000000000E+00 0.  1.
    9000010    2    1    2  501    0  0.67280921409E+03  0.42622230460E+03 -0.10758833803E+04  0.16828911018E+04  0.10199312336E+04 0.  0.
   -9000010    2    1    2    0  502 -0.67280921409E+03 -0.42622230460E+03  0.67339563253E+03  0.14109612027E+04  0.95026951236E+03 0.  0.
        -13    1    3    3    0    0  0.28348823986E+03  0.61960649318E+03 -0.10444412894E+04  0.12470506833E+04  0.10566000000E+00 0.  1.
          4    1    3    3  501    0  0.38932097423E+03 -0.19338418859E+03 -0.31442090871E+02  0.43584041856E+03  0.00000000000E+00 0.  1.
         13    1    4    4    0    0  0.10117574669E+03  0.18228713464E+03  0.28376342728E+03  0.35211762949E+03  0.10566000000E+00 0. -1.
         -4    1    4    4    0  502 -0.77398496078E+03 -0.60850943924E+03  0.38963220525E+03  0.10588435732E+04  0.00000000000E+00 0. -1.
<mgrwt>
<rscale>  2 0.12803037E+04</rscale>
<asrwt>0</asrwt>
<pdfrwt beam="1">  1       21 0.20702804E+00 0.12940624E+04</pdfrwt>
<pdfrwt beam="2">  1       21 0.26894923E+00 0.12940624E+04</pdfrwt>
<totfact> 0.17787588E+00</totfact>
</mgrwt>
</event>
<event>
 8    1  0.1094795E-005  0.1218562E+04  0.7818608E-02  0.8597776E-01
         21   -1    0    0  501  502  0.00000000000E+00  0.00000000000E+00  0.16965335805E+04  0.16965335805E+04  0.00000000000E+00 0. -1.
         21   -1    0    0  502  503 -0.00000000000E+00 -0.00000000000E+00 -0.11126169022E+04  0.11126169022E+04  0.00000000000E+00 0.  1.
   -9000010    2    1    2    0  503  0.51911634282E+03  0.48666319255E+03 -0.38015041461E+03  0.12764824229E+04  0.98922707087E+03 0.  0.
    9000010    2    1    2  501    0 -0.51911634282E+03 -0.48666319255E+03  0.96406709297E+03  0.15326680599E+04  0.95567943457E+03 0.  0.
        -13    1    4    4    0    0 -0.58615636653E+03 -0.64726068382E+03  0.43472862712E+03  0.97545613394E+03  0.10566000000E+00 0.  1.
          4    1    4    4  501    0  0.67040023702E+02  0.16059749127E+03  0.52933846585E+03  0.55721192594E+03  0.00000000000E+00 0.  1.
         13    1    3    3    0    0  0.14888307434E+03  0.67697977914E+03 -0.48647618477E+03  0.84683344331E+03  0.10566000000E+00 0. -1.
         -4    1    3    3    0  503  0.37023326848E+03 -0.19031658659E+03  0.10632577016E+03  0.42964897954E+03  0.00000000000E+00 0. -1.
<mgrwt>
<rscale>  2 0.12117365E+04</rscale>
<asrwt>0</asrwt>
<pdfrwt beam="1">  1       21 0.26100517E+00 0.12185619E+04</pdfrwt>
<pdfrwt beam="2">  1       21 0.17117183E+00 0.12185619E+04</pdfrwt>
<totfact> 0.39995686E+00</totfact>
</mgrwt>
</event>
<event>
 8    1  0.1094795E-005  0.1582101E+04  0.7818608E-02  0.8365362E-01
         21   -1    0    0  501  502  0.00000000000E+00  0.00000000000E+00  0.20665575117E+04  0.20665575117E+04  0.00000000000E+00 0. -1.
         21   -1    0    0  502  503 -0.00000000000E+00 -0.00000000000E+00 -0.13260906967E+04  0.13260906967E+04  0.00000000000E+00 0. -1.
   -9000010    2    1    2    0  503 -0.31401471128E+03 -0.11793713259E+04 -0.14961566564E+03  0.15773549681E+04  0.98799892949E+03 0.  0.
    9000010    2    1    2  501    0  0.31401471128E+03  0.11793713259E+04  0.89008248063E+03  0.18152932403E+04  0.10067376832E+04 0.  0.
        -13    1    4    4    0    0 -0.31066204862E+03  0.66411618484E+03  0.62448339358E+03  0.96308916277E+03  0.10566000000E+00 0.  1.
          4    1    4    4  501    0  0.62467675990E+03  0.51525514108E+03  0.26559908705E+03  0.85220407756E+03  0.00000000000E+00 0.  1.
         13    1    3    3    0    0 -0.15800996274E+03 -0.10799548459E+04  0.26515643018E+03  0.11231996978E+04  0.10566000000E+00 0. -1.
         -4    1    3    3    0  503 -0.15600474854E+03 -0.99416480019E+02 -0.41477209582E+03  0.45415527030E+03  0.00000000000E+00 0. -1.
<mgrwt>
<rscale>  2 0.15791280E+04</rscale>
<asrwt>0</asrwt>
<pdfrwt beam="1">  1       21 0.31793192E+00 0.15821007E+04</pdfrwt>
<pdfrwt beam="2">  1       21 0.20401395E+00 0.15821007E+04</pdfrwt>
<totfact> 0.79758797E-01</totfact>
</mgrwt>
</event>
<event>
 8    1  0.1094795E-005  0.1424420E+04  0.7818608E-02  0.8455254E-01
         21   -1    0    0  503  502  0.00000000000E+00  0.00000000000E+00  0.13441827505E+04  0.13441827505E+04  0.00000000000E+00 0. -1.
         21   -1    0    0  501  503 -0.00000000000E+00 -0.00000000000E+00 -0.16082667935E+04  0.16082667935E+04  0.00000000000E+00 0. -1.
    9000010    2    1    2  501    0  0.99054507732E+03 -0.89521770519E+02 -0.50886179617E+03  0.15071506389E+04  0.10116170338E+04 0.  0.
   -9000010    2    1    2    0  502 -0.99054507732E+03  0.89521770519E+02  0.24477775313E+03  0.14452989051E+04  0.10196955815E+04 0.  0.
        -13    1    3    3    0    0  0.27701459171E+03 -0.43569081888E+03  0.75843641542E+02  0.52183890503E+03  0.10566000000E+00 0.  1.
          4    1    3    3  501    0  0.71353048561E+03  0.34616904836E+03 -0.58470543771E+03  0.98531173383E+03  0.00000000000E+00 0.  1.
         13    1    4    4    0    0  0.95299207753E+02  0.28400496920E+03  0.15822267983E+03  0.33878487142E+03  0.10566000000E+00 0. -1.
         -4    1    4    4    0  502 -0.10858442851E+04 -0.19448319868E+03  0.86555073306E+02  0.11065140337E+04  0.00000000000E+00 0. -1.
<mgrwt>
<rscale>  2 0.14229750E+04</rscale>
<asrwt>0</asrwt>
<pdfrwt beam="1">  1       21 0.20679735E+00 0.14244202E+04</pdfrwt>
<pdfrwt beam="2">  1       21 0.24742566E+00 0.14244202E+04</pdfrwt>
<totfact> 0.24936646E+00</totfact>
</mgrwt>
</event>
<event>
 8    1  0.1094795E-005  0.1091561E+04  0.7818608E-02  0.8698054E-01
         21   -1    0    0  501  502  0.00000000000E+00  0.00000000000E+00  0.17068122263E+04  0.17068122263E+04  0.00000000000E+00 0. -1.
         21   -1    0    0  502  503 -0.00000000000E+00 -0.00000000000E+00 -0.76310371629E+03  0.76310371629E+03  0.00000000000E+00 0. -1.
   -9000010    2    1    2    0  503  0.15599650584E+03  0.37579095640E+03  0.67436437596E+02  0.10701454834E+04  0.98747654643E+03 0.  0.
    9000010    2    1    2  501    0 -0.15599650584E+03 -0.37579095640E+03  0.87627207239E+03  0.13997704592E+04  0.10128923145E+04 0.  0.
        -13    1    4    4    0    0  0.22546091821E+03 -0.37220075002E+03  0.91810111801E+03  0.10160096939E+04  0.10566000000E+00 0.  1.
          4    1    4    4  501    0 -0.38145742405E+03 -0.35902063869E+01 -0.41829045626E+02  0.38376076532E+03  0.00000000000E+00 0.  1.
         13    1    3    3    0    0 -0.39392336026E+01 -0.30269260168E+03 -0.15280882467E+03  0.33910009840E+03  0.10566000000E+00 0. -1.
         -4    1    3    3    0  503  0.15993573944E+03  0.67848355809E+03  0.22024526227E+03  0.73104538498E+03  0.00000000000E+00 0. -1.
<mgrwt>
<rscale>  2 0.10856269E+04</rscale>
<asrwt>0</asrwt>
<pdfrwt beam="1">  1       21 0.26258650E+00 0.10915606E+04</pdfrwt>
<pdfrwt beam="2">  1       21 0.11740057E+00 0.10915606E+04</pdfrwt>
<totfact> 0.12491141E+01</totfact>
</mgrwt>
</event>
<event>
 8    1  0.1094795E-005  0.1361498E+04  0.7818608E-02  0.8493988E-01
         21   -1    0    0  503  502  0.00000000000E+00  0.00000000000E+00  0.17477387034E+04  0.17477387034E+04  0.00000000000E+00 0.  1.
         21   -1    0    0  501  503 -0.00000000000E+00 -0.00000000000E+00 -0.11284956842E+04  0.11284956842E+04  0.00000000000E+00 0. -1.
    9000010    2    1    2  501    0 -0.84412883084E+03  0.38949631864E+03  0.66271367957E+03  0.15142214971E+04  0.99469415188E+03 0.  0.
   -9000010    2    1    2    0  502  0.84412883084E+03 -0.38949631864E+03 -0.43470660298E+02  0.13620128905E+04  0.99444886767E+03 0.  0.
        -13    1    3    3    0    0 -0.13572031526E+03  0.57074796897E+03  0.10829337879E+03  0.59657414888E+03  0.10566000000E+00 0.  1.
          4    1    3    3  501    0 -0.70840851558E+03 -0.18125165034E+03  0.55442030079E+03  0.91764734818E+03  0.00000000000E+00 0.  1.
         13    1    4    4    0    0 -0.70370782697E+02  0.23289883272E+03  0.61175150703E+02  0.25087112940E+03  0.10566000000E+00 0. -1.
         -4    1    4    4    0  502  0.91449961354E+03 -0.62239515135E+03 -0.10464581100E+03  0.11111417611E+04  0.00000000000E+00 0. -1.
<mgrwt>
<rscale>  2 0.13614534E+04</rscale>
<asrwt>0</asrwt>
<pdfrwt beam="1">  1       21 0.26888288E+00 0.13614982E+04</pdfrwt>
<pdfrwt beam="2">  1       21 0.17361472E+00 0.13614982E+04</pdfrwt>
<totfact> 0.32538113E+00</totfact>
</mgrwt>
</event>
<event>
 8    1  0.1094795E-005  0.1198255E+04  0.7818608E-02  0.8611473E-01
         21   -1    0    0  501  502  0.00000000000E+00  0.00000000000E+00  0.90826524628E+03  0.90826524628E+03  0.00000000000E+00 0. -1.
         21   -1    0    0  502  503 -0.00000000000E+00 -0.00000000000E+00 -0.16988483778E+04  0.16988483778E+04  0.00000000000E+00 0. -1.
   -9000010    2    1    2    0  503  0.27550698529E+03 -0.58153651030E+03 -0.77041443657E+03  0.14086885715E+04  0.98831992571E+03 0.  0.
    9000010    2    1    2  501    0 -0.27550698529E+03  0.58153651030E+03 -0.20168694953E+02  0.11984250526E+04  0.10108051339E+04 0.  0.
        -13    1    4    4    0    0 -0.23490803102E+03 -0.23469300709E+03  0.14884576051E+03  0.36389237722E+03  0.10566000000E+00 0.  1.
          4    1    4    4  501    0 -0.40598954275E+02  0.81622951739E+03 -0.16901445547E+03  0.83453267540E+03  0.00000000000E+00 0.  1.
         13    1    3    3    0    0  0.38485515568E+03  0.16099550395E+03 -0.18272071075E+03  0.45543376297E+03  0.10566000000E+00 0. -1.
         -4    1    3    3    0  503 -0.10934817039E+03 -0.74253201425E+03 -0.58769372583E+03  0.95325480851E+03  0.00000000000E+00 0. -1.
<mgrwt>
<rscale>  2 0.11935006E+04</rscale>
<asrwt>0</asrwt>
<pdfrwt beam="1">  1       21 0.13973312E+00 0.11982553E+04</pdfrwt>
<pdfrwt beam="2">  1       21 0.26136129E+00 0.11982553E+04</pdfrwt>
<totfact> 0.75480662E+00</totfact>
</mgrwt>
</event>
<event>
 8    1  0.1094795E-005  0.1433440E+04  0.7818608E-02  0.8449167E-01
         21   -1    0    0  501  502  0.00000000000E+00  0.00000000000E+00  0.31902899090E+04  0.31902899090E+04  0.00000000000E+00 0.  1.
         21   -1    0    0  502  503 -0.00000000000E+00 -0.00000000000E+00 -0.69597748152E+03  0.69597748152E+03  0.00000000000E+00 0. -1.
   -9000010    2    1    2    0  503  0.83015257277E+03  0.59271490561E+03  0.71112194111E+03  0.15983605368E+04  0.10042896679E+04 0.  0.
    9000010    2    1    2  501    0 -0.83015257277E+03 -0.59271490561E+03  0.17831904864E+04  0.22879068537E+04  0.10071172758E+04 0.  0.
        -13    1    4    4    0    0 -0.48943467696E+03 -0.46272343205E+03  0.18009726141E+04  0.19228004695E+04  0.10566000000E+00 0.  1.
          4    1    4    4  501    0 -0.34071789582E+03 -0.12999147356E+03 -0.17782127750E+02  0.36510638422E+03  0.00000000000E+00 0.  1.
         13    1    3    3    0    0 -0.15441704098E+03 -0.60363110632E+02 -0.72162232483E+02  0.18081959692E+03  0.10566000000E+00 0. -1.
         -4    1    3    3    0  503  0.98456961375E+03  0.65307801624E+03  0.78328417359E+03  0.14175409399E+04  0.00000000000E+00 0. -1.
<mgrwt>
<rscale>  2 0.14329432E+04</rscale>
<asrwt>0</asrwt>
<pdfrwt beam="1">  1       21 0.49081382E+00 0.14334397E+04</pdfrwt>
<pdfrwt beam="2">  1       21 0.10707346E+00 0.14334397E+04</pdfrwt>
<totfact> 0.37901338E-01</totfact>
</mgrwt>
</event>
<event>
 8    1  0.1094795E-005  0.1232880E+04  0.7818608E-02  0.8621010E-01
         21   -1    0    0  503  502  0.00000000000E+00  0.00000000000E+00  0.12981443633E+04  0.12981443633E+04  0.00000000000E+00 0. -1.
         21   -1    0    0  501  503 -0.00000000000E+00 -0.00000000000E+00 -0.99527449608E+03  0.99527449608E+03  0.00000000000E+00 0. -1.
    9000010    2    1    2  501    0  0.18014968625E+02 -0.36925049568E+03  0.11232522175E+03  0.12379861833E+04  0.11761472557E+04 0.  0.
   -9000010    2    1    2    0  502 -0.18014968625E+02  0.36925049568E+03  0.19054464551E+03  0.10554326761E+04  0.97003113565E+03 0.  0.
        -13    1    3    3    0    0 -0.53787366806E+03 -0.38753272824E+03  0.15281540387E+03  0.68032511130E+03  0.10566000000E+00 0.  1.
          4    1    3    3  501    0  0.55588863669E+03  0.18282232555E+02 -0.40490182120E+02  0.55766107204E+03  0.00000000000E+00 0.  1.
         13    1    4    4    0    0 -0.57574358782E+02 -0.29383722985E+03 -0.11947717021E+03  0.32238165239E+03  0.10566000000E+00 0. -1.
         -4    1    4    4    0  502  0.39559390157E+02  0.66308772553E+03  0.31002181572E+03  0.73305102368E+03  0.00000000000E+00 0. -1.
<mgrwt>
<rscale>  2 0.11809985E+04</rscale>
<asrwt>0</asrwt>
<pdfrwt beam="1">  1       21 0.19971452E+00 0.12328799E+04</pdfrwt>
<pdfrwt beam="2">  1       21 0.15311915E+00 0.12328799E+04</pdfrwt>
<totfact> 0.16373195E+01</totfact>
</mgrwt>
</event>
<event>
 8    1  0.1094795E-005  0.1082697E+04  0.7818608E-02  0.8712444E-01
         21   -1    0    0  503  502  0.00000000000E+00  0.00000000000E+00  0.11664332818E+04  0.11664332818E+04  0.00000000000E+00 0.  1.
         21   -1    0    0  501  503 -0.00000000000E+00 -0.00000000000E+00 -0.96109876902E+03  0.96109876902E+03  0.00000000000E+00 0.  1.
    9000010    2    1    2  501    0  0.23846811107E+03  0.70632571713E+02  0.16985223055E+02  0.10285738813E+04  0.99790767673E+03 0.  0.
   -9000010    2    1    2    0  502 -0.23846811107E+03 -0.70632571713E+02  0.18834928977E+03  0.10989581696E+04  0.10537445627E+04 0.  0.
        -13    1    3    3    0    0 -0.29342243278E+03  0.14891848296E+03  0.27816380879E+03  0.43086953282E+03  0.10566000000E+00 0.  1.
          4    1    3    3  501    0  0.53189054385E+03 -0.78285911247E+02 -0.26117858573E+03  0.59770434847E+03  0.00000000000E+00 0.  1.
         13    1    4    4    0    0 -0.16645317894E+03  0.47579781479E+03 -0.32686550324E+02  0.50513230255E+03  0.10566000000E+00 0. -1.
         -4    1    4    4    0  502 -0.72014932133E+02 -0.54643038650E+03  0.22103584009E+03  0.59382586703E+03  0.00000000000E+00 0. -1.
<mgrwt>
<rscale>  2 0.10688687E+04</rscale>
<asrwt>0</asrwt>
<pdfrwt beam="1">  1       21 0.17945127E+00 0.10826974E+04</pdfrwt>
<pdfrwt beam="2">  1       21 0.14786135E+00 0.10826974E+04</pdfrwt>
<totfact> 0.27312144E+01</totfact>
</mgrwt>
</event>
<event>
 8    1  0.1094795E-005  0.1098169E+04  0.7818608E-02  0.8689332E-01
         21   -1    0    0  503  502  0.00000000000E+00  0.00000000000E+00  0.95608021844E+03  0.95608021844E+03  0.00000000000E+00 0.  1.
         21   -1    0    0  501  503 -0.00000000000E+00 -0.00000000000E+00 -0.13503564274E+04  0.13503564274E+04  0.00000000000E+00 0.  1.
    9000010    2    1    2  501    0 -0.10743460460E+03 -0.43033157105E+03 -0.51039333256E+03  0.12109813061E+04  0.10046128182E+04 0.  0.
   -9000010    2    1    2    0  502  0.10743460460E+03  0.43033157105E+03  0.11611712357E+03  0.10954553398E+04  0.99489283831E+03 0.  0.
        -13    1    3    3    0    0  0.38343763441E+03  0.45464262423E+02 -0.31960347196E+03  0.50123628070E+03  0.10566000000E+00 0.  1.
          4    1    3    3  501    0 -0.49087223901E+03 -0.47579583348E+03 -0.19078986060E+03  0.70974502541E+03  0.00000000000E+00 0.  1.
         13    1    4    4    0    0  0.18976841953E+03 -0.91542391249E+00 -0.38499352214E+03  0.42922361807E+03  0.10566000000E+00 0. -1.
         -4    1    4    4    0  502 -0.82333814937E+02  0.43124699497E+03  0.50111064571E+03  0.66623172170E+03  0.00000000000E+00 0. -1.
<mgrwt>
<rscale>  2 0.10959407E+04</rscale>
<asrwt>0</asrwt>
<pdfrwt beam="1">  1       21 0.14708926E+00 0.10981686E+04</pdfrwt>
<pdfrwt beam="2">  1       21 0.20774714E+00 0.10981686E+04</pdfrwt>
<totfact> 0.16507837E+01</totfact>
</mgrwt>
</event>
<event>
 8    1  0.1094795E-005  0.1091357E+04  0.7818608E-02  0.8694608E-01
         21   -1    0    0  501  502  0.00000000000E+00  0.00000000000E+00  0.10827720839E+04  0.10827720839E+04  0.00000000000E+00 0.  1.
         21   -1    0    0  502  503 -0.00000000000E+00 -0.00000000000E+00 -0.11172435934E+04  0.11172435934E+04  0.00000000000E+00 0.  1.
   -9000010    2    1    2    0  503  0.22949568255E+03 -0.38315381449E+03 -0.17819424913E+03  0.10992353735E+04  0.98847868062E+03 0.  0.
    9000010    2    1    2  501    0 -0.22949568255E+03  0.38315381449E+03  0.14372273965E+03  0.11007803038E+04  0.99578408180E+03 0.  0.
        -13    1    4    4    0    0  0.30086428260E+03  0.16549021710E+03  0.35113705387E+03  0.49112480111E+03  0.10566000000E+00 0.  1.
          4    1    4    4  501    0 -0.53035996516E+03  0.21766359739E+03 -0.20741431422E+03  0.60965550273E+03  0.00000000000E+00 0.  1.
         13    1    3    3    0    0  0.38572038289E+03  0.85580830623E+02  0.23102932998E+03  0.45768860027E+03  0.10566000000E+00 0. -1.
         -4    1    3    3    0  503 -0.15622470033E+03 -0.46873464511E+03 -0.40922357911E+03  0.64154677322E+03  0.00000000000E+00 0. -1.
<mgrwt>
<rscale>  2 0.10896882E+04</rscale>
<asrwt>0</asrwt>
<pdfrwt beam="1">  1       21 0.16658032E+00 0.10913574E+04</pdfrwt>
<pdfrwt beam="2">  1       21 0.17188363E+00 0.10913574E+04</pdfrwt>
<totfact> 0.21619667E+01</totfact>
</mgrwt>
</event>
<event>
 8    1  0.1094795E-005  0.1103659E+04  0.7818608E-02  0.8683566E-01
         21   -1    0    0  503  502  0.00000000000E+00  0.00000000000E+00  0.11027450132E+04  0.11027450132E+04  0.00000000000E+00 0. -1.
         21   -1    0    0  501  503 -0.00000000000E+00 -0.00000000000E+00 -0.11161284530E+04  0.11161284530E+04  0.00000000000E+00 0. -1.
    9000010    2    1    2  501    0  0.12344161389E+03  0.43251079479E+03 -0.13484709047E+03  0.11118665219E+04  0.10078491976E+04 0.  0.
   -9000010    2    1    2    0  502 -0.12344161389E+03 -0.43251079479E+03  0.12146365069E+03  0.11070069443E+04  0.10041949695E+04 0.  0.
        -13    1    3    3    0    0  0.29275678568E+01 -0.17210779837E+03 -0.40401562191E+03  0.43915634896E+03  0.10566000000E+00 0.  1.
          4    1    3    3  501    0  0.12051404604E+03  0.60461859317E+03  0.26916853144E+03  0.67271017297E+03  0.00000000000E+00 0.  1.
         13    1    4    4    0    0 -0.48240556633E+03 -0.33985268236E+03  0.33562369435E+03  0.67886541487E+03  0.10566000000E+00 0. -1.
         -4    1    4    4    0  502  0.35896395243E+03 -0.92658112430E+02 -0.21416004366E+03  0.42814152946E+03  0.00000000000E+00 0. -1.
<mgrwt>
<rscale>  2 0.11028242E+04</rscale>
<asrwt>0</asrwt>
<pdfrwt beam="1">  1       21 0.16965308E+00 0.11036591E+04</pdfrwt>
<pdfrwt beam="2">  1       21 0.17171207E+00 0.11036591E+04</pdfrwt>
<totfact> 0.20381582E+01</totfact>
</mgrwt>
</event>
<event>
 8    1  0.1094795E-005  0.1211538E+04  0.7818608E-02  0.8604402E-01
         21   -1    0    0  503  502  0.00000000000E+00  0.00000000000E+00  0.70468235727E+03  0.70468235727E+03  0.00000000000E+00 0. -1.
         21   -1    0    0  501  503 -0.00000000000E+00 -0.00000000000E+00 -0.28633946141E+04  0.28633946141E+04  0.00000000000E+00 0. -1.
    9000010    2    1    2  501    0 -0.52717066212E+03 -0.34473796271E+03 -0.20340218340E+04  0.23501391889E+04  0.99456332953E+03 0.  0.
   -9000010    2    1    2    0  502  0.52717066212E+03  0.34473796271E+03 -0.12469042287E+03  0.12179377824E+04  0.10349258768E+04 0.  0.
        -13    1    3    3    0    0 -0.67562765260E+03 -0.44865854411E+03 -0.94134207918E+03  0.12425345610E+04  0.10566000000E+00 0.  1.
          4    1    3    3  501    0  0.14845699048E+03  0.10392058140E+03 -0.10926797548E+04  0.11076046279E+04  0.00000000000E+00 0.  1.
         13    1    4    4    0    0 -0.92440031319E+02 -0.22058748868E+03 -0.27646221942E+03  0.36556171775E+03  0.10566000000E+00 0. -1.
         -4    1    4    4    0  502  0.61961069344E+03  0.56532545139E+03  0.15177179655E+03  0.85237606468E+03  0.00000000000E+00 0. -1.
<mgrwt>
<rscale>  2 0.12028727E+04</rscale>
<asrwt>0</asrwt>
<pdfrwt beam="1">  1       21 0.10841267E+00 0.12115382E+04</pdfrwt>
<pdfrwt beam="2">  1       21 0.44052225E+00 0.12115382E+04</pdfrwt>
<totfact> 0.85457630E-01</totfact>
</mgrwt>
</event>
<event>
 8    1  0.1094795E-005  0.1077701E+04  0.7818608E-02  0.8710466E-01
         21   -1    0    0  503  502  0.00000000000E+00  0.00000000000E+00  0.24466883675E+04  0.24466883675E+04  0.00000000000E+00 0. -1.
         21   -1    0    0  501  503 -0.00000000000E+00 -0.00000000000E+00 -0.46540151559E+03  0.46540151559E+03  0.00000000000E+00 0. -1.
    9000010    2    1    2  501    0 -0.32227034308E+03  0.16516909273E+03  0.10996760242E+04  0.15397166850E+04  0.10150374912E+04 0.  0.
   -9000010    2    1    2    0  502  0.32227034308E+03 -0.16516909273E+03  0.88161082762E+03  0.13723731981E+04  0.98743685376E+03 0.  0.
        -13    1    3    3    0    0 -0.65717307595E+03 -0.75115139763E+02  0.61154591571E+03  0.90083691873E+03  0.10566000000E+00 0.  1.
          4    1    3    3  501    0  0.33490273286E+03  0.24028423249E+03  0.48813010854E+03  0.63887976625E+03  0.00000000000E+00 0.  1.
         13    1    4    4    0    0  0.43166226948E+03 -0.19826170304E+03  0.10593990522E+04  0.11610195437E+04  0.10566000000E+00 0. -1.
         -4    1    4    4    0  502 -0.10939192640E+03  0.33092610317E+02 -0.17778822460E+03  0.21135365439E+03  0.00000000000E+00 0. -1.
<mgrwt>
<rscale>  2 0.10711531E+04</rscale>
<asrwt>0</asrwt>
<pdfrwt beam="1">  1       21 0.37641359E+00 0.10777013E+04</pdfrwt>
<pdfrwt beam="2">  1       21 0.71600235E-01 0.10777013E+04</pdfrwt>
<totfact> 0.69943270E+00</totfact>
</mgrwt>
</event>
<event>
 8    1  0.1094795E-005  0.1040833E+04  0.7818608E-02  0.8740215E-01
         21   -1    0    0  501  502  0.00000000000E+00  0.00000000000E+00  0.13483975205E+04  0.13483975205E+04  0.00000000000E+00 0.  1.
         21   -1    0    0  502  503 -0.00000000000E+00 -0.00000000000E+00 -0.80535721264E+03  0.80535721264E+03  0.00000000000E+00 0.  1.
   -9000010    2    1    2    0  503 -0.26701735406E+03  0.39989276917E+02  0.13602585002E+03  0.10361706234E+04  0.99108481941E+03 0.  0.
    9000010    2    1    2  501    0  0.26701735406E+03 -0.39989276917E+02  0.40701445788E+03  0.11175841098E+04  0.10052044886E+04 0.  0.
        -13    1    4    4    0    0 -0.37531115389E+03  0.30736201193E+02  0.25179131568E+03  0.45299233340E+03  0.10566000000E+00 0.  1.
          4    1    4    4  501    0  0.64232850795E+03 -0.70725478110E+02  0.15522314220E+03  0.66459177640E+03  0.00000000000E+00 0.  1.
         13    1    3    3    0    0 -0.18142724996E+03 -0.44904422842E+03 -0.86739159617E+02  0.49201652317E+03  0.10566000000E+00 0. -1.
         -4    1    3    3    0  503 -0.85590104101E+02  0.48903350533E+03  0.22276500964E+03  0.54415410021E+03  0.00000000000E+00 0. -1.
<mgrwt>
<rscale>  2 0.10374088E+04</rscale>
<asrwt>0</asrwt>
<pdfrwt beam="1">  1       21 0.20744577E+00 0.10408331E+04</pdfrwt>
<pdfrwt beam="2">  1       21 0.12390111E+00 0.10408331E+04</pdfrwt>
<totfact> 0.27827284E+01</totfact>
</mgrwt>
</event>
<event>
 8    1  0.1094795E-005  0.1042983E+04  0.7818608E-02  0.8740379E-01
         21   -1    0    0  503  502  0.00000000000E+00  0.00000000000E+00  0.23710162689E+04  0.23710162689E+04  0.00000000000E+00 0.  1.
         21   -1    0    0  501  503 -0.00000000000E+00 -0.00000000000E+00 -0.54654134826E+03  0.54654134826E+03  0.00000000000E+00 0.  1.
    9000010    2    1    2  501    0 -0.23186055074E+03  0.13798415194E+02  0.15373803499E+04  0.18577814598E+04  0.10167909819E+04 0.  0.
   -9000010    2    1    2    0  502  0.23186055074E+03 -0.13798415194E+02  0.28709457069E+03  0.10597761573E+04  0.99335416638E+03 0.  0.
        -13    1    3    3    0    0 -0.51072560253E+03  0.30451451409E+03  0.63705254301E+03  0.87143885849E+03  0.10566000000E+00 0.  1.
          4    1    3    3  501    0  0.27886505179E+03 -0.29071609889E+03  0.90032780691E+03  0.98634260131E+03  0.00000000000E+00 0.  1.
         13    1    4    4    0    0  0.60715639748E+03  0.63781670953E+02  0.29150077881E+03  0.67652029368E+03  0.10566000000E+00 0. -1.
         -4    1    4    4    0  502 -0.37529584674E+03 -0.77580086147E+02 -0.44062081201E+01  0.38325586364E+03  0.00000000000E+00 0. -1.
<mgrwt>
<rscale>  2 0.10372268E+04</rscale>
<asrwt>0</asrwt>
<pdfrwt beam="1">  1       21 0.36477173E+00 0.10429830E+04</pdfrwt>
<pdfrwt beam="2">  1       21 0.84083286E-01 0.10429830E+04</pdfrwt>
<totfact> 0.57589235E+00</totfact>
</mgrwt>
</event>
<event>
 8    1  0.1094795E-005  0.1140607E+04  0.7818608E-02  0.8679232E-01
         21   -1    0    0  503  502  0.00000000000E+00  0.00000000000E+00  0.12797540804E+04  0.12797540804E+04  0.00000000000E+00 0. -1.
         21   -1    0    0  501  503 -0.00000000000E+00 -0.00000000000E+00 -0.10012265386E+04  0.10012265386E+04  0.00000000000E+00 0. -1.
    9000010    2    1    2  501    0 -0.54619867206E+03  0.14121782678E+03 -0.21481368836E+03  0.10382535435E+04  0.84471890941E+03 0.  0.
   -9000010    2    1    2    0  502  0.54619867206E+03 -0.14121782678E+03  0.49334123008E+03  0.12427270755E+04  0.99131707893E+03 0.  0.
        -13    1    3    3    0    0  0.22548561516E+03 -0.23351159925E+02 -0.43271843942E+02  0.23078453795E+03  0.10566000000E+00 0.  1.
          4    1    3    3  501    0 -0.77168428722E+03  0.16456898671E+03 -0.17154184442E+03  0.80746900555E+03  0.00000000000E+00 0.  1.
         13    1    4    4    0    0  0.36911244911E+03  0.41554962327E+03  0.25972974782E+03  0.61350227592E+03  0.10566000000E+00 0. -1.
         -4    1    4    4    0  502  0.17708622295E+03 -0.55676745005E+03  0.23361148226E+03  0.62922479960E+03  0.00000000000E+00 0. -1.
<mgrwt>
<rscale>  2 0.11080335E+04</rscale>
<asrwt>0</asrwt>
<pdfrwt beam="1">  1       21 0.19688524E+00 0.11406073E+04</pdfrwt>
<pdfrwt beam="2">  1       21 0.15403485E+00 0.11406073E+04</pdfrwt>
<totfact> 0.17230519E+01</totfact>
</mgrwt>
</event>
<event>
 8    1  0.1094795E-005  0.1231751E+04  0.7818608E-02  0.8601011E-01
         21   -1    0    0  503  502  0.00000000000E+00  0.00000000000E+00  0.50076423759E+03  0.50076423759E+03  0.00000000000E+00 0. -1.
         21   -1    0    0  501  503 -0.00000000000E+00 -0.00000000000E+00 -0.32327650868E+04  0.32327650868E+04  0.00000000000E+00 0. -1.
    9000010    2    1    2  501    0 -0.39933425588E+03 -0.59694710601E+03 -0.19999686689E+04  0.23006713023E+04  0.88170293696E+03 0.  0.
   -9000010    2    1    2    0  502  0.39933425588E+03  0.59694710601E+03 -0.73203218030E+03  0.14328580221E+04  0.10006984078E+04 0.  0.
        -13    1    3    3    0    0  0.76605465138E+02 -0.13665746227E+03 -0.13951059384E+04  0.14038747272E+04  0.10566000000E+00 0.  1.
          4    1    3    3  501    0 -0.47593972102E+03 -0.46028964374E+03 -0.60486273055E+03  0.89679657503E+03  0.00000000000E+00 0.  1.
         13    1    4    4    0    0  0.26544981634E+03  0.51748038996E+03  0.96744815241E+02  0.58958386124E+03  0.10566000000E+00 0. -1.
         -4    1    4    4    0  502  0.13388443954E+03  0.79466716042E+02 -0.82877699554E+03  0.84327416090E+03  0.00000000000E+00 0. -1.
<mgrwt>
<rscale>  2 0.12073996E+04</rscale>
<asrwt>0</asrwt>
<pdfrwt beam="1">  1       21 0.77040653E-01 0.12317512E+04</pdfrwt>
<pdfrwt beam="2">  1       21 0.49734847E+00 0.12317512E+04</pdfrwt>
<totfact> 0.82228466E-01</totfact>
</mgrwt>
</event>
<event>
 8    1  0.1094795E-005  0.1168436E+04  0.7818608E-02  0.8630925E-01
         21   -1    0    0  501  502  0.00000000000E+00  0.00000000000E+00  0.13222903585E+04  0.13222903585E+04  0.00000000000E+00 0.  1.
         21   -1    0    0  502  503 -0.00000000000E+00 -0.00000000000E+00 -0.10322910810E+04  0.10322910810E+04  0.00000000000E+00 0.  1.
   -9000010    2    1    2    0  503  0.15529954701E+03 -0.56795993233E+03  0.11336136803E+03  0.11739219152E+04  0.10092301170E+04 0.  0.
    9000010    2    1    2  501    0 -0.15529954701E+03  0.56795993233E+03  0.17663790948E+03  0.11806595243E+04  0.10079977814E+04 0.  0.
        -13    1    4    4    0    0 -0.23592077700E+03  0.58913714535E+03 -0.29633550655E+03  0.70039698219E+03  0.10566000000E+00 0.  1.
          4    1    4    4  501    0  0.80621229988E+02 -0.21177213018E+02  0.47297341604E+03  0.48026254211E+03  0.00000000000E+00 0.  1.
         13    1    3    3    0    0  0.57947651345E+02 -0.22658366160E+03  0.55795801083E+03  0.60499193302E+03  0.10566000000E+00 0. -1.
         -4    1    3    3    0  503  0.97351895669E+02 -0.34137627073E+03 -0.44459664280E+03  0.56892998216E+03  0.00000000000E+00 0. -1.
<mgrwt>
<rscale>  2 0.11681695E+04</rscale>
<asrwt>0</asrwt>
<pdfrwt beam="1">  1       21 0.20342929E+00 0.11684356E+04</pdfrwt>
<pdfrwt beam="2">  1       21 0.15881401E+00 0.11684356E+04</pdfrwt>
<totfact> 0.13831589E+01</totfact>
</mgrwt>
</event>
<event>
 8    1  0.1094795E-005  0.1127640E+04  0.7818608E-02  0.8665436E-01
         21   -1    0    0  503  502  0.00000000000E+00  0.00000000000E+00  0.46923539091E+03  0.46923539091E+03  0.00000000000E+00 0. -1.
         21   -1    0    0  501  503 -0.00000000000E+00 -0.00000000000E+00 -0.27866536252E+04  0.27866536252E+04  0.00000000000E+00 0. -1.
    9000010    2    1    2  501    0  0.27052647927E+03 -0.47903509703E+03 -0.83899460734E+03  0.13965054101E+04  0.97141968747E+03 0.  0.
   -9000010    2    1    2    0  502 -0.27052647927E+03  0.47903509703E+03 -0.14784236270E+04  0.18593836060E+04  0.98433316174E+03 0.  0.
        -13    1    3    3    0    0  0.39186252846E+03  0.18512591466E+03 -0.40993773720E+03  0.59655410906E+03  0.10566000000E+00 0.  1.
          4    1    3    3  501    0 -0.12133604919E+03 -0.66416101168E+03 -0.42905687013E+03  0.79995130107E+03  0.00000000000E+00 0.  1.
         13    1    4    4    0    0 -0.16464591661E+03  0.62689899321E+03 -0.39122346976E+03  0.75707756538E+03  0.10566000000E+00 0. -1.
         -4    1    4    4    0  502 -0.10588056266E+03 -0.14786389618E+03 -0.10872001572E+04  0.11023060406E+04  0.00000000000E+00 0. -1.
<mgrwt>
<rscale>  2 0.11248153E+04</rscale>
<asrwt>0</asrwt>
<pdfrwt beam="1">  1       21 0.72190058E-01 0.11276396E+04</pdfrwt>
<pdfrwt beam="2">  1       21 0.42871596E+00 0.11276396E+04</pdfrwt>
<totfact> 0.29415135E+00</totfact>
</mgrwt>
</event>
<event>
 8    1  0.1094795E-005  0.1147152E+04  0.7818608E-02  0.8649942E-01
         21   -1    0    0  501  502  0.00000000000E+00  0.00000000000E+00  0.12311174043E+04  0.12311174043E+04  0.00000000000E+00 0.  1.
         21   -1    0    0  502  503 -0.00000000000E+00 -0.00000000000E+00 -0.12972729869E+04  0.12972729869E+04  0.00000000000E+00 0.  1.
   -9000010    2    1    2    0  503  0.17658432429E+03  0.56715738302E+03 -0.57657350383E+03  0.12728088549E+04  0.96682772766E+03 0.  0.
    9000010    2    1    2  501    0 -0.17658432429E+03 -0.56715738302E+03  0.51041792128E+03  0.12555815364E+04  0.98138117949E+03 0.  0.
        -13    1    4    4    0    0 -0.23907761877E+02 -0.63976375953E+02  0.69495785607E+03  0.69830580023E+03  0.10566000000E+00 0.  1.
          4    1    4    4  501    0 -0.15267656241E+03 -0.50318100707E+03 -0.18453993479E+03  0.55727573616E+03  0.00000000000E+00 0.  1.
         13    1    3    3    0    0 -0.14950382466E+03  0.72508457141E+03 -0.52326508485E+03  0.90658997870E+03  0.10566000000E+00 0. -1.
         -4    1    3    3    0  503  0.32608814895E+03 -0.15792718839E+03 -0.53308418979E+02  0.36621887616E+03  0.00000000000E+00 0. -1.
<mgrwt>
<rscale>  2 0.11440333E+04</rscale>
<asrwt>0</asrwt>
<pdfrwt beam="1">  1       21 0.18940268E+00 0.11471524E+04</pdfrwt>
<pdfrwt beam="2">  1       21 0.19958046E+00 0.11471524E+04</pdfrwt>
<totfact> 0.82875906E+00</totfact>
</mgrwt>
</event>
<event>
 8    1  0.1094795E-005  0.1023290E+04  0.7818608E-02  0.8759113E-01
         21   -1    0    0  501  502  0.00000000000E+00  0.00000000000E+00  0.15270673210E+04  0.15270673210E+04  0.00000000000E+00 0. -1.
         21   -1    0    0  502  503 -0.00000000000E+00 -0.00000000000E+00 -0.67040583854E+03  0.67040583854E+03  0.00000000000E+00 0. -1.
   -9000010    2    1    2    0  503 -0.24473497532E+03 -0.10080561676E+02  0.37043067415E+03  0.10882743476E+04  0.99354181863E+03 0.  0.
    9000010    2    1    2  501    0  0.24473497532E+03  0.10080561676E+02  0.48623080830E+03  0.11091988120E+04  0.96638748939E+03 0.  0.
        -13    1    4    4    0    0  0.24123076296E+03  0.19305140020E+03 -0.22022741089E+03  0.37942225526E+03  0.10566000000E+00 0.  1.
          4    1    4    4  501    0  0.35042123586E+01 -0.18297083852E+03  0.70645821919E+03  0.72977655670E+03  0.00000000000E+00 0.  1.
         13    1    3    3    0    0 -0.14169541460E+03  0.13522701748E+03  0.69280400133E+03  0.71995925732E+03  0.10566000000E+00 0. -1.
         -4    1    3    3    0  503 -0.10303956072E+03 -0.14530757915E+03 -0.32237332718E+03  0.36831509025E+03  0.00000000000E+00 0. -1.
<mgrwt>
<rscale>  2 0.10166394E+04</rscale>
<asrwt>0</asrwt>
<pdfrwt beam="1">  1       21 0.23493343E+00 0.10232899E+04</pdfrwt>
<pdfrwt beam="2">  1       21 0.10313936E+00 0.10232899E+04</pdfrwt>
<totfact> 0.28649558E+01</totfact>
</mgrwt>
</event>
<event>
 8    1  0.1094795E-005  0.1111080E+04  0.7818608E-02  0.8678752E-01
         21   -1    0    0  501  502  0.00000000000E+00  0.00000000000E+00  0.11585000464E+04  0.11585000464E+04  0.00000000000E+00 0. -1.
         21   -1    0    0  502  503 -0.00000000000E+00 -0.00000000000E+00 -0.19990220321E+04  0.19990220321E+04  0.00000000000E+00 0. -1.
   -9000010    2    1    2    0  503 -0.45896798982E+03 -0.88938682302E+02 -0.15035092543E+04  0.18636704846E+04  0.99707867932E+03 0.  0.
    9000010    2    1    2  501    0  0.45896798982E+03  0.88938682302E+02  0.66298726863E+03  0.12938515938E+04  0.10079375594E+04 0.  0.
        -13    1    4    4    0    0  0.76788114088E+03  0.17922823140E+02  0.33573981743E+03  0.83826243520E+03  0.10566000000E+00 0.  1.
          4    1    4    4  501    0 -0.30891315105E+03  0.71015859162E+02  0.32724745120E+03  0.45558915863E+03  0.00000000000E+00 0.  1.
         13    1    3    3    0    0 -0.74819169117E+03  0.73600573424E+02 -0.11875741223E+04  0.14055390988E+04  0.10566000000E+00 0. -1.
         -4    1    3    3    0  503  0.28922370134E+03 -0.16253925573E+03 -0.31593513194E+03  0.45813138581E+03  0.00000000000E+00 0. -1.
<mgrwt>
<rscale>  2 0.11086119E+04</rscale>
<asrwt>0</asrwt>
<pdfrwt beam="1">  1       21 0.17823078E+00 0.11110805E+04</pdfrwt>
<pdfrwt beam="2">  1       21 0.30754185E+00 0.11110805E+04</pdfrwt>
<totfact> 0.16690858E+00</totfact>
</mgrwt>
</event>
<event>
 8    1  0.1094795E-005  0.1076880E+04  0.7818608E-02  0.8736942E-01
         21   -1    0    0  501  502  0.00000000000E+00  0.00000000000E+00  0.69356356689E+03  0.69356356689E+03  0.00000000000E+00 0.  1.
         21   -1    0    0  502  503 -0.00000000000E+00 -0.00000000000E+00 -0.14823020302E+04  0.14823020302E+04  0.00000000000E+00 0.  1.
   -9000010    2    1    2    0  503 -0.22627822617E+03  0.29769008169E+03 -0.31088867594E+03  0.11208573991E+04  0.10098753982E+04 0.  0.
    9000010    2    1    2  501    0  0.22627822617E+03 -0.29769008169E+03 -0.47784978741E+03  0.10550081980E+04  0.86306468945E+03 0.  0.
        -13    1    4    4    0    0  0.33726665045E+03 -0.22555288852E+03  0.13532353333E+03  0.42770944444E+03  0.10566000000E+00 0.  1.
          4    1    4    4  501    0 -0.11098842428E+03 -0.72137193165E+02 -0.61317332074E+03  0.62729875357E+03  0.00000000000E+00 0.  1.
         13    1    3    3    0    0 -0.87254471428E+02 -0.34318121303E+03  0.72197089189E+02  0.36138500053E+03  0.10566000000E+00 0. -1.
         -4    1    3    3    0  503 -0.13902375474E+03  0.64087129472E+03 -0.38308576513E+03  0.75947239859E+03  0.00000000000E+00 0. -1.
<mgrwt>
<rscale>  2 0.10410581E+04</rscale>
<asrwt>0</asrwt>
<pdfrwt beam="1">  1       21 0.10670209E+00 0.10768795E+04</pdfrwt>
<pdfrwt beam="2">  1       21 0.22804647E+00 0.10768795E+04</pdfrwt>
<totfact> 0.29102001E+01</totfact>
</mgrwt>
</event>
<event>
 8    1  0.1094795E-005  0.1156406E+04  0.7818608E-02  0.8642084E-01
         21   -1    0    0  501  502  0.00000000000E+00  0.00000000000E+00  0.16914847691E+04  0.16914847691E+04  0.00000000000E+00 0. -1.
         21   -1    0    0  502  503 -0.00000000000E+00 -0.00000000000E+00 -0.10255797806E+04  0.10255797806E+04  0.00000000000E+00 0. -1.
   -9000010    2    1    2    0  503 -0.33745859901E+03  0.44955582039E+03 -0.32549019168E+03  0.12013405726E+04  0.10105921853E+04 0.  0.
    9000010    2    1    2  501    0  0.33745859901E+03 -0.44955582039E+03  0.99139518019E+03  0.15157239771E+04  0.99928776127E+03 0.  0.
        -13    1    4    4    0    0  0.79731512226E+02  0.95182582864E+02  0.89723063215E+03  0.90578124100E+03  0.10566000000E+00 0.  1.
          4    1    4    4  501    0  0.25772708678E+03 -0.54473840325E+03  0.94164548044E+02  0.60994273612E+03  0.00000000000E+00 0.  1.
         13    1    3    3    0    0 -0.27517618693E+03 -0.52321492159E+02  0.29103398847E+03  0.40393101639E+03  0.10566000000E+00 0. -1.
         -4    1    3    3    0  503 -0.62282412074E+02  0.50187731255E+03 -0.61652418014E+03  0.79740955625E+03  0.00000000000E+00 0. -1.
<mgrwt>
<rscale>  2 0.11539318E+04</rscale>
<asrwt>0</asrwt>
<pdfrwt beam="1">  1       21 0.26022843E+00 0.11564062E+04</pdfrwt>
<pdfrwt beam="2">  1       21 0.15778150E+00 0.11564062E+04</pdfrwt>
<totfact> 0.53431708E+00</totfact>
</mgrwt>
</event>
<event>
 8    1  0.1094795E-005  0.1328421E+04  0.7818608E-02  0.8525515E-01
         21   -1    0    0  503  502  0.00000000000E+00  0.00000000000E+00  0.17523368724E+04  0.17523368724E+04  0.00000000000E+00 0. -1.
         21   -1    0    0  501  503 -0.00000000000E+00 -0.00000000000E+00 -0.96400007376E+03  0.96400007376E+03  0.00000000000E+00 0.  1.
    9000010    2    1    2  501    0  0.59833224635E+03 -0.48918252946E+03  0.42656902064E+03  0.13952287338E+04  0.10804633571E+04 0.  0.
   -9000010    2    1    2    0  502 -0.59833224635E+03  0.48918252946E+03  0.36176777800E+03  0.13211082124E+04  0.10085385265E+04 0.  0.
        -13    1    3    3    0    0  0.61949317105E+02 -0.64791440858E+03 -0.60286842151E+02  0.65365534744E+03  0.10566000000E+00 0.  1.
          4    1    3    3  501    0  0.53638292924E+03  0.15873187913E+03  0.48685586279E+03  0.74157338636E+03  0.00000000000E+00 0.  1.
         13    1    4    4    0    0 -0.23219998357E+03  0.23414402567E+03 -0.35010649826E+03  0.48095200219E+03  0.10566000000E+00 0. -1.
         -4    1    4    4    0  502 -0.36613226277E+03  0.25503850379E+03  0.71187427626E+03  0.84015621016E+03  0.00000000000E+00 0. -1.
<mgrwt>
<rscale>  2 0.13137263E+04</rscale>
<asrwt>0</asrwt>
<pdfrwt beam="1">  1       21 0.26959029E+00 0.13284209E+04</pdfrwt>
<pdfrwt beam="2">  1       21 0.14830770E+00 0.13284209E+04</pdfrwt>
<totfact> 0.53588121E+00</totfact>
</mgrwt>
</event>
<event>
 8    1  0.1094795E-005  0.1126152E+04  0.7818608E-02  0.8670788E-01
         21   -1    0    0  501  502  0.00000000000E+00  0.00000000000E+00  0.11224077958E+04  0.11224077958E+04  0.00000000000E+00 0.  1.
         21   -1    0    0  502  503 -0.00000000000E+00 -0.00000000000E+00 -0.10992388172E+04  0.10992388172E+04  0.00000000000E+00 0.  1.
   -9000010    2    1    2    0  503  0.43944242762E+03  0.21721305944E+03  0.33151087922E+02  0.10954507944E+04  0.97909258390E+03 0.  0.
    9000010    2    1    2  501    0 -0.43944242762E+03 -0.21721305944E+03 -0.99821093476E+01  0.11261958187E+04  0.10138669632E+04 0.  0.
        -13    1    4    4    0    0 -0.45595285112E+03 -0.51495451083E+03  0.24874734825E+03  0.73140030428E+03  0.10566000000E+00 0.  1.
          4    1    4    4  501    0  0.16510423506E+02  0.29774145138E+03 -0.25872945760E+03  0.39479551440E+03  0.00000000000E+00 0.  1.
         13    1    3    3    0    0  0.47908427571E+03 -0.49537253240E+02 -0.37212556232E+03  0.60864860798E+03  0.10566000000E+00 0. -1.
         -4    1    3    3    0  503 -0.39641848093E+02  0.26675031268E+03  0.40527665024E+03  0.48680218638E+03  0.00000000000E+00 0. -1.
<mgrwt>
<rscale>  2 0.11182686E+04</rscale>
<asrwt>0</asrwt>
<pdfrwt beam="1">  1       21 0.17267812E+00 0.11261516E+04</pdfrwt>
<pdfrwt beam="2">  1       21 0.16911366E+00 0.11261516E+04</pdfrwt>
<totfact> 0.20120114E+01</totfact>
</mgrwt>
</event>
<event>
 8    1  0.1094795E-005  0.1341609E+04  0.7818608E-02  0.8539843E-01
         21   -1    0    0  503  502  0.00000000000E+00  0.00000000000E+00  0.15853110186E+04  0.15853110186E+04  0.00000000000E+00 0. -1.
         21   -1    0    0  501  503 -0.00000000000E+00 -0.00000000000E+00 -0.10100340096E+04  0.10100340096E+04  0.00000000000E+00 0. -1.
    9000010    2    1    2  501    0 -0.89334189683E+03  0.30316956172E+02  0.59337456699E+02  0.11579488988E+04  0.73372055718E+03 0.  0.
   -9000010    2    1    2    0  502  0.89334189683E+03 -0.30316956172E+02  0.51593955226E+03  0.14373961294E+04  0.10004674651E+04 0.  0.
        -13    1    3    3    0    0 -0.36039957820E+03 -0.61896798845E+02 -0.32917492358E+03  0.49201139331E+03  0.10566000000E+00 0.  1.
          4    1    3    3  501    0 -0.53294231863E+03  0.92213755016E+02  0.38851238027E+03  0.66593750549E+03  0.00000000000E+00 0.  1.
         13    1    4    4    0    0  0.64582275753E+02 -0.41328897567E+03  0.24635580296E+03  0.48545838191E+03  0.10566000000E+00 0. -1.
         -4    1    4    4    0  502  0.82875962107E+03  0.38297201950E+03  0.26958374930E+03  0.95193774751E+03  0.00000000000E+00 0. -1.
<mgrwt>
<rscale>  2 0.12927038E+04</rscale>
<asrwt>0</asrwt>
<pdfrwt beam="1">  1       21 0.24389400E+00 0.13416087E+04</pdfrwt>
<pdfrwt beam="2">  1       21 0.15538985E+00 0.13416087E+04</pdfrwt>
<totfact> 0.71030938E+00</totfact>
</mgrwt>
</event>
<event>
 8    1  0.1094795E-005  0.1059004E+04  0.7818608E-02  0.8721483E-01
         21   -1    0    0  503  502  0.00000000000E+00  0.00000000000E+00  0.80824423374E+03  0.80824423374E+03  0.00000000000E+00 0.  1.
         21   -1    0    0  501  503 -0.00000000000E+00 -0.00000000000E+00 -0.13885252868E+04  0.13885252868E+04  0.00000000000E+00 0.  1.
    9000010    2    1    2  501    0 -0.13289225287E+03  0.31119076257E+03 -0.34569422671E+03  0.11120939340E+04  0.10013732461E+04 0.  0.
   -9000010    2    1    2    0  502  0.13289225287E+03 -0.31119076257E+03 -0.23458682633E+03  0.10846755865E+04  0.10034889672E+04 0.  0.
        -13    1    3    3    0    0  0.93018545622E+02 -0.10114561477E+03  0.29029935132E+03  0.32118002703E+03  0.10566000000E+00 0.  1.
          4    1    3    3  501    0 -0.22591079849E+03  0.41233637734E+03 -0.63599357803E+03  0.79091390698E+03  0.00000000000E+00 0.  1.
         13    1    4    4    0    0  0.47260170019E+03 -0.46962017988E+03 -0.53530302214E+02  0.66840181387E+03  0.10566000000E+00 0. -1.
         -4    1    4    4    0  502 -0.33970944732E+03  0.15842941731E+03 -0.18105652411E+03  0.41627377264E+03  0.00000000000E+00 0. -1.
<mgrwt>
<rscale>  2 0.10585028E+04</rscale>
<asrwt>0</asrwt>
<pdfrwt beam="1">  1       21 0.12434527E+00 0.10590043E+04</pdfrwt>
<pdfrwt beam="2">  1       21 0.21361927E+00 0.10590043E+04</pdfrwt>
<totfact> 0.24605657E+01</totfact>
</mgrwt>
</event>
<event>
 8    1  0.1094795E-005  0.1123460E+04  0.7818608E-02  0.8670309E-01
         21   -1    0    0  503  502  0.00000000000E+00  0.00000000000E+00  0.57240094036E+03  0.57240094036E+03  0.00000000000E+00 0. -1.
         21   -1    0    0  501  503 -0.00000000000E+00 -0.00000000000E+00 -0.22278815253E+04  0.22278815253E+04  0.00000000000E+00 0. -1.
    9000010    2    1    2  501    0  0.93196895636E+02 -0.46211370728E+03 -0.10482859489E+04  0.15232359397E+04  0.99955467953E+03 0.  0.
   -9000010    2    1    2    0  502 -0.93196895636E+02  0.46211370728E+03 -0.60719463602E+03  0.12770465260E+04  0.10197684853E+04 0.  0.
        -13    1    3    3    0    0  0.43775678329E+03  0.80277415185E+02 -0.56480060150E+03  0.71907940821E+03  0.10566000000E+00 0.  1.
          4    1    3    3  501    0 -0.34455988765E+03 -0.54239112246E+03 -0.48348534741E+03  0.80415653144E+03  0.00000000000E+00 0.  1.
         13    1    4    4    0    0 -0.48217505932E+03 -0.34040323807E+02 -0.34690048232E+03  0.59497183738E+03  0.10566000000E+00 0. -1.
         -4    1    4    4    0  502  0.38897816369E+03  0.49615403108E+03 -0.26029415370E+03  0.68207468860E+03  0.00000000000E+00 0. -1.
<mgrwt>
<rscale>  2 0.11188529E+04</rscale>
<asrwt>0</asrwt>
<pdfrwt beam="1">  1       21 0.88061684E-01 0.11234601E+04</pdfrwt>
<pdfrwt beam="2">  1       21 0.34275100E+00 0.11234601E+04</pdfrwt>
<totfact> 0.71823348E+00</totfact>
</mgrwt>
</event>
<event>
 8    1  0.1094795E-005  0.1203780E+04  0.7818608E-02  0.8605928E-01
         21   -1    0    0  501  502  0.00000000000E+00  0.00000000000E+00  0.57584567992E+03  0.57584567992E+03  0.00000000000E+00 0. -1.
         21   -1    0    0  502  503 -0.00000000000E+00 -0.00000000000E+00 -0.26296307304E+04  0.26296307304E+04  0.00000000000E+00 0.  1.
   -9000010    2    1    2    0  503 -0.62162638396E+03  0.21706273119E+03 -0.66503089240E+03  0.13752648607E+04  0.10077458801E+04 0.  0.
    9000010    2    1    2  501    0  0.62162638396E+03 -0.21706273119E+03 -0.13887541581E+04  0.18302115496E+04  0.99373065475E+03 0.  0.
        -13    1    4    4    0    0  0.32241755717E+03 -0.14689853845E+03  0.51058267813E+02  0.35796538889E+03  0.10566000000E+00 0.  1.
          4    1    4    4  501    0  0.29920882679E+03 -0.70164192738E+02 -0.14398124259E+04  0.14722461607E+04  0.00000000000E+00 0.  1.
         13    1    3    3    0    0 -0.75285475593E+03  0.67707674386E+02 -0.82584578602E+03  0.11195516451E+04  0.10566000000E+00 0. -1.
         -4    1    3    3    0  503  0.13122837197E+03  0.14935505680E+03  0.16081489362E+03  0.25571321556E+03  0.00000000000E+00 0. -1.
<mgrwt>
<rscale>  2 0.12008427E+04</rscale>
<asrwt>0</asrwt>
<pdfrwt beam="1">  1       21 0.88591645E-01 0.12037804E+04</pdfrwt>
<pdfrwt beam="2">  1       21 0.40455856E+00 0.12037804E+04</pdfrwt>
<totfact> 0.25696962E+00</totfact>
</mgrwt>
</event>
<event>
 8    1  0.1094795E-005  0.1103941E+04  0.7818608E-02  0.8687701E-01
         21   -1    0    0  503  502  0.00000000000E+00  0.00000000000E+00  0.10111363862E+04  0.10111363862E+04  0.00000000000E+00 0. -1.
         21   -1    0    0  501  503 -0.00000000000E+00 -0.00000000000E+00 -0.12451224073E+04  0.12451224073E+04  0.00000000000E+00 0. -1.
    9000010    2    1    2  501    0 -0.44759165826E+03 -0.13485560823E+03 -0.37784071837E+03  0.11668114919E+04  0.10000805575E+04 0.  0.
   -9000010    2    1    2    0  502  0.44759165826E+03  0.13485560823E+03  0.14385469721E+03  0.10894473016E+04  0.97348699088E+03 0.  0.
        -13    1    3    3    0    0  0.20685059141E+03 -0.12665621452E+03 -0.44711119012E+03  0.50866235494E+03  0.10566000000E+00 0.  1.
          4    1    3    3  501    0 -0.65444224966E+03 -0.81993937086E+01  0.69270471746E+02  0.65814913694E+03  0.00000000000E+00 0.  1.
         13    1    4    4    0    0  0.64966296830E+03  0.70788635741E+02 -0.20180899536E+03  0.68395897911E+03  0.10566000000E+00 0. -1.
         -4    1    4    4    0  502 -0.20207131004E+03  0.64066972485E+02  0.34566369257E+03  0.40548832248E+03  0.00000000000E+00 0. -1.
<mgrwt>
<rscale>  2 0.10978830E+04</rscale>
<asrwt>0</asrwt>
<pdfrwt beam="1">  1       21 0.15555944E+00 0.11039409E+04</pdfrwt>
<pdfrwt beam="2">  1       21 0.19155729E+00 0.11039409E+04</pdfrwt>
<totfact> 0.18553637E+01</totfact>
</mgrwt>
</event>
<event>
 8    1  0.1094795E-005  0.1107601E+04  0.7818608E-02  0.8688801E-01
         21   -1    0    0  501  502  0.00000000000E+00  0.00000000000E+00  0.18530879322E+04  0.18530879322E+04  0.00000000000E+00 0.  1.
         21   -1    0    0  502  503 -0.00000000000E+00 -0.00000000000E+00 -0.66762883473E+03  0.66762883473E+03  0.00000000000E+00 0.  1.
   -9000010    2    1    2    0  503 -0.44853524069E+03 -0.11271729376E+03  0.33105569484E+03  0.11560176846E+04  0.10064243457E+04 0.  0.
    9000010    2    1    2  501    0  0.44853524069E+03  0.11271729376E+03  0.85440340263E+03  0.13646990823E+04  0.95838893999E+03 0.  0.
        -13    1    4    4    0    0  0.25982023457E+03  0.34145030107E+03  0.95872014923E+03  0.10503519401E+04  0.10566000000E+00 0.  1.
          4    1    4    4  501    0  0.18871500613E+03 -0.22873300731E+03 -0.10431674660E+03  0.31434714217E+03  0.00000000000E+00 0.  1.
         13    1    3    3    0    0  0.27402023012E+03  0.15973231503E+03  0.34800883240E+01  0.31719650244E+03  0.10566000000E+00 0. -1.
         -4    1    3    3    0  503 -0.72255547082E+03 -0.27244960878E+03  0.32757560651E+03  0.83882118221E+03  0.00000000000E+00 0. -1.
<mgrwt>
<rscale>  2 0.10965723E+04</rscale>
<asrwt>0</asrwt>
<pdfrwt beam="1">  1       21 0.28509045E+00 0.11076006E+04</pdfrwt>
<pdfrwt beam="2">  1       21 0.10271213E+00 0.11076006E+04</pdfrwt>
<totfact> 0.12342864E+01</totfact>
</mgrwt>
</event>
<event>
 8    1  0.1094795E-005  0.1305350E+04  0.7818608E-02  0.8531360E-01
         21   -1    0    0  501  502  0.00000000000E+00  0.00000000000E+00  0.10578353031E+04  0.10578353031E+04  0.00000000000E+00 0. -1.
         21   -1    0    0  502  503 -0.00000000000E+00 -0.00000000000E+00 -0.17532344128E+04  0.17532344128E+04  0.00000000000E+00 0.  1.
   -9000010    2    1    2    0  503  0.88706728622E+02  0.83422489204E+03 -0.75019139133E+03  0.15055649759E+04  0.10000693569E+04 0.  0.
    9000010    2    1    2  501    0 -0.88706728622E+02 -0.83422489204E+03  0.54792281725E+02  0.13055047401E+04  0.99876943184E+03 0.  0.
        -13    1    4    4    0    0  0.46619758952E+02 -0.10456808053E+04 -0.78781537944E+01  0.10467491701E+04  0.10566000000E+00 0.  1.
          4    1    4    4  501    0 -0.13532648757E+03  0.21145591330E+03  0.62670435520E+02  0.25875556998E+03  0.00000000000E+00 0.  1.
         13    1    3    3    0    0  0.16326667167E+03  0.19019229645E+03 -0.81625437821E+03  0.85387372416E+03  0.10566000000E+00 0. -1.
         -4    1    3    3    0  503 -0.74559943046E+02  0.64403259559E+03  0.66062986878E+02  0.65169125169E+03  0.00000000000E+00 0. -1.
<mgrwt>
<rscale>  2 0.13051011E+04</rscale>
<asrwt>0</asrwt>
<pdfrwt beam="1">  1       21 0.16274389E+00 0.13053501E+04</pdfrwt>
<pdfrwt beam="2">  1       21 0.26972837E+00 0.13053501E+04</pdfrwt>
<totfact> 0.40086439E+00</totfact>
</mgrwt>
</event>
<event>
 8    1  0.1094795E-005  0.1162535E+04  0.7818608E-02  0.8639898E-01
         21   -1    0    0  503  502  0.00000000000E+00  0.00000000000E+00  0.13042501349E+04  0.13042501349E+04  0.00000000000E+00 0. -1.
         21   -1    0    0  501  503 -0.00000000000E+00 -0.00000000000E+00 -0.10311140931E+04  0.10311140931E+04  0.00000000000E+00 0. -1.
    9000010    2    1    2  501    0 -0.13948005292E+03  0.53772573216E+03  0.28073960072E+03  0.11959527494E+04  0.10212172184E+04 0.  0.
   -9000010    2    1    2    0  502  0.13948005292E+03 -0.53772573216E+03 -0.76035589241E+01  0.11394114787E+04  0.99478492930E+03 0.  0.
        -13    1    3    3    0    0 -0.35184063009E+03  0.11436263652E+03  0.54108946994E+03  0.65547575643E+03  0.10566000000E+00 0.  1.
          4    1    3    3  501    0  0.21236057718E+03  0.42336309564E+03 -0.26034986922E+03  0.54047699293E+03  0.00000000000E+00 0.  1.
         13    1    4    4    0    0 -0.44820638730E+02  0.21187162763E+03 -0.24959408727E+03  0.33044772024E+03  0.10566000000E+00 0. -1.
         -4    1    4    4    0  502  0.18430069165E+03 -0.74959735978E+03  0.24199052835E+03  0.80896375849E+03  0.00000000000E+00 0. -1.
<mgrwt>
<rscale>  2 0.11567043E+04</rscale>
<asrwt>0</asrwt>
<pdfrwt beam="1">  1       21 0.20065387E+00 0.11625353E+04</pdfrwt>
<pdfrwt beam="2">  1       21 0.15863294E+00 0.11625353E+04</pdfrwt>
<totfact> 0.14607320E+01</totfact>
</mgrwt>
</event>
<event>
 8    1  0.1094795E-005  0.1390508E+04  0.7818608E-02  0.8477839E-01
         21   -1    0    0  501  502  0.00000000000E+00  0.00000000000E+00  0.15539023429E+04  0.15539023429E+04  0.00000000000E+00 0.  1.
         21   -1    0    0  502  503 -0.00000000000E+00 -0.00000000000E+00 -0.14697582568E+04  0.14697582568E+04  0.00000000000E+00 0. -1.
   -9000010    2    1    2    0  503  0.32302094130E+02 -0.95592665062E+03  0.65187151924E+03  0.15357239298E+04  0.10092929825E+04 0.  0.
    9000010    2    1    2  501    0 -0.32302094130E+02  0.95592665062E+03 -0.56772743314E+03  0.14879366699E+04  0.98833289367E+03 0.  0.
        -13    1    4    4    0    0 -0.14197362907E+03  0.88510638207E+03  0.91544012498E+01  0.89646730735E+03  0.10566000000E+00 0.  1.
          4    1    4    4  501    0  0.10967153494E+03  0.70820268556E+02 -0.57688183439E+03  0.59146936257E+03  0.00000000000E+00 0.  1.
         13    1    3    3    0    0  0.20915490934E+03  0.14449121379E+03  0.21133156425E+02  0.25508843257E+03  0.10566000000E+00 0. -1.
         -4    1    3    3    0  503 -0.17685281521E+03 -0.11004178644E+04  0.63073836281E+03  0.12806354973E+04  0.00000000000E+00 0. -1.
<mgrwt>
<rscale>  2 0.13867075E+04</rscale>
<asrwt>0</asrwt>
<pdfrwt beam="1">  1       21 0.23906190E+00 0.13905076E+04</pdfrwt>
<pdfrwt beam="2">  1       21 0.22611666E+00 0.13905076E+04</pdfrwt>
<totfact> 0.20602331E+00</totfact>
</mgrwt>
</event>
<event>
 8    1  0.1094795E-005  0.1314342E+04  0.7818608E-02  0.8527110E-01
         21   -1    0    0  501  502  0.00000000000E+00  0.00000000000E+00  0.38649350278E+04  0.38649350278E+04  0.00000000000E+00 0. -1.
         21   -1    0    0  502  503 -0.00000000000E+00 -0.00000000000E+00 -0.44991202881E+03  0.44991202881E+03  0.00000000000E+00 0. -1.
   -9000010    2    1    2    0  503 -0.10968796622E+03  0.83882733414E+03  0.14465932125E+04  0.19545144110E+04  0.10058985605E+04 0.  0.
    9000010    2    1    2  501    0  0.10968796622E+03 -0.83882733414E+03  0.19684297864E+04  0.23603326455E+04  0.99034924495E+03 0.  0.
        -13    1    4    4    0    0  0.47296634389E+03 -0.37122344197E+03  0.14633181293E+04  0.15820252732E+04  0.10566000000E+00 0.  1.
          4    1    4    4  501    0 -0.36327837767E+03 -0.46760389217E+03  0.50511165715E+03  0.77830737234E+03  0.00000000000E+00 0.  1.
         13    1    3    3    0    0  0.28576037134E+03  0.38089431446E+03  0.12179209238E+04  0.13076967754E+04  0.10566000000E+00 0. -1.
         -4    1    3    3    0  503 -0.39544833755E+03  0.45793301968E+03  0.22867228876E+03  0.64681763568E+03  0.00000000000E+00 0. -1.
<mgrwt>
<rscale>  2 0.13113664E+04</rscale>
<asrwt>0</asrwt>
<pdfrwt beam="1">  1       21 0.59460537E+00 0.13143419E+04</pdfrwt>
<pdfrwt beam="2">  1       21 0.69217238E-01 0.13143419E+04</pdfrwt>
<totfact> 0.20527886E-01</totfact>
</mgrwt>
</event>
<event>
 8    1  0.1094795E-005  0.1108024E+04  0.7818608E-02  0.8702629E-01
         21   -1    0    0  503  502  0.00000000000E+00  0.00000000000E+00  0.75878858578E+03  0.75878858578E+03  0.00000000000E+00 0.  1.
         21   -1    0    0  501  503 -0.00000000000E+00 -0.00000000000E+00 -0.15078096342E+04  0.15078096342E+04  0.00000000000E+00 0.  1.
    9000010    2    1    2  501    0 -0.18381258053E+03  0.98443009806E+02 -0.54540335062E+03  0.11400203288E+04  0.97913402778E+03 0.  0.
   -9000010    2    1    2    0  502  0.18381258053E+03 -0.98443009806E+02 -0.20361769779E+03  0.11265778911E+04  0.10882276816E+04 0.  0.
        -13    1    3    3    0    0  0.14584416958E+03  0.34119426048E+03 -0.62128367705E+03  0.72365562508E+03  0.10566000000E+00 0.  1.
          4    1    3    3  501    0 -0.32965675012E+03 -0.24275125067E+03  0.75880326425E+02  0.41636470376E+03  0.00000000000E+00 0.  1.
         13    1    4    4    0    0  0.24629348200E+03 -0.18571507612E+03 -0.62219318658E+03  0.69446017982E+03  0.10566000000E+00 0. -1.
         -4    1    4    4    0  502 -0.62480901464E+02  0.87272066317E+02  0.41857548879E+03  0.43211771131E+03  0.00000000000E+00 0. -1.
<mgrwt>
<rscale>  2 0.10802648E+04</rscale>
<asrwt>0</asrwt>
<pdfrwt beam="1">  1       21 0.11673671E+00 0.11080242E+04</pdfrwt>
<pdfrwt beam="2">  1       21 0.23197071E+00 0.11080242E+04</pdfrwt>
<totfact> 0.21157747E+01</totfact>
</mgrwt>
</event>
<event>
 8    1  0.1094795E-005  0.1488599E+04  0.7818608E-02  0.8418259E-01
         21   -1    0    0  503  502  0.00000000000E+00  0.00000000000E+00  0.10659609359E+04  0.10659609359E+04  0.00000000000E+00 0. -1.
         21   -1    0    0  501  503 -0.00000000000E+00 -0.00000000000E+00 -0.21279799597E+04  0.21279799597E+04  0.00000000000E+00 0.  1.
    9000010    2    1    2  501    0  0.10620274088E+04 -0.24548353402E+03 -0.81778935780E+03  0.16854400442E+04  0.99184894327E+03 0.  0.
   -9000010    2    1    2    0  502 -0.10620274088E+04  0.24548353402E+03 -0.24422966597E+03  0.15085008515E+04  0.10137861247E+04 0.  0.
        -13    1    3    3    0    0  0.65792736009E+03  0.30868151240E+03 -0.17962511963E+03  0.74861063445E+03  0.10566000000E+00 0.  1.
          4    1    3    3  501    0  0.40410004871E+03 -0.55416504642E+03 -0.63816423817E+03  0.93682940972E+03  0.00000000000E+00 0.  1.
         13    1    4    4    0    0  0.12733060024E+03  0.25035955442E+03 -0.14203895746E+03  0.31475079801E+03  0.10566000000E+00 0. -1.
         -4    1    4    4    0  502 -0.11893580090E+04 -0.48760203980E+01 -0.10219070851E+03  0.11937500535E+04  0.00000000000E+00 0. -1.
<mgrwt>
<rscale>  2 0.14848718E+04</rscale>
<asrwt>0</asrwt>
<pdfrwt beam="1">  1       21 0.16399399E+00 0.14885989E+04</pdfrwt>
<pdfrwt beam="2">  1       21 0.32738153E+00 0.14885989E+04</pdfrwt>
<totfact> 0.14740784E+00</totfact>
</mgrwt>
</event>
<event>
 8    1  0.1094795E-005  0.1051483E+04  0.7818608E-02  0.8728232E-01
         21   -1    0    0  501  502  0.00000000000E+00  0.00000000000E+00  0.77427651730E+03  0.77427651730E+03  0.00000000000E+00 0.  1.
         21   -1    0    0  502  503 -0.00000000000E+00 -0.00000000000E+00 -0.14687043580E+04  0.14687043580E+04  0.00000000000E+00 0. -1.
   -9000010    2    1    2    0  503 -0.25249051678E+03  0.23961127333E+03 -0.15299895459E+03  0.10625559611E+04  0.99219527659E+03 0.  0.
    9000010    2    1    2  501    0  0.25249051678E+03 -0.23961127333E+03 -0.54142888614E+03  0.11804249143E+04  0.98949113998E+03 0.  0.
        -13    1    4    4    0    0 -0.37559407748E+03 -0.27361122024E+02 -0.27315940472E+03  0.46522641110E+03  0.10566000000E+00 0.  1.
          4    1    4    4  501    0  0.62808459426E+03 -0.21225015131E+03 -0.26826948143E+03  0.71519850317E+03  0.00000000000E+00 0.  1.
         13    1    3    3    0    0 -0.71325615769E+02  0.39549286681E+03  0.33238737649E+03  0.52152021090E+03  0.10566000000E+00 0. -1.
         -4    1    3    3    0  503 -0.18116490101E+03 -0.15588159348E+03 -0.48538633108E+03  0.54103575015E+03  0.00000000000E+00 0. -1.
<mgrwt>
<rscale>  2 0.10508446E+04</rscale>
<asrwt>0</asrwt>
<pdfrwt beam="1">  1       21 0.11911947E+00 0.10514830E+04</pdfrwt>
<pdfrwt beam="2">  1       21 0.22595451E+00 0.10514830E+04</pdfrwt>
<totfact> 0.22449148E+01</totfact>
</mgrwt>
</event>
<event>
 8    1  0.1094795E-005  0.1121356E+04  0.7818608E-02  0.8677231E-01
         21   -1    0    0  503  502  0.00000000000E+00  0.00000000000E+00  0.67426324803E+03  0.67426324803E+03  0.00000000000E+00 0. -1.
         21   -1    0    0  501  503 -0.00000000000E+00 -0.00000000000E+00 -0.17976117987E+04  0.17976117987E+04  0.00000000000E+00 0. -1.
    9000010    2    1    2  501    0 -0.33003550842E+03 -0.23424060301E+03 -0.62735067358E+03  0.12849160160E+04  0.10457763641E+04 0.  0.
   -9000010    2    1    2    0  502  0.33003550842E+03  0.23424060301E+03 -0.49599787712E+03  0.11869590307E+04  0.99953276567E+03 0.  0.
        -13    1    3    3    0    0  0.32325056189E+03 -0.25796000030E+03 -0.57206995275E+02  0.41750082513E+03  0.10566000000E+00 0.  1.
          4    1    3    3  501    0 -0.65328607031E+03  0.23719397290E+02 -0.57014367830E+03  0.86741519088E+03  0.00000000000E+00 0.  1.
         13    1    4    4    0    0  0.64152615071E+03  0.36549980196E+03 -0.30632959687E+03  0.79936458538E+03  0.10566000000E+00 0. -1.
         -4    1    4    4    0  502 -0.31149064229E+03 -0.13125919895E+03 -0.18966828025E+03  0.38759444536E+03  0.00000000000E+00 0. -1.
<mgrwt>
<rscale>  2 0.11104489E+04</rscale>
<asrwt>0</asrwt>
<pdfrwt beam="1">  1       21 0.10373281E+00 0.11213565E+04</pdfrwt>
<pdfrwt beam="2">  1       21 0.27655566E+00 0.11213565E+04</pdfrwt>
<totfact> 0.13790799E+01</totfact>
</mgrwt>
</event>
<event>
 8    1  0.1094795E-005  0.1202103E+04  0.7818608E-02  0.8623585E-01
         21   -1    0    0  503  502  0.00000000000E+00  0.00000000000E+00  0.11512334098E+04  0.11512334098E+04  0.00000000000E+00 0.  1.
         21   -1    0    0  501  503 -0.00000000000E+00 -0.00000000000E+00 -0.12136683883E+04  0.12136683883E+04  0.00000000000E+00 0.  1.
    9000010    2    1    2  501    0  0.85288071998E+02 -0.47800764184E+03  0.22277799633E+03  0.11294268499E+04  0.99509276593E+03 0.  0.
   -9000010    2    1    2    0  502 -0.85288071998E+02  0.47800764184E+03 -0.28521297484E+03  0.12354749482E+04  0.10996756548E+04 0.  0.
        -13    1    3    3    0    0  0.16684176024E+03 -0.31694720474E+03 -0.36689273914E+03  0.51273969688E+03  0.10566000000E+00 0.  1.
          4    1    3    3  501    0 -0.81553688241E+02 -0.16106043710E+03  0.58967073547E+03  0.61668715305E+03  0.00000000000E+00 0.  1.
         13    1    4    4    0    0  0.16281023227E+03  0.36487478854E+03 -0.66028407248E+03  0.77176152443E+03  0.10566000000E+00 0. -1.
         -4    1    4    4    0  502 -0.24809830427E+03  0.11313285330E+03  0.37507109764E+03  0.46371342375E+03  0.00000000000E+00 0. -1.
<mgrwt>
<rscale>  2 0.11776507E+04</rscale>
<asrwt>0</asrwt>
<pdfrwt beam="1">  1       21 0.17711283E+00 0.12021031E+04</pdfrwt>
<pdfrwt beam="2">  1       21 0.18671821E+00 0.12021031E+04</pdfrwt>
<totfact> 0.13038840E+01</totfact>
</mgrwt>
</event>
<event>
 8    1  0.1094795E-005  0.1041205E+04  0.7818608E-02  0.8738391E-01
         21   -1    0    0  501  502  0.00000000000E+00  0.00000000000E+00  0.82239479331E+03  0.82239479331E+03  0.00000000000E+00 0. -1.
         21   -1    0    0  502  503 -0.00000000000E+00 -0.00000000000E+00 -0.14776579962E+04  0.14776579962E+04  0.00000000000E+00 0. -1.
   -9000010    2    1    2    0  503 -0.24799745142E+03  0.91117955764E+02  0.59524100104E+02  0.10429046128E+04  0.10071254615E+04 0.  0.
    9000010    2    1    2  501    0  0.24799745142E+03 -0.91117955764E+02 -0.71478730296E+03  0.12571481767E+04  0.99984770436E+03 0.  0.
        -13    1    4    4    0    0 -0.12548801681E+03  0.18001136319E+03 -0.76223657385E+03  0.79319350661E+03  0.10566000000E+00 0.  1.
          4    1    4    4  501    0  0.37348546823E+03 -0.27112931896E+03  0.47449270896E+02  0.46395467008E+03  0.00000000000E+00 0.  1.
         13    1    3    3    0    0 -0.55199896453E+03  0.28512375404E+03  0.20471104825E+03  0.65414450727E+03  0.10566000000E+00 0. -1.
         -4    1    3    3    0  503  0.30400151311E+03 -0.19400579827E+03 -0.14518694815E+03  0.38876010552E+03  0.00000000000E+00 0. -1.
<mgrwt>
<rscale>  2 0.10394406E+04</rscale>
<asrwt>0</asrwt>
<pdfrwt beam="1">  1       21 0.12652228E+00 0.10412045E+04</pdfrwt>
<pdfrwt beam="2">  1       21 0.22733200E+00 0.10412045E+04</pdfrwt>
<totfact> 0.18534578E+01</totfact>
</mgrwt>
</event>
<event>
 8    1  0.1094795E-005  0.1649419E+04  0.7818608E-02  0.8329701E-01
         21   -1    0    0  503  502  0.00000000000E+00  0.00000000000E+00  0.17240977500E+04  0.17240977500E+04  0.00000000000E+00 0. -1.
         21   -1    0    0  501  503 -0.00000000000E+00 -0.00000000000E+00 -0.19321415062E+04  0.19321415062E+04  0.00000000000E+00 0.  1.
    9000010    2    1    2  501    0 -0.64891304955E+03  0.11220143211E+04 -0.89749783432E+03  0.18685227062E+04  0.10029309339E+04 0.  0.
   -9000010    2    1    2    0  502  0.64891304955E+03 -0.11220143211E+04  0.68945407813E+03  0.17877165501E+04  0.10200878662E+04 0.  0.
        -13    1    3    3    0    0 -0.57771997704E+03  0.12861616023E+04 -0.62438507602E+03  0.15420210029E+04  0.10566000000E+00 0.  1.
          4    1    3    3  501    0 -0.71193072510E+02 -0.16414728118E+03 -0.27311275829E+03  0.32650170327E+03  0.00000000000E+00 0.  1.
         13    1    4    4    0    0  0.74847356419E+03 -0.11297422372E+04  0.84923960672E+03  0.15992930061E+04  0.10566000000E+00 0. -1.
         -4    1    4    4    0  502 -0.99560514642E+02  0.77279160092E+01 -0.15978552859E+03  0.18842354393E+03  0.00000000000E+00 0. -1.
<mgrwt>
<rscale>  2 0.16467740E+04</rscale>
<asrwt>0</asrwt>
<pdfrwt beam="1">  1       21 0.26524581E+00 0.16494192E+04</pdfrwt>
<pdfrwt beam="2">  1       21 0.29725254E+00 0.16494192E+04</pdfrwt>
<totfact> 0.38561951E-01</totfact>
</mgrwt>
</event>
<event>
 8    1  0.1094795E-005  0.1018191E+04  0.7818608E-02  0.8764717E-01
         21   -1    0    0  503  502  0.00000000000E+00  0.00000000000E+00  0.13904790847E+04  0.13904790847E+04  0.00000000000E+00 0.  1.
         21   -1    0    0  501  503 -0.00000000000E+00 -0.00000000000E+00 -0.81263001551E+03  0.81263001551E+03  0.00000000000E+00 0.  1.
    9000010    2    1    2  501    0 -0.29290110259E+03 -0.57648449864E+02 -0.79326467876E+02  0.99125442014E+03  0.94190139466E+03 0.  0.
   -9000010    2    1    2    0  502  0.29290110259E+03  0.57648449864E+02  0.65717553709E+03  0.12118546801E+04  0.97344628997E+03 0.  0.
        -13    1    3    3    0    0 -0.40368886081E+03 -0.21015676776E+03  0.31547233951E+03  0.55376291998E+03  0.10566000000E+00 0.  1.
          4    1    3    3  501    0  0.11078775822E+03  0.15250831790E+03 -0.39479880739E+03  0.43749150016E+03  0.00000000000E+00 0.  1.
         13    1    4    4    0    0 -0.45458163456E+02 -0.12445004571E+03 -0.21852919501E+03  0.25555680139E+03  0.10566000000E+00 0. -1.
         -4    1    4    4    0  502  0.33835926605E+03  0.18209849557E+03  0.87570473210E+03  0.95629787871E+03  0.00000000000E+00 0. -1.
<mgrwt>
<rscale>  2 0.10105768E+04</rscale>
<asrwt>0</asrwt>
<pdfrwt beam="1">  1       21 0.21391986E+00 0.10181906E+04</pdfrwt>
<pdfrwt beam="2">  1       21 0.12502000E+00 0.10181906E+04</pdfrwt>
<totfact> 0.24324622E+01</totfact>
</mgrwt>
</event>
<event>
 8    1  0.1094795E-005  0.1050053E+04  0.7818608E-02  0.8732044E-01
         21   -1    0    0  501  502  0.00000000000E+00  0.00000000000E+00  0.19428564306E+04  0.19428564306E+04  0.00000000000E+00 0.  1.
         21   -1    0    0  502  503 -0.00000000000E+00 -0.00000000000E+00 -0.67048310943E+03  0.67048310943E+03  0.00000000000E+00 0.  1.
   -9000010    2    1    2    0  503  0.53668241096E+02  0.23884157086E+03  0.10223893799E+03  0.10411354427E+04  0.10067694043E+04 0.  0.
    9000010    2    1    2  501    0 -0.53668241096E+02 -0.23884157086E+03  0.11701343831E+04  0.15722040973E+04  0.10211198132E+04 0.  0.
        -13    1    4    4    0    0  0.30551639187E+03 -0.40198329290E+03  0.10412111868E+04  0.11571739628E+04  0.10566000000E+00 0.  1.
          4    1    4    4  501    0 -0.35918463297E+03  0.16314172204E+03  0.12892319637E+03  0.41503013456E+03  0.00000000000E+00 0.  1.
         13    1    3    3    0    0  0.28392695746E+03 -0.17246393736E+03  0.37142858816E+03  0.49831469387E+03  0.10566000000E+00 0. -1.
         -4    1    3    3    0  503 -0.23025871637E+03  0.41130550823E+03 -0.26918965016E+03  0.54282074879E+03  0.00000000000E+00 0. -1.
<mgrwt>
<rscale>  2 0.10465481E+04</rscale>
<asrwt>0</asrwt>
<pdfrwt beam="1">  1       21 0.29890099E+00 0.10500530E+04</pdfrwt>
<pdfrwt beam="2">  1       21 0.10315125E+00 0.10500530E+04</pdfrwt>
<totfact> 0.98666983E+00</totfact>
</mgrwt>
</event>
<event>
 8    1  0.1094795E-005  0.1098349E+04  0.7818608E-02  0.8689329E-01
         21   -1    0    0  501  502  0.00000000000E+00  0.00000000000E+00  0.19361667768E+04  0.19361667768E+04  0.00000000000E+00 0. -1.
         21   -1    0    0  502  503 -0.00000000000E+00 -0.00000000000E+00 -0.64952552816E+03  0.64952552816E+03  0.00000000000E+00 0. -1.
   -9000010    2    1    2    0  503  0.20280450386E+03 -0.38570651530E+03  0.93243000711E+03  0.14407621701E+04  0.10082017308E+04 0.  0.
    9000010    2    1    2  501    0 -0.20280450386E+03  0.38570651530E+03  0.35421124149E+03  0.11449301348E+04  0.99774757693E+03 0.  0.
        -13    1    4    4    0    0 -0.57397731046E+03  0.20267146919E+03  0.13472306910E+02  0.60885728341E+03  0.10566000000E+00 0.  1.
          4    1    4    4  501    0  0.37117280660E+03  0.18303504612E+03  0.34073893458E+03  0.53607285140E+03  0.00000000000E+00 0.  1.
         13    1    3    3    0    0 -0.22110925907E+03 -0.30777951062E+03  0.93591648102E+03  0.10097312525E+04  0.10566000000E+00 0. -1.
         -4    1    3    3    0  503  0.42391376293E+03 -0.77927004687E+02 -0.34864739146E+01  0.43103091764E+03  0.00000000000E+00 0. -1.
<mgrwt>
<rscale>  2 0.10959438E+04</rscale>
<asrwt>0</asrwt>
<pdfrwt beam="1">  1       21 0.29787181E+00 0.10983487E+04</pdfrwt>
<pdfrwt beam="2">  1       21 0.99927005E-01 0.10983487E+04</pdfrwt>
<totfact> 0.10793359E+01</totfact>
</mgrwt>
</event>
<event>
 8    1  0.1094795E-005  0.1064368E+04  0.7818608E-02  0.8721077E-01
         21   -1    0    0  503  502  0.00000000000E+00  0.00000000000E+00  0.17541588754E+04  0.17541588754E+04  0.00000000000E+00 0. -1.
         21   -1    0    0  501  503 -0.00000000000E+00 -0.00000000000E+00 -0.73853199537E+03  0.73853199537E+03  0.00000000000E+00 0. -1.
    9000010    2    1    2  501    0  0.66986660352E+02  0.33173981001E+03  0.40859784166E+02  0.10651522652E+04  0.10091289868E+04 0.  0.
   -9000010    2    1    2    0  502 -0.66986660352E+02 -0.33173981001E+03  0.97476709584E+03  0.14275386055E+04  0.98648723504E+03 0.  0.
        -13    1    3    3    0    0 -0.37678294166E+03 -0.65201577966E+02  0.22282927014E+03  0.44257149218E+03  0.10566000000E+00 0.  1.
          4    1    3    3  501    0  0.44376960201E+03  0.39694138797E+03 -0.18196948597E+03  0.62258077306E+03  0.00000000000E+00 0.  1.
         13    1    4    4    0    0 -0.68691243786E+02 -0.12467999905E+02 -0.19912170838E+03  0.21100569638E+03  0.10566000000E+00 0. -1.
         -4    1    4    4    0  502  0.17045834344E+01 -0.31927181010E+03  0.11738888042E+04  0.12165329091E+04  0.00000000000E+00 0. -1.
<mgrwt>
<rscale>  2 0.10589668E+04</rscale>
<asrwt>0</asrwt>
<pdfrwt beam="1">  1       21 0.26987059E+00 0.10643683E+04</pdfrwt>
<pdfrwt beam="2">  1       21 0.11362031E+00 0.10643683E+04</pdfrwt>
<totfact> 0.12193964E+01</totfact>
</mgrwt>
</event>
<event>
 8    1  0.1094795E-005  0.9981250E+03  0.7818608E-02  0.8777787E-01
         21   -1    0    0  503  502  0.00000000000E+00  0.00000000000E+00  0.10605404489E+04  0.10605404489E+04  0.00000000000E+00 0. -1.
         21   -1    0    0  501  503 -0.00000000000E+00 -0.00000000000E+00 -0.93623214912E+03  0.93623214912E+03  0.00000000000E+00 0. -1.
    9000010    2    1    2  501    0 -0.36976261406E+02 -0.16375441729E+03  0.99138703365E+01  0.99211360352E+03  0.97775680227E+03 0.  0.
   -9000010    2    1    2    0  502  0.36976261406E+02  0.16375441729E+03  0.11439442941E+03  0.10046589945E+04  0.98390591856E+03 0.  0.
        -13    1    3    3    0    0 -0.39340479064E+03  0.18368741352E+03 -0.16507535776E+03  0.46449787953E+03  0.10566000000E+00 0.  1.
          4    1    3    3  501    0  0.35642852924E+03 -0.34744183081E+03  0.17498922809E+03  0.52761572399E+03  0.00000000000E+00 0.  1.
         13    1    4    4    0    0 -0.37872445371E+03  0.25936421852E+03  0.29045364674E+03  0.54319917319E+03  0.10566000000E+00 0. -1.
         -4    1    4    4    0  502  0.41570071512E+03 -0.95609801234E+02 -0.17605921732E+03  0.46145982127E+03  0.00000000000E+00 0. -1.
<mgrwt>
<rscale>  2 0.99660634E+03</rscale>
<asrwt>0</asrwt>
<pdfrwt beam="1">  1       21 0.16316007E+00 0.99812505E+03</pdfrwt>
<pdfrwt beam="2">  1       21 0.14403572E+00 0.99812505E+03</pdfrwt>
<totfact> 0.41222629E+01</totfact>
</mgrwt>
</event>
<event>
 8    1  0.1094795E-005  0.1107557E+04  0.7818608E-02  0.8680331E-01
         21   -1    0    0  501  502  0.00000000000E+00  0.00000000000E+00  0.97912572042E+03  0.97912572042E+03  0.00000000000E+00 0.  1.
         21   -1    0    0  502  503 -0.00000000000E+00 -0.00000000000E+00 -0.13173101121E+04  0.13173101121E+04  0.00000000000E+00 0.  1.
   -9000010    2    1    2    0  503  0.47104796091E+03  0.13670936214E+02 -0.43078859774E+03  0.11883858295E+04  0.10023018446E+04 0.  0.
    9000010    2    1    2  501    0 -0.47104796091E+03 -0.13670936214E+02  0.92604206036E+02  0.11080500031E+04  0.99856206337E+03 0.  0.
        -13    1    4    4    0    0 -0.26344309816E+03 -0.33052791075E+03 -0.33314019882E+03  0.53817596471E+03  0.10566000000E+00 0.  1.
          4    1    4    4  501    0 -0.20760486275E+03  0.31685697454E+03  0.42574440486E+03  0.56987403838E+03  0.00000000000E+00 0.  1.
         13    1    3    3    0    0 -0.14944801493E+02  0.22680740941E+03  0.24166194600E+03  0.33176114204E+03  0.10566000000E+00 0. -1.
         -4    1    3    3    0  503  0.48599276240E+03 -0.21313647320E+03 -0.67245054374E+03  0.85662468742E+03  0.00000000000E+00 0. -1.
<mgrwt>
<rscale>  2 0.11067100E+04</rscale>
<asrwt>0</asrwt>
<pdfrwt beam="1">  1       21 0.15063473E+00 0.11075568E+04</pdfrwt>
<pdfrwt beam="2">  1       21 0.20266309E+00 0.11075568E+04</pdfrwt>
<totfact> 0.16760089E+01</totfact>
</mgrwt>
</event>
<event>
 8    1  0.1094795E-005  0.1100690E+04  0.7818608E-02  0.8686998E-01
         21   -1    0    0  501  502  0.00000000000E+00  0.00000000000E+00  0.61514228808E+03  0.61514228808E+03  0.00000000000E+00 0. -1.
         21   -1    0    0  502  503 -0.00000000000E+00 -0.00000000000E+00 -0.19590677490E+04  0.19590677490E+04  0.00000000000E+00 0. -1.
   -9000010    2    1    2    0  503  0.42806464899E+03  0.23811415630E+03 -0.61432445201E+03  0.12536662567E+04  0.97690677941E+03 0.  0.
    9000010    2    1    2  501    0 -0.42806464899E+03 -0.23811415630E+03 -0.72960100895E+03  0.13205437804E+04  0.98568785558E+03 0.  0.
        -13    1    4    4    0    0 -0.37340549659E+03 -0.43483096630E+02  0.15978055650E+03  0.40847555860E+03  0.10566000000E+00 0.  1.
          4    1    4    4  501    0 -0.54659152408E+02 -0.19463105967E+03 -0.88938156544E+03  0.91206822184E+03  0.00000000000E+00 0.  1.
         13    1    3    3    0    0  0.19190567507E+03 -0.22237927635E+03 -0.67156320166E+03  0.73299213889E+03  0.10566000000E+00 0. -1.
         -4    1    3    3    0  503  0.23615897393E+03  0.46049343265E+03  0.57238749655E+02  0.52067411780E+03  0.00000000000E+00 0. -1.
<mgrwt>
<rscale>  2 0.10987205E+04</rscale>
<asrwt>0</asrwt>
<pdfrwt beam="1">  1       21 0.94637277E-01 0.11006899E+04</pdfrwt>
<pdfrwt beam="2">  1       21 0.30139503E+00 0.11006899E+04</pdfrwt>
<totfact> 0.11723681E+01</totfact>
</mgrwt>
</event>
<event>
 8    1  0.1094795E-005  0.1087514E+04  0.7818608E-02  0.8710419E-01
         21   -1    0    0  503  502  0.00000000000E+00  0.00000000000E+00  0.10068800209E+04  0.10068800209E+04  0.00000000000E+00 0.  1.
         21   -1    0    0  501  503 -0.00000000000E+00 -0.00000000000E+00 -0.11128202058E+04  0.11128202058E+04  0.00000000000E+00 0.  1.
    9000010    2    1    2  501    0 -0.12841576086E+02 -0.56519439995E+03  0.26952405293E+02  0.10240969205E+04  0.85348606001E+03 0.  0.
   -9000010    2    1    2    0  502  0.12841576086E+02  0.56519439995E+03 -0.13289259022E+03  0.10956033063E+04  0.92901913239E+03 0.  0.
        -13    1    3    3    0    0  0.16373699759E+03 -0.74063081010E+03  0.99045418661E+02  0.76495346745E+03  0.10566000000E+00 0.  1.
          4    1    3    3  501    0 -0.17657857367E+03  0.17543641015E+03 -0.72093013368E+02  0.25914345306E+03  0.00000000000E+00 0.  1.
         13    1    4    4    0    0  0.44093830356E+03  0.13617698000E+03 -0.16130501736E+03  0.48886611380E+03  0.10566000000E+00 0. -1.
         -4    1    4    4    0  502 -0.42809672748E+03  0.42901741995E+03  0.28412427144E+02  0.60673719246E+03  0.00000000000E+00 0. -1.
<mgrwt>
<rscale>  2 0.10712078E+04</rscale>
<asrwt>0</asrwt>
<pdfrwt beam="1">  1       21 0.15490462E+00 0.10875138E+04</pdfrwt>
<pdfrwt beam="2">  1       21 0.17120311E+00 0.10875138E+04</pdfrwt>
<totfact> 0.27640321E+01</totfact>
</mgrwt>
</event>
<event>
 8    1  0.1094795E-005  0.1129797E+04  0.7818608E-02  0.8664085E-01
         21   -1    0    0  503  502  0.00000000000E+00  0.00000000000E+00  0.98973060589E+03  0.98973060589E+03  0.00000000000E+00 0. -1.
         21   -1    0    0  501  503 -0.00000000000E+00 -0.00000000000E+00 -0.13799161462E+04  0.13799161462E+04  0.00000000000E+00 0. -1.
    9000010    2    1    2  501    0  0.51689364780E+03  0.10378283649E+03 -0.52342889229E+03  0.12451585634E+04  0.99924577674E+03 0.  0.
   -9000010    2    1    2    0  502 -0.51689364780E+03 -0.10378283649E+03  0.13324335198E+03  0.11244881887E+04  0.98426113175E+03 0.  0.
        -13    1    3    3    0    0  0.73492374941E+03 -0.49157903088E+02 -0.97737872304E+02  0.74302228750E+03  0.10566000000E+00 0.  1.
          4    1    3    3  501    0 -0.21803010161E+03  0.15294073958E+03 -0.42569101998E+03  0.50213627585E+03  0.00000000000E+00 0.  1.
         13    1    4    4    0    0 -0.67844328060E+03  0.15604166445E+03  0.31984907852E+03  0.76611861368E+03  0.10566000000E+00 0. -1.
         -4    1    4    4    0  502  0.16154963280E+03 -0.25982450094E+03 -0.18660572654E+03  0.35836957505E+03  0.00000000000E+00 0. -1.
<mgrwt>
<rscale>  2 0.11264749E+04</rscale>
<asrwt>0</asrwt>
<pdfrwt beam="1">  1       21 0.15226625E+00 0.11297973E+04</pdfrwt>
<pdfrwt beam="2">  1       21 0.21229479E+00 0.11297973E+04</pdfrwt>
<totfact> 0.13598627E+01</totfact>
</mgrwt>
</event>
<event>
 8    1  0.1094795E-005  0.1158067E+04  0.7818608E-02  0.8639454E-01
         21   -1    0    0  501  502  0.00000000000E+00  0.00000000000E+00  0.10208045387E+04  0.10208045387E+04  0.00000000000E+00 0. -1.
         21   -1    0    0  502  503 -0.00000000000E+00 -0.00000000000E+00 -0.14824867152E+04  0.14824867152E+04  0.00000000000E+00 0. -1.
   -9000010    2    1    2    0  503  0.36577977365E+03 -0.43627486156E+03 -0.65728748087E+03  0.13288210760E+04  0.10047925268E+04 0.  0.
    9000010    2    1    2  501    0 -0.36577977365E+03  0.43627486156E+03  0.19560530437E+03  0.11744701779E+04  0.10084583115E+04 0.  0.
        -13    1    4    4    0    0  0.33983572945E+01  0.18978049219E+03  0.56559232208E+03  0.59659271703E+03  0.10566000000E+00 0.  1.
          4    1    4    4  501    0 -0.36917813095E+03  0.24649436937E+03 -0.36998701771E+03  0.57787746086E+03  0.00000000000E+00 0.  1.
         13    1    3    3    0    0  0.71105307454E+03 -0.27677695572E+03 -0.34813241231E+03  0.83868834837E+03  0.10566000000E+00 0. -1.
         -4    1    3    3    0  503 -0.34527330089E+03 -0.15949790583E+03 -0.30915506856E+03  0.49013272762E+03  0.00000000000E+00 0. -1.
<mgrwt>
<rscale>  2 0.11572683E+04</rscale>
<asrwt>0</asrwt>
<pdfrwt beam="1">  1       21 0.15704685E+00 0.11580668E+04</pdfrwt>
<pdfrwt beam="2">  1       21 0.22807488E+00 0.11580668E+04</pdfrwt>
<totfact> 0.93277680E+00</totfact>
</mgrwt>
</event>
<event>
 8    1  0.1094795E-005  0.1058031E+04  0.7818608E-02  0.8725031E-01
         21   -1    0    0  503  502  0.00000000000E+00  0.00000000000E+00  0.20814959341E+04  0.20814959341E+04  0.00000000000E+00 0.  1.
         21   -1    0    0  501  503 -0.00000000000E+00 -0.00000000000E+00 -0.69058835403E+03  0.69058835403E+03  0.00000000000E+00 0.  1.
    9000010    2    1    2  501    0  0.30259285928E+03 -0.15811260443E+03  0.31975753376E+02  0.10585141181E+04  0.10014328011E+04 0.  0.
   -9000010    2    1    2    0  502 -0.30259285928E+03  0.15811260443E+03  0.13589318267E+04  0.17135701701E+04  0.98644056283E+03 0.  0.
        -13    1    3    3    0    0  0.27351130314E+03  0.24411601132E+03  0.37840447558E+03  0.52686907124E+03  0.10566000000E+00 0.  1.
          4    1    3    3  501    0  0.29081556142E+02 -0.40222861575E+03 -0.34642872220E+03  0.53164504681E+03  0.00000000000E+00 0.  1.
         13    1    4    4    0    0  0.15167008965E+03  0.21989414081E+03 -0.12622612483E+02  0.26742586031E+03  0.10566000000E+00 0. -1.
         -4    1    4    4    0  502 -0.45426294893E+03 -0.61781536378E+02  0.13715544392E+04  0.14461443098E+04  0.00000000000E+00 0. -1.
<mgrwt>
<rscale>  2 0.10544683E+04</rscale>
<asrwt>0</asrwt>
<pdfrwt beam="1">  1       21 0.32023014E+00 0.10580310E+04</pdfrwt>
<pdfrwt beam="2">  1       21 0.10624436E+00 0.10580310E+04</pdfrwt>
<totfact> 0.64409608E+00</totfact>
</mgrwt>
</event>
<event>
 8    1  0.1094795E-005  0.1086054E+04  0.7818608E-02  0.8705312E-01
         21   -1    0    0  501  502  0.00000000000E+00  0.00000000000E+00  0.20177544254E+04  0.20177544254E+04  0.00000000000E+00 0.  1.
         21   -1    0    0  502  503 -0.00000000000E+00 -0.00000000000E+00 -0.57616165647E+03  0.57616165647E+03  0.00000000000E+00 0.  1.
   -9000010    2    1    2    0  503 -0.10882093411E+03  0.36319985703E+03  0.88341759738E+03  0.13728210112E+04  0.98002793109E+03 0.  0.
    9000010    2    1    2  501    0  0.10882093411E+03 -0.36319985703E+03  0.55817517159E+03  0.12210950707E+04  0.10177217290E+04 0.  0.
        -13    1    4    4    0    0 -0.17792811083E+02 -0.68320407619E+03  0.54932947930E+03  0.87683937060E+03  0.10566000000E+00 0.  1.
          4    1    4    4  501    0  0.12661374519E+03  0.32000421917E+03  0.88456922933E+01  0.34425570007E+03  0.00000000000E+00 0.  1.
         13    1    3    3    0    0 -0.22673313332E+02 -0.11609312233E+02 -0.21113740120E+03  0.21266844763E+03  0.10566000000E+00 0. -1.
         -4    1    3    3    0  503 -0.86147620775E+02  0.37480916926E+03  0.10945549986E+04  0.11601525636E+04  0.00000000000E+00 0. -1.
<mgrwt>
<rscale>  2 0.10771349E+04</rscale>
<asrwt>0</asrwt>
<pdfrwt beam="1">  1       21 0.31042375E+00 0.10860542E+04</pdfrwt>
<pdfrwt beam="2">  1       21 0.88640256E-01 0.10860542E+04</pdfrwt>
<totfact> 0.12008030E+01</totfact>
</mgrwt>
</event>
<event>
 8    1  0.1094795E-005  0.1483039E+04  0.7818608E-02  0.8421972E-01
         21   -1    0    0  501  502  0.00000000000E+00  0.00000000000E+00  0.21856272037E+04  0.21856272037E+04  0.00000000000E+00 0. -1.
         21   -1    0    0  502  503 -0.00000000000E+00 -0.00000000000E+00 -0.99433475832E+03  0.99433475832E+03  0.00000000000E+00 0. -1.
   -9000010    2    1    2    0  503  0.93360489532E+03 -0.50209980234E+03  0.57584489446E+03  0.15909118654E+04  0.10371503791E+04 0.  0.
    9000010    2    1    2  501    0 -0.93360489532E+03  0.50209980234E+03  0.61544755090E+03  0.15890500966E+04  0.10112280700E+04 0.  0.
        -13    1    4    4    0    0 -0.80407076955E+03  0.69218167160E+03  0.77086796065E+03  0.13114429812E+04  0.10566000000E+00 0.  1.
          4    1    4    4  501    0 -0.12953412577E+03 -0.19008186926E+03 -0.15542040975E+03  0.27760711542E+03  0.00000000000E+00 0.  1.
         13    1    3    3    0    0 -0.10799569197E+03  0.68577535303E+02  0.36224178824E+03  0.38416802592E+03  0.10566000000E+00 0. -1.
         -4    1    3    3    0  503  0.10416005873E+04 -0.57067733764E+03  0.21360310623E+03  0.12067438395E+04  0.00000000000E+00 0. -1.
<mgrwt>
<rscale>  2 0.14785150E+04</rscale>
<asrwt>0</asrwt>
<pdfrwt beam="1">  1       21 0.33625034E+00 0.14830385E+04</pdfrwt>
<pdfrwt beam="2">  1       21 0.15297458E+00 0.14830385E+04</pdfrwt>
<totfact> 0.15949437E+00</totfact>
</mgrwt>
</event>
<event>
 8    1  0.1094795E-005  0.1030986E+04  0.7818608E-02  0.8746752E-01
         21   -1    0    0  501  502  0.00000000000E+00  0.00000000000E+00  0.15172455609E+04  0.15172455609E+04  0.00000000000E+00 0. -1.
         21   -1    0    0  502  503 -0.00000000000E+00 -0.00000000000E+00 -0.71520610808E+03  0.71520610808E+03  0.00000000000E+00 0. -1.
   -9000010    2    1    2    0  503  0.44178937473E+02 -0.21395942435E+03  0.57178021524E+03  0.11760657576E+04  0.10042248941E+04 0.  0.
    9000010    2    1    2  501    0 -0.44178937473E+02  0.21395942435E+03  0.23025923761E+03  0.10563859114E+04  0.10075720637E+04 0.  0.
        -13    1    4    4    0    0  0.11367859838E+03 -0.39022154520E+03  0.84335605223E+02  0.41510020904E+03  0.10566000000E+00 0.  1.
          4    1    4    4  501    0 -0.15785753585E+03  0.60418096956E+03  0.14592363238E+03  0.64128570239E+03  0.00000000000E+00 0.  1.
         13    1    3    3    0    0  0.37101195114E+03 -0.36572037357E+03  0.25430962411E+02  0.52158221264E+03  0.10566000000E+00 0. -1.
         -4    1    3    3    0  503 -0.32683301367E+03  0.15176094922E+03  0.54634925283E+03  0.65448354494E+03  0.00000000000E+00 0. -1.
<mgrwt>
<rscale>  2 0.10301672E+04</rscale>
<asrwt>0</asrwt>
<pdfrwt beam="1">  1       21 0.23342239E+00 0.10309859E+04</pdfrwt>
<pdfrwt beam="2">  1       21 0.11003171E+00 0.10309859E+04</pdfrwt>
<totfact> 0.24684065E+01</totfact>
</mgrwt>
</event>
<event>
 8    1  0.1094795E-005  0.1106363E+04  0.7818608E-02  0.8681553E-01
         21   -1    0    0  501  502  0.00000000000E+00  0.00000000000E+00  0.13525477366E+04  0.13525477366E+04  0.00000000000E+00 0. -1.
         21   -1    0    0  502  503 -0.00000000000E+00 -0.00000000000E+00 -0.90459132995E+03  0.90459132995E+03  0.00000000000E+00 0. -1.
   -9000010    2    1    2    0  503  0.16362839318E+03 -0.43081744314E+03  0.15658465849E+03  0.11173890234E+04  0.10058138764E+04 0.  0.
    9000010    2    1    2  501    0 -0.16362839318E+03  0.43081744314E+03  0.29137174820E+03  0.11397500432E+04  0.10008769879E+04 0.  0.
        -13    1    4    4    0    0  0.40575618130E+03  0.15051800948E+03 -0.19187310945E+02  0.43319962362E+03  0.10566000000E+00 0.  1.
          4    1    4    4  501    0 -0.56938457448E+03  0.28029943366E+03  0.31055905914E+03  0.70655041956E+03  0.00000000000E+00 0.  1.
         13    1    3    3    0    0 -0.23544638410E+03  0.12444897052E+03  0.31801149818E+03  0.41479376827E+03  0.10566000000E+00 0. -1.
         -4    1    3    3    0  503  0.39907477728E+03 -0.55526641366E+03 -0.16142683969E+03  0.70259525516E+03  0.00000000000E+00 0. -1.
<mgrwt>
<rscale>  2 0.11052399E+04</rscale>
<asrwt>0</asrwt>
<pdfrwt beam="1">  1       21 0.20808427E+00 0.11063632E+04</pdfrwt>
<pdfrwt beam="2">  1       21 0.13916790E+00 0.11063632E+04</pdfrwt>
<totfact> 0.19354761E+01</totfact>
</mgrwt>
</event>
<event>
 8    1  0.1094795E-005  0.1190011E+04  0.7818608E-02  0.8643552E-01
         21   -1    0    0  501  502  0.00000000000E+00  0.00000000000E+00  0.12692884236E+04  0.12692884236E+04  0.00000000000E+00 0. -1.
         21   -1    0    0  502  503 -0.00000000000E+00 -0.00000000000E+00 -0.10101363662E+04  0.10101363662E+04  0.00000000000E+00 0. -1.
   -9000010    2    1    2    0  503 -0.14401802451E+02 -0.24430576639E+03  0.32000118694E+03  0.12322852739E+04  0.11645743931E+04 0.  0.
    9000010    2    1    2  501    0  0.14401802451E+02  0.24430576639E+03 -0.60849129526E+02  0.10471395160E+04  0.10163197479E+04 0.  0.
        -13    1    4    4    0    0  0.43522101604E+03  0.14989249808E+03 -0.30438701398E+03  0.55184831179E+03  0.10566000000E+00 0.  1.
          4    1    4    4  501    0 -0.42081921359E+03  0.94413268308E+02  0.24353788445E+03  0.49529120416E+03  0.00000000000E+00 0.  1.
         13    1    3    3    0    0 -0.22240695875E+03  0.40844633093E+03 -0.23969491626E+02  0.46569067871E+03  0.10566000000E+00 0. -1.
         -4    1    3    3    0  503  0.20800515630E+03 -0.65275209732E+03  0.34397067857E+03  0.76659459515E+03  0.00000000000E+00 0. -1.
<mgrwt>
<rscale>  2 0.11520750E+04</rscale>
<asrwt>0</asrwt>
<pdfrwt beam="1">  1       21 0.19527514E+00 0.11900110E+04</pdfrwt>
<pdfrwt beam="2">  1       21 0.15540559E+00 0.11900110E+04</pdfrwt>
<totfact> 0.17083758E+01</totfact>
</mgrwt>
</event>
<event>
 8    1  0.1094795E-005  0.1044644E+04  0.7818608E-02  0.8735090E-01
         21   -1    0    0  503  502  0.00000000000E+00  0.00000000000E+00  0.90964934304E+03  0.90964934304E+03  0.00000000000E+00 0.  1.
         21   -1    0    0  501  503 -0.00000000000E+00 -0.00000000000E+00 -0.11937498137E+04  0.11937498137E+04  0.00000000000E+00 0.  1.
    9000010    2    1    2  501    0  0.40463074509E+02  0.30698042978E+03 -0.11106823567E+03  0.10445222082E+04  0.99137089215E+03 0.  0.
   -9000010    2    1    2    0  502 -0.40463074509E+02 -0.30698042978E+03 -0.17303223497E+03  0.10588769485E+04  0.99770035236E+03 0.  0.
        -13    1    3    3    0    0  0.24551827362E+03  0.25747391611E+03 -0.49314407588E+03  0.60808151665E+03  0.10566000000E+00 0.  1.
          4    1    3    3  501    0 -0.20505519911E+03  0.49506513670E+02  0.38207584021E+03  0.43644069156E+03  0.00000000000E+00 0.  1.
         13    1    4    4    0    0  0.34043987719E+03 -0.50975460555E+03 -0.92834289112E+02  0.61997361578E+03  0.10566000000E+00 0. -1.
         -4    1    4    4    0  502 -0.38090295170E+03  0.20277417577E+03 -0.80197945859E+02  0.43890333274E+03  0.00000000000E+00 0. -1.
<mgrwt>
<rscale>  2 0.10431295E+04</rscale>
<asrwt>0</asrwt>
<pdfrwt beam="1">  1       21 0.13994605E+00 0.10446436E+04</pdfrwt>
<pdfrwt beam="2">  1       21 0.18365382E+00 0.10446436E+04</pdfrwt>
<totfact> 0.30055739E+01</totfact>
</mgrwt>
</event>
<event>
 8    1  0.1094795E-005  0.1064890E+04  0.7818608E-02  0.8716426E-01
         21   -1    0    0  501  502  0.00000000000E+00  0.00000000000E+00  0.83576114354E+03  0.83576114354E+03  0.00000000000E+00 0.  1.
         21   -1    0    0  502  503 -0.00000000000E+00 -0.00000000000E+00 -0.16395327889E+04  0.16395327889E+04  0.00000000000E+00 0.  1.
   -9000010    2    1    2    0  503 -0.26050185643E+03 -0.24646776050E+03 -0.91821460412E+03  0.14042722999E+04  0.10001275213E+04 0.  0.
    9000010    2    1    2  501    0  0.26050185643E+03  0.24646776050E+03  0.11444295874E+03  0.10710216326E+04  0.10026876744E+04 0.  0.
        -13    1    4    4    0    0  0.28178644683E+03 -0.28835036084E+03 -0.20020460237E+03  0.45014600541E+03  0.10566000000E+00 0.  1.
          4    1    4    4  501    0 -0.21284590397E+02  0.53481812134E+03  0.31464756111E+03  0.62087562717E+03  0.00000000000E+00 0.  1.
         13    1    3    3    0    0  0.38871733921E+02 -0.59884108207E+03 -0.51721523315E+03  0.79223308555E+03  0.10566000000E+00 0. -1.
         -4    1    3    3    0  503 -0.29937359035E+03  0.35237332157E+03 -0.40099937098E+03  0.61203921433E+03  0.00000000000E+00 0. -1.
<mgrwt>
<rscale>  2 0.10642867E+04</rscale>
<asrwt>0</asrwt>
<pdfrwt beam="1">  1       21 0.12857864E+00 0.10648897E+04</pdfrwt>
<pdfrwt beam="2">  1       21 0.25223581E+00 0.10648897E+04</pdfrwt>
<totfact> 0.11546771E+01</totfact>
</mgrwt>
</event>
<event>
 8    1  0.1094795E-005  0.1027925E+04  0.7818608E-02  0.8753871E-01
         21   -1    0    0  503  502  0.00000000000E+00  0.00000000000E+00  0.18036556060E+04  0.18036556060E+04  0.00000000000E+00 0. -1.
         21   -1    0    0  501  503 -0.00000000000E+00 -0.00000000000E+00 -0.59508889430E+03  0.59508889430E+03  0.00000000000E+00 0. -1.
    9000010    2    1    2  501    0  0.26111620593E+03  0.28994150652E+02  0.38107218130E+03  0.10962872471E+04  0.99378437654E+03 0.  0.
   -9000010    2    1    2    0  502 -0.26111620593E+03 -0.28994150652E+02  0.82749453042E+03  0.13024572532E+04  0.97088895596E+03 0.  0.
        -13    1    3    3    0    0 -0.21025102304E+03  0.36404452589E+03  0.29031074064E+03  0.51089553415E+03  0.10566000000E+00 0.  1.
          4    1    3    3  501    0  0.47136722897E+03 -0.33505037524E+03  0.90761440663E+02  0.58539171296E+03  0.00000000000E+00 0.  1.
         13    1    4    4    0    0 -0.30145013451E+02 -0.44632875508E+03  0.65918952569E+03  0.79664855576E+03  0.10566000000E+00 0. -1.
         -4    1    4    4    0  502 -0.23097119248E+03  0.41733460443E+03  0.16830500473E+03  0.50580869746E+03  0.00000000000E+00 0. -1.
<mgrwt>
<rscale>  2 0.10223503E+04</rscale>
<asrwt>0</asrwt>
<pdfrwt beam="1">  1       21 0.27748547E+00 0.10279250E+04</pdfrwt>
<pdfrwt beam="2">  1       21 0.91552139E-01 0.10279250E+04</pdfrwt>
<totfact> 0.19165159E+01</totfact>
</mgrwt>
</event>
<event>
 8    1  0.1094795E-005  0.1133057E+04  0.7818608E-02  0.8662335E-01
         21   -1    0    0  501  502  0.00000000000E+00  0.00000000000E+00  0.85975555844E+03  0.85975555844E+03  0.00000000000E+00 0. -1.
         21   -1    0    0  502  503 -0.00000000000E+00 -0.00000000000E+00 -0.18383395566E+04  0.18383395566E+04  0.00000000000E+00 0. -1.
   -9000010    2    1    2    0  503 -0.25419946088E+03  0.42266223837E+03 -0.10899752751E+04  0.15595761089E+04  0.10004852850E+04 0.  0.
    9000010    2    1    2  501    0  0.25419946088E+03 -0.42266223837E+03  0.11139127691E+03  0.11385190061E+04  0.10200768486E+04 0.  0.
        -13    1    4    4    0    0  0.10437292805E+03 -0.13406166249E+03  0.55957417388E+03  0.58479868732E+03  0.10566000000E+00 0.  1.
          4    1    4    4  501    0  0.14982653283E+03 -0.28860057589E+03 -0.44818289697E+03  0.55372031882E+03  0.00000000000E+00 0.  1.
         13    1    3    3    0    0  0.12881473241E+03 -0.26546213785E+03 -0.48000937578E+03  0.56344688651E+03  0.10566000000E+00 0. -1.
         -4    1    3    3    0  503 -0.38301419329E+03  0.68812437622E+03 -0.60996589930E+03  0.99612922240E+03  0.00000000000E+00 0. -1.
<mgrwt>
<rscale>  2 0.11286295E+04</rscale>
<asrwt>0</asrwt>
<pdfrwt beam="1">  1       21 0.13227008E+00 0.11330567E+04</pdfrwt>
<pdfrwt beam="2">  1       21 0.28282147E+00 0.11330567E+04</pdfrwt>
<totfact> 0.63170896E+00</totfact>
</mgrwt>
</event>
<event>
 8    1  0.1094795E-005  0.1237281E+04  0.7818608E-02  0.8592000E-01
         21   -1    0    0  503  502  0.00000000000E+00  0.00000000000E+00  0.10691814226E+04  0.10691814226E+04  0.00000000000E+00 0. -1.
         21   -1    0    0  501  503 -0.00000000000E+00 -0.00000000000E+00 -0.14564886332E+04  0.14564886332E+04  0.00000000000E+00 0. -1.
    9000010    2    1    2  501    0 -0.42221810019E+03  0.44499094049E+03  0.14881243605E+03  0.11772308608E+04  0.99370131187E+03 0.  0.
   -9000010    2    1    2    0  502  0.42221810019E+03 -0.44499094049E+03 -0.53611964662E+03  0.13484391950E+04  0.10745133438E+04 0.  0.
        -13    1    3    3    0    0 -0.69501800984E+03  0.28952915575E+03  0.32173670722E+03  0.81877450252E+03  0.10566000000E+00 0.  1.
          4    1    3    3  501    0  0.27279990965E+03  0.15546178473E+03 -0.17292427118E+03  0.35845635826E+03  0.00000000000E+00 0.  1.
         13    1    4    4    0    0  0.40970539379E+03 -0.40712345000E+03 -0.85239847882E+03  0.10296558605E+04  0.10566000000E+00 0. -1.
         -4    1    4    4    0  502  0.12512706398E+02 -0.37867490487E+02  0.31627883220E+03  0.31878333450E+03  0.00000000000E+00 0. -1.
<mgrwt>
<rscale>  2 0.12195291E+04</rscale>
<asrwt>0</asrwt>
<pdfrwt beam="1">  1       21 0.16448945E+00 0.12372809E+04</pdfrwt>
<pdfrwt beam="2">  1       21 0.22407517E+00 0.12372809E+04</pdfrwt>
<totfact> 0.84784121E+00</totfact>
</mgrwt>
</event>
<event>
 8    1  0.1094795E-005  0.1036068E+04  0.7818608E-02  0.8749647E-01
         21   -1    0    0  503  502  0.00000000000E+00  0.00000000000E+00  0.16224195185E+04  0.16224195185E+04  0.00000000000E+00 0. -1.
         21   -1    0    0  501  503 -0.00000000000E+00 -0.00000000000E+00 -0.73371226378E+03  0.73371226378E+03  0.00000000000E+00 0. -1.
    9000010    2    1    2  501    0  0.16293967530E+03  0.22744657202E+03  0.27775225269E+02  0.10364402461E+04  0.99757487929E+03 0.  0.
   -9000010    2    1    2    0  502 -0.16293967530E+03 -0.22744657202E+03  0.86093202945E+03  0.13196915361E+04  0.96026064707E+03 0.  0.
        -13    1    3    3    0    0  0.58015243520E+03  0.16917208630E+03 -0.56084979368E+02  0.60691150831E+03  0.10566000000E+00 0.  1.
          4    1    3    3  501    0 -0.41721275989E+03  0.58274485714E+02  0.83860204637E+02  0.42952873783E+03  0.00000000000E+00 0.  1.
         13    1    4    4    0    0  0.96949184725E+02  0.11011985758E+03  0.88106369248E+03  0.89319581773E+03  0.10566000000E+00 0. -1.
         -4    1    4    4    0  502 -0.25988886003E+03 -0.33756642960E+03 -0.20131663025E+02  0.42649571840E+03  0.00000000000E+00 0. -1.
<mgrwt>
<rscale>  2 0.10269798E+04</rscale>
<asrwt>0</asrwt>
<pdfrwt beam="1">  1       21 0.24960300E+00 0.10360680E+04</pdfrwt>
<pdfrwt beam="2">  1       21 0.11287881E+00 0.10360680E+04</pdfrwt>
<totfact> 0.17498158E+01</totfact>
</mgrwt>
</event>
<event>
 8    1  0.1094795E-005  0.1030176E+04  0.7818608E-02  0.8748050E-01
         21   -1    0    0  501  502  0.00000000000E+00  0.00000000000E+00  0.14761552039E+04  0.14761552039E+04  0.00000000000E+00 0. -1.
         21   -1    0    0  502  503 -0.00000000000E+00 -0.00000000000E+00 -0.74124302336E+03  0.74124302336E+03  0.00000000000E+00 0. -1.
   -9000010    2    1    2    0  503  0.27704974539E+03  0.91745007278E+02  0.15759300068E+03  0.10364836662E+04  0.98198224453E+03 0.  0.
    9000010    2    1    2  501    0 -0.27704974539E+03 -0.91745007278E+02  0.57731917988E+03  0.11809145611E+04  0.98797168857E+03 0.  0.
        -13    1    4    4    0    0 -0.30598349627E+03  0.38313786398E+03  0.87501664955E+02  0.49807336341E+03  0.10566000000E+00 0.  1.
          4    1    4    4  501    0  0.28933750875E+02 -0.47488287126E+03  0.48981751492E+03  0.68284119770E+03  0.00000000000E+00 0.  1.
         13    1    3    3    0    0  0.44698118529E+03  0.10274778785E+03 -0.30012882242E+03  0.54811185822E+03  0.10566000000E+00 0. -1.
         -4    1    3    3    0  503 -0.16993143990E+03 -0.11002780569E+02  0.45772182310E+03  0.48837180794E+03  0.00000000000E+00 0. -1.
<mgrwt>
<rscale>  2 0.10287369E+04</rscale>
<asrwt>0</asrwt>
<pdfrwt beam="1">  1       21 0.22710080E+00 0.10301756E+04</pdfrwt>
<pdfrwt beam="2">  1       21 0.11403739E+00 0.10301756E+04</pdfrwt>
<totfact> 0.24949309E+01</totfact>
</mgrwt>
</event>
<event>
 8    1  0.1094795E-005  0.1054094E+04  0.7818608E-02  0.8728503E-01
         21   -1    0    0  503  502  0.00000000000E+00  0.00000000000E+00  0.14701751223E+04  0.14701751223E+04  0.00000000000E+00 0.  1.
         21   -1    0    0  501  503 -0.00000000000E+00 -0.00000000000E+00 -0.75384190156E+03  0.75384190156E+03  0.00000000000E+00 0.  1.
    9000010    2    1    2  501    0 -0.22415448586E+03 -0.23494977696E+03  0.47643906570E+03  0.11567665842E+04  0.10028300533E+04 0.  0.
   -9000010    2    1    2    0  502  0.22415448586E+03  0.23494977696E+03  0.23989415505E+03  0.10672504397E+04  0.98794112380E+03 0.  0.
        -13    1    3    3    0    0 -0.62484813146E+03 -0.16367194899E+03  0.31882666962E+03  0.72032919606E+03  0.10566000000E+00 0.  1.
          4    1    3    3  501    0  0.40069364560E+03 -0.71277827974E+02  0.15761239608E+03  0.43643738816E+03  0.00000000000E+00 0.  1.
         13    1    4    4    0    0  0.50366263477E+03  0.77104537472E+02 -0.17851120372E+03  0.53989574955E+03  0.10566000000E+00 0. -1.
         -4    1    4    4    0  502 -0.27950814890E+03  0.15784523949E+03  0.41840535877E+03  0.52735469011E+03  0.00000000000E+00 0. -1.
<mgrwt>
<rscale>  2 0.10505376E+04</rscale>
<asrwt>0</asrwt>
<pdfrwt beam="1">  1       21 0.22618079E+00 0.10540943E+04</pdfrwt>
<pdfrwt beam="2">  1       21 0.11597568E+00 0.10540943E+04</pdfrwt>
<totfact> 0.24069039E+01</totfact>
</mgrwt>
</event>
<event>
 8    1  0.1094795E-005  0.1116593E+04  0.7818608E-02  0.8678166E-01
         21   -1    0    0  503  502  0.00000000000E+00  0.00000000000E+00  0.20104443510E+04  0.20104443510E+04  0.00000000000E+00 0.  1.
         21   -1    0    0  501  503 -0.00000000000E+00 -0.00000000000E+00 -0.60864091623E+03  0.60864091623E+03  0.00000000000E+00 0.  1.
    9000010    2    1    2  501    0  0.35224179476E+03  0.16949333399E+03  0.59880340782E+03  0.12670226534E+04  0.10459343243E+04 0.  0.
   -9000010    2    1    2    0  502 -0.35224179476E+03 -0.16949333399E+03  0.80300002694E+03  0.13520626138E+04  0.10151167402E+04 0.  0.
        -13    1    3    3    0    0 -0.15613542672E+03  0.37920942908E+03  0.58812264485E+03  0.71698418332E+03  0.10566000000E+00 0.  1.
          4    1    3    3  501    0  0.50837722148E+03 -0.20971609508E+03  0.10680762971E+02  0.55003847007E+03  0.00000000000E+00 0.  1.
         13    1    4    4    0    0  0.34529792714E+03 -0.11664071776E+03  0.41425724855E+03  0.55176516261E+03  0.10566000000E+00 0. -1.
         -4    1    4    4    0  502 -0.69753972190E+03 -0.52852616237E+02  0.38874277839E+03  0.80029745122E+03  0.00000000000E+00 0. -1.
<mgrwt>
<rscale>  2 0.11093192E+04</rscale>
<asrwt>0</asrwt>
<pdfrwt beam="1">  1       21 0.30929913E+00 0.11165934E+04</pdfrwt>
<pdfrwt beam="2">  1       21 0.93637065E-01 0.11165934E+04</pdfrwt>
<totfact> 0.10556524E+01</totfact>
</mgrwt>
</event>
<event>
 8    1  0.1094795E-005  0.1156123E+04  0.7818608E-02  0.8646781E-01
         21   -1    0    0  501  502  0.00000000000E+00  0.00000000000E+00  0.13727959044E+04  0.13727959044E+04  0.00000000000E+00 0. -1.
         21   -1    0    0  502  503 -0.00000000000E+00 -0.00000000000E+00 -0.95353582424E+03  0.95353582424E+03  0.00000000000E+00 0. -1.
   -9000010    2    1    2    0  503 -0.45937977359E+03 -0.20133578691E+03  0.10871096600E+03  0.11292259345E+04  0.10058664233E+04 0.  0.
    9000010    2    1    2  501    0  0.45937977359E+03  0.20133578691E+03  0.31054911414E+03  0.11971057942E+04  0.10416600475E+04 0.  0.
        -13    1    4    4    0    0 -0.21399111811E+03  0.13783845729E+03  0.44014109180E+03  0.50844452086E+03  0.10566000000E+00 0.  1.
          4    1    4    4  501    0  0.67337089170E+03  0.63497329616E+02 -0.12959197766E+03  0.68866127329E+03  0.00000000000E+00 0.  1.
         13    1    3    3    0    0 -0.57664343822E+03 -0.91463132674E+02  0.45976115965E+03  0.74314432957E+03  0.10566000000E+00 0. -1.
         -4    1    3    3    0  503  0.11726366463E+03 -0.10987265423E+03 -0.35105019364E+03  0.38608160491E+03  0.00000000000E+00 0. -1.
<mgrwt>
<rscale>  2 0.11480027E+04</rscale>
<asrwt>0</asrwt>
<pdfrwt beam="1">  1       21 0.21119937E+00 0.11561235E+04</pdfrwt>
<pdfrwt beam="2">  1       21 0.14669782E+00 0.11561235E+04</pdfrwt>
<totfact> 0.15464961E+01</totfact>
</mgrwt>
</event>
<event>
 8    1  0.1094795E-005  0.1195287E+04  0.7818608E-02  0.8614353E-01
         21   -1    0    0  503  502  0.00000000000E+00  0.00000000000E+00  0.12340080014E+04  0.12340080014E+04  0.00000000000E+00 0.  1.
         21   -1    0    0  501  503 -0.00000000000E+00 -0.00000000000E+00 -0.17962536232E+04  0.17962536232E+04  0.00000000000E+00 0.  1.
    9000010    2    1    2  501    0  0.20591580508E+03 -0.60536844449E+03 -0.12010626826E+04  0.16944797741E+04  0.10098702218E+04 0.  0.
   -9000010    2    1    2    0  502 -0.20591580508E+03  0.60536844449E+03  0.63881706076E+03  0.13357818505E+04  0.98354137822E+03 0.  0.
        -13    1    3    3    0    0 -0.41344642844E+02 -0.61195612625E+03 -0.17328853375E+03  0.63736065696E+03  0.10566000000E+00 0.  1.
          4    1    3    3  501    0  0.24726044792E+03  0.65876817649E+01 -0.10277741489E+04  0.10571191171E+04  0.00000000000E+00 0.  1.
         13    1    4    4    0    0  0.14422223071E+03 -0.10581784105E+03 -0.13798555969E+03  0.22591479182E+03  0.10566000000E+00 0. -1.
         -4    1    4    4    0  502 -0.35013803579E+03  0.71118628554E+03  0.77680262045E+03  0.11098670587E+04  0.00000000000E+00 0. -1.
<mgrwt>
<rscale>  2 0.11897077E+04</rscale>
<asrwt>0</asrwt>
<pdfrwt beam="1">  1       21 0.18984738E+00 0.11952866E+04</pdfrwt>
<pdfrwt beam="2">  1       21 0.27634671E+00 0.11952866E+04</pdfrwt>
<totfact> 0.21942425E+00</totfact>
</mgrwt>
</event>
<event>
 8    1  0.1094795E-005  0.1059630E+04  0.7818608E-02  0.8721280E-01
         21   -1    0    0  501  502  0.00000000000E+00  0.00000000000E+00  0.19564342043E+04  0.19564342043E+04  0.00000000000E+00 0. -1.
         21   -1    0    0  502  503 -0.00000000000E+00 -0.00000000000E+00 -0.57617844656E+03  0.57617844656E+03  0.00000000000E+00 0. -1.
   -9000010    2    1    2    0  503 -0.26112072923E+03 -0.32398291908E+03  0.58079625677E+03  0.12052273625E+04  0.97061822377E+03 0.  0.
    9000010    2    1    2  501    0  0.26112072923E+03  0.32398291908E+03  0.79945950097E+03  0.13273852884E+04  0.97450871881E+03 0.  0.
        -13    1    4    4    0    0 -0.17478864057E+03  0.46775852334E+03  0.13054644639E+03  0.51613127290E+03  0.10566000000E+00 0.  1.
          4    1    4    4  501    0  0.43590936980E+03 -0.14377560426E+03  0.66891305458E+03  0.81125401549E+03  0.00000000000E+00 0.  1.
         13    1    3    3    0    0 -0.42697411914E+03 -0.57479338699E+03  0.25054258311E+03  0.75859470949E+03  0.10566000000E+00 0. -1.
         -4    1    3    3    0  503  0.16585338992E+03  0.25081046791E+03  0.33025367366E+03  0.44663265300E+03  0.00000000000E+00 0. -1.
<mgrwt>
<rscale>  2 0.10587349E+04</rscale>
<asrwt>0</asrwt>
<pdfrwt beam="1">  1       21 0.30098987E+00 0.10596302E+04</pdfrwt>
<pdfrwt beam="2">  1       21 0.88642839E-01 0.10596302E+04</pdfrwt>
<totfact> 0.14079372E+01</totfact>
</mgrwt>
</event>
<event>
 8    1  0.1094795E-005  0.1348377E+04  0.7818608E-02  0.8530219E-01
         21   -1    0    0  503  502  0.00000000000E+00  0.00000000000E+00  0.17374723989E+04  0.17374723989E+04  0.00000000000E+00 0.  1.
         21   -1    0    0  501  503 -0.00000000000E+00 -0.00000000000E+00 -0.11472889100E+04  0.11472889100E+04  0.00000000000E+00 0.  1.
    9000010    2    1    2  501    0  0.55024545676E+03 -0.30704248034E+03 -0.32134657865E+03  0.13861404804E+04  0.11920891998E+04 0.  0.
   -9000010    2    1    2    0  502 -0.55024545676E+03  0.30704248034E+03  0.91153006759E+03  0.14986208285E+04  0.10089262490E+04 0.  0.
        -13    1    3    3    0    0  0.11049204069E+03 -0.37950590582E+03 -0.69830989395E+03  0.80241506888E+03  0.10566000000E+00 0.  1.
          4    1    3    3  501    0  0.43975341607E+03  0.72463425483E+02  0.37696331530E+03  0.58372541153E+03  0.00000000000E+00 0.  1.
         13    1    4    4    0    0 -0.53832388969E+03  0.38765239745E+03  0.11049196289E+04  0.12887646755E+04  0.10566000000E+00 0. -1.
         -4    1    4    4    0  502 -0.11921567070E+02 -0.80609917111E+02 -0.19338956131E+03  0.20985615293E+03  0.00000000000E+00 0. -1.
<mgrwt>
<rscale>  2 0.13067795E+04</rscale>
<asrwt>0</asrwt>
<pdfrwt beam="1">  1       21 0.26730345E+00 0.13483775E+04</pdfrwt>
<pdfrwt beam="2">  1       21 0.17650599E+00 0.13483775E+04</pdfrwt>
<totfact> 0.31682447E+00</totfact>
</mgrwt>
</event>
<event>
 8    1  0.1094795E-005  0.1065565E+04  0.7818608E-02  0.8716009E-01
         21   -1    0    0  501  502  0.00000000000E+00  0.00000000000E+00  0.92647725704E+03  0.92647725704E+03  0.00000000000E+00 0.  1.
         21   -1    0    0  502  503 -0.00000000000E+00 -0.00000000000E+00 -0.12258433774E+04  0.12258433774E+04  0.00000000000E+00 0.  1.
   -9000010    2    1    2    0  503  0.30320796725E+03  0.21092978001E+03 -0.88587568262E+02  0.10692410208E+04  0.99950095539E+03 0.  0.
    9000010    2    1    2  501    0 -0.30320796725E+03 -0.21092978001E+03 -0.21077855208E+03  0.10830796136E+04  0.99609608367E+03 0.  0.
        -13    1    4    4    0    0 -0.29934401085E+03  0.30331979167E+03 -0.34870520042E+03  0.55064059132E+03  0.10566000000E+00 0.  1.
          4    1    4    4  501    0 -0.38639564016E+01 -0.51424957168E+03  0.13792664835E+03  0.53243902229E+03  0.00000000000E+00 0.  1.
         13    1    3    3    0    0  0.39161932437E+03 -0.22831863576E+03  0.24064358973E+03  0.51322942541E+03  0.10566000000E+00 0. -1.
         -4    1    3    3    0  503 -0.88411357123E+02  0.43924841577E+03 -0.32923115800E+03  0.55601159540E+03  0.00000000000E+00 0. -1.
<mgrwt>
<rscale>  2 0.10647657E+04</rscale>
<asrwt>0</asrwt>
<pdfrwt beam="1">  1       21 0.14253496E+00 0.10655649E+04</pdfrwt>
<pdfrwt beam="2">  1       21 0.18859129E+00 0.10655649E+04</pdfrwt>
<totfact> 0.25843335E+01</totfact>
</mgrwt>
</event>
<event>
 8    1  0.1094795E-005  0.1098670E+04  0.7818608E-02  0.8700313E-01
         21   -1    0    0  503  502  0.00000000000E+00  0.00000000000E+00  0.13711045159E+04  0.13711045159E+04  0.00000000000E+00 0. -1.
         21   -1    0    0  501  503 -0.00000000000E+00 -0.00000000000E+00 -0.83333309030E+03  0.83333309030E+03  0.00000000000E+00 0. -1.
    9000010    2    1    2  501    0  0.37952836614E+03  0.22200389389E+03  0.21419458037E+03  0.10591093649E+04  0.93941780855E+03 0.  0.
   -9000010    2    1    2    0  502 -0.37952836614E+03 -0.22200389389E+03  0.32357684521E+03  0.11453282412E+04  0.10068501854E+04 0.  0.
        -13    1    3    3    0    0  0.65504680177E+03 -0.31066593151E+02  0.75471524646E+02  0.66011166322E+03  0.10566000000E+00 0.  1.
          4    1    3    3  501    0 -0.27551843563E+03  0.25307048704E+03  0.13872305572E+03  0.39899770171E+03  0.00000000000E+00 0.  1.
         13    1    4    4    0    0 -0.33169691902E+03 -0.22943185466E+03  0.67731137454E+03  0.78829723535E+03  0.10566000000E+00 0. -1.
         -4    1    4    4    0  502 -0.47831447120E+02  0.74279607700E+01 -0.35373452932E+03  0.35703100589E+03  0.00000000000E+00 0. -1.
<mgrwt>
<rscale>  2 0.10829750E+04</rscale>
<asrwt>0</asrwt>
<pdfrwt beam="1">  1       21 0.21093916E+00 0.10986696E+04</pdfrwt>
<pdfrwt beam="2">  1       21 0.12820509E+00 0.10986696E+04</pdfrwt>
<totfact> 0.23432873E+01</totfact>
</mgrwt>
</event>
<event>
 8    1  0.1094795E-005  0.1349942E+04  0.7818608E-02  0.8504751E-01
         21   -1    0    0  501  502  0.00000000000E+00  0.00000000000E+00  0.23984886114E+04  0.23984886114E+04  0.00000000000E+00 0.  1.
         21   -1    0    0  502  503 -0.00000000000E+00 -0.00000000000E+00 -0.91217014158E+03  0.91217014158E+03  0.00000000000E+00 0. -1.
   -9000010    2    1    2    0  503 -0.29404140611E+03  0.81811030667E+03  0.46759897036E+02  0.13507511667E+04  0.10327523440E+04 0.  0.
    9000010    2    1    2  501    0  0.29404140611E+03 -0.81811030667E+03  0.14395585728E+04  0.19599075863E+04  0.10065505650E+04 0.  0.
        -13    1    4    4    0    0  0.29710721692E+03 -0.69786138169E+03  0.30260837536E+03  0.81661193134E+03  0.10566000000E+00 0.  1.
          4    1    4    4  501    0 -0.30658108129E+01 -0.12024892498E+03  0.11369501974E+04  0.11432956549E+04  0.00000000000E+00 0.  1.
         13    1    3    3    0    0  0.35675155577E+03  0.26572541285E+03  0.19263987484E+03  0.48475952814E+03  0.10566000000E+00 0. -1.
         -4    1    3    3    0  503 -0.65079296188E+03  0.55238489382E+03 -0.14587997781E+03  0.86599163857E+03  0.00000000000E+00 0. -1.
<mgrwt>
<rscale>  2 0.13449292E+04</rscale>
<asrwt>0</asrwt>
<pdfrwt beam="1">  1       21 0.36899825E+00 0.13499416E+04</pdfrwt>
<pdfrwt beam="2">  1       21 0.14033387E+00 0.13499416E+04</pdfrwt>
<totfact> 0.12535592E+00</totfact>
</mgrwt>
</event>
<event>
 8    1  0.1094795E-005  0.1299696E+04  0.7818608E-02  0.8557376E-01
         21   -1    0    0  501  502  0.00000000000E+00  0.00000000000E+00  0.12369379545E+04  0.12369379545E+04  0.00000000000E+00 0.  1.
         21   -1    0    0  502  503 -0.00000000000E+00 -0.00000000000E+00 -0.15055021948E+04  0.15055021948E+04  0.00000000000E+00 0.  1.
   -9000010    2    1    2    0  503 -0.22212043686E+03 -0.56617992026E+03  0.44813903495E+03  0.12582320731E+04  0.10061919124E+04 0.  0.
    9000010    2    1    2  501    0  0.22212043686E+03  0.56617992026E+03 -0.71670327533E+03  0.14842080762E+04  0.11486134415E+04 0.  0.
        -13    1    4    4    0    0  0.51776187487E+03  0.16892132490E+03 -0.81414977135E+03  0.97951602050E+03  0.10566000000E+00 0.  1.
          4    1    4    4  501    0 -0.29564143801E+03  0.39725859536E+03  0.97446496017E+02  0.50469205566E+03  0.00000000000E+00 0.  1.
         13    1    3    3    0    0 -0.30260900945E+03 -0.23207903851E+03  0.72350555158E+03  0.81785890412E+03  0.10566000000E+00 0. -1.
         -4    1    3    3    0  503  0.80488572588E+02 -0.33410088175E+03 -0.27536651663E+03  0.44037316901E+03  0.00000000000E+00 0. -1.
<mgrwt>
<rscale>  2 0.12675276E+04</rscale>
<asrwt>0</asrwt>
<pdfrwt beam="1">  1       21 0.19029815E+00 0.12996961E+04</pdfrwt>
<pdfrwt beam="2">  1       21 0.23161572E+00 0.12996961E+04</pdfrwt>
<totfact> 0.45037331E+00</totfact>
</mgrwt>
</event>
<event>
 8    1  0.1094795E-005  0.1152312E+04  0.7818608E-02  0.8646610E-01
         21   -1    0    0  503  502  0.00000000000E+00  0.00000000000E+00  0.86096576683E+03  0.86096576683E+03  0.00000000000E+00 0. -1.
         21   -1    0    0  501  503 -0.00000000000E+00 -0.00000000000E+00 -0.15830593623E+04  0.15830593623E+04  0.00000000000E+00 0. -1.
    9000010    2    1    2  501    0  0.33518873661E+03 -0.42184576424E+03 -0.60144976496E+03  0.12854143095E+04  0.10001213873E+04 0.  0.
   -9000010    2    1    2    0  502 -0.33518873661E+03  0.42184576424E+03 -0.12064383049E+03  0.11586108196E+04  0.10185866480E+04 0.  0.
        -13    1    3    3    0    0  0.55324572614E+03 -0.58168762911E+03 -0.62013763409E+03  0.10144023007E+04  0.10566000000E+00 0.  1.
          4    1    3    3  501    0 -0.21805698952E+03  0.15984186488E+03  0.18687869127E+02  0.27101200877E+03  0.00000000000E+00 0.  1.
         13    1    4    4    0    0 -0.48183028662E+03  0.66165741404E+03  0.66052477461E+02  0.82116618270E+03  0.10566000000E+00 0. -1.
         -4    1    4    4    0  502  0.14664155001E+03 -0.23981164981E+03 -0.18669630795E+03  0.33744463690E+03  0.00000000000E+00 0. -1.
<mgrwt>
<rscale>  2 0.11482183E+04</rscale>
<asrwt>0</asrwt>
<pdfrwt beam="1">  1       21 0.13245627E+00 0.11523125E+04</pdfrwt>
<pdfrwt beam="2">  1       21 0.24354759E+00 0.11523125E+04</pdfrwt>
<totfact> 0.12027551E+01</totfact>
</mgrwt>
</event>
<event>
 8    1  0.1094795E-005  0.1122516E+04  0.7818608E-02  0.8680607E-01
         21   -1    0    0  501  502  0.00000000000E+00  0.00000000000E+00  0.10377065397E+04  0.10377065397E+04  0.00000000000E+00 0.  1.
         21   -1    0    0  502  503 -0.00000000000E+00 -0.00000000000E+00 -0.15442874594E+04  0.15442874594E+04  0.00000000000E+00 0.  1.
   -9000010    2    1    2    0  503  0.26150211154E+03  0.42565019543E+03  0.39596579446E+03  0.11903067729E+04  0.10052262730E+04 0.  0.
    9000010    2    1    2  501    0 -0.26150211154E+03 -0.42565019543E+03 -0.90254671421E+03  0.13916872263E+04  0.93415272909E+03 0.  0.
        -13    1    4    4    0    0 -0.36316163301E+03  0.13191125851E+03 -0.82886651370E+02  0.39516725567E+03  0.10566000000E+00 0.  1.
          4    1    4    4  501    0  0.10165952147E+03 -0.55756145394E+03 -0.81966006284E+03  0.99651997062E+03  0.00000000000E+00 0.  1.
         13    1    3    3    0    0  0.42575611219E+03  0.56367019669E+03  0.57503271219E+03  0.91085398883E+03  0.10566000000E+00 0. -1.
         -4    1    3    3    0  503 -0.16425400065E+03 -0.13802000126E+03 -0.17906691773E+03  0.27945278403E+03  0.00000000000E+00 0. -1.
<mgrwt>
<rscale>  2 0.11063772E+04</rscale>
<asrwt>0</asrwt>
<pdfrwt beam="1">  1       21 0.15964716E+00 0.11225156E+04</pdfrwt>
<pdfrwt beam="2">  1       21 0.23758269E+00 0.11225156E+04</pdfrwt>
<totfact> 0.75862555E+00</totfact>
</mgrwt>
</event>
<event>
 8    1  0.1094795E-005  0.1022944E+04  0.7818608E-02  0.8755745E-01
         21   -1    0    0  501  502  0.00000000000E+00  0.00000000000E+00  0.21245455600E+04  0.21245455600E+04  0.00000000000E+00 0. -1.
         21   -1    0    0  502  503 -0.00000000000E+00 -0.00000000000E+00 -0.48968011067E+03  0.48968011067E+03  0.00000000000E+00 0. -1.
   -9000010    2    1    2    0  503 -0.14403133654E+03  0.79874161968E+02  0.90916495292E+03  0.13685744204E+04  0.10095989921E+04 0.  0.
    9000010    2    1    2  501    0  0.14403133654E+03 -0.79874161968E+02  0.72570049642E+03  0.12456512503E+04  0.99893989772E+03 0.  0.
        -13    1    4    4    0    0 -0.10756945550E+03  0.36171881335E+03  0.22544113460E+02  0.37804753127E+03  0.10566000000E+00 0.  1.
          4    1    4    4  501    0  0.25160079203E+03 -0.44159297531E+03  0.70315638296E+03  0.86760371904E+03  0.00000000000E+00 0.  1.
         13    1    3    3    0    0  0.40216210772E+03  0.36165679481E+02  0.64334024232E+03  0.75955842159E+03  0.10566000000E+00 0. -1.
         -4    1    3    3    0  503 -0.54619344426E+03  0.43708482487E+02  0.26582471061E+03  0.60901599877E+03  0.00000000000E+00 0. -1.
<mgrwt>
<rscale>  2 0.10203044E+04</rscale>
<asrwt>0</asrwt>
<pdfrwt beam="1">  1       21 0.32685316E+00 0.10229443E+04</pdfrwt>
<pdfrwt beam="2">  1       21 0.75335403E-01 0.10229443E+04</pdfrwt>
<totfact> 0.13958549E+01</totfact>
</mgrwt>
</event>
<event>
 8    1  0.1094795E-005  0.1160939E+04  0.7818608E-02  0.8639877E-01
         21   -1    0    0  501  502  0.00000000000E+00  0.00000000000E+00  0.16179508695E+04  0.16179508695E+04  0.00000000000E+00 0. -1.
         21   -1    0    0  502  503 -0.00000000000E+00 -0.00000000000E+00 -0.83651772309E+03  0.83651772309E+03  0.00000000000E+00 0. -1.
   -9000010    2    1    2    0  503  0.31027310892E+03  0.47500673027E+03  0.22662113916E+03  0.11828506105E+04  0.10128561744E+04 0.  0.
    9000010    2    1    2  501    0 -0.31027310892E+03 -0.47500673027E+03  0.55481200722E+03  0.12716179821E+04  0.99362726064E+03 0.  0.
        -13    1    4    4    0    0 -0.54350601920E+01 -0.38591433989E+03 -0.21292076115E+03  0.44078870143E+03  0.10566000000E+00 0.  1.
          4    1    4    4  501    0 -0.30483804873E+03 -0.89092390378E+02  0.76773276837E+03  0.83082928066E+03  0.00000000000E+00 0.  1.
         13    1    3    3    0    0  0.66084508286E+03  0.14658082517E+03  0.86228008755E+02  0.68237632030E+03  0.10566000000E+00 0. -1.
         -4    1    3    3    0  503 -0.35057197395E+03  0.32842590510E+03  0.14039313041E+03  0.50047429017E+03  0.00000000000E+00 0. -1.
<mgrwt>
<rscale>  2 0.11567314E+04</rscale>
<asrwt>0</asrwt>
<pdfrwt beam="1">  1       21 0.24891552E+00 0.11609386E+04</pdfrwt>
<pdfrwt beam="2">  1       21 0.12869503E+00 0.11609386E+04</pdfrwt>
<totfact> 0.11922416E+01</totfact>
</mgrwt>
</event>
<event>
 8    1  0.1094795E-005  0.1041373E+04  0.7818608E-02  0.8737369E-01
         21   -1    0    0  503  502  0.00000000000E+00  0.00000000000E+00  0.95295139390E+03  0.95295139390E+03  0.00000000000E+00 0.  1.
         21   -1    0    0  501  503 -0.00000000000E+00 -0.00000000000E+00 -0.11487328591E+04  0.11487328591E+04  0.00000000000E+00 0.  1.
    9000010    2    1    2  501    0 -0.13314613473E+03  0.23761948294E+03 -0.21482010648E+03  0.10632997439E+04  0.10051207665E+04 0.  0.
   -9000010    2    1    2    0  502  0.13314613473E+03 -0.23761948294E+03  0.19038641331E+02  0.10383845091E+04  0.10018428055E+04 0.  0.
        -13    1    3    3    0    0 -0.52305433489E+03  0.25217734402E+02  0.80833170951E+02  0.52986392976E+03  0.10566000000E+00 0.  1.
          4    1    3    3  501    0  0.38990820016E+03  0.21240174854E+03 -0.29565327743E+03  0.53343581412E+03  0.00000000000E+00 0.  1.
         13    1    4    4    0    0 -0.17103291935E+03 -0.53559072242E+03  0.16876692309E+03  0.58701956266E+03  0.10566000000E+00 0. -1.
         -4    1    4    4    0  502  0.30417905408E+03  0.29797123948E+03 -0.14972828176E+03  0.45136494642E+03  0.00000000000E+00 0. -1.
<mgrwt>
<rscale>  2 0.10405817E+04</rscale>
<asrwt>0</asrwt>
<pdfrwt beam="1">  1       21 0.14660791E+00 0.10413735E+04</pdfrwt>
<pdfrwt beam="2">  1       21 0.17672813E+00 0.10413735E+04</pdfrwt>
<totfact> 0.29777997E+01</totfact>
</mgrwt>
</event>
<event>
 8    1  0.1094795E-005  0.1049579E+04  0.7818608E-02  0.8731905E-01
         21   -1    0    0  503  502  0.00000000000E+00  0.00000000000E+00  0.15187914034E+04  0.15187914034E+04  0.00000000000E+00 0.  1.
         21   -1    0    0  501  503 -0.00000000000E+00 -0.00000000000E+00 -0.71882907725E+03  0.71882907725E+03  0.00000000000E+00 0.  1.
    9000010    2    1    2  501    0  0.77850155161E+02  0.30105383263E+03  0.45151134787E+03  0.11425753976E+04  0.10024579717E+04 0.  0.
   -9000010    2    1    2    0  502 -0.77850155161E+02 -0.30105383263E+03  0.34845097828E+03  0.10950450831E+04  0.99046029347E+03 0.  0.
        -13    1    3    3    0    0 -0.38159987729E+03 -0.12670237622E+03  0.70419537674E+02  0.40820445973E+03  0.10566000000E+00 0.  1.
          4    1    3    3  501    0  0.45945003245E+03  0.42775620885E+03  0.38109181020E+03  0.73437093783E+03  0.00000000000E+00 0.  1.
         13    1    4    4    0    0 -0.50789455055E+03 -0.32774135083E+03  0.24286389013E+03  0.65142470618E+03  0.10566000000E+00 0. -1.
         -4    1    4    4    0  502  0.43004439539E+03  0.26687518200E+02  0.10558708814E+03  0.44362037691E+03  0.00000000000E+00 0. -1.
<mgrwt>
<rscale>  2 0.10467040E+04</rscale>
<asrwt>0</asrwt>
<pdfrwt beam="1">  1       21 0.23366022E+00 0.10495790E+04</pdfrwt>
<pdfrwt beam="2">  1       21 0.11058909E+00 0.10495790E+04</pdfrwt>
<totfact> 0.24149026E+01</totfact>
</mgrwt>
</event>
<event>
 8    1  0.1094795E-005  0.1009220E+04  0.7818608E-02  0.8767697E-01
         21   -1    0    0  503  502  0.00000000000E+00  0.00000000000E+00  0.12410289935E+04  0.12410289935E+04  0.00000000000E+00 0.  1.
         21   -1    0    0  501  503 -0.00000000000E+00 -0.00000000000E+00 -0.81567531890E+03  0.81567531890E+03  0.00000000000E+00 0.  1.
    9000010    2    1    2  501    0  0.18912491860E+03 -0.61746517950E+02  0.24861567769E+03  0.10393910812E+04  0.98941558364E+03 0.  0.
   -9000010    2    1    2    0  502 -0.18912491860E+03  0.61746517950E+02  0.17673799687E+03  0.10173132312E+04  0.98189053538E+03 0.  0.
        -13    1    3    3    0    0 -0.24443485059E+03 -0.38149117642E+03  0.18134553765E+02  0.45344546207E+03  0.10566000000E+00 0.  1.
          4    1    3    3  501    0  0.43355976919E+03  0.31974465847E+03  0.23048112393E+03  0.58594561912E+03  0.00000000000E+00 0.  1.
         13    1    4    4    0    0  0.15207003122E+03 -0.10847705989E+03  0.48964004032E+03  0.52406101473E+03  0.10566000000E+00 0. -1.
         -4    1    4    4    0  502 -0.34119494981E+03  0.17022357784E+03 -0.31290204345E+03  0.49325221644E+03  0.00000000000E+00 0. -1.
<mgrwt>
<rscale>  2 0.10073704E+04</rscale>
<asrwt>0</asrwt>
<pdfrwt beam="1">  1       21 0.19092754E+00 0.10092195E+04</pdfrwt>
<pdfrwt beam="2">  1       21 0.12548851E+00 0.10092195E+04</pdfrwt>
<totfact> 0.36385142E+01</totfact>
</mgrwt>
</event>
<event>
 8    1  0.1094795E-005  0.1033306E+04  0.7818608E-02  0.8744989E-01
         21   -1    0    0  501  502  0.00000000000E+00  0.00000000000E+00  0.12343596409E+04  0.12343596409E+04  0.00000000000E+00 0. -1.
         21   -1    0    0  502  503 -0.00000000000E+00 -0.00000000000E+00 -0.86864282682E+03  0.86864282682E+03  0.00000000000E+00 0. -1.
   -9000010    2    1    2    0  503  0.22494914131E+03  0.85766423014E+02  0.28176302017E+03  0.10710325807E+04  0.10048693417E+04 0.  0.
    9000010    2    1    2  501    0 -0.22494914131E+03 -0.85766423014E+02  0.83953793908E+02  0.10319698871E+04  0.99997780614E+03 0.  0.
        -13    1    4    4    0    0 -0.14479034437E+03  0.43990819829E+03 -0.91390644508E+02  0.47205479323E+03  0.10566000000E+00 0.  1.
          4    1    4    4  501    0 -0.80158796948E+02 -0.52567462130E+03  0.17534443842E+03  0.55991509382E+03  0.00000000000E+00 0.  1.
         13    1    3    3    0    0 -0.25701960057E+03  0.30777199518E+03 -0.10488526067E+03  0.41446785781E+03  0.10566000000E+00 0. -1.
         -4    1    3    3    0  503  0.48196874188E+03 -0.22200557216E+03  0.38664828084E+03  0.65656472286E+03  0.00000000000E+00 0. -1.
<mgrwt>
<rscale>  2 0.10321144E+04</rscale>
<asrwt>0</asrwt>
<pdfrwt beam="1">  1       21 0.18990148E+00 0.10333056E+04</pdfrwt>
<pdfrwt beam="2">  1       21 0.13363736E+00 0.10333056E+04</pdfrwt>
<totfact> 0.30761486E+01</totfact>
</mgrwt>
</event>
<event>
 8    1  0.1094795E-005  0.1257895E+04  0.7818608E-02  0.8565368E-01
         21   -1    0    0  501  502  0.00000000000E+00  0.00000000000E+00  0.10900967700E+04  0.10900967700E+04  0.00000000000E+00 0.  1.
         21   -1    0    0  502  503 -0.00000000000E+00 -0.00000000000E+00 -0.14781774049E+04  0.14781774049E+04  0.00000000000E+00 0.  1.
   -9000010    2    1    2    0  503 -0.54569053963E+03 -0.53039048265E+03 -0.38995275942E+03  0.13169522859E+04  0.10016026855E+04 0.  0.
    9000010    2    1    2  501    0  0.54569053963E+03  0.53039048265E+03  0.18721245679E+01  0.12513218890E+04  0.99333314449E+03 0.  0.
        -13    1    4    4    0    0  0.49606775085E+03  0.79317811323E+03  0.14706552246E+03  0.94701795749E+03  0.10566000000E+00 0.  1.
          4    1    4    4  501    0  0.49622788775E+02 -0.26278763058E+03 -0.14519339789E+03  0.30430393153E+03  0.00000000000E+00 0.  1.
         13    1    3    3    0    0 -0.17791228862E+03  0.30051436539E+03 -0.10666521350E+03  0.36515632978E+03  0.10566000000E+00 0. -1.
         -4    1    3    3    0  503 -0.36777825101E+03 -0.83090484804E+03 -0.28328754591E+03  0.95179595612E+03  0.00000000000E+00 0. -1.
<mgrwt>
<rscale>  2 0.12562482E+04</rscale>
<asrwt>0</asrwt>
<pdfrwt beam="1">  1       21 0.16770719E+00 0.12578951E+04</pdfrwt>
<pdfrwt beam="2">  1       21 0.22741191E+00 0.12578951E+04</pdfrwt>
<totfact> 0.74850611E+00</totfact>
</mgrwt>
</event>
<event>
 8    1  0.1094795E-005  0.1091860E+04  0.7818608E-02  0.8702495E-01
         21   -1    0    0  501  502  0.00000000000E+00  0.00000000000E+00  0.16314175296E+04  0.16314175296E+04  0.00000000000E+00 0.  1.
         21   -1    0    0  502  503 -0.00000000000E+00 -0.00000000000E+00 -0.79200121290E+03  0.79200121290E+03  0.00000000000E+00 0.  1.
   -9000010    2    1    2    0  503 -0.36467713984E+03  0.23108716982E+03  0.16686301296E+02  0.10919876395E+04  0.10028797912E+04 0.  0.
    9000010    2    1    2  501    0  0.36467713984E+03 -0.23108716982E+03  0.82273001544E+03  0.13314311031E+04  0.95364218004E+03 0.  0.
        -13    1    4    4    0    0  0.15922755949E+03 -0.21169993261E+02  0.98353704864E+03  0.99656746963E+03  0.10566000000E+00 0.  1.
          4    1    4    4  501    0  0.20544958036E+03 -0.20991717656E+03 -0.16080703319E+03  0.33486363345E+03  0.00000000000E+00 0.  1.
         13    1    3    3    0    0  0.10533239923E+03  0.52614871648E+03 -0.50290941962E+01  0.53661223350E+03  0.10566000000E+00 0. -1.
         -4    1    3    3    0  503 -0.47000953908E+03 -0.29506154666E+03  0.21715395492E+02  0.55537540596E+03  0.00000000000E+00 0. -1.
<mgrwt>
<rscale>  2 0.10804206E+04</rscale>
<asrwt>0</asrwt>
<pdfrwt beam="1">  1       21 0.25098731E+00 0.10918601E+04</pdfrwt>
<pdfrwt beam="2">  1       21 0.12184634E+00 0.10918601E+04</pdfrwt>
<totfact> 0.13659270E+01</totfact>
</mgrwt>
</event>
<event>
 8    1  0.1094795E-005  0.1106760E+04  0.7818608E-02  0.8682380E-01
         21   -1    0    0  501  502  0.00000000000E+00  0.00000000000E+00  0.55297735861E+03  0.55297735861E+03  0.00000000000E+00 0. -1.
         21   -1    0    0  502  503 -0.00000000000E+00 -0.00000000000E+00 -0.23889690341E+04  0.23889690341E+04  0.00000000000E+00 0.  1.
   -9000010    2    1    2    0  503  0.44956612698E+03  0.46739002635E+01 -0.50282321229E+03  0.12156266226E+04  0.10113285098E+04 0.  0.
    9000010    2    1    2  501    0 -0.44956612698E+03 -0.46739002635E+01 -0.13331684632E+04  0.17263197702E+04  0.10003550618E+04 0.  0.
        -13    1    4    4    0    0 -0.49543815544E+03  0.43020373766E+03 -0.73364061184E+03  0.98425747661E+03  0.10566000000E+00 0.  1.
          4    1    4    4  501    0  0.45872028464E+02 -0.43487763792E+03 -0.59952785140E+03  0.74206229358E+03  0.00000000000E+00 0.  1.
         13    1    3    3    0    0  0.71526966907E+03  0.18124006667E+03 -0.50924289409E+03  0.89654168760E+03  0.10566000000E+00 0. -1.
         -4    1    3    3    0  503 -0.26570354210E+03 -0.17656616641E+03  0.64196817974E+01  0.31908493496E+03  0.00000000000E+00 0. -1.
<mgrwt>
<rscale>  2 0.11042465E+04</rscale>
<asrwt>0</asrwt>
<pdfrwt beam="1">  1       21 0.85073440E-01 0.11067596E+04</pdfrwt>
<pdfrwt beam="2">  1       21 0.36753370E+00 0.11067596E+04</pdfrwt>
<totfact> 0.52737270E+00</totfact>
</mgrwt>
</event>
<event>
 8    1  0.1094795E-005  0.1280814E+04  0.7818608E-02  0.8549719E-01
         21   -1    0    0  501  502  0.00000000000E+00  0.00000000000E+00  0.16337111519E+04  0.16337111519E+04  0.00000000000E+00 0. -1.
         21   -1    0    0  502  503 -0.00000000000E+00 -0.00000000000E+00 -0.99977592059E+03  0.99977592059E+03  0.00000000000E+00 0. -1.
   -9000010    2    1    2    0  503 -0.77129671501E+03 -0.15575702048E+03  0.24351829755E+03  0.12944916090E+04  0.99862329856E+03 0.  0.
    9000010    2    1    2  501    0  0.77129671501E+03  0.15575702048E+03  0.39041693378E+03  0.13389954635E+04  0.10106060544E+04 0.  0.
        -13    1    4    4    0    0  0.27893661512E+03  0.24012124272E+03 -0.30827213712E+03  0.48009953984E+03  0.10566000000E+00 0.  1.
          4    1    4    4  501    0  0.49236009989E+03 -0.84364222243E+02  0.69868907091E+03  0.85889592371E+03  0.00000000000E+00 0.  1.
         13    1    3    3    0    0 -0.85160445189E+03 -0.40067413843E+03  0.36512377066E+03  0.10094975417E+04  0.10566000000E+00 0. -1.
         -4    1    3    3    0  503  0.80307736882E+02  0.24491711795E+03 -0.12160547311E+03  0.28499406724E+03  0.00000000000E+00 0. -1.
<mgrwt>
<rscale>  2 0.12784487E+04</rscale>
<asrwt>0</asrwt>
<pdfrwt beam="1">  1       21 0.25134018E+00 0.12808136E+04</pdfrwt>
<pdfrwt beam="2">  1       21 0.15381168E+00 0.12808136E+04</pdfrwt>
<totfact> 0.65443167E+00</totfact>
</mgrwt>
</event>
<event>
 8    1  0.1094795E-005  0.1199059E+04  0.7818608E-02  0.8609451E-01
         21   -1    0    0  503  502  0.00000000000E+00  0.00000000000E+00  0.80755136185E+03  0.80755136185E+03  0.00000000000E+00 0. -1.
         21   -1    0    0  501  503 -0.00000000000E+00 -0.00000000000E+00 -0.17645668269E+04  0.17645668269E+04  0.00000000000E+00 0.  1.
    9000010    2    1    2  501    0  0.61418491479E+03  0.22875107896E+03 -0.51029959929E+03  0.12925484843E+04  0.99031597861E+03 0.  0.
   -9000010    2    1    2    0  502 -0.61418491479E+03 -0.22875107896E+03 -0.44671586576E+03  0.12795697045E+04  0.10040883418E+04 0.  0.
        -13    1    3    3    0    0  0.55120629079E+03  0.41280079952E+03  0.58770521488E+02  0.69114894230E+03  0.10566000000E+00 0.  1.
          4    1    3    3  501    0  0.62978624009E+02 -0.18404972057E+03 -0.56907012078E+03  0.60139954198E+03  0.00000000000E+00 0.  1.
         13    1    4    4    0    0 -0.87909762828E+03 -0.18250841365E+03 -0.21178080481E+03  0.92248202235E+03  0.10566000000E+00 0. -1.
         -4    1    4    4    0  502  0.26491271349E+03 -0.46242665309E+02 -0.23493506095E+03  0.35708768213E+03  0.00000000000E+00 0. -1.
<mgrwt>
<rscale>  2 0.11961718E+04</rscale>
<asrwt>0</asrwt>
<pdfrwt beam="1">  1       21 0.12423867E+00 0.11990594E+04</pdfrwt>
<pdfrwt beam="2">  1       21 0.27147181E+00 0.11990594E+04</pdfrwt>
<totfact> 0.89915513E+00</totfact>
</mgrwt>
</event>
<event>
 8    1  0.1094795E-005  0.1154308E+04  0.7818608E-02  0.8648515E-01
         21   -1    0    0  503  502  0.00000000000E+00  0.00000000000E+00  0.13527813758E+04  0.13527813758E+04  0.00000000000E+00 0. -1.
         21   -1    0    0  501  503 -0.00000000000E+00 -0.00000000000E+00 -0.10212616378E+04  0.10212616378E+04  0.00000000000E+00 0. -1.
    9000010    2    1    2  501    0 -0.46045320961E+03  0.24080859498E+03  0.46689637253E+03  0.12451586901E+04  0.10307385717E+04 0.  0.
   -9000010    2    1    2    0  502  0.46045320961E+03 -0.24080859498E+03 -0.13537663448E+03  0.11288843234E+04  0.99299901556E+03 0.  0.
        -13    1    3    3    0    0  0.18303446921E+03 -0.16907335366E+03 -0.12572437831E+03  0.27909504887E+03  0.10566000000E+00 0.  1.
          4    1    3    3  501    0 -0.64348767882E+03  0.40988194865E+03  0.59262075084E+03  0.96606364125E+03  0.00000000000E+00 0.  1.
         13    1    4    4    0    0  0.56568675747E+03 -0.54296103263E+03 -0.69762380994E+01  0.78412809514E+03  0.10566000000E+00 0. -1.
         -4    1    4    4    0  502 -0.10523354786E+03  0.30215243764E+03 -0.12840039638E+03  0.34475622831E+03  0.00000000000E+00 0. -1.
<mgrwt>
<rscale>  2 0.11458226E+04</rscale>
<asrwt>0</asrwt>
<pdfrwt beam="1">  1       21 0.20812021E+00 0.11543084E+04</pdfrwt>
<pdfrwt beam="2">  1       21 0.15711717E+00 0.11543084E+04</pdfrwt>
<totfact> 0.13202635E+01</totfact>
</mgrwt>
</event>
<event>
 8    1  0.1094795E-005  0.1407284E+04  0.7818608E-02  0.8467858E-01
         21   -1    0    0  503  502  0.00000000000E+00  0.00000000000E+00  0.10456894869E+04  0.10456894869E+04  0.00000000000E+00 0.  1.
         21   -1    0    0  501  503 -0.00000000000E+00 -0.00000000000E+00 -0.19348908770E+04  0.19348908770E+04  0.00000000000E+00 0.  1.
    9000010    2    1    2  501    0 -0.95973712791E+03 -0.10827867454E+03 -0.71697180515E+03  0.15627966575E+04  0.99773002222E+03 0.  0.
   -9000010    2    1    2    0  502  0.95973712791E+03  0.10827867454E+03 -0.17222958488E+03  0.14177837064E+04  0.10235369960E+04 0.  0.
        -13    1    3    3    0    0 -0.77278611532E+03 -0.36687240265E+03 -0.91114935843E+02  0.86028813926E+03  0.10566000000E+00 0.  1.
          4    1    3    3  501    0 -0.18695101259E+03  0.25859372811E+03 -0.62585686931E+03  0.70250851823E+03  0.00000000000E+00 0.  1.
         13    1    4    4    0    0 -0.81454040962E+02 -0.28331632373E+03 -0.42770018446E+02  0.29787948187E+03  0.10566000000E+00 0. -1.
         -4    1    4    4    0  502  0.10411911689E+04  0.39159499827E+03 -0.12945956644E+03  0.11199042245E+04  0.00000000000E+00 0. -1.
<mgrwt>
<rscale>  2 0.14025962E+04</rscale>
<asrwt>0</asrwt>
<pdfrwt beam="1">  1       21 0.16087531E+00 0.14072838E+04</pdfrwt>
<pdfrwt beam="2">  1       21 0.29767552E+00 0.14072838E+04</pdfrwt>
<totfact> 0.25787644E+00</totfact>
</mgrwt>
</event>
<event>
 8    1  0.1094795E-005  0.1134906E+04  0.7818608E-02  0.8658659E-01
         21   -1    0    0  501  502  0.00000000000E+00  0.00000000000E+00  0.12341926903E+04  0.12341926903E+04  0.00000000000E+00 0.  1.
         21   -1    0    0  502  503 -0.00000000000E+00 -0.00000000000E+00 -0.12134385765E+04  0.12134385765E+04  0.00000000000E+00 0.  1.
   -9000010    2    1    2    0  503 -0.28871113743E+02  0.53347209108E+03 -0.45597753967E+03  0.12166625280E+04  0.99344158215E+03 0.  0.
    9000010    2    1    2  501    0  0.28871113743E+02 -0.53347209108E+03  0.47673165339E+03  0.12309687388E+04  0.10012916426E+04 0.  0.
        -13    1    4    4    0    0 -0.34697122447E+02 -0.14483256417E+03  0.74158109076E+03  0.75638805337E+03  0.10566000000E+00 0.  1.
          4    1    4    4  501    0  0.63568236190E+02 -0.38863952691E+03 -0.26484943737E+03  0.47458068545E+03  0.00000000000E+00 0.  1.
         13    1    3    3    0    0 -0.13078028291E+03 -0.39923873056E+02 -0.60111255129E+03  0.61646874091E+03  0.10566000000E+00 0. -1.
         -4    1    3    3    0  503  0.10190916917E+03  0.57339596414E+03  0.14513501162E+03  0.60019378708E+03  0.00000000000E+00 0. -1.
<mgrwt>
<rscale>  2 0.11331718E+04</rscale>
<asrwt>0</asrwt>
<pdfrwt beam="1">  1       21 0.18987580E+00 0.11349057E+04</pdfrwt>
<pdfrwt beam="2">  1       21 0.18668286E+00 0.11349057E+04</pdfrwt>
<totfact> 0.10425777E+01</totfact>
</mgrwt>
</event>
<event>
 8    1  0.1094795E-005  0.1079276E+04  0.7818608E-02  0.8704923E-01
         21   -1    0    0  501  502  0.00000000000E+00  0.00000000000E+00  0.11525180994E+04  0.11525180994E+04  0.00000000000E+00 0. -1.
         21   -1    0    0  502  503 -0.00000000000E+00 -0.00000000000E+00 -0.10130311980E+04  0.10130311980E+04  0.00000000000E+00 0. -1.
   -9000010    2    1    2    0  503 -0.27720002552E+03 -0.26148899181E+03  0.16953761385E+03  0.10858551418E+04  0.10025577487E+04 0.  0.
    9000010    2    1    2  501    0  0.27720002552E+03  0.26148899181E+03 -0.30050712423E+02  0.10796941556E+04  0.10097623866E+04 0.  0.
        -13    1    4    4    0    0  0.61121515813E+03  0.14226803499E+03 -0.23496291516E+03  0.67009831068E+03  0.10566000000E+00 0.  1.
          4    1    4    4  501    0 -0.33401513261E+03  0.11922095682E+03  0.20491220273E+03  0.40959584493E+03  0.00000000000E+00 0.  1.
         13    1    3    3    0    0 -0.12536741364E+03  0.49233134288E+02  0.55318233904E+03  0.56934313143E+03  0.10566000000E+00 0. -1.
         -4    1    3    3    0  503 -0.15183261188E+03 -0.31072212610E+03 -0.38364472519E+03  0.51651201036E+03  0.00000000000E+00 0. -1.
<mgrwt>
<rscale>  2 0.10775875E+04</rscale>
<asrwt>0</asrwt>
<pdfrwt beam="1">  1       21 0.17731048E+00 0.10792759E+04</pdfrwt>
<pdfrwt beam="2">  1       21 0.15585095E+00 0.10792759E+04</pdfrwt>
<totfact> 0.24174485E+01</totfact>
</mgrwt>
</event>
<event>
 8    1  0.1094795E-005  0.1052256E+04  0.7818608E-02  0.8729393E-01
         21   -1    0    0  503  502  0.00000000000E+00  0.00000000000E+00  0.46520446607E+03  0.46520446607E+03  0.00000000000E+00 0. -1.
         21   -1    0    0  501  503 -0.00000000000E+00 -0.00000000000E+00 -0.24273090591E+04  0.24273090591E+04  0.00000000000E+00 0. -1.
    9000010    2    1    2  501    0  0.82886714010E+02 -0.29162191295E+03 -0.12246186888E+04  0.16075512223E+04  0.99630138604E+03 0.  0.
   -9000010    2    1    2    0  502 -0.82886714010E+02  0.29162191295E+03 -0.73748590418E+03  0.12849623028E+04  0.10076354070E+04 0.  0.
        -13    1    3    3    0    0  0.40823327948E+03 -0.40851896061E+03 -0.37059543723E+03  0.68620925447E+03  0.10566000000E+00 0.  1.
          4    1    3    3  501    0 -0.32534656547E+03  0.11689704766E+03 -0.85402325160E+03  0.92134196784E+03  0.00000000000E+00 0.  1.
         13    1    4    4    0    0 -0.12175731565E+03 -0.16035438164E+03 -0.80187939122E+03  0.82677018624E+03  0.10566000000E+00 0. -1.
         -4    1    4    4    0  502  0.38870601636E+02  0.45197629459E+03  0.64393487042E+02  0.45819211661E+03  0.00000000000E+00 0. -1.
<mgrwt>
<rscale>  2 0.10495334E+04</rscale>
<asrwt>0</asrwt>
<pdfrwt beam="1">  1       21 0.71569920E-01 0.10522560E+04</pdfrwt>
<pdfrwt beam="2">  1       21 0.37343215E+00 0.10522560E+04</pdfrwt>
<totfact> 0.73864864E+00</totfact>
</mgrwt>
</event>
<event>
 8    1  0.1094795E-005  0.1053036E+04  0.7818608E-02  0.8729769E-01
         21   -1    0    0  503  502  0.00000000000E+00  0.00000000000E+00  0.53971461046E+03  0.53971461046E+03  0.00000000000E+00 0. -1.
         21   -1    0    0  501  503 -0.00000000000E+00 -0.00000000000E+00 -0.21455300303E+04  0.21455300303E+04  0.00000000000E+00 0. -1.
    9000010    2    1    2  501    0 -0.21171614804E+03  0.16743419534E+03 -0.11278250902E+04  0.15430080537E+04  0.10178538610E+04 0.  0.
   -9000010    2    1    2    0  502  0.21171614804E+03 -0.16743419534E+03 -0.47799032957E+03  0.11422365871E+04  0.10016844456E+04 0.  0.
        -13    1    3    3    0    0  0.27615214040E+02 -0.38168922561E+03 -0.18274013222E+03  0.42407927570E+03  0.10566000000E+00 0.  1.
          4    1    3    3  501    0 -0.23933136208E+03  0.54912342095E+03 -0.94508495803E+03  0.11189287780E+04  0.00000000000E+00 0.  1.
         13    1    4    4    0    0 -0.10567602000E+03 -0.19628312746E+03  0.25754586244E+03  0.34062350147E+03  0.10566000000E+00 0. -1.
         -4    1    4    4    0  502  0.31739216804E+03  0.28848932118E+02 -0.73553619202E+03  0.80161308559E+03  0.00000000000E+00 0. -1.
<mgrwt>
<rscale>  2 0.10491087E+04</rscale>
<asrwt>0</asrwt>
<pdfrwt beam="1">  1       21 0.83033017E-01 0.10530358E+04</pdfrwt>
<pdfrwt beam="2">  1       21 0.33008154E+00 0.10530358E+04</pdfrwt>
<totfact> 0.10382867E+01</totfact>
</mgrwt>
</event>
<event>
 8    1  0.1094795E-005  0.1398474E+04  0.7818608E-02  0.8476664E-01
         21   -1    0    0  501  502  0.00000000000E+00  0.00000000000E+00  0.16204111205E+04  0.16204111205E+04  0.00000000000E+00 0.  1.
         21   -1    0    0  502  503 -0.00000000000E+00 -0.00000000000E+00 -0.11764859536E+04  0.11764859536E+04  0.00000000000E+00 0.  1.
   -9000010    2    1    2    0  503  0.11627384883E+03 -0.98666161608E+03  0.29752731050E+03  0.14297731838E+04  0.98422970084E+03 0.  0.
    9000010    2    1    2  501    0 -0.11627384883E+03  0.98666161608E+03  0.14639785648E+03  0.13671238903E+04  0.92767162643E+03 0.  0.
        -13    1    4    4    0    0  0.19011283348E+03  0.76008018276E+03  0.42848529660E+03  0.89300864176E+03  0.10566000000E+00 0.  1.
          4    1    4    4  501    0 -0.30638668232E+03  0.22658143332E+03 -0.28208744012E+03  0.47411524854E+03  0.00000000000E+00 0.  1.
         13    1    3    3    0    0  0.19453321165E+02 -0.65495572117E+03 -0.31459493566E+03  0.72685308908E+03  0.10566000000E+00 0. -1.
         -4    1    3    3    0  503  0.96820527668E+02 -0.33170589491E+03  0.61212224616E+03  0.70292009471E+03  0.00000000000E+00 0. -1.
<mgrwt>
<rscale>  2 0.13885662E+04</rscale>
<asrwt>0</asrwt>
<pdfrwt beam="1">  1       21 0.24929402E+00 0.13984738E+04</pdfrwt>
<pdfrwt beam="2">  1       21 0.18099784E+00 0.13984738E+04</pdfrwt>
<totfact> 0.38935654E+00</totfact>
</mgrwt>
</event>
<event>
 8    1  0.1094795E-005  0.1197535E+04  0.7818608E-02  0.8617387E-01
         21   -1    0    0  501  502  0.00000000000E+00  0.00000000000E+00  0.98132330590E+03  0.98132330590E+03  0.00000000000E+00 0.  1.
         21   -1    0    0  502  503 -0.00000000000E+00 -0.00000000000E+00 -0.14058818114E+04  0.14058818114E+04  0.00000000000E+00 0. -1.
   -9000010    2    1    2    0  503  0.46699855816E+03  0.36292207410E+03 -0.18086723014E+03  0.11651265241E+04  0.98742431460E+03 0.  0.
    9000010    2    1    2  501    0 -0.46699855816E+03 -0.36292207410E+03 -0.24369127538E+03  0.12220785932E+04  0.10412927374E+04 0.  0.
        -13    1    4    4    0    0  0.42666086651E+02 -0.42039519688E+02 -0.54525320303E+03  0.54853330140E+03  0.10566000000E+00 0.  1.
          4    1    4    4  501    0 -0.50966464481E+03 -0.32088255442E+03  0.30156192765E+03  0.67354529180E+03  0.00000000000E+00 0.  1.
         13    1    3    3    0    0 -0.12962565670E+03  0.19631046024E+03 -0.43582243765E+03  0.49525934216E+03  0.10566000000E+00 0. -1.
         -4    1    3    3    0  503  0.59662421486E+03  0.16661161387E+03  0.25495520750E+03  0.66986718196E+03  0.00000000000E+00 0. -1.
<mgrwt>
<rscale>  2 0.11857286E+04</rscale>
<asrwt>0</asrwt>
<pdfrwt beam="1">  1       21 0.15097282E+00 0.11975352E+04</pdfrwt>
<pdfrwt beam="2">  1       21 0.21628951E+00 0.11975352E+04</pdfrwt>
<totfact> 0.12837141E+01</totfact>
</mgrwt>
</event>
<event>
 8    1  0.1094795E-005  0.1212756E+04  0.7818608E-02  0.8601392E-01
         21   -1    0    0  503  502  0.00000000000E+00  0.00000000000E+00  0.12759063291E+04  0.12759063291E+04  0.00000000000E+00 0. -1.
         21   -1    0    0  501  503 -0.00000000000E+00 -0.00000000000E+00 -0.11786522919E+04  0.11786522919E+04  0.00000000000E+00 0. -1.
    9000010    2    1    2  501    0 -0.45414054547E+03  0.45261086320E+03  0.29662878993E+03  0.12485056457E+04  0.10294063726E+04 0.  0.
   -9000010    2    1    2    0  502  0.45414054547E+03 -0.45261086320E+03 -0.19937475278E+03  0.12060529753E+04  0.10018549090E+04 0.  0.
        -13    1    3    3    0    0 -0.37546599252E+03 -0.27897918475E+03  0.41002608257E+02  0.46955864608E+03  0.10566000000E+00 0.  1.
          4    1    3    3  501    0 -0.78674552947E+02  0.73159004794E+03  0.25562618167E+03  0.77894699967E+03  0.00000000000E+00 0.  1.
         13    1    4    4    0    0  0.44092738651E+03 -0.63505095248E+03  0.17205173766E+03  0.79202808285E+03  0.10566000000E+00 0. -1.
         -4    1    4    4    0  502  0.13213158956E+02  0.18244008928E+03 -0.37142649044E+03  0.41402489242E+03  0.00000000000E+00 0. -1.
<mgrwt>
<rscale>  2 0.12068896E+04</rscale>
<asrwt>0</asrwt>
<pdfrwt beam="1">  1       21 0.19629328E+00 0.12127562E+04</pdfrwt>
<pdfrwt beam="2">  1       21 0.18133112E+00 0.12127562E+04</pdfrwt>
<totfact> 0.10080647E+01</totfact>
</mgrwt>
</event>
<event>
 8    1  0.1094795E-005  0.1782099E+04  0.7818608E-02  0.8264498E-01
         21   -1    0    0  503  502  0.00000000000E+00  0.00000000000E+00  0.17697137496E+04  0.17697137496E+04  0.00000000000E+00 0.  1.
         21   -1    0    0  501  503 -0.00000000000E+00 -0.00000000000E+00 -0.21451979888E+04  0.21451979888E+04  0.00000000000E+00 0. -1.
    9000010    2    1    2  501    0 -0.11457786157E+04 -0.92660873201E+03 -0.98936649943E+03  0.20300433382E+04  0.98530071866E+03 0.  0.
   -9000010    2    1    2    0  502  0.11457786157E+04  0.92660873201E+03  0.61388226024E+03  0.18848684001E+04  0.10022300524E+04 0.  0.
        -13    1    3    3    0    0 -0.11826525397E+04 -0.73580730445E+03 -0.46116288261E+03  0.14672254886E+04  0.10566000000E+00 0.  1.
          4    1    3    3  501    0  0.36873923917E+02 -0.19080142756E+03 -0.52820361683E+03  0.56281784962E+03  0.00000000000E+00 0.  1.
         13    1    4    4    0    0  0.10843015997E+04  0.31684340838E+03  0.20489995362E+03  0.11480782668E+04  0.10566000000E+00 0. -1.
         -4    1    4    4    0  502  0.61477016001E+02  0.60976532364E+03  0.40898230662E+03  0.73679013330E+03  0.00000000000E+00 0. -1.
<mgrwt>
<rscale>  2 0.17797281E+04</rscale>
<asrwt>0</asrwt>
<pdfrwt beam="1">  1       21 0.27226365E+00 0.17820992E+04</pdfrwt>
<pdfrwt beam="2">  1       21 0.33003046E+00 0.17820992E+04</pdfrwt>
<totfact> 0.19703623E-01</totfact>
</mgrwt>
</event>
<event>
 8    1  0.1094795E-005  0.1188774E+04  0.7818608E-02  0.8618070E-01
         21   -1    0    0  503  502  0.00000000000E+00  0.00000000000E+00  0.20292844080E+04  0.20292844080E+04  0.00000000000E+00 0.  1.
         21   -1    0    0  501  503 -0.00000000000E+00 -0.00000000000E+00 -0.92994783432E+03  0.92994783432E+03  0.00000000000E+00 0.  1.
    9000010    2    1    2  501    0  0.10305808191E+03  0.61643454269E+03 -0.20351490107E+03  0.12060684685E+04  0.10112221923E+04 0.  0.
   -9000010    2    1    2    0  502 -0.10305808191E+03 -0.61643454269E+03  0.13028514747E+04  0.17531637738E+04  0.99274807422E+03 0.  0.
        -13    1    3    3    0    0  0.42673580659E+03  0.64954977616E+03 -0.34617854817E+03  0.85079842426E+03  0.10566000000E+00 0.  1.
          4    1    3    3  501    0 -0.32367772467E+03 -0.33115233476E+02  0.14266364710E+03  0.35527004425E+03  0.00000000000E+00 0.  1.
         13    1    4    4    0    0  0.16805291261E+03 -0.34295934878E+02  0.10485276785E+04  0.10624633153E+04  0.10566000000E+00 0. -1.
         -4    1    4    4    0  502 -0.27111099452E+03 -0.58213860781E+03  0.25432379623E+03  0.69070045851E+03  0.00000000000E+00 0. -1.
<mgrwt>
<rscale>  2 0.11848355E+04</rscale>
<asrwt>0</asrwt>
<pdfrwt beam="1">  1       21 0.31219760E+00 0.11887737E+04</pdfrwt>
<pdfrwt beam="2">  1       21 0.14306890E+00 0.11887737E+04</pdfrwt>
<totfact> 0.30621413E+00</totfact>
</mgrwt>
</event>
<event>
 8    1  0.1094795E-005  0.1013965E+04  0.7818608E-02  0.8762516E-01
         21   -1    0    0  503  502  0.00000000000E+00  0.00000000000E+00  0.17698970894E+04  0.17698970894E+04  0.00000000000E+00 0. -1.
         21   -1    0    0  501  503 -0.00000000000E+00 -0.00000000000E+00 -0.57863945465E+03  0.57863945465E+03  0.00000000000E+00 0. -1.
    9000010    2    1    2  501    0  0.15328698841E+03  0.98370981996E+02  0.58272557288E+03  0.11659819179E+04  0.99336347256E+03 0.  0.
   -9000010    2    1    2    0  502 -0.15328698841E+03 -0.98370981996E+02  0.60853206187E+03  0.11825546262E+04  0.99747201598E+03 0.  0.
        -13    1    3    3    0    0  0.12886884980E+03 -0.27160888949E+03  0.71235254097E+03  0.77319125906E+03  0.10566000000E+00 0.  1.
          4    1    3    3  501    0  0.24418138612E+02  0.36997987149E+03 -0.12962696809E+03  0.39279065882E+03  0.00000000000E+00 0.  1.
         13    1    4    4    0    0  0.39612382092E+03 -0.19856449181E+03  0.36161412396E+03  0.57193244768E+03  0.10566000000E+00 0. -1.
         -4    1    4    4    0  502 -0.54941080932E+03  0.10019350981E+03  0.24691793791E+03  0.61062217850E+03  0.00000000000E+00 0. -1.
<mgrwt>
<rscale>  2 0.10129527E+04</rscale>
<asrwt>0</asrwt>
<pdfrwt beam="1">  1       21 0.27229186E+00 0.10139646E+04</pdfrwt>
<pdfrwt beam="2">  1       21 0.89021455E-01 0.10139646E+04</pdfrwt>
<totfact> 0.22498348E+01</totfact>
</mgrwt>
</event>
<event>
 8    1  0.1094795E-005  0.1222046E+04  0.7818608E-02  0.8590677E-01
         21   -1    0    0  503  502  0.00000000000E+00  0.00000000000E+00  0.14862258189E+04  0.14862258189E+04  0.00000000000E+00 0.  1.
         21   -1    0    0  501  503 -0.00000000000E+00 -0.00000000000E+00 -0.10026173198E+04  0.10026173198E+04  0.00000000000E+00 0.  1.
    9000010    2    1    2  501    0 -0.17374136142E+03 -0.69079870901E+03  0.22596983571E+03  0.12427621286E+04  0.99297856203E+03 0.  0.
   -9000010    2    1    2    0  502  0.17374136142E+03  0.69079870901E+03  0.25763866338E+03  0.12460810101E+04  0.98941967121E+03 0.  0.
        -13    1    3    3    0    0 -0.32917516179E+03 -0.50872244484E+03  0.56449822780E+03  0.82813831778E+03  0.10566000000E+00 0.  1.
          4    1    3    3  501    0  0.15543380037E+03 -0.18207626417E+03 -0.33852839209E+03  0.41462381084E+03  0.00000000000E+00 0.  1.
         13    1    4    4    0    0 -0.31040425813E+03 -0.65825372668E+02  0.10959056327E+03  0.33569910020E+03  0.10566000000E+00 0. -1.
         -4    1    4    4    0  502  0.48414561955E+03  0.75662408167E+03  0.14804810010E+03  0.91038190988E+03  0.00000000000E+00 0. -1.
<mgrwt>
<rscale>  2 0.12213224E+04</rscale>
<asrwt>0</asrwt>
<pdfrwt beam="1">  1       21 0.22865013E+00 0.12220456E+04</pdfrwt>
<pdfrwt beam="2">  1       21 0.15424882E+00 0.12220456E+04</pdfrwt>
<totfact> 0.96438935E+00</totfact>
</mgrwt>
</event>
<event>
 8    1  0.1094795E-005  0.1501256E+04  0.7818608E-02  0.8410285E-01
         21   -1    0    0  503  502  0.00000000000E+00  0.00000000000E+00  0.13252428718E+04  0.13252428718E+04  0.00000000000E+00 0. -1.
         21   -1    0    0  501  503 -0.00000000000E+00 -0.00000000000E+00 -0.18580370311E+04  0.18580370311E+04  0.00000000000E+00 0.  1.
    9000010    2    1    2  501    0 -0.10372270861E+04  0.43228911225E+03 -0.74757143009E+03  0.16770905602E+04  0.99551785480E+03 0.  0.
   -9000010    2    1    2    0  502  0.10372270861E+04 -0.43228911225E+03  0.21477727080E+03  0.15061893427E+04  0.97967502533E+03 0.  0.
        -13    1    3    3    0    0 -0.24686339506E+03  0.19720337674E+03 -0.79058528595E+03  0.85138464465E+03  0.10566000000E+00 0.  1.
          4    1    3    3  501    0 -0.79036369100E+03  0.23508573551E+03  0.43013855863E+02  0.82570591550E+03  0.00000000000E+00 0.  1.
         13    1    4    4    0    0 -0.13272274499E+03 -0.12207457513E+02 -0.15962099580E+03  0.20795004813E+03  0.10566000000E+00 0. -1.
         -4    1    4    4    0  502  0.11699498310E+04 -0.42008165474E+03  0.37439826659E+03  0.12982392945E+04  0.00000000000E+00 0. -1.
<mgrwt>
<rscale>  2 0.14986345E+04</rscale>
<asrwt>0</asrwt>
<pdfrwt beam="1">  1       21 0.20388352E+00 0.15012560E+04</pdfrwt>
<pdfrwt beam="2">  1       21 0.28585185E+00 0.15012560E+04</pdfrwt>
<totfact> 0.13683424E+00</totfact>
</mgrwt>
</event>
<event>
 8    1  0.1094795E-005  0.1100243E+04  0.7818608E-02  0.8685946E-01
         21   -1    0    0  503  502  0.00000000000E+00  0.00000000000E+00  0.21404235172E+04  0.21404235172E+04  0.00000000000E+00 0.  1.
         21   -1    0    0  501  503 -0.00000000000E+00 -0.00000000000E+00 -0.60155580927E+03  0.60155580927E+03  0.00000000000E+00 0.  1.
    9000010    2    1    2  501    0  0.25205915117E+03 -0.42435081858E+03  0.43117786949E+03  0.11807264472E+04  0.98213703478E+03 0.  0.
   -9000010    2    1    2    0  502 -0.25205915117E+03  0.42435081858E+03  0.11076898385E+04  0.15612528793E+04  0.98332412862E+03 0.  0.
        -13    1    3    3    0    0 -0.15591023813E+02 -0.51047884847E+03 -0.15238051587E+03  0.53296488396E+03  0.10566000000E+00 0.  1.
          4    1    3    3  501    0  0.26765017498E+03  0.86128029888E+02  0.58355838536E+03  0.64776156325E+03  0.00000000000E+00 0.  1.
         13    1    4    4    0    0  0.10772281893E+03  0.53248628813E+03  0.20004844290E+03  0.57893457612E+03  0.10566000000E+00 0. -1.
         -4    1    4    4    0  502 -0.35978197010E+03 -0.10813546955E+03  0.90764139556E+03  0.98231830316E+03  0.00000000000E+00 0. -1.
<mgrwt>
<rscale>  2 0.10999773E+04</rscale>
<asrwt>0</asrwt>
<pdfrwt beam="1">  1       21 0.32929592E+00 0.11002426E+04</pdfrwt>
<pdfrwt beam="2">  1       21 0.92547049E-01 0.11002426E+04</pdfrwt>
<totfact> 0.78976172E+00</totfact>
</mgrwt>
</event>
<event>
 8    1  0.1094795E-005  0.1098631E+04  0.7818608E-02  0.8695227E-01
         21   -1    0    0  501  502  0.00000000000E+00  0.00000000000E+00  0.21387570138E+04  0.21387570138E+04  0.00000000000E+00 0.  1.
         21   -1    0    0  502  503 -0.00000000000E+00 -0.00000000000E+00 -0.54606770142E+03  0.54606770142E+03  0.00000000000E+00 0.  1.
   -9000010    2    1    2    0  503  0.22491682977E+03  0.37408607659E+03  0.74825120149E+03  0.13292362288E+04  0.10081969640E+04 0.  0.
    9000010    2    1    2  501    0 -0.22491682977E+03 -0.37408607659E+03  0.84443811090E+03  0.13555884865E+04  0.96644526411E+03 0.  0.
        -13    1    4    4    0    0 -0.51599282096E+03 -0.44271071909E+03  0.31898819634E+03  0.75099590721E+03  0.10566000000E+00 0.  1.
          4    1    4    4  501    0  0.29107599118E+03  0.68624642496E+02  0.52544991456E+03  0.60459257928E+03  0.00000000000E+00 0.  1.
         13    1    3    3    0    0 -0.68451566392E+02  0.66982287977E+03  0.37943995578E+03  0.77286674039E+03  0.10566000000E+00 0. -1.
         -4    1    3    3    0  503  0.29336839616E+03 -0.29573680317E+03  0.36881124571E+03  0.55636948836E+03  0.00000000000E+00 0. -1.
<mgrwt>
<rscale>  2 0.10889573E+04</rscale>
<asrwt>0</asrwt>
<pdfrwt beam="1">  1       21 0.32903954E+00 0.10986306E+04</pdfrwt>
<pdfrwt beam="2">  1       21 0.84010417E-01 0.10986306E+04</pdfrwt>
<totfact> 0.10155043E+01</totfact>
</mgrwt>
</event>
<event>
 8    1  0.1094795E-005  0.1134396E+04  0.7818608E-02  0.8660399E-01
         21   -1    0    0  503  502  0.00000000000E+00  0.00000000000E+00  0.16474014076E+04  0.16474014076E+04  0.00000000000E+00 0.  1.
         21   -1    0    0  501  503 -0.00000000000E+00 -0.00000000000E+00 -0.77410316825E+03  0.77410316825E+03  0.00000000000E+00 0.  1.
    9000010    2    1    2  501    0 -0.44832471444E+03 -0.31545218069E+03  0.37482806783E+03  0.11947178330E+04  0.99315129373E+03 0.  0.
   -9000010    2    1    2    0  502  0.44832471444E+03  0.31545218069E+03  0.49847017152E+03  0.12267867428E+04  0.97776688050E+03 0.  0.
        -13    1    3    3    0    0 -0.67124196747E+03  0.13475392534E+01  0.43902448897E+03  0.80206614929E+03  0.10566000000E+00 0.  1.
          4    1    3    3  501    0  0.22291725303E+03 -0.31679971994E+03 -0.64196421137E+02  0.39265168374E+03  0.00000000000E+00 0.  1.
         13    1    4    4    0    0  0.46471590676E+03 -0.38816774484E+02 -0.14814513462E+03  0.48930012064E+03  0.10566000000E+00 0. -1.
         -4    1    4    4    0  502 -0.16391192328E+02  0.35426895517E+03  0.64661530613E+03  0.73748662219E+03  0.00000000000E+00 0. -1.
<mgrwt>
<rscale>  2 0.11310200E+04</rscale>
<asrwt>0</asrwt>
<pdfrwt beam="1">  1       21 0.25344637E+00 0.11343961E+04</pdfrwt>
<pdfrwt beam="2">  1       21 0.11909280E+00 0.11343961E+04</pdfrwt>
<totfact> 0.13848816E+01</totfact>
</mgrwt>
</event>
<event>
 8    1  0.1094795E-005  0.1165567E+04  0.7818608E-02  0.8647534E-01
         21   -1    0    0  503  502  0.00000000000E+00  0.00000000000E+00  0.90275811593E+03  0.90275811593E+03  0.00000000000E+00 0. -1.
         21   -1    0    0  501  503 -0.00000000000E+00 -0.00000000000E+00 -0.14153396216E+04  0.14153396216E+04  0.00000000000E+00 0. -1.
    9000010    2    1    2  501    0  0.45732195836E+03  0.23383169707E+03 -0.31177514542E+03  0.12065447313E+04  0.10462914562E+04 0.  0.
   -9000010    2    1    2    0  502 -0.45732195836E+03 -0.23383169707E+03 -0.20080636028E+03  0.11115530062E+04  0.96509391002E+03 0.  0.
        -13    1    3    3    0    0 -0.30282843978E+02 -0.14336368301E+03 -0.53208448144E+03  0.55189138677E+03  0.10566000000E+00 0.  1.
          4    1    3    3  501    0  0.48760480233E+03  0.37719538008E+03  0.22030933602E+03  0.65465334457E+03  0.00000000000E+00 0.  1.
         13    1    4    4    0    0 -0.90954793781E+02 -0.79907709679E+02 -0.56178864620E+03  0.57468644559E+03  0.10566000000E+00 0. -1.
         -4    1    4    4    0  502 -0.36636716458E+03 -0.15392398739E+03  0.36098228592E+03  0.53686656063E+03  0.00000000000E+00 0. -1.
<mgrwt>
<rscale>  2 0.11470550E+04</rscale>
<asrwt>0</asrwt>
<pdfrwt beam="1">  1       21 0.13888586E+00 0.11655670E+04</pdfrwt>
<pdfrwt beam="2">  1       21 0.21774456E+00 0.11655670E+04</pdfrwt>
<totfact> 0.16229909E+01</totfact>
</mgrwt>
</event>
<event>
 8    1  0.1094795E-005  0.1042897E+04  0.7818608E-02  0.8737308E-01
         21   -1    0    0  503  502  0.00000000000E+00  0.00000000000E+00  0.11810063871E+04  0.11810063871E+04  0.00000000000E+00 0.  1.
         21   -1    0    0  501  503 -0.00000000000E+00 -0.00000000000E+00 -0.91445560397E+03  0.91445560397E+03  0.00000000000E+00 0.  1.
    9000010    2    1    2  501    0 -0.10080990784E+02 -0.25151183618E+03  0.17505799939E+03  0.10574876477E+04  0.10120647172E+04 0.  0.
   -9000010    2    1    2    0  502  0.10080990784E+02  0.25151183618E+03  0.91492783727E+02  0.10379743433E+04  0.10028259958E+04 0.  0.
        -13    1    3    3    0    0  0.36550549906E+03 -0.43316116365E+03 -0.74030071940E+02  0.57157967620E+03  0.10566000000E+00 0.  1.
          4    1    3    3  501    0 -0.37558648984E+03  0.18164932747E+03  0.24908807133E+03  0.48590797153E+03  0.00000000000E+00 0.  1.
         13    1    4    4    0    0  0.32148209197E+03 -0.17274378130E+03 -0.22028359337E+03  0.42628162300E+03  0.10566000000E+00 0. -1.
         -4    1    4    4    0  502 -0.31140110119E+03  0.42425561748E+03  0.31177637709E+03  0.61169272032E+03  0.00000000000E+00 0. -1.
<mgrwt>
<rscale>  2 0.10406493E+04</rscale>
<asrwt>0</asrwt>
<pdfrwt beam="1">  1       21 0.18169329E+00 0.10428973E+04</pdfrwt>
<pdfrwt beam="2">  1       21 0.14068548E+00 0.10428973E+04</pdfrwt>
<totfact> 0.30701911E+01</totfact>
</mgrwt>
</event>
<event>
 8    1  0.1094795E-005  0.1813284E+04  0.7818608E-02  0.8252357E-01
         21   -1    0    0  501  502  0.00000000000E+00  0.00000000000E+00  0.44118328146E+04  0.44118328146E+04  0.00000000000E+00 0. -1.
         21   -1    0    0  502  503 -0.00000000000E+00 -0.00000000000E+00 -0.10134466302E+04  0.10134466302E+04  0.00000000000E+00 0.  1.
   -9000010    2    1    2    0  503 -0.12998401808E+04  0.77030623254E+03  0.26280357312E+03  0.18031425151E+04  0.94831483384E+03 0.  0.
    9000010    2    1    2  501    0  0.12998401808E+04 -0.77030623254E+03  0.31355826112E+04  0.36221369297E+04  0.10025175500E+04 0.  0.
        -13    1    4    4    0    0  0.82348979587E+03 -0.93292202219E+03  0.17448809069E+04  0.21431491627E+04  0.10566000000E+00 0.  1.
          4    1    4    4  501    0  0.47635038495E+03  0.16261578965E+03  0.13907017044E+04  0.14789877670E+04  0.00000000000E+00 0.  1.
         13    1    3    3    0    0 -0.99145665824E+02  0.44849378690E+03  0.31830141439E+03  0.55883122811E+03  0.10566000000E+00 0. -1.
         -4    1    3    3    0  503 -0.12006945150E+04  0.32181244563E+03 -0.55497841265E+02  0.12443112870E+04  0.00000000000E+00 0. -1.
<mgrwt>
<rscale>  2 0.18058897E+04</rscale>
<asrwt>0</asrwt>
<pdfrwt beam="1">  1       21 0.67874350E+00 0.18132837E+04</pdfrwt>
<pdfrwt beam="2">  1       21 0.15591487E+00 0.18132837E+04</pdfrwt>
<totfact> 0.43587702E-03</totfact>
</mgrwt>
</event>
<event>
 8    1  0.1094795E-005  0.1226546E+04  0.7818608E-02  0.8587749E-01
         21   -1    0    0  501  502  0.00000000000E+00  0.00000000000E+00  0.12024199953E+04  0.12024199953E+04  0.00000000000E+00 0. -1.
         21   -1    0    0  502  503 -0.00000000000E+00 -0.00000000000E+00 -0.13646653209E+04  0.13646653209E+04  0.00000000000E+00 0. -1.
   -9000010    2    1    2    0  503 -0.70654354489E+03 -0.58173938965E+02  0.29737472547E+03  0.12572506492E+04  0.99481630446E+03 0.  0.
    9000010    2    1    2  501    0  0.70654354489E+03  0.58173938965E+02 -0.45962005102E+03  0.13098346670E+04  0.10009137203E+04 0.  0.
        -13    1    4    4    0    0  0.59867796332E+03  0.11762047346E+02  0.20653299633E+03  0.63341103500E+03  0.10566000000E+00 0.  1.
          4    1    4    4  501    0  0.10786558157E+03  0.46411891620E+02 -0.66615304735E+03  0.67642363196E+03  0.00000000000E+00 0.  1.
         13    1    3    3    0    0  0.11108065301E+03  0.23363145633E+03  0.29063281994E+03  0.38908869947E+03  0.10566000000E+00 0. -1.
         -4    1    3    3    0  503 -0.81762419790E+03 -0.29180539530E+03  0.67419055310E+01  0.86816194976E+03  0.00000000000E+00 0. -1.
<mgrwt>
<rscale>  2 0.12253019E+04</rscale>
<asrwt>0</asrwt>
<pdfrwt beam="1">  1       21 0.18498769E+00 0.12265465E+04</pdfrwt>
<pdfrwt beam="2">  1       21 0.20994851E+00 0.12265465E+04</pdfrwt>
<totfact> 0.73506541E+00</totfact>
</mgrwt>
</event>
<event>
 8    1  0.1094795E-005  0.1178269E+04  0.7818608E-02  0.8626128E-01
         21   -1    0    0  503  502  0.00000000000E+00  0.00000000000E+00  0.92198521072E+03  0.92198521072E+03  0.00000000000E+00 0.  1.
         21   -1    0    0  501  503 -0.00000000000E+00 -0.00000000000E+00 -0.14906074109E+04  0.14906074109E+04  0.00000000000E+00 0.  1.
    9000010    2    1    2  501    0  0.34561340746E+03 -0.51706981328E+03 -0.35363944396E+03  0.12301942469E+04  0.10007533210E+04 0.  0.
   -9000010    2    1    2    0  502 -0.34561340746E+03  0.51706981328E+03 -0.21498275622E+03  0.11823983748E+04  0.98236373709E+03 0.  0.
        -13    1    3    3    0    0 -0.27578335049E+03 -0.18290108612E+03  0.14999818106E+03  0.36333005545E+03  0.10566000000E+00 0.  1.
          4    1    3    3  501    0  0.62139675795E+03 -0.33416872716E+03 -0.50363762502E+03  0.86686419140E+03  0.00000000000E+00 0.  1.
         13    1    4    4    0    0 -0.29529467543E+03  0.62067255925E+03 -0.51640962283E+03  0.85971639559E+03  0.10566000000E+00 0. -1.
         -4    1    4    4    0  502 -0.50318732032E+02 -0.10360274597E+03  0.30142686661E+03  0.32268197917E+03  0.00000000000E+00 0. -1.
<mgrwt>
<rscale>  2 0.11743546E+04</rscale>
<asrwt>0</asrwt>
<pdfrwt beam="1">  1       21 0.14184388E+00 0.11782687E+04</pdfrwt>
<pdfrwt beam="2">  1       21 0.22932422E+00 0.11782687E+04</pdfrwt>
<totfact> 0.12439545E+01</totfact>
</mgrwt>
</event>
<event>
 8    1  0.1094795E-005  0.1357125E+04  0.7818608E-02  0.8506805E-01
         21   -1    0    0  501  502  0.00000000000E+00  0.00000000000E+00  0.31343538744E+04  0.31343538744E+04  0.00000000000E+00 0.  1.
         21   -1    0    0  502  503 -0.00000000000E+00 -0.00000000000E+00 -0.65031653542E+03  0.65031653542E+03  0.00000000000E+00 0.  1.
   -9000010    2    1    2    0  503  0.85031796635E+03  0.73019845284E+02  0.51970889784E+03  0.13971244988E+04  0.97646658152E+03 0.  0.
    9000010    2    1    2  501    0 -0.85031796635E+03 -0.73019845284E+02  0.19643284411E+04  0.23875459110E+04  0.10551856287E+04 0.  0.
        -13    1    4    4    0    0  0.15865930952E+03 -0.32944139887E+02  0.92266391038E+03  0.93678535190E+03  0.10566000000E+00 0.  1.
          4    1    4    4  501    0 -0.10089772759E+04 -0.40075705397E+02  0.10416645307E+04  0.14507605591E+04  0.00000000000E+00 0.  1.
         13    1    3    3    0    0 -0.15660975244E+03 -0.45093113705E+02  0.32668799499E+03  0.36508226566E+03  0.10566000000E+00 0. -1.
         -4    1    3    3    0  503  0.10069277188E+04  0.11811295899E+03  0.19302090285E+03  0.10320422331E+04  0.00000000000E+00 0. -1.
<mgrwt>
<rscale>  2 0.13418028E+04</rscale>
<asrwt>0</asrwt>
<pdfrwt beam="1">  1       21 0.48220828E+00 0.13571254E+04</pdfrwt>
<pdfrwt beam="2">  1       21 0.10004870E+00 0.13571254E+04</pdfrwt>
<totfact> 0.52818410E-01</totfact>
</mgrwt>
</event>
<event>
 8    1  0.1094795E-005  0.1025859E+04  0.7818608E-02  0.8754084E-01
         21   -1    0    0  501  502  0.00000000000E+00  0.00000000000E+00  0.31143244745E+03  0.31143244745E+03  0.00000000000E+00 0.  1.
         21   -1    0    0  502  503 -0.00000000000E+00 -0.00000000000E+00 -0.33307045378E+04  0.33307045378E+04  0.00000000000E+00 0.  1.
   -9000010    2    1    2    0  503  0.51832813388E+02  0.15120116098E+03 -0.15010567079E+04  0.18181194174E+04  0.10133304220E+04 0.  0.
    9000010    2    1    2  501    0 -0.51832813388E+02 -0.15120116098E+03 -0.15182153825E+04  0.18240175679E+04  0.99825533237E+03 0.  0.
        -13    1    4    4    0    0 -0.24300453019E+03  0.31742425940E+03 -0.10901907322E+04  0.11611740636E+04  0.10566000000E+00 0.  1.
          4    1    4    4  501    0  0.19117171680E+03 -0.46862542037E+03 -0.42802465027E+03  0.66284350428E+03  0.00000000000E+00 0.  1.
         13    1    3    3    0    0 -0.15725519775E+03 -0.33934596578E+03 -0.10666552425E+04  0.11303266339E+04  0.10566000000E+00 0. -1.
         -4    1    3    3    0  503  0.20908801114E+03  0.49054712676E+03 -0.43440146538E+03  0.68779278355E+03  0.00000000000E+00 0. -1.
<mgrwt>
<rscale>  2 0.10221166E+04</rscale>
<asrwt>0</asrwt>
<pdfrwt beam="1">  1       21 0.47912687E-01 0.10258591E+04</pdfrwt>
<pdfrwt beam="2">  1       21 0.51241605E+00 0.10258591E+04</pdfrwt>
<totfact> 0.20110476E+00</totfact>
</mgrwt>
</event>
<event>
 8    1  0.1094795E-005  0.1109056E+04  0.7818608E-02  0.8680929E-01
         21   -1    0    0  503  502  0.00000000000E+00  0.00000000000E+00  0.15758990964E+04  0.15758990964E+04  0.00000000000E+00 0.  1.
         21   -1    0    0  501  503 -0.00000000000E+00 -0.00000000000E+00 -0.77206387859E+03  0.77206387859E+03  0.00000000000E+00 0.  1.
    9000010    2    1    2  501    0  0.12196456176E+03 -0.45862072581E+03  0.38920074059E+03  0.11753649726E+04  0.10023957691E+04 0.  0.
   -9000010    2    1    2    0  502 -0.12196456176E+03  0.45862072581E+03  0.41463447726E+03  0.11725980024E+04  0.98886601776E+03 0.  0.
        -13    1    3    3    0    0 -0.27084798877E+03  0.16821745079E+03  0.28626391142E+03  0.42848895192E+03  0.10566000000E+00 0.  1.
          4    1    3    3  501    0  0.39281255053E+03 -0.62683817659E+03  0.10293682917E+03  0.74687602070E+03  0.00000000000E+00 0.  1.
         13    1    4    4    0    0 -0.33589776213E+03  0.52640237975E+03 -0.79894984262E+02  0.62953156528E+03  0.10566000000E+00 0. -1.
         -4    1    4    4    0  502  0.21393320037E+03 -0.67781653945E+02  0.49452946153E+03  0.54306643714E+03  0.00000000000E+00 0. -1.
<mgrwt>
<rscale>  2 0.11059902E+04</rscale>
<asrwt>0</asrwt>
<pdfrwt beam="1">  1       21 0.24244601E+00 0.11090562E+04</pdfrwt>
<pdfrwt beam="2">  1       21 0.11877906E+00 0.11090562E+04</pdfrwt>
<totfact> 0.16873350E+01</totfact>
</mgrwt>
</event>
<event>
 8    1  0.1094795E-005  0.1168259E+04  0.7818608E-02  0.8653945E-01
         21   -1    0    0  503  502  0.00000000000E+00  0.00000000000E+00  0.14981655634E+04  0.14981655634E+04  0.00000000000E+00 0.  1.
         21   -1    0    0  501  503 -0.00000000000E+00 -0.00000000000E+00 -0.90769459252E+03  0.90769459252E+03  0.00000000000E+00 0.  1.
    9000010    2    1    2  501    0  0.97410519014E+02  0.30140129491E+03 -0.80334028499E+02  0.10587122318E+04  0.10070186114E+04 0.  0.
   -9000010    2    1    2    0  502 -0.97410519014E+02 -0.30140129491E+03  0.67080499937E+03  0.13471479242E+04  0.11244983915E+04 0.  0.
        -13    1    3    3    0    0 -0.41313022519E+03  0.30113686629E+03  0.92850954031E+02  0.51959725368E+03  0.10566000000E+00 0.  1.
          4    1    3    3  501    0  0.51054074420E+03  0.26442862129E+00 -0.17318498253E+03  0.53911497808E+03  0.00000000000E+00 0.  1.
         13    1    4    4    0    0  0.11014413878E+03 -0.67433648762E+03  0.61016826664E+03  0.91606045358E+03  0.10566000000E+00 0. -1.
         -4    1    4    4    0  502 -0.20755465779E+03  0.37293519270E+03  0.60636732732E+02  0.43108747057E+03  0.00000000000E+00 0. -1.
<mgrwt>
<rscale>  2 0.11390303E+04</rscale>
<asrwt>0</asrwt>
<pdfrwt beam="1">  1       21 0.23048701E+00 0.11682586E+04</pdfrwt>
<pdfrwt beam="2">  1       21 0.13964532E+00 0.11682586E+04</pdfrwt>
<totfact> 0.12804426E+01</totfact>
</mgrwt>
</event>
<event>
 8    1  0.1094795E-005  0.1210499E+04  0.7818608E-02  0.8601320E-01
         21   -1    0    0  501  502  0.00000000000E+00  0.00000000000E+00  0.17994431958E+04  0.17994431958E+04  0.00000000000E+00 0.  1.
         21   -1    0    0  502  503 -0.00000000000E+00 -0.00000000000E+00 -0.86184221679E+03  0.86184221679E+03  0.00000000000E+00 0.  1.
   -9000010    2    1    2    0  503 -0.36604790670E+03  0.56889901515E+03  0.80819214062E+03  0.14438889713E+04  0.98691624056E+03 0.  0.
    9000010    2    1    2  501    0  0.36604790670E+03 -0.56889901515E+03  0.12940883839E+03  0.12173964413E+04  0.10038278181E+04 0.  0.
        -13    1    4    4    0    0  0.69318359726E+03 -0.20883623705E+03  0.83342469641E+02  0.72874004407E+03  0.10566000000E+00 0.  1.
          4    1    4    4  501    0 -0.32713569056E+03 -0.36006277810E+03  0.46066368747E+02  0.48865639722E+03  0.00000000000E+00 0.  1.
         13    1    3    3    0    0 -0.54964263260E+03 -0.29362289496E+02  0.51118955601E+03  0.75118835252E+03  0.10566000000E+00 0. -1.
         -4    1    3    3    0  503  0.18359472590E+03  0.59826130464E+03  0.29700258462E+03  0.69270061880E+03  0.00000000000E+00 0. -1.
<mgrwt>
<rscale>  2 0.12069869E+04</rscale>
<asrwt>0</asrwt>
<pdfrwt beam="1">  1       21 0.27683741E+00 0.12104988E+04</pdfrwt>
<pdfrwt beam="2">  1       21 0.13259111E+00 0.12104988E+04</pdfrwt>
<totfact> 0.68075953E+00</totfact>
</mgrwt>
</event>
<event>
 8    1  0.1094795E-005  0.1101043E+04  0.7818608E-02  0.8685363E-01
         21   -1    0    0  503  502  0.00000000000E+00  0.00000000000E+00  0.17097584727E+04  0.17097584727E+04  0.00000000000E+00 0.  1.
         21   -1    0    0  501  503 -0.00000000000E+00 -0.00000000000E+00 -0.70861422015E+03  0.70861422015E+03  0.00000000000E+00 0.  1.
    9000010    2    1    2  501    0  0.22097905850E+03 -0.46109819774E+03  0.46820140170E+03  0.11964561500E+04  0.97511613357E+03 0.  0.
   -9000010    2    1    2    0  502 -0.22097905850E+03  0.46109819774E+03  0.53294285085E+03  0.12219165429E+04  0.97345193167E+03 0.  0.
        -13    1    3    3    0    0  0.17415659182E+03  0.40215541759E+02  0.63997422341E+03  0.66446582009E+03  0.10566000000E+00 0.  1.
          4    1    3    3  501    0  0.46822466679E+02 -0.50131373950E+03 -0.17177282170E+03  0.53199032987E+03  0.00000000000E+00 0.  1.
         13    1    4    4    0    0  0.29323756289E+03 -0.12587321161E+03  0.16225823689E+03  0.35799452551E+03  0.10566000000E+00 0. -1.
         -4    1    4    4    0  502 -0.51421662139E+03  0.58697140935E+03  0.37068461396E+03  0.86392201739E+03  0.00000000000E+00 0. -1.
<mgrwt>
<rscale>  2 0.11006740E+04</rscale>
<asrwt>0</asrwt>
<pdfrwt beam="1">  1       21 0.26303976E+00 0.11010426E+04</pdfrwt>
<pdfrwt beam="2">  1       21 0.10901757E+00 0.11010426E+04</pdfrwt>
<totfact> 0.15157200E+01</totfact>
</mgrwt>
</event>
<event>
 8    1  0.1094795E-005  0.1035590E+04  0.7818608E-02  0.8759765E-01
         21   -1    0    0  503  502  0.00000000000E+00  0.00000000000E+00  0.92465580985E+03  0.92465580985E+03  0.00000000000E+00 0.  1.
         21   -1    0    0  501  503 -0.00000000000E+00 -0.00000000000E+00 -0.11172691434E+04  0.11172691434E+04  0.00000000000E+00 0.  1.
    9000010    2    1    2  501    0 -0.15638506671E+03  0.23949774077E+03 -0.28925648644E+03  0.10018357619E+04  0.91552723717E+03 0.  0.
   -9000010    2    1    2    0  502  0.15638506671E+03 -0.23949774077E+03  0.96643152883E+02  0.10400891913E+04  0.99530405907E+03 0.  0.
        -13    1    3    3    0    0 -0.25442961833E+03  0.55588061859E+03 -0.97384035781E+02  0.61904874961E+03  0.10566000000E+00 0.  1.
          4    1    3    3  501    0  0.98044551618E+02 -0.31638287781E+03 -0.19187245066E+03  0.38278701231E+03  0.00000000000E+00 0.  1.
         13    1    4    4    0    0  0.15331168636E+02  0.34763403502E+03 -0.16120968691E+03  0.38350103175E+03  0.10566000000E+00 0. -1.
         -4    1    4    4    0  502  0.14105389807E+03 -0.58713177579E+03  0.25785283979E+03  0.65658815958E+03  0.00000000000E+00 0. -1.
<mgrwt>
<rscale>  2 0.10159318E+04</rscale>
<asrwt>0</asrwt>
<pdfrwt beam="1">  1       21 0.14225474E+00 0.10355895E+04</pdfrwt>
<pdfrwt beam="2">  1       21 0.17188756E+00 0.10355895E+04</pdfrwt>
<totfact> 0.35822101E+01</totfact>
</mgrwt>
</event>
<event>
 8    1  0.1094795E-005  0.1520699E+04  0.7818608E-02  0.8400177E-01
         21   -1    0    0  503  502  0.00000000000E+00  0.00000000000E+00  0.21214359457E+04  0.21214359457E+04  0.00000000000E+00 0. -1.
         21   -1    0    0  501  503 -0.00000000000E+00 -0.00000000000E+00 -0.10896256315E+04  0.10896256315E+04  0.00000000000E+00 0. -1.
    9000010    2    1    2  501    0  0.91993594171E+03  0.67976245158E+03  0.68186245443E+03  0.16506162014E+04  0.97531446729E+03 0.  0.
   -9000010    2    1    2    0  502 -0.91993594171E+03 -0.67976245158E+03  0.34994785980E+03  0.15604453758E+04  0.10020814032E+04 0.  0.
        -13    1    3    3    0    0 -0.75678257466E+02  0.46344413182E+03  0.32501120319E+03  0.57108664433E+03  0.10566000000E+00 0.  1.
          4    1    3    3  501    0  0.99561419917E+03  0.21631831977E+03  0.35685125125E+03  0.10795295571E+04  0.00000000000E+00 0.  1.
         13    1    4    4    0    0 -0.61817060689E+02  0.24000111644E+03  0.14149697559E+03  0.28538270822E+03  0.10566000000E+00 0. -1.
         -4    1    4    4    0  502 -0.85811888102E+03 -0.91976356803E+03  0.20845088421E+03  0.12750626675E+04  0.00000000000E+00 0. -1.
<mgrwt>
<rscale>  2 0.15163044E+04</rscale>
<asrwt>0</asrwt>
<pdfrwt beam="1">  1       21 0.32637476E+00 0.15206993E+04</pdfrwt>
<pdfrwt beam="2">  1       21 0.16763471E+00 0.15206993E+04</pdfrwt>
<totfact> 0.13871956E+00</totfact>
</mgrwt>
</event>
<event>
 8    1  0.1094795E-005  0.1149398E+04  0.7818608E-02  0.8653682E-01
         21   -1    0    0  503  502  0.00000000000E+00  0.00000000000E+00  0.15659413471E+04  0.15659413471E+04  0.00000000000E+00 0. -1.
         21   -1    0    0  501  503 -0.00000000000E+00 -0.00000000000E+00 -0.81486829305E+03  0.81486829305E+03  0.00000000000E+00 0. -1.
    9000010    2    1    2  501    0  0.51959254665E+03 -0.19068831623E+03  0.39174744724E+03  0.12143231818E+04  0.10073610470E+04 0.  0.
   -9000010    2    1    2    0  502 -0.51959254665E+03  0.19068831623E+03  0.35932560677E+03  0.11664864583E+04  0.96189257052E+03 0.  0.
        -13    1    3    3    0    0 -0.18851286694E+03 -0.29201065282E+02 -0.20081321442E+03  0.27697610270E+03  0.10566000000E+00 0.  1.
          4    1    3    3  501    0  0.70810541359E+03 -0.16148725095E+03  0.59256066166E+03  0.93734707911E+03  0.00000000000E+00 0.  1.
         13    1    4    4    0    0 -0.15150654275E+02 -0.27265657912E+03  0.39546673889E+03  0.48058829074E+03  0.10566000000E+00 0. -1.
         -4    1    4    4    0  502 -0.50444189237E+03  0.46334489535E+03 -0.36141132116E+02  0.68589816756E+03  0.00000000000E+00 0. -1.
<mgrwt>
<rscale>  2 0.11393584E+04</rscale>
<asrwt>0</asrwt>
<pdfrwt beam="1">  1       21 0.24091405E+00 0.11493975E+04</pdfrwt>
<pdfrwt beam="2">  1       21 0.12536435E+00 0.11493975E+04</pdfrwt>
<totfact> 0.14744968E+01</totfact>
</mgrwt>
</event>
<event>
 8    1  0.1094795E-005  0.1449243E+04  0.7818608E-02  0.8441299E-01
         21   -1    0    0  503  502  0.00000000000E+00  0.00000000000E+00  0.92108994994E+03  0.92108994994E+03  0.00000000000E+00 0.  1.
         21   -1    0    0  501  503 -0.00000000000E+00 -0.00000000000E+00 -0.26938010923E+04  0.26938010923E+04  0.00000000000E+00 0. -1.
    9000010    2    1    2  501    0 -0.13598605786E+03 -0.10190856483E+04 -0.16085756346E+04  0.21563828442E+04  0.10027181218E+04 0.  0.
   -9000010    2    1    2    0  502  0.13598605786E+03  0.10190856483E+04 -0.16413550778E+03  0.14585081981E+04  0.10214097770E+04 0.  0.
        -13    1    3    3    0    0 -0.18694473127E+03  0.72138283926E+02  0.13406795505E+02  0.20082832939E+03  0.10566000000E+00 0.  1.
          4    1    3    3  501    0  0.50958673409E+02 -0.10912239322E+04 -0.16219824301E+04  0.19555545148E+04  0.00000000000E+00 0.  1.
         13    1    4    4    0    0  0.17980912729E+03  0.11896374697E+04 -0.29539102355E+03  0.12388803410E+04  0.10566000000E+00 0. -1.
         -4    1    4    4    0  502 -0.43823069433E+02 -0.17055182134E+03  0.13125551576E+03  0.21962785706E+03  0.00000000000E+00 0. -1.
<mgrwt>
<rscale>  2 0.14459539E+04</rscale>
<asrwt>0</asrwt>
<pdfrwt beam="1">  1       21 0.14170615E+00 0.14492431E+04</pdfrwt>
<pdfrwt beam="2">  1       21 0.41443093E+00 0.14492431E+04</pdfrwt>
<totfact> 0.57695087E-01</totfact>
</mgrwt>
</event>
<event>
 8    1  0.1094795E-005  0.1433232E+04  0.7818608E-02  0.8451300E-01
         21   -1    0    0  503  502  0.00000000000E+00  0.00000000000E+00  0.14496327485E+04  0.14496327485E+04  0.00000000000E+00 0.  1.
         21   -1    0    0  501  503 -0.00000000000E+00 -0.00000000000E+00 -0.15220276127E+04  0.15220276127E+04  0.00000000000E+00 0.  1.
    9000010    2    1    2  501    0  0.33692287636E+03  0.96906813956E+03 -0.45339810934E+03  0.15032374671E+04  0.10007711792E+04 0.  0.
   -9000010    2    1    2    0  502 -0.33692287636E+03 -0.96906813956E+03  0.38100324512E+03  0.14684228941E+04  0.97902616890E+03 0.  0.
        -13    1    3    3    0    0  0.33258391704E+03  0.52543242648E+03  0.25114364744E+03  0.67064479383E+03  0.10566000000E+00 0.  1.
          4    1    3    3  501    0  0.43389593193E+01  0.44363571308E+03 -0.70454175677E+03  0.83259267323E+03  0.00000000000E+00 0.  1.
         13    1    4    4    0    0  0.30091989021E+03 -0.44057328561E+03 -0.47805228340E+02  0.53567056232E+03  0.10566000000E+00 0. -1.
         -4    1    4    4    0  502 -0.63784276657E+03 -0.52849485395E+03  0.42880847346E+03  0.93275233178E+03  0.00000000000E+00 0. -1.
<mgrwt>
<rscale>  2 0.14294421E+04</rscale>
<asrwt>0</asrwt>
<pdfrwt beam="1">  1       21 0.22302042E+00 0.14332317E+04</pdfrwt>
<pdfrwt beam="2">  1       21 0.23415810E+00 0.14332317E+04</pdfrwt>
<totfact> 0.23444922E+00</totfact>
</mgrwt>
</event>
<event>
 8    1  0.1094795E-005  0.1285962E+04  0.7818608E-02  0.8549157E-01
         21   -1    0    0  501  502  0.00000000000E+00  0.00000000000E+00  0.74628487693E+03  0.74628487693E+03  0.00000000000E+00 0.  1.
         21   -1    0    0  502  503 -0.00000000000E+00 -0.00000000000E+00 -0.22023556893E+04  0.22023556893E+04  0.00000000000E+00 0. -1.
   -9000010    2    1    2    0  503 -0.13291012912E+03  0.84190918762E+03 -0.54262520061E+03  0.13712749064E+04  0.92707959639E+03 0.  0.
    9000010    2    1    2  501    0  0.13291012912E+03 -0.84190918762E+03 -0.91344561176E+03  0.15773656598E+04  0.96292437732E+03 0.  0.
        -13    1    4    4    0    0  0.39703679875E+03 -0.52585113746E+00 -0.20904371744E+03  0.44870678961E+03  0.10566000000E+00 0.  1.
          4    1    4    4  501    0 -0.26412666963E+03 -0.84138333648E+03 -0.70440189432E+03  0.11286588702E+04  0.00000000000E+00 0.  1.
         13    1    3    3    0    0 -0.19583949804E+03  0.93197495690E+03 -0.15062408071E+03  0.96416702605E+03  0.10566000000E+00 0. -1.
         -4    1    3    3    0  503  0.62929368916E+02 -0.90065769274E+02 -0.39200111990E+03  0.40710788038E+03  0.00000000000E+00 0. -1.
<mgrwt>
<rscale>  2 0.12792561E+04</rscale>
<asrwt>0</asrwt>
<pdfrwt beam="1">  1       21 0.11481306E+00 0.12859625E+04</pdfrwt>
<pdfrwt beam="2">  1       21 0.33882395E+00 0.12859625E+04</pdfrwt>
<totfact> 0.36802246E+00</totfact>
</mgrwt>
</event>
<event>
 8    1  0.1094795E-005  0.1061413E+04  0.7818608E-02  0.8719725E-01
         21   -1    0    0  503  502  0.00000000000E+00  0.00000000000E+00  0.13499464234E+04  0.13499464234E+04  0.00000000000E+00 0. -1.
         21   -1    0    0  501  503 -0.00000000000E+00 -0.00000000000E+00 -0.11654995508E+04  0.11654995508E+04  0.00000000000E+00 0. -1.
    9000010    2    1    2  501    0  0.10467938525E+03  0.34021300989E+03 -0.58096225338E+03  0.12068404677E+04  0.99611450586E+03 0.  0.
   -9000010    2    1    2    0  502 -0.10467938525E+03 -0.34021300989E+03  0.76540912605E+03  0.13086055065E+04  0.99994728642E+03 0.  0.
        -13    1    3    3    0    0  0.21111660177E+03  0.53859022483E+03  0.56452833459E+01  0.57851666373E+03  0.10566000000E+00 0.  1.
          4    1    3    3  501    0 -0.10643721652E+03 -0.19837721494E+03 -0.58660753673E+03  0.62832380395E+03  0.00000000000E+00 0.  1.
         13    1    4    4    0    0 -0.19649338660E+03 -0.24887070608E+03  0.99538424288E+03  0.10446703219E+04  0.10566000000E+00 0. -1.
         -4    1    4    4    0  502  0.91814001358E+02 -0.91342303810E+02 -0.22997511683E+03  0.26393518460E+03  0.00000000000E+00 0. -1.
<mgrwt>
<rscale>  2 0.10605092E+04</rscale>
<asrwt>0</asrwt>
<pdfrwt beam="1">  1       21 0.20768407E+00 0.10614129E+04</pdfrwt>
<pdfrwt beam="2">  1       21 0.17930762E+00 0.10614129E+04</pdfrwt>
<totfact> 0.88255965E+00</totfact>
</mgrwt>
</event>
<event>
 8    1  0.1094795E-005  0.1049661E+04  0.7818608E-02  0.8743358E-01
         21   -1    0    0  501  502  0.00000000000E+00  0.00000000000E+00  0.57062061117E+03  0.57062061117E+03  0.00000000000E+00 0. -1.
         21   -1    0    0  502  503 -0.00000000000E+00 -0.00000000000E+00 -0.19435369210E+04  0.19435369210E+04  0.00000000000E+00 0. -1.
   -9000010    2    1    2    0  503 -0.30895466295E+03  0.13948999520E+02 -0.38814702462E+03  0.11191271065E+04  0.10030652070E+04 0.  0.
    9000010    2    1    2  501    0  0.30895466295E+03 -0.13948999520E+02 -0.98476928521E+03  0.13950304257E+04  0.93845180225E+03 0.  0.
        -13    1    4    4    0    0  0.12228360075E+03 -0.31660665282E+03 -0.98245481770E+03  0.10394279829E+04  0.10566000000E+00 0.  1.
          4    1    4    4  501    0  0.18667106220E+03  0.30265765330E+03 -0.23144675127E+01  0.35560244280E+03  0.00000000000E+00 0.  1.
         13    1    3    3    0    0 -0.28767685849E+03 -0.38561497959E+03  0.96463811923E+02  0.49067521393E+03  0.10566000000E+00 0. -1.
         -4    1    3    3    0  503 -0.21277804464E+02  0.39956397911E+03 -0.48461083654E+03  0.62845189256E+03  0.00000000000E+00 0. -1.
<mgrwt>
<rscale>  2 0.10339196E+04</rscale>
<asrwt>0</asrwt>
<pdfrwt beam="1">  1       21 0.87787787E-01 0.10496606E+04</pdfrwt>
<pdfrwt beam="2">  1       21 0.29900568E+00 0.10496606E+04</pdfrwt>
<totfact> 0.14942890E+01</totfact>
</mgrwt>
</event>
<event>
 8    1  0.1094795E-005  0.1175375E+04  0.7818608E-02  0.8628668E-01
         21   -1    0    0  503  502  0.00000000000E+00  0.00000000000E+00  0.53762658299E+03  0.53762658299E+03  0.00000000000E+00 0.  1.
         21   -1    0    0  501  503 -0.00000000000E+00 -0.00000000000E+00 -0.25933408633E+04  0.25933408633E+04  0.00000000000E+00 0.  1.
    9000010    2    1    2  501    0  0.53820387896E+03  0.29612705207E+03 -0.79520238030E+03  0.14191027006E+04  0.10020733520E+04 0.  0.
   -9000010    2    1    2    0  502 -0.53820387896E+03 -0.29612705207E+03 -0.12605119001E+04  0.17118647458E+04  0.98195519824E+03 0.  0.
        -13    1    3    3    0    0  0.34367710546E+03 -0.31614639665E+03 -0.57332372287E+03  0.73943397224E+03  0.10566000000E+00 0.  1.
          4    1    3    3  501    0  0.19452677350E+03  0.61227344873E+03 -0.22187865743E+03  0.67966872831E+03  0.00000000000E+00 0.  1.
         13    1    4    4    0    0 -0.49374110747E+03  0.19206229359E+03 -0.24388682307E+03  0.58322294147E+03  0.10566000000E+00 0. -1.
         -4    1    4    4    0  502 -0.44462771485E+02 -0.48818934566E+03 -0.10166250770E+04  0.11286418043E+04  0.00000000000E+00 0. -1.
<mgrwt>
<rscale>  2 0.11710751E+04</rscale>
<asrwt>0</asrwt>
<pdfrwt beam="1">  1       21 0.82711783E-01 0.11753747E+04</pdfrwt>
<pdfrwt beam="2">  1       21 0.39897551E+00 0.11753747E+04</pdfrwt>
<totfact> 0.33618360E+00</totfact>
</mgrwt>
</event>
<event>
 8    1  0.1094795E-005  0.1062186E+04  0.7818608E-02  0.8718346E-01
         21   -1    0    0  501  502  0.00000000000E+00  0.00000000000E+00  0.72174084551E+03  0.72174084551E+03  0.00000000000E+00 0. -1.
         21   -1    0    0  502  503 -0.00000000000E+00 -0.00000000000E+00 -0.16138584288E+04  0.16138584288E+04  0.00000000000E+00 0. -1.
   -9000010    2    1    2    0  503 -0.43642570344E+02  0.35685271292E+03 -0.23792945576E+03  0.10881212342E+04  0.99907400219E+03 0.  0.
    9000010    2    1    2  501    0  0.43642570344E+02 -0.35685271292E+03 -0.65418812752E+03  0.12474780400E+04  0.99949528341E+03 0.  0.
        -13    1    4    4    0    0  0.25511393175E+03  0.27158740663E+03 -0.10669480093E+03  0.38759080139E+03  0.10566000000E+00 0.  1.
          4    1    4    4  501    0 -0.21147136141E+03 -0.62844011955E+03 -0.54749332659E+03  0.85988723866E+03  0.00000000000E+00 0.  1.
         13    1    3    3    0    0 -0.82864428025E+02 -0.25323639353E+03 -0.37651866273E+03  0.46126077114E+03  0.10566000000E+00 0. -1.
         -4    1    3    3    0  503  0.39221857682E+02  0.61008910645E+03  0.13858920697E+03  0.62686046311E+03  0.00000000000E+00 0. -1.
<mgrwt>
<rscale>  2 0.10620870E+04</rscale>
<asrwt>0</asrwt>
<pdfrwt beam="1">  1       21 0.11103705E+00 0.10621861E+04</pdfrwt>
<pdfrwt beam="2">  1       21 0.24828591E+00 0.10621861E+04</pdfrwt>
<totfact> 0.18601335E+01</totfact>
</mgrwt>
</event>
<event>
 8    1  0.1094795E-005  0.1083010E+04  0.7818608E-02  0.8700491E-01
         21   -1    0    0  503  502  0.00000000000E+00  0.00000000000E+00  0.89569216710E+03  0.89569216710E+03  0.00000000000E+00 0.  1.
         21   -1    0    0  501  503 -0.00000000000E+00 -0.00000000000E+00 -0.14053513456E+04  0.14053513456E+04  0.00000000000E+00 0.  1.
    9000010    2    1    2  501    0  0.24211045360E+03  0.35421787752E+03 -0.55723649433E+03  0.12179583935E+04  0.99439547523E+03 0.  0.
   -9000010    2    1    2    0  502 -0.24211045360E+03 -0.35421787752E+03  0.47577315876E+02  0.10830851192E+04  0.99333881324E+03 0.  0.
        -13    1    3    3    0    0  0.47089193268E+03 -0.46326176329E+02  0.26570415237E+02  0.47391067197E+03  0.10566000000E+00 0.  1.
          4    1    3    3  501    0 -0.22878147908E+03  0.40054405385E+03 -0.58380690957E+03  0.74404772152E+03  0.00000000000E+00 0.  1.
         13    1    4    4    0    0 -0.16091542167E+02  0.27383535515E+03 -0.23214849829E+03  0.35935730949E+03  0.10566000000E+00 0. -1.
         -4    1    4    4    0  502 -0.22601891143E+03 -0.62805323267E+03  0.27972581417E+03  0.72372780968E+03  0.00000000000E+00 0. -1.
<mgrwt>
<rscale>  2 0.10827671E+04</rscale>
<asrwt>0</asrwt>
<pdfrwt beam="1">  1       21 0.13779879E+00 0.10830098E+04</pdfrwt>
<pdfrwt beam="2">  1       21 0.21620790E+00 0.10830098E+04</pdfrwt>
<totfact> 0.17366054E+01</totfact>
</mgrwt>
</event>
<event>
 8    1  0.1094795E-005  0.1024509E+04  0.7818608E-02  0.8752523E-01
         21   -1    0    0  501  502  0.00000000000E+00  0.00000000000E+00  0.71567977612E+03  0.71567977612E+03  0.00000000000E+00 0. -1.
         21   -1    0    0  502  503 -0.00000000000E+00 -0.00000000000E+00 -0.14629182400E+04  0.14629182400E+04  0.00000000000E+00 0. -1.
   -9000010    2    1    2    0  503  0.68867046333E+02  0.10885614726E+03 -0.35953945066E+03  0.10831853261E+04  0.10136219726E+04 0.  0.
    9000010    2    1    2  501    0 -0.68867046333E+02 -0.10885614726E+03 -0.38769901324E+03  0.10954126900E+04  0.10163789184E+04 0.  0.
        -13    1    4    4    0    0 -0.14377273300E+03 -0.41514119003E+03 -0.57884528510E+03  0.72668747179E+03  0.10566000000E+00 0.  1.
          4    1    4    4  501    0  0.74905686666E+02  0.30628504277E+03  0.19114627186E+03  0.36872521824E+03  0.00000000000E+00 0.  1.
         13    1    3    3    0    0  0.26999459265E+03 -0.20814772861E+03  0.21047018741E+03  0.40064980711E+03  0.10566000000E+00 0. -1.
         -4    1    3    3    0  503 -0.20112754631E+03  0.31700387587E+03 -0.57000963807E+03  0.68253551900E+03  0.00000000000E+00 0. -1.
<mgrwt>
<rscale>  2 0.10238244E+04</rscale>
<asrwt>0</asrwt>
<pdfrwt beam="1">  1       21 0.11010458E+00 0.10245089E+04</pdfrwt>
<pdfrwt beam="2">  1       21 0.22506435E+00 0.10245089E+04</pdfrwt>
<totfact> 0.28472898E+01</totfact>
</mgrwt>
</event>
<event>
 8    1  0.1094795E-005  0.1313855E+04  0.7818608E-02  0.8525543E-01
         21   -1    0    0  503  502  0.00000000000E+00  0.00000000000E+00  0.11004804907E+04  0.11004804907E+04  0.00000000000E+00 0. -1.
         21   -1    0    0  501  503 -0.00000000000E+00 -0.00000000000E+00 -0.23888466568E+04  0.23888466568E+04  0.00000000000E+00 0. -1.
    9000010    2    1    2  501    0 -0.65209739961E+03 -0.53658783370E+03 -0.16669038281E+04  0.21220280845E+04  0.10056228404E+04 0.  0.
   -9000010    2    1    2    0  502  0.65209739961E+03  0.53658783370E+03  0.37853766206E+03  0.13672990630E+04  0.10065080449E+04 0.  0.
        -13    1    3    3    0    0  0.19741666425E+03  0.12653955936E+03 -0.33041592694E+03  0.40516699687E+03  0.10566000000E+00 0.  1.
          4    1    3    3  501    0 -0.84951406387E+03 -0.66312739306E+03 -0.13364879012E+04  0.17168610876E+04  0.00000000000E+00 0.  1.
         13    1    4    4    0    0  0.89684676988E+03  0.31890177314E+03  0.41368716607E+03  0.10378677912E+04  0.10566000000E+00 0. -1.
         -4    1    4    4    0  502 -0.24474937027E+03  0.21768606057E+03 -0.35149504014E+02  0.32943127181E+03  0.00000000000E+00 0. -1.
<mgrwt>
<rscale>  2 0.13136858E+04</rscale>
<asrwt>0</asrwt>
<pdfrwt beam="1">  1       21 0.16930469E+00 0.13138554E+04</pdfrwt>
<pdfrwt beam="2">  1       21 0.36751487E+00 0.13138554E+04</pdfrwt>
<totfact> 0.71761144E-01</totfact>
</mgrwt>
</event>
<event>
 8    1  0.1094795E-005  0.1363142E+04  0.7818608E-02  0.8493512E-01
         21   -1    0    0  503  502  0.00000000000E+00  0.00000000000E+00  0.13280653067E+04  0.13280653067E+04  0.00000000000E+00 0. -1.
         21   -1    0    0  501  503 -0.00000000000E+00 -0.00000000000E+00 -0.16026239557E+04  0.16026239557E+04  0.00000000000E+00 0.  1.
    9000010    2    1    2  501    0  0.56837216223E+02  0.93176551473E+03 -0.66423281321E+03  0.15129436622E+04  0.98811732671E+03 0.  0.
   -9000010    2    1    2    0  502 -0.56837216223E+02 -0.93176551473E+03  0.38967416420E+03  0.14177456001E+04  0.99334746635E+03 0.  0.
        -13    1    3    3    0    0 -0.37489546561E+03  0.11040418100E+03 -0.36228510381E+02  0.39248975712E+03  0.10566000000E+00 0.  1.
          4    1    3    3  501    0  0.43173268183E+03  0.82136133372E+03 -0.62800430283E+03  0.11204539051E+04  0.00000000000E+00 0.  1.
         13    1    4    4    0    0 -0.31082468980E+03 -0.72102994208E+03  0.63230935431E+03  0.10081226591E+04  0.10566000000E+00 0. -1.
         -4    1    4    4    0  502  0.25398747358E+03 -0.21073557264E+03 -0.24263519012E+03  0.40962294100E+03  0.00000000000E+00 0. -1.
<mgrwt>
<rscale>  2 0.13621895E+04</rscale>
<asrwt>0</asrwt>
<pdfrwt beam="1">  1       21 0.20431774E+00 0.13631422E+04</pdfrwt>
<pdfrwt beam="2">  1       21 0.24655753E+00 0.13631422E+04</pdfrwt>
<totfact> 0.26756832E+00</totfact>
</mgrwt>
</event>
<event>
 8    1  0.1094795E-005  0.1095096E+04  0.7818608E-02  0.8705120E-01
         21   -1    0    0  501  502  0.00000000000E+00  0.00000000000E+00  0.14862903236E+04  0.14862903236E+04  0.00000000000E+00 0. -1.
         21   -1    0    0  502  503 -0.00000000000E+00 -0.00000000000E+00 -0.76488860260E+03  0.76488860260E+03  0.00000000000E+00 0. -1.
   -9000010    2    1    2    0  503 -0.17798290886E+03  0.15839450620E+03  0.46579560078E+03  0.11266476795E+04  0.99779893598E+03 0.  0.
    9000010    2    1    2  501    0  0.17798290886E+03 -0.15839450620E+03  0.25560612024E+03  0.11245312467E+04  0.10688635557E+04 0.  0.
        -13    1    4    4    0    0  0.22494039803E+03  0.43883426321E+03  0.74785344472E+02  0.49876502698E+03  0.10566000000E+00 0.  1.
          4    1    4    4  501    0 -0.46957489163E+02 -0.59722876940E+03  0.18082077577E+03  0.62576621972E+03  0.00000000000E+00 0.  1.
         13    1    3    3    0    0 -0.28394587649E+03  0.54055386855E+03  0.38525791725E+03  0.72197466683E+03  0.10566000000E+00 0. -1.
         -4    1    3    3    0  503  0.10596296763E+03 -0.38215936235E+03  0.80537683526E+02  0.40467301270E+03  0.00000000000E+00 0. -1.
<mgrwt>
<rscale>  2 0.10773586E+04</rscale>
<asrwt>0</asrwt>
<pdfrwt beam="1">  1       21 0.22866005E+00 0.10950964E+04</pdfrwt>
<pdfrwt beam="2">  1       21 0.11767517E+00 0.10950964E+04</pdfrwt>
<totfact> 0.21959957E+01</totfact>
</mgrwt>
</event>
<event>
 8    1  0.1094795E-005  0.1094949E+04  0.7818608E-02  0.8703867E-01
         21   -1    0    0  503  502  0.00000000000E+00  0.00000000000E+00  0.15736573089E+04  0.15736573089E+04  0.00000000000E+00 0.  1.
         21   -1    0    0  501  503 -0.00000000000E+00 -0.00000000000E+00 -0.75224420873E+03  0.75224420873E+03  0.00000000000E+00 0.  1.
    9000010    2    1    2  501    0  0.33669585278E+03 -0.90629735626E+02  0.17645531385E+03  0.11090756738E+04  0.10379472656E+04 0.  0.
   -9000010    2    1    2    0  502 -0.33669585278E+03  0.90629735626E+02  0.64495778635E+03  0.12168258439E+04  0.97114197825E+03 0.  0.
        -13    1    3    3    0    0  0.11227858939E+03  0.42078595961E+03  0.31033309695E+03  0.53476532018E+03  0.10566000000E+00 0.  1.
          4    1    3    3  501    0  0.22441726339E+03 -0.51141569524E+03 -0.13387778310E+03  0.57431035360E+03  0.00000000000E+00 0.  1.
         13    1    4    4    0    0 -0.60631890374E+03 -0.12664763428E+03  0.19565776905E+03  0.64957232858E+03  0.10566000000E+00 0. -1.
         -4    1    4    4    0  502  0.26962305096E+03  0.21727736991E+03  0.44930001730E+03  0.56725351531E+03  0.00000000000E+00 0. -1.
<mgrwt>
<rscale>  2 0.10788186E+04</rscale>
<asrwt>0</asrwt>
<pdfrwt beam="1">  1       21 0.24210112E+00 0.10949486E+04</pdfrwt>
<pdfrwt beam="2">  1       21 0.11572988E+00 0.10949486E+04</pdfrwt>
<totfact> 0.18295824E+01</totfact>
</mgrwt>
</event>
<event>
 8    1  0.1094795E-005  0.1191168E+04  0.7818608E-02  0.8653139E-01
         21   -1    0    0  503  502  0.00000000000E+00  0.00000000000E+00  0.13724619675E+04  0.13724619675E+04  0.00000000000E+00 0.  1.
         21   -1    0    0  501  503 -0.00000000000E+00 -0.00000000000E+00 -0.99040969087E+03  0.99040969087E+03  0.00000000000E+00 0. -1.
    9000010    2    1    2  501    0 -0.45634902929E+03 -0.24067080892E+03  0.60925921207E+03  0.13379383121E+04  0.10736411248E+04 0.  0.
   -9000010    2    1    2    0  502  0.45634902929E+03  0.24067080892E+03 -0.22720693543E+03  0.10249333462E+04  0.85597225301E+03 0.  0.
        -13    1    3    3    0    0 -0.12956428224E+03  0.38274921050E+03  0.47104970176E+03  0.62062202190E+03  0.10566000000E+00 0.  1.
          4    1    3    3  501    0 -0.32678474705E+03 -0.62342001942E+03  0.13820951031E+03  0.71731629025E+03  0.00000000000E+00 0.  1.
         13    1    4    4    0    0  0.41095055405E+02  0.15520324503E+03  0.30489623802E+03  0.34458464558E+03  0.10566000000E+00 0. -1.
         -4    1    4    4    0  502  0.41525397388E+03  0.85467563890E+02 -0.53210317344E+03  0.68034870066E+03  0.00000000000E+00 0. -1.
<mgrwt>
<rscale>  2 0.11400351E+04</rscale>
<asrwt>0</asrwt>
<pdfrwt beam="1">  1       21 0.21114799E+00 0.11911684E+04</pdfrwt>
<pdfrwt beam="2">  1       21 0.15237072E+00 0.11911684E+04</pdfrwt>
<totfact> 0.13670969E+01</totfact>
</mgrwt>
</event>
<event>
 8    1  0.1094795E-005  0.1364662E+04  0.7818608E-02  0.8493609E-01
         21   -1    0    0  501  502  0.00000000000E+00  0.00000000000E+00  0.12905461740E+04  0.12905461740E+04  0.00000000000E+00 0.  1.
         21   -1    0    0  502  503 -0.00000000000E+00 -0.00000000000E+00 -0.14784140581E+04  0.14784140581E+04  0.00000000000E+00 0. -1.
   -9000010    2    1    2    0  503 -0.79397002329E+03 -0.46620584437E+03 -0.33889677595E+03  0.13959668576E+04  0.99304388405E+03 0.  0.
    9000010    2    1    2  501    0  0.79397002329E+03  0.46620584437E+03  0.15102889179E+03  0.13729933745E+04  0.10072560712E+04 0.  0.
        -13    1    4    4    0    0  0.54199133074E+02 -0.18814681009E+03 -0.24089371261E+03  0.31042963794E+03  0.10566000000E+00 0.  1.
          4    1    4    4  501    0  0.73977089021E+03  0.65435265446E+03  0.39192260440E+03  0.10625637366E+04  0.00000000000E+00 0.  1.
         13    1    3    3    0    0  0.29706121155E+02 -0.48905341233E+03 -0.29259750565E+03  0.57067416730E+03  0.10566000000E+00 0. -1.
         -4    1    3    3    0  503 -0.82367614444E+03  0.22847567964E+02 -0.46299270296E+02  0.82529269033E+03  0.00000000000E+00 0. -1.
<mgrwt>
<rscale>  2 0.13620400E+04</rscale>
<asrwt>0</asrwt>
<pdfrwt beam="1">  1       21 0.19854556E+00 0.13646615E+04</pdfrwt>
<pdfrwt beam="2">  1       21 0.22744832E+00 0.13646615E+04</pdfrwt>
<totfact> 0.41100511E+00</totfact>
</mgrwt>
</event>
<event>
 8    1  0.1094795E-005  0.1395103E+04  0.7818608E-02  0.8473855E-01
         21   -1    0    0  503  502  0.00000000000E+00  0.00000000000E+00  0.18685958430E+04  0.18685958430E+04  0.00000000000E+00 0. -1.
         21   -1    0    0  501  503 -0.00000000000E+00 -0.00000000000E+00 -0.10501933801E+04  0.10501933801E+04  0.00000000000E+00 0.  1.
    9000010    2    1    2  501    0 -0.13917691151E+03 -0.95228301198E+03  0.23482631997E+03  0.14065483197E+04  0.99850970332E+03 0.  0.
   -9000010    2    1    2    0  502  0.13917691151E+03  0.95228301198E+03  0.58357614294E+03  0.15122409033E+04  0.10099991522E+04 0.  0.
        -13    1    3    3    0    0 -0.56907880462E+02 -0.83494620530E+03 -0.27190247894E+03  0.87994581755E+03  0.10566000000E+00 0.  1.
          4    1    3    3  501    0 -0.82269031052E+02 -0.11733680668E+03  0.50672879892E+03  0.52660250220E+03  0.00000000000E+00 0.  1.
         13    1    4    4    0    0 -0.34309941486E+03  0.86050846988E+02  0.34150585662E+03  0.49167897862E+03  0.10566000000E+00 0. -1.
         -4    1    4    4    0  502  0.48227632637E+03  0.86623216499E+03  0.24207028631E+03  0.10205619247E+04  0.00000000000E+00 0. -1.
<mgrwt>
<rscale>  2 0.13930242E+04</rscale>
<asrwt>0</asrwt>
<pdfrwt beam="1">  1       21 0.28747628E+00 0.13951027E+04</pdfrwt>
<pdfrwt beam="2">  1       21 0.16156821E+00 0.13951027E+04</pdfrwt>
<totfact> 0.30119379E+00</totfact>
</mgrwt>
</event>
<event>
 8    1  0.1094795E-005  0.1046946E+04  0.7818608E-02  0.8733872E-01
         21   -1    0    0  501  502  0.00000000000E+00  0.00000000000E+00  0.19922331808E+04  0.19922331808E+04  0.00000000000E+00 0. -1.
         21   -1    0    0  502  503 -0.00000000000E+00 -0.00000000000E+00 -0.54580042184E+03  0.54580042184E+03  0.00000000000E+00 0. -1.
   -9000010    2    1    2    0  503  0.23546236379E+03  0.15617212863E+03  0.67315678761E+03  0.12364762063E+04  0.99794844035E+03 0.  0.
    9000010    2    1    2  501    0 -0.23546236379E+03 -0.15617212863E+03  0.77327597138E+03  0.13015573963E+04  0.10080990376E+04 0.  0.
        -13    1    4    4    0    0 -0.40871102925E+03 -0.38041328355E+03  0.84168498384E+03  0.10100458380E+04  0.10566000000E+00 0.  1.
          4    1    4    4  501    0  0.17324866546E+03  0.22424115492E+03 -0.68409012467E+02  0.29151155831E+03  0.00000000000E+00 0.  1.
         13    1    3    3    0    0  0.15361570996E+03  0.43559620043E+03 -0.42515553004E+02  0.46384202008E+03  0.10566000000E+00 0. -1.
         -4    1    3    3    0  503  0.81846653833E+02 -0.27942407180E+03  0.71567234062E+03  0.77263418625E+03  0.00000000000E+00 0. -1.
<mgrwt>
<rscale>  2 0.10444948E+04</rscale>
<asrwt>0</asrwt>
<pdfrwt beam="1">  1       21 0.30649741E+00 0.10469460E+04</pdfrwt>
<pdfrwt beam="2">  1       21 0.83969296E-01 0.10469460E+04</pdfrwt>
<totfact> 0.14810188E+01</totfact>
</mgrwt>
</event>
<event>
 8    1  0.1094795E-005  0.1041230E+04  0.7818608E-02  0.8742547E-01
         21   -1    0    0  503  502  0.00000000000E+00  0.00000000000E+00  0.17255805843E+04  0.17255805843E+04  0.00000000000E+00 0.  1.
         21   -1    0    0  501  503 -0.00000000000E+00 -0.00000000000E+00 -0.61328065129E+03  0.61328065129E+03  0.00000000000E+00 0.  1.
    9000010    2    1    2  501    0  0.15424009656E+03  0.20409791516E+03  0.52655677073E+03  0.11441837552E+04  0.98308110884E+03 0.  0.
   -9000010    2    1    2    0  502 -0.15424009656E+03 -0.20409791516E+03  0.58574316227E+03  0.11946774803E+04  0.10093132633E+04 0.  0.
        -13    1    3    3    0    0  0.29781032200E+03  0.55635425462E+03  0.27651161663E+03  0.68897005002E+03  0.10566000000E+00 0.  1.
          4    1    3    3  501    0 -0.14357022543E+03 -0.35225633947E+03  0.25004515410E+03  0.45521370521E+03  0.00000000000E+00 0.  1.
         13    1    4    4    0    0 -0.46957707183E+03  0.21507558931E+03  0.30230914347E+03  0.59845715377E+03  0.10566000000E+00 0. -1.
         -4    1    4    4    0  502  0.31533697526E+03 -0.41917350447E+03  0.28343401881E+03  0.59622032658E+03  0.00000000000E+00 0. -1.
<mgrwt>
<rscale>  2 0.10348188E+04</rscale>
<asrwt>0</asrwt>
<pdfrwt beam="1">  1       21 0.26547393E+00 0.10412297E+04</pdfrwt>
<pdfrwt beam="2">  1       21 0.94350870E-01 0.10412297E+04</pdfrwt>
<totfact> 0.21567644E+01</totfact>
</mgrwt>
</event>
<event>
 8    1  0.1094795E-005  0.1084029E+04  0.7818608E-02  0.8699780E-01
         21   -1    0    0  501  502  0.00000000000E+00  0.00000000000E+00  0.72634762469E+03  0.72634762469E+03  0.00000000000E+00 0.  1.
         21   -1    0    0  502  503 -0.00000000000E+00 -0.00000000000E+00 -0.16291818591E+04  0.16291818591E+04  0.00000000000E+00 0.  1.
   -9000010    2    1    2    0  503  0.66098508761E+02 -0.41838382694E+03 -0.34229955549E+03  0.11351532753E+04  0.99598691417E+03 0.  0.
    9000010    2    1    2  501    0 -0.66098508761E+02  0.41838382694E+03 -0.56053467894E+03  0.12203762085E+04  0.99785015136E+03 0.  0.
        -13    1    4    4    0    0 -0.25092812967E+03  0.47529346568E+03 -0.76759111697E+03  0.93705119326E+03  0.10566000000E+00 0.  1.
          4    1    4    4  501    0  0.18482962091E+03 -0.56909638746E+02  0.20705643803E+03  0.28332501527E+03  0.00000000000E+00 0.  1.
         13    1    3    3    0    0  0.13525205892E+03 -0.35887775733E+03  0.29968349708E+03  0.48672022121E+03  0.10566000000E+00 0. -1.
         -4    1    3    3    0  503 -0.69153550157E+02 -0.59506069604E+02 -0.64198305258E+03  0.64843305407E+03  0.00000000000E+00 0. -1.
<mgrwt>
<rscale>  2 0.10836001E+04</rscale>
<asrwt>0</asrwt>
<pdfrwt beam="1">  1       21 0.11174579E+00 0.10840290E+04</pdfrwt>
<pdfrwt beam="2">  1       21 0.25064336E+00 0.10840290E+04</pdfrwt>
<totfact> 0.17488929E+01</totfact>
</mgrwt>
</event>
<event>
 8    1  0.1094795E-005  0.1051817E+04  0.7818608E-02  0.8731849E-01
         21   -1    0    0  501  502  0.00000000000E+00  0.00000000000E+00  0.99068877110E+03  0.99068877110E+03  0.00000000000E+00 0.  1.
         21   -1    0    0  502  503 -0.00000000000E+00 -0.00000000000E+00 -0.10960188816E+04  0.10960188816E+04  0.00000000000E+00 0.  1.
   -9000010    2    1    2    0  503 -0.22969056680E+03 -0.13361671805E+03 -0.31083316700E+02  0.10522762796E+04  0.10176974070E+04 0.  0.
    9000010    2    1    2  501    0  0.22969056680E+03  0.13361671805E+03 -0.74246793789E+02  0.10344313731E+04  0.99695761966E+03 0.  0.
        -13    1    4    4    0    0  0.81173041441E+02  0.50488212815E+03  0.20050252384E+03  0.54926887698E+03  0.10566000000E+00 0.  1.
          4    1    4    4  501    0  0.14851752536E+03 -0.37126541011E+03 -0.27474931763E+03  0.48516249609E+03  0.00000000000E+00 0.  1.
         13    1    3    3    0    0 -0.41058536745E+03 -0.30945590846E+03  0.33063127800E+03  0.61127764265E+03  0.10566000000E+00 0. -1.
         -4    1    3    3    0  503  0.18089480065E+03  0.17583919042E+03 -0.36171459470E+03  0.44099863697E+03  0.00000000000E+00 0. -1.
<mgrwt>
<rscale>  2 0.10467674E+04</rscale>
<asrwt>0</asrwt>
<pdfrwt beam="1">  1       21 0.15241366E+00 0.10518171E+04</pdfrwt>
<pdfrwt beam="2">  1       21 0.16861829E+00 0.10518171E+04</pdfrwt>
<totfact> 0.30796236E+01</totfact>
</mgrwt>
</event>
<event>
 8    1  0.1094795E-005  0.1104871E+04  0.7818608E-02  0.8684080E-01
         21   -1    0    0  503  502  0.00000000000E+00  0.00000000000E+00  0.92471553382E+03  0.92471553382E+03  0.00000000000E+00 0. -1.
         21   -1    0    0  501  503 -0.00000000000E+00 -0.00000000000E+00 -0.13083587171E+04  0.13083587171E+04  0.00000000000E+00 0. -1.
    9000010    2    1    2  501    0 -0.46859456323E+03 -0.16856875179E+02 -0.21992003448E+03  0.11161382489E+04  0.98870357038E+03 0.  0.
   -9000010    2    1    2    0  502  0.46859456323E+03  0.16856875179E+02 -0.16372314879E+03  0.11169360020E+04  0.10004377763E+04 0.  0.
        -13    1    3    3    0    0 -0.28882978918E+03  0.25178262469E+03  0.31171710936E+03  0.49394807890E+03  0.10566000000E+00 0.  1.
          4    1    3    3  501    0 -0.17976477405E+03 -0.26863949987E+03 -0.53163714385E+03  0.62219016996E+03  0.00000000000E+00 0.  1.
         13    1    4    4    0    0  0.69424051414E+03  0.25781213061E+03  0.16660717464E+02  0.74075270964E+03  0.10566000000E+00 0. -1.
         -4    1    4    4    0  502 -0.22564595091E+03 -0.24095525543E+03 -0.18038386625E+03  0.37618329241E+03  0.00000000000E+00 0. -1.
<mgrwt>
<rscale>  2 0.11022083E+04</rscale>
<asrwt>0</asrwt>
<pdfrwt beam="1">  1       21 0.14226393E+00 0.11048714E+04</pdfrwt>
<pdfrwt beam="2">  1       21 0.20128596E+00 0.11048714E+04</pdfrwt>
<totfact> 0.20461689E+01</totfact>
</mgrwt>
</event>
<event>
 8    1  0.1094795E-005  0.1213358E+04  0.7818608E-02  0.8597475E-01
         21   -1    0    0  501  502  0.00000000000E+00  0.00000000000E+00  0.13912776670E+04  0.13912776670E+04  0.00000000000E+00 0.  1.
         21   -1    0    0  502  503 -0.00000000000E+00 -0.00000000000E+00 -0.10771008645E+04  0.10771008645E+04  0.00000000000E+00 0.  1.
   -9000010    2    1    2    0  503 -0.63613757935E+03  0.25088501337E+03 -0.24125219458E+02  0.12087413103E+04  0.99642321295E+03 0.  0.
    9000010    2    1    2  501    0  0.63613757935E+03 -0.25088501337E+03  0.33830202193E+03  0.12596372212E+04  0.10023090148E+04 0.  0.
        -13    1    4    4    0    0  0.34656079379E+03  0.36811776952E+03  0.20582246110E+02  0.50600268384E+03  0.10566000000E+00 0.  1.
          4    1    4    4  501    0  0.28957678555E+03 -0.61900278289E+03  0.31771977582E+03  0.75363453736E+03  0.00000000000E+00 0.  1.
         13    1    3    3    0    0 -0.19577567105E+03  0.58533948884E+03 -0.16344922321E+03  0.63848734545E+03  0.10566000000E+00 0. -1.
         -4    1    3    3    0  503 -0.44036190830E+03 -0.33445447547E+03  0.13932400375E+03  0.57025396488E+03  0.00000000000E+00 0. -1.
<mgrwt>
<rscale>  2 0.12121418E+04</rscale>
<asrwt>0</asrwt>
<pdfrwt beam="1">  1       21 0.21404272E+00 0.12133580E+04</pdfrwt>
<pdfrwt beam="2">  1       21 0.16570782E+00 0.12133580E+04</pdfrwt>
<totfact> 0.99070990E+00</totfact>
</mgrwt>
</event>
<event>
 8    1  0.1094795E-005  0.1218830E+04  0.7818608E-02  0.8598487E-01
         21   -1    0    0  501  502  0.00000000000E+00  0.00000000000E+00  0.65287677515E+03  0.65287677515E+03  0.00000000000E+00 0.  1.
         21   -1    0    0  502  503 -0.00000000000E+00 -0.00000000000E+00 -0.22345819755E+04  0.22345819755E+04  0.00000000000E+00 0.  1.
   -9000010    2    1    2    0  503 -0.55091465464E+03 -0.35043872743E+03 -0.64979329142E+03  0.13531815882E+04  0.99123903807E+03 0.  0.
    9000010    2    1    2  501    0  0.55091465464E+03  0.35043872743E+03 -0.93191190893E+03  0.15342771625E+04  0.10291901413E+04 0.  0.
        -13    1    4    4    0    0 -0.78849443625E+02  0.48047666229E+03 -0.69581701336E+03  0.84925637178E+03  0.10566000000E+00 0.  1.
          4    1    4    4  501    0  0.62976409827E+03 -0.13003793485E+03 -0.23609489556E+03  0.68502079069E+03  0.00000000000E+00 0.  1.
         13    1    3    3    0    0 -0.67490996822E+03 -0.58135891447E+03 -0.35550923210E+03  0.95909774158E+03  0.10566000000E+00 0. -1.
         -4    1    3    3    0  503  0.12399531357E+03  0.23092018704E+03 -0.29428405931E+03  0.39408384658E+03  0.00000000000E+00 0. -1.
<mgrwt>
<rscale>  2 0.12107826E+04</rscale>
<asrwt>0</asrwt>
<pdfrwt beam="1">  1       21 0.10044258E+00 0.12188300E+04</pdfrwt>
<pdfrwt beam="2">  1       21 0.34378184E+00 0.12188300E+04</pdfrwt>
<totfact> 0.49350624E+00</totfact>
</mgrwt>
</event>
<event>
 8    1  0.1094795E-005  0.1257294E+04  0.7818608E-02  0.8566147E-01
         21   -1    0    0  503  502  0.00000000000E+00  0.00000000000E+00  0.22908586045E+04  0.22908586045E+04  0.00000000000E+00 0. -1.
         21   -1    0    0  501  503 -0.00000000000E+00 -0.00000000000E+00 -0.81443870072E+03  0.81443870072E+03  0.00000000000E+00 0. -1.
    9000010    2    1    2  501    0  0.65732664357E+03  0.37343692998E+03  0.11799751181E+03  0.12543244625E+04  0.99391799837E+03 0.  0.
   -9000010    2    1    2    0  502 -0.65732664357E+03 -0.37343692998E+03  0.13584223920E+04  0.18509728427E+04  0.10046171472E+04 0.  0.
        -13    1    3    3    0    0  0.17828062571E+03 -0.23103810362E+03 -0.26409678384E+03  0.39358570760E+03  0.10566000000E+00 0.  1.
          4    1    3    3  501    0  0.47904601786E+03  0.60447503360E+03  0.38209429565E+03  0.86073875493E+03  0.00000000000E+00 0.  1.
         13    1    4    4    0    0 -0.75060327562E+03  0.10903214340E+03  0.72459689584E+03  0.10489680445E+04  0.10566000000E+00 0. -1.
         -4    1    4    4    0  502  0.93276632055E+02 -0.48246907337E+03  0.63382549617E+03  0.80200479827E+03  0.00000000000E+00 0. -1.
<mgrwt>
<rscale>  2 0.12551558E+04</rscale>
<asrwt>0</asrwt>
<pdfrwt beam="1">  1       21 0.35243978E+00 0.12572943E+04</pdfrwt>
<pdfrwt beam="2">  1       21 0.12529826E+00 0.12572943E+04</pdfrwt>
<totfact> 0.23240090E+00</totfact>
</mgrwt>
</event>
<event>
 8    1  0.1094795E-005  0.1316716E+04  0.7818608E-02  0.8525713E-01
         21   -1    0    0  501  502  0.00000000000E+00  0.00000000000E+00  0.21062821673E+04  0.21062821673E+04  0.00000000000E+00 0.  1.
         21   -1    0    0  502  503 -0.00000000000E+00 -0.00000000000E+00 -0.88656131410E+03  0.88656131410E+03  0.00000000000E+00 0. -1.
   -9000010    2    1    2    0  503 -0.82742887277E+03  0.16766397962E+03  0.18742979184E+03  0.13299886762E+04  0.10104405982E+04 0.  0.
    9000010    2    1    2  501    0  0.82742887277E+03 -0.16766397962E+03  0.10322910613E+04  0.16628548052E+04  0.99333353823E+03 0.  0.
        -13    1    4    4    0    0 -0.86546528218E+02 -0.18141835412E+03  0.63520923617E+03  0.66625348452E+03  0.10566000000E+00 0.  1.
          4    1    4    4  501    0  0.91397540098E+03  0.13754374496E+02  0.39708182517E+03  0.99660132064E+03  0.00000000000E+00 0.  1.
         13    1    3    3    0    0  0.16845005515E+03 -0.77893039141E+02  0.23946623003E+03  0.30296341877E+03  0.10566000000E+00 0. -1.
         -4    1    3    3    0  503 -0.99587892792E+03  0.24555701876E+03 -0.52036438187E+02  0.10270252574E+04  0.00000000000E+00 0. -1.
<mgrwt>
<rscale>  2 0.13134329E+04</rscale>
<asrwt>0</asrwt>
<pdfrwt beam="1">  1       21 0.32404341E+00 0.13167156E+04</pdfrwt>
<pdfrwt beam="2">  1       21 0.13639405E+00 0.13167156E+04</pdfrwt>
<totfact> 0.28408055E+00</totfact>
</mgrwt>
</event>
<event>
 8    1  0.1094795E-005  0.1470505E+04  0.7818608E-02  0.8428203E-01
         21   -1    0    0  501  502  0.00000000000E+00  0.00000000000E+00  0.20314015720E+04  0.20314015720E+04  0.00000000000E+00 0.  1.
         21   -1    0    0  502  503 -0.00000000000E+00 -0.00000000000E+00 -0.10804138421E+04  0.10804138421E+04  0.00000000000E+00 0. -1.
   -9000010    2    1    2    0  503 -0.54989094163E+03  0.91186653288E+03  0.24826247635E+03  0.14913142405E+04  0.10141515100E+04 0.  0.
    9000010    2    1    2  501    0  0.54989094163E+03 -0.91186653288E+03  0.70272525355E+03  0.16205011737E+04  0.99915997235E+03 0.  0.
        -13    1    4    4    0    0  0.81562677518E+03 -0.66629534889E+03  0.68875130600E+03  0.12584017248E+04  0.10566000000E+00 0.  1.
          4    1    4    4  501    0 -0.26573583355E+03 -0.24557118399E+03  0.13973947549E+02  0.36209944883E+03  0.00000000000E+00 0.  1.
         13    1    3    3    0    0 -0.50543424982E+03  0.13866216624E+03 -0.23928643256E+03  0.57615014121E+03  0.10566000000E+00 0. -1.
         -4    1    3    3    0  503 -0.44456691809E+02  0.77320436664E+03  0.48754890892E+03  0.91516409929E+03  0.00000000000E+00 0. -1.
<mgrwt>
<rscale>  2 0.14679232E+04</rscale>
<asrwt>0</asrwt>
<pdfrwt beam="1">  1       21 0.31252332E+00 0.14705046E+04</pdfrwt>
<pdfrwt beam="2">  1       21 0.16621752E+00 0.14705046E+04</pdfrwt>
<totfact> 0.18008874E+00</totfact>
</mgrwt>
</event>
<event>
 8    1  0.1094795E-005  0.1117518E+04  0.7818608E-02  0.8674606E-01
         21   -1    0    0  501  502  0.00000000000E+00  0.00000000000E+00  0.10410498883E+04  0.10410498883E+04  0.00000000000E+00 0. -1.
         21   -1    0    0  502  503 -0.00000000000E+00 -0.00000000000E+00 -0.12073836372E+04  0.12073836372E+04  0.00000000000E+00 0. -1.
   -9000010    2    1    2    0  503 -0.62713361254E+02 -0.46262905551E+03  0.77034651727E+02  0.11047225590E+04  0.99825797571E+03 0.  0.
    9000010    2    1    2  501    0  0.62713361254E+02  0.46262905551E+03 -0.24336840057E+03  0.11437109665E+04  0.10153265425E+04 0.  0.
        -13    1    4    4    0    0  0.40906121111E+03  0.38441239710E+03  0.18154910992E+03  0.58996953816E+03  0.10566000000E+00 0.  1.
          4    1    4    4  501    0 -0.34634784985E+03  0.78216658406E+02 -0.42491751048E+03  0.55374142834E+03  0.00000000000E+00 0.  1.
         13    1    3    3    0    0 -0.49693941582E+03 -0.23214916467E+03 -0.14193572384E+03  0.56655783334E+03  0.10566000000E+00 0. -1.
         -4    1    3    3    0  503  0.43422605457E+03 -0.23047989084E+03  0.21897037556E+03  0.53816472564E+03  0.00000000000E+00 0. -1.
<mgrwt>
<rscale>  2 0.11136266E+04</rscale>
<asrwt>0</asrwt>
<pdfrwt beam="1">  1       21 0.16016152E+00 0.11175181E+04</pdfrwt>
<pdfrwt beam="2">  1       21 0.18575133E+00 0.11175181E+04</pdfrwt>
<totfact> 0.18776456E+01</totfact>
</mgrwt>
</event>
<event>
 8    1  0.1094795E-005  0.1074396E+04  0.7818608E-02  0.8711438E-01
         21   -1    0    0  501  502  0.00000000000E+00  0.00000000000E+00  0.40829544413E+03  0.40829544413E+03  0.00000000000E+00 0. -1.
         21   -1    0    0  502  503 -0.00000000000E+00 -0.00000000000E+00 -0.28025835908E+04  0.28025835908E+04  0.00000000000E+00 0. -1.
   -9000010    2    1    2    0  503  0.13514802474E+03  0.36334523939E+03 -0.10488696500E+04  0.14891131394E+04  0.98338479131E+03 0.  0.
    9000010    2    1    2  501    0 -0.13514802474E+03 -0.36334523939E+03 -0.13454184967E+04  0.17217658955E+04  0.10020190198E+04 0.  0.
        -13    1    4    4    0    0 -0.43470132113E+03 -0.31103795228E+03 -0.13109497235E+04  0.14157326849E+04  0.10566000000E+00 0.  1.
          4    1    4    4  501    0  0.29955329639E+03 -0.52307287111E+02 -0.34468773169E+02  0.30603321060E+03  0.00000000000E+00 0.  1.
         13    1    3    3    0    0  0.84669224604E+02  0.62266418025E+03 -0.30259185908E+03  0.69745351337E+03  0.10566000000E+00 0. -1.
         -4    1    3    3    0  503  0.50478800138E+02 -0.25931894085E+03 -0.74627779089E+03  0.79165962605E+03  0.00000000000E+00 0. -1.
<mgrwt>
<rscale>  2 0.10700301E+04</rscale>
<asrwt>0</asrwt>
<pdfrwt beam="1">  1       21 0.62814682E-01 0.10743960E+04</pdfrwt>
<pdfrwt beam="2">  1       21 0.43116672E+00 0.10743960E+04</pdfrwt>
<totfact> 0.39692399E+00</totfact>
</mgrwt>
</event>
<event>
 8    1  0.1094795E-005  0.1063532E+04  0.7818608E-02  0.8720537E-01
         21   -1    0    0  503  502  0.00000000000E+00  0.00000000000E+00  0.49549017369E+03  0.49549017369E+03  0.00000000000E+00 0.  1.
         21   -1    0    0  501  503 -0.00000000000E+00 -0.00000000000E+00 -0.26033118431E+04  0.26033118431E+04  0.00000000000E+00 0.  1.
    9000010    2    1    2  501    0  0.17131327538E+03  0.25389056395E+03 -0.48925571517E+03  0.11706714375E+04  0.10184752344E+04 0.  0.
   -9000010    2    1    2    0  502 -0.17131327538E+03 -0.25389056395E+03 -0.16185659542E+04  0.19281305792E+04  0.10020594421E+04 0.  0.
        -13    1    3    3    0    0 -0.29136766691E+03  0.37564000394E+03 -0.50291729880E+03  0.69204504945E+03  0.10566000000E+00 0.  1.
          4    1    3    3  501    0  0.46268094230E+03 -0.12174943998E+03  0.13661583629E+02  0.47862638808E+03  0.00000000000E+00 0.  1.
         13    1    4    4    0    0 -0.28451042255E+03 -0.44068748085E+03 -0.32678222682E+03  0.61801154621E+03  0.10566000000E+00 0. -1.
         -4    1    4    4    0  502  0.11319714717E+03  0.18679691690E+03 -0.12917837274E+04  0.13101190330E+04  0.00000000000E+00 0. -1.
<mgrwt>
<rscale>  2 0.10595827E+04</rscale>
<asrwt>0</asrwt>
<pdfrwt beam="1">  1       21 0.76229258E-01 0.10635321E+04</pdfrwt>
<pdfrwt beam="2">  1       21 0.40050951E+00 0.10635321E+04</pdfrwt>
<totfact> 0.40968725E+00</totfact>
</mgrwt>
</event>
<event>
 8    1  0.1094795E-005  0.1194850E+04  0.7818608E-02  0.8616321E-01
         21   -1    0    0  503  502  0.00000000000E+00  0.00000000000E+00  0.90360043605E+03  0.90360043605E+03  0.00000000000E+00 0.  1.
         21   -1    0    0  501  503 -0.00000000000E+00 -0.00000000000E+00 -0.20043337262E+04  0.20043337262E+04  0.00000000000E+00 0.  1.
    9000010    2    1    2  501    0 -0.43647961819E+03  0.49793793480E+03 -0.12557984793E+04  0.17334062748E+04  0.99459079472E+03 0.  0.
   -9000010    2    1    2    0  502  0.43647961819E+03 -0.49793793480E+03  0.15506518907E+03  0.11745278875E+04  0.95760842816E+03 0.  0.
        -13    1    3    3    0    0  0.14634310831E+03 -0.80109686688E+02  0.64387417062E+02  0.17882845940E+03  0.10566000000E+00 0.  1.
          4    1    3    3  501    0 -0.58282272650E+03  0.57804762149E+03 -0.13201858963E+04  0.15545778154E+04  0.00000000000E+00 0.  1.
         13    1    4    4    0    0 -0.12070310748E+03  0.69675895872E+02  0.33167836487E+03  0.35977009257E+03  0.10566000000E+00 0. -1.
         -4    1    4    4    0  502  0.55718272567E+03 -0.56761383067E+03 -0.17661317581E+03  0.81475779494E+03  0.00000000000E+00 0. -1.
<mgrwt>
<rscale>  2 0.11871249E+04</rscale>
<asrwt>0</asrwt>
<pdfrwt beam="1">  1       21 0.13901545E+00 0.11948504E+04</pdfrwt>
<pdfrwt beam="2">  1       21 0.30835904E+00 0.11948504E+04</pdfrwt>
<totfact> 0.35472943E+00</totfact>
</mgrwt>
</event>
<event>
 8    1  0.1094795E-005  0.1027614E+04  0.7818608E-02  0.8749217E-01
         21   -1    0    0  503  502  0.00000000000E+00  0.00000000000E+00  0.96174194829E+03  0.96174194829E+03  0.00000000000E+00 0.  1.
         21   -1    0    0  501  503 -0.00000000000E+00 -0.00000000000E+00 -0.11158875500E+04  0.11158875500E+04  0.00000000000E+00 0.  1.
    9000010    2    1    2  501    0 -0.15381259732E+03  0.15606415013E+03 -0.21109865409E+03  0.10484385580E+04  0.10033177135E+04 0.  0.
   -9000010    2    1    2    0  502  0.15381259732E+03 -0.15606415013E+03  0.56953052398E+02  0.10291909402E+04  0.10039800831E+04 0.  0.
        -13    1    3    3    0    0 -0.10495682596E+03  0.55880716957E+03 -0.28509387540E+03  0.63605024726E+03  0.10566000000E+00 0.  1.
          4    1    3    3  501    0 -0.48855771351E+02 -0.40274301944E+03  0.73995221306E+02  0.41238831079E+03  0.00000000000E+00 0.  1.
         13    1    4    4    0    0  0.38115575528E+03  0.32151691119E+03  0.31654264032E+02  0.49965471834E+03  0.10566000000E+00 0. -1.
         -4    1    4    4    0  502 -0.22734315796E+03 -0.47758106132E+03  0.25298788366E+02  0.52953622189E+03  0.00000000000E+00 0. -1.
<mgrwt>
<rscale>  2 0.10274521E+04</rscale>
<asrwt>0</asrwt>
<pdfrwt beam="1">  1       21 0.14796030E+00 0.10276139E+04</pdfrwt>
<pdfrwt beam="2">  1       21 0.17167501E+00 0.10276139E+04</pdfrwt>
<totfact> 0.31984845E+01</totfact>
</mgrwt>
</event>
<event>
 8    1  0.1094795E-005  0.1684606E+04  0.7818608E-02  0.8312217E-01
         21   -1    0    0  501  502  0.00000000000E+00  0.00000000000E+00  0.20386872576E+04  0.20386872576E+04  0.00000000000E+00 0.  1.
         21   -1    0    0  502  503 -0.00000000000E+00 -0.00000000000E+00 -0.14010738981E+04  0.14010738981E+04  0.00000000000E+00 0. -1.
   -9000010    2    1    2    0  503  0.13210748742E+04 -0.22374373534E+03  0.52406795227E+03  0.17513330492E+04  0.99860910682E+03 0.  0.
    9000010    2    1    2  501    0 -0.13210748742E+04  0.22374373534E+03  0.11354540723E+03  0.16884281066E+04  0.10210763092E+04 0.  0.
        -13    1    4    4    0    0 -0.60166613408E+03  0.56573532576E+03  0.28493311479E+03  0.87363922003E+03  0.10566000000E+00 0.  1.
          4    1    4    4  501    0 -0.71940874014E+03 -0.34199159042E+03 -0.17138770756E+03  0.81478888653E+03  0.00000000000E+00 0.  1.
         13    1    3    3    0    0  0.93199814776E+03 -0.59776555080E+03  0.48929160056E+03  0.12105166181E+04  0.10566000000E+00 0. -1.
         -4    1    3    3    0  503  0.38907672646E+03  0.37402181546E+03  0.34776351709E+02  0.54081643110E+03  0.00000000000E+00 0. -1.
<mgrwt>
<rscale>  2 0.16812151E+04</rscale>
<asrwt>0</asrwt>
<pdfrwt beam="1">  1       21 0.31364419E+00 0.16846059E+04</pdfrwt>
<pdfrwt beam="2">  1       21 0.21554983E+00 0.16846059E+04</pdfrwt>
<totfact> 0.68482352E-01</totfact>
</mgrwt>
</event>
<event>
 8    1  0.1094795E-005  0.1068288E+04  0.7818608E-02  0.8720769E-01
         21   -1    0    0  503  502  0.00000000000E+00  0.00000000000E+00  0.90831132382E+03  0.90831132382E+03  0.00000000000E+00 0. -1.
         21   -1    0    0  501  503 -0.00000000000E+00 -0.00000000000E+00 -0.12291918718E+04  0.12291918718E+04  0.00000000000E+00 0. -1.
    9000010    2    1    2  501    0  0.17019517790E+03 -0.28687627844E+03 -0.27748141741E+03  0.11037365520E+04  0.10148763676E+04 0.  0.
   -9000010    2    1    2    0  502 -0.17019517790E+03  0.28687627844E+03 -0.43399130572E+02  0.10337666436E+04  0.97750989310E+03 0.  0.
        -13    1    3    3    0    0  0.13167544370E+03  0.37511589072E+03 -0.40765443170E+02  0.39964007115E+03  0.10566000000E+00 0.  1.
          4    1    3    3  501    0  0.38519734202E+02 -0.66199216916E+03 -0.23671597424E+03  0.70409648090E+03  0.00000000000E+00 0.  1.
         13    1    4    4    0    0 -0.24781126640E+03 -0.20050651278E+03 -0.33346187254E+03  0.46131346937E+03  0.10566000000E+00 0. -1.
         -4    1    4    4    0  502  0.77616088496E+02  0.48738279122E+03  0.29006274197E+03  0.57245317420E+03  0.00000000000E+00 0. -1.
<mgrwt>
<rscale>  2 0.10593172E+04</rscale>
<asrwt>0</asrwt>
<pdfrwt beam="1">  1       21 0.13974020E+00 0.10682876E+04</pdfrwt>
<pdfrwt beam="2">  1       21 0.18910644E+00 0.10682876E+04</pdfrwt>
<totfact> 0.27146265E+01</totfact>
</mgrwt>
</event>
<event>
 8    1  0.1094795E-005  0.1072185E+04  0.7818608E-02  0.8720705E-01
         21   -1    0    0  503  502  0.00000000000E+00  0.00000000000E+00  0.78412834980E+03  0.78412834980E+03  0.00000000000E+00 0. -1.
         21   -1    0    0  501  503 -0.00000000000E+00 -0.00000000000E+00 -0.13981398216E+04  0.13981398216E+04  0.00000000000E+00 0. -1.
    9000010    2    1    2  501    0  0.15543497254E+03  0.14563606643E+03 -0.29693367323E+03  0.10641812228E+04  0.99947094712E+03 0.  0.
   -9000010    2    1    2    0  502 -0.15543497254E+03 -0.14563606643E+03 -0.31707779854E+03  0.11180869486E+04  0.10508140652E+04 0.  0.
        -13    1    3    3    0    0 -0.28606769313E+03  0.95939957500E+02 -0.49343572396E+03  0.57837533258E+03  0.10566000000E+00 0.  1.
          4    1    3    3  501    0  0.44150266567E+03  0.49696108926E+02  0.19650205073E+03  0.48580589022E+03  0.00000000000E+00 0.  1.
         13    1    4    4    0    0 -0.32231919735E+03  0.36334396489E+03 -0.32142573236E+03  0.58242854874E+03  0.10566000000E+00 0. -1.
         -4    1    4    4    0  502  0.16688422481E+03 -0.50898003132E+03  0.43479338166E+01  0.53565839982E+03  0.00000000000E+00 0. -1.
<mgrwt>
<rscale>  2 0.10593903E+04</rscale>
<asrwt>0</asrwt>
<pdfrwt beam="1">  1       21 0.12063513E+00 0.10721847E+04</pdfrwt>
<pdfrwt beam="2">  1       21 0.21509843E+00 0.10721847E+04</pdfrwt>
<totfact> 0.26042434E+01</totfact>
</mgrwt>
</event>
<event>
 8    1  0.1094795E-005  0.1175123E+04  0.7818608E-02  0.8633024E-01
         21   -1    0    0  503  502  0.00000000000E+00  0.00000000000E+00  0.95171144680E+03  0.95171144680E+03  0.00000000000E+00 0. -1.
         21   -1    0    0  501  503 -0.00000000000E+00 -0.00000000000E+00 -0.14085869967E+04  0.14085869967E+04  0.00000000000E+00 0. -1.
    9000010    2    1    2  501    0 -0.91898047142E+02 -0.54601166995E+03 -0.28982829757E+03  0.11733620322E+04  0.99307805420E+03 0.  0.
   -9000010    2    1    2    0  502  0.91898047142E+02  0.54601166995E+03 -0.16704725228E+03  0.11869364113E+04  0.10365033840E+04 0.  0.
        -13    1    3    3    0    0 -0.37356211587E+02 -0.49392037006E+02  0.35346479378E+03  0.35884875849E+03  0.10566000000E+00 0.  1.
          4    1    3    3  501    0 -0.54541835555E+02 -0.49661963295E+03 -0.64329309136E+03  0.81451327370E+03  0.00000000000E+00 0.  1.
         13    1    4    4    0    0 -0.27456275320E+03 -0.14601160140E+03 -0.25066417258E+03  0.39942036974E+03  0.10566000000E+00 0. -1.
         -4    1    4    4    0  502  0.36646080034E+03  0.69202327136E+03  0.83616920297E+02  0.78751604152E+03  0.00000000000E+00 0. -1.
<mgrwt>
<rscale>  2 0.11654748E+04</rscale>
<asrwt>0</asrwt>
<pdfrwt beam="1">  1       21 0.14641715E+00 0.11751227E+04</pdfrwt>
<pdfrwt beam="2">  1       21 0.21670569E+00 0.11751227E+04</pdfrwt>
<totfact> 0.14068467E+01</totfact>
</mgrwt>
</event>
<event>
 8    1  0.1094795E-005  0.1075381E+04  0.7818608E-02  0.8707451E-01
         21   -1    0    0  501  502  0.00000000000E+00  0.00000000000E+00  0.19197287789E+04  0.19197287789E+04  0.00000000000E+00 0.  1.
         21   -1    0    0  502  503 -0.00000000000E+00 -0.00000000000E+00 -0.61102725857E+03  0.61102725857E+03  0.00000000000E+00 0. -1.
   -9000010    2    1    2    0  503  0.34655065655E+03  0.23450283866E+03  0.81751148724E+03  0.13485077676E+04  0.98745087400E+03 0.  0.
    9000010    2    1    2  501    0 -0.34655065655E+03 -0.23450283866E+03  0.49119003310E+03  0.11822482699E+04  0.99063332477E+03 0.  0.
        -13    1    4    4    0    0  0.77597830224E+02 -0.40897856545E+03 -0.10571985796E+03  0.42948991814E+03  0.10566000000E+00 0.  1.
          4    1    4    4  501    0 -0.42414848678E+03  0.17447572679E+03  0.59690989107E+03  0.75275835175E+03  0.00000000000E+00 0.  1.
         13    1    3    3    0    0 -0.44078393206E+02  0.48937240542E+03  0.72051514892E+03  0.87210684375E+03  0.10566000000E+00 0. -1.
         -4    1    3    3    0  503  0.39062904976E+03 -0.25486956676E+03  0.96996338322E+02  0.47640092383E+03  0.00000000000E+00 0. -1.
<mgrwt>
<rscale>  2 0.10746471E+04</rscale>
<asrwt>0</asrwt>
<pdfrwt beam="1">  1       21 0.29534289E+00 0.10753805E+04</pdfrwt>
<pdfrwt beam="2">  1       21 0.94004194E-01 0.10753805E+04</pdfrwt>
<totfact> 0.13237224E+01</totfact>
</mgrwt>
</event>
<event>
 8    1  0.1094795E-005  0.1075521E+04  0.7818608E-02  0.8707823E-01
         21   -1    0    0  501  502  0.00000000000E+00  0.00000000000E+00  0.11931981051E+04  0.11931981051E+04  0.00000000000E+00 0.  1.
         21   -1    0    0  502  503 -0.00000000000E+00 -0.00000000000E+00 -0.96639279323E+03  0.96639279323E+03  0.00000000000E+00 0.  1.
   -9000010    2    1    2    0  503  0.59834348468E+01 -0.40424620958E+03  0.69230981267E+02  0.10777473498E+04  0.99664217338E+03 0.  0.
    9000010    2    1    2  501    0 -0.59834348468E+01  0.40424620958E+03  0.15757433058E+03  0.10818435485E+04  0.99101210605E+03 0.  0.
        -13    1    4    4    0    0 -0.36389368032E+02 -0.33116438807E+03  0.26345710394E+02  0.33419776429E+03  0.10566000000E+00 0.  1.
          4    1    4    4  501    0  0.30405933185E+02  0.73541059765E+03  0.13122862018E+03  0.74764578422E+03  0.00000000000E+00 0.  1.
         13    1    3    3    0    0 -0.22133282668E+03  0.76337092549E+02 -0.33582933231E+03  0.40938603233E+03  0.10566000000E+00 0. -1.
         -4    1    3    3    0  503  0.22731626152E+03 -0.48058330213E+03  0.40506031358E+03  0.66836131746E+03  0.00000000000E+00 0. -1.
<mgrwt>
<rscale>  2 0.10742153E+04</rscale>
<asrwt>0</asrwt>
<pdfrwt beam="1">  1       21 0.18356894E+00 0.10755215E+04</pdfrwt>
<pdfrwt beam="2">  1       21 0.14867581E+00 0.10755215E+04</pdfrwt>
<totfact> 0.24900432E+01</totfact>
</mgrwt>
</event>
<event>
 8    1  0.1094795E-005  0.1348106E+04  0.7818608E-02  0.8503681E-01
         21   -1    0    0  503  502  0.00000000000E+00  0.00000000000E+00  0.20128276342E+04  0.20128276342E+04  0.00000000000E+00 0. -1.
         21   -1    0    0  501  503 -0.00000000000E+00 -0.00000000000E+00 -0.10441222508E+04  0.10441222508E+04  0.00000000000E+00 0. -1.
    9000010    2    1    2  501    0  0.71505645403E+03 -0.54268521697E+03 -0.84960322138E+02  0.13507800652E+04  0.10057711226E+04 0.  0.
   -9000010    2    1    2    0  502 -0.71505645403E+03  0.54268521697E+03  0.10536657056E+04  0.17061698198E+04  0.99749238477E+03 0.  0.
        -13    1    3    3    0    0  0.55759651855E+03 -0.78194862552E+03 -0.28456163854E+03  0.10016650477E+04  0.10566000000E+00 0.  1.
          4    1    3    3  501    0  0.15745993548E+03  0.23926340855E+03  0.19960131640E+03  0.34911501753E+03  0.00000000000E+00 0.  1.
         13    1    4    4    0    0 -0.58965957843E+03  0.82039551118E+03  0.65370160277E+03  0.12033590527E+04  0.10566000000E+00 0. -1.
         -4    1    4    4    0  502 -0.12539687560E+03 -0.27771029421E+03  0.39996410279E+03  0.50281076703E+03  0.00000000000E+00 0. -1.
<mgrwt>
<rscale>  2 0.13465616E+04</rscale>
<asrwt>0</asrwt>
<pdfrwt beam="1">  1       21 0.30966579E+00 0.13481055E+04</pdfrwt>
<pdfrwt beam="2">  1       21 0.16063419E+00 0.13481055E+04</pdfrwt>
<totfact> 0.21546411E+00</totfact>
</mgrwt>
</event>
<event>
 8    1  0.1094795E-005  0.1233037E+04  0.7818608E-02  0.8584495E-01
         21   -1    0    0  501  502  0.00000000000E+00  0.00000000000E+00  0.25762030525E+04  0.25762030525E+04  0.00000000000E+00 0. -1.
         21   -1    0    0  502  503 -0.00000000000E+00 -0.00000000000E+00 -0.99526562842E+03  0.99526562842E+03  0.00000000000E+00 0. -1.
   -9000010    2    1    2    0  503 -0.17694123090E+03 -0.69376556460E+03 -0.35509249839E+03  0.12831486933E+04  0.10038730143E+04 0.  0.
    9000010    2    1    2  501    0  0.17694123090E+03  0.69376556460E+03  0.19360299225E+04  0.22883199877E+04  0.98771334274E+03 0.  0.
        -13    1    4    4    0    0 -0.48246881018E+02  0.80795208499E+03  0.85156774632E+03  0.11748540211E+04  0.10566000000E+00 0.  1.
          4    1    4    4  501    0  0.22518811192E+03 -0.11418652039E+03  0.10844621761E+04  0.11134659666E+04  0.00000000000E+00 0.  1.
         13    1    3    3    0    0  0.34101341677E+03  0.13331454406E+02 -0.10790862334E+02  0.34144447860E+03  0.10566000000E+00 0. -1.
         -4    1    3    3    0  503 -0.51795464767E+03 -0.70709701900E+03 -0.34430163606E+03  0.94170421466E+03  0.00000000000E+00 0. -1.
<mgrwt>
<rscale>  2 0.12297436E+04</rscale>
<asrwt>0</asrwt>
<pdfrwt beam="1">  1       21 0.39633893E+00 0.12330369E+04</pdfrwt>
<pdfrwt beam="2">  1       21 0.15311779E+00 0.12330369E+04</pdfrwt>
<totfact> 0.63257632E-01</totfact>
</mgrwt>
</event>
<event>
 8    1  0.1094795E-005  0.1383715E+04  0.7818608E-02  0.8484422E-01
         21   -1    0    0  501  502  0.00000000000E+00  0.00000000000E+00  0.20991469785E+04  0.20991469785E+04  0.00000000000E+00 0. -1.
         21   -1    0    0  502  503 -0.00000000000E+00 -0.00000000000E+00 -0.97136558537E+03  0.97136558537E+03  0.00000000000E+00 0.  1.
   -9000010    2    1    2    0  503 -0.78076862791E+03 -0.53583752438E+03  0.12214916746E+03  0.13599674271E+04  0.96843661682E+03 0.  0.
    9000010    2    1    2  501    0  0.78076862791E+03  0.53583752438E+03  0.10056322257E+04  0.17105451368E+04  0.10089335899E+04 0.  0.
        -13    1    4    4    0    0  0.67732567294E+03 -0.14602547221E+03  0.53904205371E+03  0.87787234413E+03  0.10566000000E+00 0.  1.
          4    1    4    4  501    0  0.10344295496E+03  0.68186299659E+03  0.46659017199E+03  0.83267279267E+03  0.00000000000E+00 0.  1.
         13    1    3    3    0    0 -0.55237487353E+03 -0.81825247485E+03  0.13555790954E+03  0.99650944376E+03  0.10566000000E+00 0. -1.
         -4    1    3    3    0  503 -0.22839375437E+03  0.28241495047E+03 -0.13408742079E+02  0.36345798333E+03  0.00000000000E+00 0. -1.
<mgrwt>
<rscale>  2 0.13763456E+04</rscale>
<asrwt>0</asrwt>
<pdfrwt beam="1">  1       21 0.32294569E+00 0.13837155E+04</pdfrwt>
<pdfrwt beam="2">  1       21 0.14944086E+00 0.13837155E+04</pdfrwt>
<totfact> 0.21659134E+00</totfact>
</mgrwt>
</event>
<event>
 8    1  0.1094795E-005  0.1034385E+04  0.7818608E-02  0.8745920E-01
         21   -1    0    0  501  502  0.00000000000E+00  0.00000000000E+00  0.18871189360E+04  0.18871189360E+04  0.00000000000E+00 0.  1.
         21   -1    0    0  502  503 -0.00000000000E+00 -0.00000000000E+00 -0.56385512894E+03  0.56385512894E+03  0.00000000000E+00 0.  1.
   -9000010    2    1    2    0  503  0.25655638145E+03  0.71090189523E+02  0.76973522189E+03  0.12893578729E+04  0.99953810367E+03 0.  0.
    9000010    2    1    2  501    0 -0.25655638145E+03 -0.71090189523E+02  0.55352858513E+03  0.11616161920E+04  0.98594284370E+03 0.  0.
        -13    1    4    4    0    0  0.25322675484E+03  0.26466979608E+03  0.48762871272E+02  0.36952905041E+03  0.10566000000E+00 0.  1.
          4    1    4    4  501    0 -0.50978313629E+03 -0.33575998560E+03  0.50476571386E+03  0.79208714159E+03  0.00000000000E+00 0.  1.
         13    1    3    3    0    0  0.30775137068E+03  0.50019233152E+03  0.33376515021E+03  0.67550163681E+03  0.10566000000E+00 0. -1.
         -4    1    3    3    0  503 -0.51194989230E+02 -0.42910214200E+03  0.43597007168E+03  0.61385623609E+03  0.00000000000E+00 0. -1.
<mgrwt>
<rscale>  2 0.10310860E+04</rscale>
<asrwt>0</asrwt>
<pdfrwt beam="1">  1       21 0.29032599E+00 0.10343846E+04</pdfrwt>
<pdfrwt beam="2">  1       21 0.86746944E-01 0.10343846E+04</pdfrwt>
<totfact> 0.17809992E+01</totfact>
</mgrwt>
</event>
<event>
 8    1  0.1094795E-005  0.1312406E+04  0.7818608E-02  0.8526804E-01
         21   -1    0    0  503  502  0.00000000000E+00  0.00000000000E+00  0.13225461745E+04  0.13225461745E+04  0.00000000000E+00 0.  1.
         21   -1    0    0  501  503 -0.00000000000E+00 -0.00000000000E+00 -0.13068956273E+04  0.13068956273E+04  0.00000000000E+00 0. -1.
    9000010    2    1    2  501    0 -0.43554074075E+03 -0.72740910502E+03  0.10324673752E+03  0.13164610763E+04  0.10017934585E+04 0.  0.
   -9000010    2    1    2    0  502  0.43554074075E+03  0.72740910502E+03 -0.87596190312E+02  0.13129807256E+04  0.99871194562E+03 0.  0.
        -13    1    3    3    0    0 -0.69206417313E+03 -0.19507839534E+03  0.16575711688E+02  0.71922400227E+03  0.10566000000E+00 0.  1.
          4    1    3    3  501    0  0.25652343238E+03 -0.53233070968E+03  0.86671025827E+02  0.59723707399E+03  0.00000000000E+00 0.  1.
         13    1    4    4    0    0 -0.13103705058E+03 -0.87936138162E+02 -0.26107707752E+03  0.30506511533E+03  0.10566000000E+00 0. -1.
         -4    1    4    4    0  502  0.56657779133E+03  0.81534524318E+03  0.17348088721E+03  0.10079156103E+04  0.00000000000E+00 0. -1.
<mgrwt>
<rscale>  2 0.13118181E+04</rscale>
<asrwt>0</asrwt>
<pdfrwt beam="1">  1       21 0.20346864E+00 0.13124061E+04</pdfrwt>
<pdfrwt beam="2">  1       21 0.20106086E+00 0.13124061E+04</pdfrwt>
<totfact> 0.60432797E+00</totfact>
</mgrwt>
</event>
<event>
 8    1  0.1094795E-005  0.1076064E+04  0.7818608E-02  0.8706412E-01
         21   -1    0    0  503  502  0.00000000000E+00  0.00000000000E+00  0.12374236144E+04  0.12374236144E+04  0.00000000000E+00 0.  1.
         21   -1    0    0  501  503 -0.00000000000E+00 -0.00000000000E+00 -0.94365827132E+03  0.94365827132E+03  0.00000000000E+00 0.  1.
    9000010    2    1    2  501    0  0.39866588422E+03  0.67734665687E+01  0.42478405593E+02  0.10760667451E+04  0.99856640136E+03 0.  0.
   -9000010    2    1    2    0  502 -0.39866588422E+03 -0.67734665687E+01  0.25128693752E+03  0.11050151406E+04  0.99946634210E+03 0.  0.
        -13    1    3    3    0    0  0.23624959263E+03 -0.46017338453E+03 -0.16054562898E+03  0.54161639930E+03  0.10566000000E+00 0.  1.
          4    1    3    3  501    0  0.16241629159E+03  0.46694685110E+03  0.20302403457E+03  0.53445034581E+03  0.00000000000E+00 0.  1.
         13    1    4    4    0    0 -0.57778157775E+02  0.18543870314E+03 -0.34257332218E+03  0.39380492680E+03  0.10566000000E+00 0. -1.
         -4    1    4    4    0  502 -0.34088772644E+03 -0.19221216971E+03  0.59386025970E+03  0.71121021384E+03  0.00000000000E+00 0. -1.
<mgrwt>
<rscale>  2 0.10758548E+04</rscale>
<asrwt>0</asrwt>
<pdfrwt beam="1">  1       21 0.19037286E+00 0.10760638E+04</pdfrwt>
<pdfrwt beam="2">  1       21 0.14517820E+00 0.10760638E+04</pdfrwt>
<totfact> 0.23607413E+01</totfact>
</mgrwt>
</event>
<event>
 8    1  0.1094795E-005  0.1152829E+04  0.7818608E-02  0.8644797E-01
         21   -1    0    0  501  502  0.00000000000E+00  0.00000000000E+00  0.28406720892E+04  0.28406720892E+04  0.00000000000E+00 0. -1.
         21   -1    0    0  502  503 -0.00000000000E+00 -0.00000000000E+00 -0.46887599627E+03  0.46887599627E+03  0.00000000000E+00 0.  1.
   -9000010    2    1    2    0  503 -0.51984623388E+03  0.23175591747E+03  0.13482572897E+04  0.17679106551E+04  0.99184648672E+03 0.  0.
    9000010    2    1    2  501    0  0.51984623388E+03 -0.23175591747E+03  0.10235388032E+04  0.15416374303E+04  0.10025284897E+04 0.  0.
        -13    1    4    4    0    0  0.11091606140E+03 -0.59407502972E+03  0.58432427398E+03  0.84063213235E+03  0.10566000000E+00 0.  1.
          4    1    4    4  501    0  0.40893017248E+03  0.36231911224E+03  0.43921452925E+03  0.70100529796E+03  0.00000000000E+00 0.  1.
         13    1    3    3    0    0  0.20005586222E+03 -0.11593911335E+03  0.70449516843E+03  0.74146994512E+03  0.10566000000E+00 0. -1.
         -4    1    3    3    0  503 -0.71990209610E+03  0.34769503082E+03  0.64376212126E+03  0.10264407100E+04  0.00000000000E+00 0. -1.
<mgrwt>
<rscale>  2 0.11505025E+04</rscale>
<asrwt>0</asrwt>
<pdfrwt beam="1">  1       21 0.43702646E+00 0.11528288E+04</pdfrwt>
<pdfrwt beam="2">  1       21 0.72134771E-01 0.11528288E+04</pdfrwt>
<totfact> 0.25688467E+00</totfact>
</mgrwt>
</event>
<event>
 8    1  0.1094795E-005  0.1300557E+04  0.7818608E-02  0.8535414E-01
         21   -1    0    0  503  502  0.00000000000E+00  0.00000000000E+00  0.83453617061E+03  0.83453617061E+03  0.00000000000E+00 0.  1.
         21   -1    0    0  501  503 -0.00000000000E+00 -0.00000000000E+00 -0.21029289907E+04  0.21029289907E+04  0.00000000000E+00 0. -1.
    9000010    2    1    2  501    0 -0.52882354972E+03 -0.64553355358E+03 -0.92783507568E+03  0.15930592384E+04  0.99024840013E+03 0.  0.
   -9000010    2    1    2    0  502  0.52882354972E+03  0.64553355358E+03 -0.34055774445E+03  0.13444059229E+04  0.99753686284E+03 0.  0.
        -13    1    3    3    0    0  0.17610503616E+03  0.11041340262E+03 -0.35484143655E+03  0.41123783811E+03  0.10566000000E+00 0.  1.
          4    1    3    3  501    0 -0.70492858588E+03 -0.75594695620E+03 -0.57299363913E+03  0.11818214003E+04  0.00000000000E+00 0.  1.
         13    1    4    4    0    0  0.79763452387E+03  0.60263821649E+03 -0.14712157507E+03  0.10104644589E+04  0.10566000000E+00 0. -1.
         -4    1    4    4    0  502 -0.26881097416E+03  0.42895337092E+02 -0.19343616938E+03  0.33394146403E+03  0.00000000000E+00 0. -1.
<mgrwt>
<rscale>  2 0.12991590E+04</rscale>
<asrwt>0</asrwt>
<pdfrwt beam="1">  1       21 0.12839018E+00 0.13005567E+04</pdfrwt>
<pdfrwt beam="2">  1       21 0.32352753E+00 0.13005567E+04</pdfrwt>
<totfact> 0.34290521E+00</totfact>
</mgrwt>
</event>
<event>
 8    1  0.1094795E-005  0.1049338E+04  0.7818608E-02  0.8733158E-01
         21   -1    0    0  503  502  0.00000000000E+00  0.00000000000E+00  0.12557821471E+04  0.12557821471E+04  0.00000000000E+00 0.  1.
         21   -1    0    0  501  503 -0.00000000000E+00 -0.00000000000E+00 -0.12183459148E+04  0.12183459148E+04  0.00000000000E+00 0.  1.
    9000010    2    1    2  501    0 -0.33146061296E+03  0.58537870048E+02 -0.64903031613E+03  0.12201955442E+04  0.97690531515E+03 0.  0.
   -9000010    2    1    2    0  502  0.33146061296E+03 -0.58537870048E+02  0.68646654846E+03  0.12539325177E+04  0.99389014316E+03 0.  0.
        -13    1    3    3    0    0 -0.25796301062E+03  0.49966067298E+03 -0.23062093759E+03  0.60777605332E+03  0.10566000000E+00 0.  1.
          4    1    3    3  501    0 -0.73497602339E+02 -0.44112280293E+03 -0.41840937854E+03  0.61241949092E+03  0.00000000000E+00 0.  1.
         13    1    4    4    0    0  0.55434518054E+03 -0.35810547276E+03  0.54045264084E+03  0.85301065466E+03  0.10566000000E+00 0. -1.
         -4    1    4    4    0  502 -0.22288456758E+03  0.29956760271E+03  0.14601390762E+03  0.40092186306E+03  0.00000000000E+00 0. -1.
<mgrwt>
<rscale>  2 0.10452966E+04</rscale>
<asrwt>0</asrwt>
<pdfrwt beam="1">  1       21 0.19319725E+00 0.10493381E+04</pdfrwt>
<pdfrwt beam="2">  1       21 0.18743783E+00 0.10493381E+04</pdfrwt>
<totfact> 0.98659966E+00</totfact>
</mgrwt>
</event>
<event>
 8    1  0.1094795E-005  0.1058024E+04  0.7818608E-02  0.8723463E-01
         21   -1    0    0  503  502  0.00000000000E+00  0.00000000000E+00  0.98227435690E+03  0.98227435690E+03  0.00000000000E+00 0.  1.
         21   -1    0    0  501  503 -0.00000000000E+00 -0.00000000000E+00 -0.11322445267E+04  0.11322445267E+04  0.00000000000E+00 0.  1.
    9000010    2    1    2  501    0 -0.17886530737E+03 -0.28132210039E+03 -0.90301858235E+02  0.10548138660E+04  0.99666591387E+03 0.  0.
   -9000010    2    1    2    0  502  0.17886530737E+03  0.28132210039E+03 -0.59668311567E+02  0.10597050176E+04  0.10041312139E+04 0.  0.
        -13    1    3    3    0    0  0.36928382617E+03 -0.35387199136E+02  0.15994611082E+03  0.40398708849E+03  0.10566000000E+00 0.  1.
          4    1    3    3  501    0 -0.54814913354E+03 -0.24593490125E+03 -0.25024796906E+03  0.65082677747E+03  0.00000000000E+00 0.  1.
         13    1    4    4    0    0  0.52291927548E+03  0.38029788379E+03  0.12238928113E+03  0.65806549551E+03  0.10566000000E+00 0. -1.
         -4    1    4    4    0  502 -0.34405396811E+03 -0.98975783397E+02 -0.18205759270E+03  0.40163952212E+03  0.00000000000E+00 0. -1.
<mgrwt>
<rscale>  2 0.10562488E+04</rscale>
<asrwt>0</asrwt>
<pdfrwt beam="1">  1       21 0.15111913E+00 0.10580238E+04</pdfrwt>
<pdfrwt beam="2">  1       21 0.17419147E+00 0.10580238E+04</pdfrwt>
<totfact> 0.28367016E+01</totfact>
</mgrwt>
</event>
<event>
 8    1  0.1094795E-005  0.1110503E+04  0.7818608E-02  0.8681053E-01
         21   -1    0    0  503  502  0.00000000000E+00  0.00000000000E+00  0.22550137185E+04  0.22550137185E+04  0.00000000000E+00 0. -1.
         21   -1    0    0  501  503 -0.00000000000E+00 -0.00000000000E+00 -0.53785953220E+03  0.53785953220E+03  0.00000000000E+00 0. -1.
    9000010    2    1    2  501    0 -0.40916573137E+03 -0.26505575143E+03  0.85000137542E+03  0.13984699606E+04  0.99776988597E+03 0.  0.
   -9000010    2    1    2    0  502  0.40916573137E+03  0.26505575143E+03  0.86715281087E+03  0.13944032901E+04  0.97710561915E+03 0.  0.
        -13    1    3    3    0    0  0.22881015663E+03 -0.12854019292E+03 -0.69065379190E+02  0.27137926733E+03  0.10566000000E+00 0.  1.
          4    1    3    3  501    0 -0.63797588800E+03 -0.13651555851E+03  0.91906675461E+03  0.11270906933E+04  0.00000000000E+00 0.  1.
         13    1    4    4    0    0  0.77085846833E+02  0.30159557136E+02 -0.21924701413E+03  0.23435249313E+03  0.10566000000E+00 0. -1.
         -4    1    4    4    0  502  0.33207988454E+03  0.23489619430E+03  0.10863998250E+04  0.11600507970E+04  0.00000000000E+00 0. -1.
<mgrwt>
<rscale>  2 0.11058411E+04</rscale>
<asrwt>0</asrwt>
<pdfrwt beam="1">  1       21 0.34692518E+00 0.11105025E+04</pdfrwt>
<pdfrwt beam="2">  1       21 0.82747622E-01 0.11105025E+04</pdfrwt>
<totfact> 0.78780816E+00</totfact>
</mgrwt>
</event>
<event>
 8    1  0.1094795E-005  0.1778785E+04  0.7818608E-02  0.8265534E-01
         21   -1    0    0  501  502  0.00000000000E+00  0.00000000000E+00  0.13881031321E+04  0.13881031321E+04  0.00000000000E+00 0. -1.
         21   -1    0    0  502  503 -0.00000000000E+00 -0.00000000000E+00 -0.26243684930E+04  0.26243684930E+04  0.00000000000E+00 0.  1.
   -9000010    2    1    2    0  503  0.13007059459E+04  0.69345118305E+03  0.11526186700E+03  0.17825155018E+04  0.99567349837E+03 0.  0.
    9000010    2    1    2  501    0 -0.13007059459E+04 -0.69345118305E+03 -0.13515272279E+04  0.22299561233E+04  0.98659412283E+03 0.  0.
        -13    1    4    4    0    0 -0.11237327815E+04 -0.93623288887E+03 -0.12080281494E+04  0.18970080146E+04  0.10566000000E+00 0.  1.
          4    1    4    4  501    0 -0.17697316441E+03  0.24278170581E+03 -0.14349907851E+03  0.33294810876E+03  0.00000000000E+00 0.  1.
         13    1    3    3    0    0  0.96770171090E+03  0.15778679061E+03  0.43816068913E+03  0.10739311306E+04  0.10566000000E+00 0. -1.
         -4    1    3    3    0  503  0.33300423499E+03  0.53566439244E+03 -0.32289882213E+03  0.70858437125E+03  0.00000000000E+00 0. -1.
<mgrwt>
<rscale>  2 0.17775171E+04</rscale>
<asrwt>0</asrwt>
<pdfrwt beam="1">  1       21 0.21355433E+00 0.17787850E+04</pdfrwt>
<pdfrwt beam="2">  1       21 0.40374899E+00 0.17787850E+04</pdfrwt>
<totfact> 0.16322278E-01</totfact>
</mgrwt>
</event>
<event>
 8    1  0.1094795E-005  0.1169407E+04  0.7818608E-02  0.8644406E-01
         21   -1    0    0  503  502  0.00000000000E+00  0.00000000000E+00  0.88148551772E+03  0.88148551772E+03  0.00000000000E+00 0. -1.
         21   -1    0    0  501  503 -0.00000000000E+00 -0.00000000000E+00 -0.14574357386E+04  0.14574357386E+04  0.00000000000E+00 0. -1.
    9000010    2    1    2  501    0  0.17879370967E+03 -0.60575174856E+03 -0.29454415925E+03  0.12059305237E+04  0.98417975738E+03 0.  0.
   -9000010    2    1    2    0  502 -0.17879370967E+03  0.60575174856E+03 -0.28140606158E+03  0.11329907325E+04  0.89753900028E+03 0.  0.
        -13    1    3    3    0    0  0.28198340065E+03 -0.40044035710E+03  0.29599632663E+03  0.57225951664E+03  0.10566000000E+00 0.  1.
          4    1    3    3  501    0 -0.10318969098E+03 -0.20531139146E+03 -0.59054048588E+03  0.63367100710E+03  0.00000000000E+00 0.  1.
         13    1    4    4    0    0  0.27373626246E+03 -0.27922787771E+02  0.61845768820E+02  0.28202151292E+03  0.10566000000E+00 0. -1.
         -4    1    4    4    0  502 -0.45252997213E+03  0.63367453633E+03 -0.34325183040E+03  0.85096921962E+03  0.00000000000E+00 0. -1.
<mgrwt>
<rscale>  2 0.11509967E+04</rscale>
<asrwt>0</asrwt>
<pdfrwt beam="1">  1       21 0.13561316E+00 0.11694068E+04</pdfrwt>
<pdfrwt beam="2">  1       21 0.22422088E+00 0.11694068E+04</pdfrwt>
<totfact> 0.15554452E+01</totfact>
</mgrwt>
</event>
<event>
 8    1  0.1094795E-005  0.1522521E+04  0.7818608E-02  0.8396804E-01
         21   -1    0    0  503  502  0.00000000000E+00  0.00000000000E+00  0.16029976871E+04  0.16029976871E+04  0.00000000000E+00 0. -1.
         21   -1    0    0  501  503 -0.00000000000E+00 -0.00000000000E+00 -0.15264567929E+04  0.15264567929E+04  0.00000000000E+00 0. -1.
    9000010    2    1    2  501    0 -0.11353886738E+04  0.82673474145E+02 -0.32299199896E+03  0.15564040240E+04  0.10110031210E+04 0.  0.
   -9000010    2    1    2    0  502  0.11353886738E+04 -0.82673474145E+02  0.39953289318E+03  0.15730504559E+04  0.10094151080E+04 0.  0.
        -13    1    3    3    0    0 -0.12912343541E+04  0.19672087225E+03 -0.37023089989E+03  0.13575920555E+04  0.10566000000E+00 0.  1.
          4    1    3    3  501    0  0.15584568028E+03 -0.11404739810E+03  0.47238900930E+02  0.19881196855E+03  0.00000000000E+00 0.  1.
         13    1    4    4    0    0  0.10282326491E+04  0.32799133724E+03  0.39294463563E+03  0.11485844313E+04  0.10566000000E+00 0. -1.
         -4    1    4    4    0  502  0.10715602473E+03 -0.41066481139E+03  0.65882575437E+01  0.42446602465E+03  0.00000000000E+00 0. -1.
<mgrwt>
<rscale>  2 0.15222572E+04</rscale>
<asrwt>0</asrwt>
<pdfrwt beam="1">  1       21 0.24661503E+00 0.15225208E+04</pdfrwt>
<pdfrwt beam="2">  1       21 0.23483950E+00 0.15225208E+04</pdfrwt>
<totfact> 0.15230132E+00</totfact>
</mgrwt>
</event>
<event>
 8    1  0.1094795E-005  0.1313853E+04  0.7818608E-02  0.8582171E-01
         21   -1    0    0  503  502  0.00000000000E+00  0.00000000000E+00  0.23016194633E+04  0.23016194633E+04  0.00000000000E+00 0. -1.
         21   -1    0    0  501  503 -0.00000000000E+00 -0.00000000000E+00 -0.59462797024E+03  0.59462797024E+03  0.00000000000E+00 0. -1.
    9000010    2    1    2  501    0  0.19285309408E+03  0.18918171082E+03  0.85762334759E+03  0.13317548385E+04  0.98238032748E+03 0.  0.
   -9000010    2    1    2    0  502 -0.19285309408E+03 -0.18918171082E+03  0.84936814544E+03  0.15644925950E+04  0.12857794515E+04 0.  0.
        -13    1    3    3    0    0  0.48745010265E+02  0.53144981951E+03  0.79139570251E+03  0.95452718966E+03  0.10566000000E+00 0.  1.
          4    1    3    3  501    0  0.14410808381E+03 -0.34226810869E+03  0.66227645072E+02  0.37722764880E+03  0.00000000000E+00 0.  1.
         13    1    4    4    0    0 -0.84470269190E+02  0.10809842019E+02 -0.34156971171E+03  0.35202550785E+03  0.10566000000E+00 0. -1.
         -4    1    4    4    0  502 -0.10838282489E+03 -0.19999155284E+03  0.11909378571E+04  0.12124670872E+04  0.00000000000E+00 0. -1.
<mgrwt>
<rscale>  2 0.12329278E+04</rscale>
<asrwt>0</asrwt>
<pdfrwt beam="1">  1       21 0.35409530E+00 0.13138534E+04</pdfrwt>
<pdfrwt beam="2">  1       21 0.91481227E-01 0.13138534E+04</pdfrwt>
<totfact> 0.52260678E+00</totfact>
</mgrwt>
</event>
<event>
 8    1  0.1094795E-005  0.1037279E+04  0.7818608E-02  0.8742458E-01
         21   -1    0    0  501  502  0.00000000000E+00  0.00000000000E+00  0.39854088827E+03  0.39854088827E+03  0.00000000000E+00 0. -1.
         21   -1    0    0  502  503 -0.00000000000E+00 -0.00000000000E+00 -0.27087270888E+04  0.27087270888E+04  0.00000000000E+00 0. -1.
   -9000010    2    1    2    0  503  0.57328153800E+02 -0.28010939743E+03 -0.13329541997E+04  0.16889982462E+04  0.99709597600E+03 0.  0.
    9000010    2    1    2  501    0 -0.57328153800E+02  0.28010939743E+03 -0.97723200079E+03  0.14182697308E+04  0.98729876650E+03 0.  0.
        -13    1    4    4    0    0  0.15099701059E+03  0.27566644746E+03 -0.11215760601E+04  0.11647853696E+04  0.10566000000E+00 0.  1.
          4    1    4    4  501    0 -0.20832516439E+03  0.44429499685E+01  0.14434405934E+03  0.25348436123E+03  0.00000000000E+00 0.  1.
         13    1    3    3    0    0  0.13777558541E+03 -0.29833630612E+03  0.24047396399E+02  0.32949196033E+03  0.10566000000E+00 0. -1.
         -4    1    3    3    0  503 -0.80447431612E+02  0.18226908690E+02 -0.13570015961E+04  0.13595062859E+04  0.00000000000E+00 0. -1.
<mgrwt>
<rscale>  2 0.10349176E+04</rscale>
<asrwt>0</asrwt>
<pdfrwt beam="1">  1       21 0.61313983E-01 0.10372792E+04</pdfrwt>
<pdfrwt beam="2">  1       21 0.41672724E+00 0.10372792E+04</pdfrwt>
<totfact> 0.53207394E+00</totfact>
</mgrwt>
</event>
<event>
 8    1  0.1094795E-005  0.1035108E+04  0.7818608E-02  0.8742994E-01
         21   -1    0    0  503  502  0.00000000000E+00  0.00000000000E+00  0.10869229299E+04  0.10869229299E+04  0.00000000000E+00 0.  1.
         21   -1    0    0  501  503 -0.00000000000E+00 -0.00000000000E+00 -0.98439540603E+03  0.98439540603E+03  0.00000000000E+00 0.  1.
    9000010    2    1    2  501    0 -0.27884844097E+03  0.23405089442E+02  0.92094218786E+01  0.10320127625E+04  0.99330824889E+03 0.  0.
   -9000010    2    1    2    0  502  0.27884844097E+03 -0.23405089442E+02  0.93318101949E+02  0.10393055734E+04  0.99656588113E+03 0.  0.
        -13    1    3    3    0    0  0.89006886613E+02 -0.27021319162E+03  0.34991250230E+03  0.45097246614E+03  0.10566000000E+00 0.  1.
          4    1    3    3  501    0 -0.36785532758E+03  0.29361828106E+03 -0.34070308042E+03  0.58104029637E+03  0.00000000000E+00 0.  1.
         13    1    4    4    0    0  0.43669408865E+03 -0.35071882977E+03 -0.17589122722E+03  0.58706316491E+03  0.10566000000E+00 0. -1.
         -4    1    4    4    0  502 -0.15784564768E+03  0.32731374033E+03  0.26920932916E+03  0.45224240846E+03  0.00000000000E+00 0. -1.
<mgrwt>
<rscale>  2 0.10343227E+04</rscale>
<asrwt>0</asrwt>
<pdfrwt beam="1">  1       21 0.16721891E+00 0.10351076E+04</pdfrwt>
<pdfrwt beam="2">  1       21 0.15144545E+00 0.10351076E+04</pdfrwt>
<totfact> 0.32393799E+01</totfact>
</mgrwt>
</event>
<event>
 8    1  0.1094795E-005  0.1049259E+04  0.7818608E-02  0.8735960E-01
         21   -1    0    0  501  502  0.00000000000E+00  0.00000000000E+00  0.83209100238E+03  0.83209100238E+03  0.00000000000E+00 0. -1.
         21   -1    0    0  502  503 -0.00000000000E+00 -0.00000000000E+00 -0.12985071587E+04  0.12985071587E+04  0.00000000000E+00 0. -1.
   -9000010    2    1    2    0  503 -0.67002551164E+02  0.26655043703E+03 -0.13998622981E+03  0.10585560774E+04  0.10126234972E+04 0.  0.
    9000010    2    1    2  501    0  0.67002551164E+02 -0.26655043703E+03 -0.32642992649E+03  0.10720420837E+04  0.98345272124E+03 0.  0.
        -13    1    4    4    0    0  0.74037519893E+02 -0.53344758887E+03  0.12009102854E+03  0.55178777689E+03  0.10566000000E+00 0.  1.
          4    1    4    4  501    0 -0.70349687288E+01  0.26689715184E+03 -0.44652095503E+03  0.52025430678E+03  0.00000000000E+00 0.  1.
         13    1    3    3    0    0  0.31488276845E+03  0.45190892708E+03 -0.27161515333E+03  0.61412347205E+03  0.10566000000E+00 0. -1.
         -4    1    3    3    0  503 -0.38188531962E+03 -0.18535849004E+03  0.13162892352E+03  0.44443260533E+03  0.00000000000E+00 0. -1.
<mgrwt>
<rscale>  2 0.10421565E+04</rscale>
<asrwt>0</asrwt>
<pdfrwt beam="1">  1       21 0.12801400E+00 0.10492592E+04</pdfrwt>
<pdfrwt beam="2">  1       21 0.19977033E+00 0.10492592E+04</pdfrwt>
<totfact> 0.29015408E+01</totfact>
</mgrwt>
</event>
<event>
 8    1  0.1094795E-005  0.1326409E+04  0.7818608E-02  0.8527693E-01
         21   -1    0    0  501  502  0.00000000000E+00  0.00000000000E+00  0.33766989874E+04  0.33766989874E+04  0.00000000000E+00 0.  1.
         21   -1    0    0  502  503 -0.00000000000E+00 -0.00000000000E+00 -0.52162431683E+03  0.52162431683E+03  0.00000000000E+00 0.  1.
   -9000010    2    1    2    0  503  0.42725349365E+03  0.73884215419E+03  0.96942740155E+03  0.15928889117E+04  0.93224048480E+03 0.  0.
    9000010    2    1    2  501    0 -0.42725349365E+03 -0.73884215419E+03  0.18856472690E+04  0.23054343925E+04  0.10153466592E+04 0.  0.
        -13    1    4    4    0    0 -0.60435499715E+03 -0.10546382406E+03  0.12417660077E+04  0.13850452736E+04  0.10566000000E+00 0.  1.
          4    1    4    4  501    0  0.17710150350E+03 -0.63337833013E+03  0.64388126125E+03  0.92038911891E+03  0.00000000000E+00 0.  1.
         13    1    3    3    0    0  0.11744930629E+03 -0.20806056277E+02 -0.15837219392E+03  0.19826496034E+03  0.10566000000E+00 0. -1.
         -4    1    3    3    0  503  0.30980418736E+03  0.75964821046E+03  0.11277995955E+04  0.13946239514E+04  0.00000000000E+00 0. -1.
<mgrwt>
<rscale>  2 0.13105045E+04</rscale>
<asrwt>0</asrwt>
<pdfrwt beam="1">  1       21 0.51949214E+00 0.13264095E+04</pdfrwt>
<pdfrwt beam="2">  1       21 0.80249897E-01 0.13264095E+04</pdfrwt>
<totfact> 0.51166900E-01</totfact>
</mgrwt>
</event>
<event>
 8    1  0.1094795E-005  0.1016124E+04  0.7818608E-02  0.8763754E-01
         21   -1    0    0  501  502  0.00000000000E+00  0.00000000000E+00  0.18185348320E+04  0.18185348320E+04  0.00000000000E+00 0.  1.
         21   -1    0    0  502  503 -0.00000000000E+00 -0.00000000000E+00 -0.56653432746E+03  0.56653432746E+03  0.00000000000E+00 0.  1.
   -9000010    2    1    2    0  503  0.11569404781E+03  0.19450333457E+03  0.48343723058E+03  0.11252645428E+04  0.99060187536E+03 0.  0.
    9000010    2    1    2  501    0 -0.11569404781E+03 -0.19450333457E+03  0.76856327395E+03  0.12598046167E+04  0.97221474287E+03 0.  0.
        -13    1    4    4    0    0  0.13323515722E+03  0.26873203851E+03  0.65698190068E+03  0.72221447274E+03  0.10566000000E+00 0.  1.
          4    1    4    4  501    0 -0.24892920503E+03 -0.46323537308E+03  0.11158137327E+03  0.53759014393E+03  0.00000000000E+00 0.  1.
         13    1    3    3    0    0  0.38297864220E+02 -0.27198583739E+03 -0.16673872875E+03  0.32131734621E+03  0.10566000000E+00 0. -1.
         -4    1    3    3    0  503  0.77396183590E+02  0.46648917196E+03  0.65017595932E+03  0.80394719657E+03  0.00000000000E+00 0. -1.
<mgrwt>
<rscale>  2 0.10116152E+04</rscale>
<asrwt>0</asrwt>
<pdfrwt beam="1">  1       21 0.27977459E+00 0.10161244E+04</pdfrwt>
<pdfrwt beam="2">  1       21 0.87159128E-01 0.10161244E+04</pdfrwt>
<totfact> 0.20995705E+01</totfact>
</mgrwt>
</event>
<event>
 8    1  0.1094795E-005  0.1176068E+04  0.7818608E-02  0.8625865E-01
         21   -1    0    0  503  502  0.00000000000E+00  0.00000000000E+00  0.73137652979E+03  0.73137652979E+03  0.00000000000E+00 0.  1.
         21   -1    0    0  501  503 -0.00000000000E+00 -0.00000000000E+00 -0.21098100823E+04  0.21098100823E+04  0.00000000000E+00 0.  1.
    9000010    2    1    2  501    0 -0.62283921893E+03 -0.50926689986E+02 -0.11542355050E+04  0.16439398228E+04  0.98982640893E+03 0.  0.
   -9000010    2    1    2    0  502  0.62283921893E+03  0.50926689986E+02 -0.22419804752E+03  0.11972467892E+04  0.99629959823E+03 0.  0.
        -13    1    3    3    0    0 -0.23910935233E+03  0.24028614831E+03  0.53958979001E+02  0.34325252806E+03  0.10566000000E+00 0.  1.
          4    1    3    3  501    0 -0.38372986660E+03 -0.29121283830E+03 -0.12081944840E+04  0.13006872948E+04  0.00000000000E+00 0.  1.
         13    1    4    4    0    0  0.59987322553E+03 -0.13815727004E+03  0.26656664270E+03  0.67081525336E+03  0.10566000000E+00 0. -1.
         -4    1    4    4    0  502  0.22965993402E+02  0.18908396003E+03 -0.49076469023E+03  0.52643153588E+03  0.00000000000E+00 0. -1.
<mgrwt>
<rscale>  2 0.11746956E+04</rscale>
<asrwt>0</asrwt>
<pdfrwt beam="1">  1       21 0.11251947E+00 0.11760676E+04</pdfrwt>
<pdfrwt beam="2">  1       21 0.32458616E+00 0.11760676E+04</pdfrwt>
<totfact> 0.50069512E+00</totfact>
</mgrwt>
</event>
<event>
 8    1  0.1094795E-005  0.1674364E+04  0.7818608E-02  0.8316665E-01
         21   -1    0    0  501  502  0.00000000000E+00  0.00000000000E+00  0.11863133113E+04  0.11863133113E+04  0.00000000000E+00 0.  1.
         21   -1    0    0  502  503 -0.00000000000E+00 -0.00000000000E+00 -0.23611968413E+04  0.23611968413E+04  0.00000000000E+00 0. -1.
   -9000010    2    1    2    0  503 -0.23301777001E+03 -0.13149690002E+04 -0.69960909468E+03  0.18146482375E+04  0.10099775184E+04 0.  0.
    9000010    2    1    2  501    0  0.23301777001E+03  0.13149690002E+04 -0.47527443537E+03  0.17328619151E+04  0.99673661284E+03 0.  0.
        -13    1    4    4    0    0 -0.70467884681E+02  0.78436276695E+03 -0.72700893307E+03  0.10717894723E+04  0.10566000000E+00 0.  1.
          4    1    4    4  501    0  0.30348565469E+03  0.53060623324E+03  0.25173449770E+03  0.66107244285E+03  0.00000000000E+00 0.  1.
         13    1    3    3    0    0 -0.38124474920E+03 -0.88988596307E+03  0.17117714507E+02  0.96826525982E+03  0.10566000000E+00 0. -1.
         -4    1    3    3    0  503  0.14822697918E+03 -0.42508303713E+03 -0.71672680919E+03  0.84638297763E+03  0.00000000000E+00 0. -1.
<mgrwt>
<rscale>  2 0.16723722E+04</rscale>
<asrwt>0</asrwt>
<pdfrwt beam="1">  1       21 0.18250974E+00 0.16743642E+04</pdfrwt>
<pdfrwt beam="2">  1       21 0.36326105E+00 0.16743642E+04</pdfrwt>
<totfact> 0.56003795E-01</totfact>
</mgrwt>
</event>
<event>
 8    1  0.1094795E-005  0.1214968E+04  0.7818608E-02  0.8598219E-01
         21   -1    0    0  503  502  0.00000000000E+00  0.00000000000E+00  0.13217105139E+04  0.13217105139E+04  0.00000000000E+00 0.  1.
         21   -1    0    0  501  503 -0.00000000000E+00 -0.00000000000E+00 -0.11141365631E+04  0.11141365631E+04  0.00000000000E+00 0.  1.
    9000010    2    1    2  501    0 -0.83644093515E+02  0.66048259287E+03 -0.17932852821E+02  0.12150998459E+04  0.10163230089E+04 0.  0.
   -9000010    2    1    2    0  502  0.83644093515E+02 -0.66048259287E+03  0.22550680356E+03  0.12207472311E+04  0.99806657787E+03 0.  0.
        -13    1    3    3    0    0 -0.53892913633E+03  0.31183515477E+03  0.97272626678E+02  0.63019659853E+03  0.10566000000E+00 0.  1.
          4    1    3    3  501    0  0.45528504282E+03  0.34864743811E+03 -0.11520547950E+03  0.58490324740E+03  0.00000000000E+00 0.  1.
         13    1    4    4    0    0 -0.92170976211E+02 -0.56344519934E+03 -0.30940499150E+03  0.64938235381E+03  0.10566000000E+00 0. -1.
         -4    1    4    4    0  502  0.17581506973E+03 -0.97037393536E+02  0.53491179505E+03  0.57136487727E+03  0.00000000000E+00 0. -1.
<mgrwt>
<rscale>  2 0.12111420E+04</rscale>
<asrwt>0</asrwt>
<pdfrwt beam="1">  1       21 0.20334008E+00 0.12149675E+04</pdfrwt>
<pdfrwt beam="2">  1       21 0.17140562E+00 0.12149675E+04</pdfrwt>
<totfact> 0.10718546E+01</totfact>
</mgrwt>
</event>
<event>
 8    1  0.1094795E-005  0.1250586E+04  0.7818608E-02  0.8572536E-01
         21   -1    0    0  501  502  0.00000000000E+00  0.00000000000E+00  0.15427140214E+04  0.15427140214E+04  0.00000000000E+00 0.  1.
         21   -1    0    0  502  503 -0.00000000000E+00 -0.00000000000E+00 -0.10234882331E+04  0.10234882331E+04  0.00000000000E+00 0.  1.
   -9000010    2    1    2    0  503 -0.73470941708E+03  0.26508395007E+02  0.45308643206E+03  0.13138683704E+04  0.99018289085E+03 0.  0.
    9000010    2    1    2  501    0  0.73470941708E+03 -0.26508395007E+02  0.66139356215E+02  0.12523338841E+04  0.10116645295E+04 0.  0.
        -13    1    4    4    0    0 -0.18578574915E+03 -0.12452738107E+01  0.25183840787E+03  0.31295445378E+03  0.10566000000E+00 0.  1.
          4    1    4    4  501    0  0.92049516624E+03 -0.25263121196E+02 -0.18569905166E+03  0.93937943034E+03  0.00000000000E+00 0.  1.
         13    1    3    3    0    0  0.16799624795E+01  0.29903144024E+03  0.43573569033E+03  0.52847727246E+03  0.10566000000E+00 0. -1.
         -4    1    3    3    0  503 -0.73638937956E+03 -0.27252304523E+03  0.17350741732E+02  0.78539109796E+03  0.00000000000E+00 0. -1.
<mgrwt>
<rscale>  2 0.12462353E+04</rscale>
<asrwt>0</asrwt>
<pdfrwt beam="1">  1       21 0.23734062E+00 0.12505862E+04</pdfrwt>
<pdfrwt beam="2">  1       21 0.15745973E+00 0.12505862E+04</pdfrwt>
<totfact> 0.77462895E+00</totfact>
</mgrwt>
</event>
<event>
 8    1  0.1094795E-005  0.1156212E+04  0.7818608E-02  0.8640897E-01
         21   -1    0    0  501  502  0.00000000000E+00  0.00000000000E+00  0.11505225296E+04  0.11505225296E+04  0.00000000000E+00 0.  1.
         21   -1    0    0  502  503 -0.00000000000E+00 -0.00000000000E+00 -0.12007192439E+04  0.12007192439E+04  0.00000000000E+00 0.  1.
   -9000010    2    1    2    0  503 -0.34899510774E+03 -0.46194643719E+03  0.19448520650E+03  0.11724553787E+04  0.10008171778E+04 0.  0.
    9000010    2    1    2  501    0  0.34899510774E+03  0.46194643719E+03 -0.24468192085E+03  0.11787863948E+04  0.99723418819E+03 0.  0.
        -13    1    4    4    0    0  0.43764479540E+03  0.75273627876E+02  0.27701671884E+03  0.52339025562E+03  0.10566000000E+00 0.  1.
          4    1    4    4  501    0 -0.88649687660E+02  0.38667280932E+03 -0.52169863970E+03  0.65539613918E+03  0.00000000000E+00 0.  1.
         13    1    3    3    0    0 -0.64178229269E+03 -0.41742312375E+02  0.84946887382E+02  0.64872406823E+03  0.10566000000E+00 0. -1.
         -4    1    3    3    0  503  0.29278718495E+03 -0.42020412482E+03  0.10953831912E+03  0.52373131045E+03  0.00000000000E+00 0. -1.
<mgrwt>
<rscale>  2 0.11554366E+04</rscale>
<asrwt>0</asrwt>
<pdfrwt beam="1">  1       21 0.17700347E+00 0.11562124E+04</pdfrwt>
<pdfrwt beam="2">  1       21 0.18472604E+00 0.11562124E+04</pdfrwt>
<totfact> 0.13687486E+01</totfact>
</mgrwt>
</event>
<event>
 8    1  0.1094795E-005  0.1116871E+04  0.7818608E-02  0.8681164E-01
         21   -1    0    0  501  502  0.00000000000E+00  0.00000000000E+00  0.12319758671E+04  0.12319758671E+04  0.00000000000E+00 0. -1.
         21   -1    0    0  502  503 -0.00000000000E+00 -0.00000000000E+00 -0.98867665533E+03  0.98867665533E+03  0.00000000000E+00 0. -1.
   -9000010    2    1    2    0  503  0.38018898849E+03  0.43085089464E+02  0.25886996068E+03  0.11036732746E+04  0.10023377917E+04 0.  0.
    9000010    2    1    2  501    0 -0.38018898849E+03 -0.43085089464E+02 -0.15570748928E+02  0.11169792478E+04  0.10492855664E+04 0.  0.
        -13    1    4    4    0    0 -0.21782236857E+03 -0.54207380374E+03 -0.74534290559E+02  0.58893629926E+03  0.10566000000E+00 0.  1.
          4    1    4    4  501    0 -0.16236661992E+03  0.49898871427E+03  0.58963541631E+02  0.52804294852E+03  0.00000000000E+00 0.  1.
         13    1    3    3    0    0 -0.17093113283E+03 -0.35429528764E+03  0.88991135231E+02  0.40331381867E+03  0.10566000000E+00 0. -1.
         -4    1    3    3    0  503  0.55112012133E+03  0.39738037710E+03  0.16987882545E+03  0.70035945597E+03  0.00000000000E+00 0. -1.
<mgrwt>
<rscale>  2 0.11057079E+04</rscale>
<asrwt>0</asrwt>
<pdfrwt beam="1">  1       21 0.18953475E+00 0.11168707E+04</pdfrwt>
<pdfrwt beam="2">  1       21 0.15210410E+00 0.11168707E+04</pdfrwt>
<totfact> 0.20595237E+01</totfact>
</mgrwt>
</event>
<event>
 8    1  0.1094795E-005  0.1096379E+04  0.7818608E-02  0.8692676E-01
         21   -1    0    0  503  502  0.00000000000E+00  0.00000000000E+00  0.74796642105E+03  0.74796642105E+03  0.00000000000E+00 0.  1.
         21   -1    0    0  501  503 -0.00000000000E+00 -0.00000000000E+00 -0.16161945529E+04  0.16161945529E+04  0.00000000000E+00 0.  1.
    9000010    2    1    2  501    0  0.26272841442E+03 -0.34093009442E+03 -0.26436259572E+03  0.11278005940E+04  0.10083585914E+04 0.  0.
   -9000010    2    1    2    0  502 -0.26272841442E+03  0.34093009442E+03 -0.60386553613E+03  0.12363603799E+04  0.98927946220E+03 0.  0.
        -13    1    3    3    0    0 -0.44738203612E+01 -0.64954050459E+03 -0.15560805325E+02  0.64974228121E+03  0.10566000000E+00 0.  1.
          4    1    3    3  501    0  0.26720223478E+03  0.30861041016E+03 -0.24880179040E+03  0.47805831280E+03  0.00000000000E+00 0.  1.
         13    1    4    4    0    0 -0.77491772100E+02 -0.10744657440E+03 -0.72445217165E+03  0.73646500342E+03  0.10566000000E+00 0. -1.
         -4    1    4    4    0  502 -0.18523664232E+03  0.44837666882E+03  0.12058663552E+03  0.49989537652E+03  0.00000000000E+00 0. -1.
<mgrwt>
<rscale>  2 0.10919720E+04</rscale>
<asrwt>0</asrwt>
<pdfrwt beam="1">  1       21 0.11507176E+00 0.10963789E+04</pdfrwt>
<pdfrwt beam="2">  1       21 0.24864532E+00 0.10963789E+04</pdfrwt>
<totfact> 0.16641107E+01</totfact>
</mgrwt>
</event>
<event>
 8    1  0.1094795E-005  0.1233054E+04  0.7818608E-02  0.8585368E-01
         21   -1    0    0  503  502  0.00000000000E+00  0.00000000000E+00  0.10017240222E+04  0.10017240222E+04  0.00000000000E+00 0.  1.
         21   -1    0    0  501  503 -0.00000000000E+00 -0.00000000000E+00 -0.15809148399E+04  0.15809148399E+04  0.00000000000E+00 0.  1.
    9000010    2    1    2  501    0  0.56390156809E+03 -0.40789426363E+03 -0.58715731947E+03  0.13495594638E+04  0.99608951389E+03 0.  0.
   -9000010    2    1    2    0  502 -0.56390156809E+03  0.40789426363E+03  0.79665017124E+01  0.12330793983E+04  0.10178696521E+04 0.  0.
        -13    1    3    3    0    0  0.23264418205E+03  0.31148244238E+03 -0.48568472108E+02  0.39179527179E+03  0.10566000000E+00 0.  1.
          4    1    3    3  501    0  0.33125738604E+03 -0.71937670601E+03 -0.53858884736E+03  0.95776419199E+03  0.00000000000E+00 0.  1.
         13    1    4    4    0    0 -0.25180401024E+03  0.19877121957E+03  0.51214489205E+03  0.60432413399E+03  0.10566000000E+00 0. -1.
         -4    1    4    4    0  502 -0.31209755785E+03  0.20912304406E+03 -0.50417839034E+03  0.62875526436E+03  0.00000000000E+00 0. -1.
<mgrwt>
<rscale>  2 0.12285498E+04</rscale>
<asrwt>0</asrwt>
<pdfrwt beam="1">  1       21 0.15411139E+00 0.12330537E+04</pdfrwt>
<pdfrwt beam="2">  1       21 0.24321767E+00 0.12330537E+04</pdfrwt>
<totfact> 0.75289914E+00</totfact>
</mgrwt>
</event>
<event>
 8    1  0.1094795E-005  0.1049802E+04  0.7818608E-02  0.8732936E-01
         21   -1    0    0  501  502  0.00000000000E+00  0.00000000000E+00  0.26698413067E+04  0.26698413067E+04  0.00000000000E+00 0.  1.
         21   -1    0    0  502  503 -0.00000000000E+00 -0.00000000000E+00 -0.41316404301E+03  0.41316404301E+03  0.00000000000E+00 0.  1.
   -9000010    2    1    2    0  503  0.32286728331E+03  0.11448147874E+03  0.91866161430E+03  0.13823084967E+04  0.97441691628E+03 0.  0.
    9000010    2    1    2  501    0 -0.32286728331E+03 -0.11448147874E+03  0.13380156494E+04  0.17006968531E+04  0.99233795472E+03 0.  0.
        -13    1    4    4    0    0  0.35757771227E+03 -0.12921931047E+01  0.40297071915E+03  0.53874753060E+03  0.10566000000E+00 0.  1.
          4    1    4    4  501    0 -0.68044499558E+03 -0.11318928563E+03  0.93504493025E+03  0.11619493225E+04  0.00000000000E+00 0.  1.
         13    1    3    3    0    0 -0.62887056463E+02  0.44901078023E+03  0.18779504978E+03  0.49074683343E+03  0.10566000000E+00 0. -1.
         -4    1    3    3    0  503  0.38575433977E+03 -0.33452930149E+03  0.73086656452E+03  0.89156166323E+03  0.00000000000E+00 0. -1.
<mgrwt>
<rscale>  2 0.10455451E+04</rscale>
<asrwt>0</asrwt>
<pdfrwt beam="1">  1       21 0.41074481E+00 0.10498018E+04</pdfrwt>
<pdfrwt beam="2">  1       21 0.63563701E-01 0.10498018E+04</pdfrwt>
<totfact> 0.53691716E+00</totfact>
</mgrwt>
</event>
<event>
 8    1  0.1094795E-005  0.1149774E+04  0.7818608E-02  0.8666122E-01
         21   -1    0    0  501  502  0.00000000000E+00  0.00000000000E+00  0.10522907888E+04  0.10522907888E+04  0.00000000000E+00 0. -1.
         21   -1    0    0  502  503 -0.00000000000E+00 -0.00000000000E+00 -0.11496575202E+04  0.11496575202E+04  0.00000000000E+00 0. -1.
   -9000010    2    1    2    0  503  0.21670501220E+03 -0.51221976604E+03 -0.41214501172E+02  0.10508035438E+04  0.89059491437E+03 0.  0.
    9000010    2    1    2  501    0 -0.21670501220E+03  0.51221976604E+03 -0.56152230231E+02  0.11511447652E+04  0.10063056427E+04 0.  0.
        -13    1    4    4    0    0 -0.54444427222E+03  0.45965300606E+03 -0.26359540302E+03  0.75972560783E+03  0.10566000000E+00 0.  1.
          4    1    4    4  501    0  0.32773926002E+03  0.52566759981E+02  0.20744317279E+03  0.39141915736E+03  0.00000000000E+00 0.  1.
         13    1    3    3    0    0  0.13695959913E+03 -0.22011668826E+03 -0.46356182417E+03  0.53112979980E+03  0.10566000000E+00 0. -1.
         -4    1    3    3    0  503  0.79745413070E+02 -0.29210307778E+03  0.42234732299E+03  0.51967374399E+03  0.00000000000E+00 0. -1.
<mgrwt>
<rscale>  2 0.11239741E+04</rscale>
<asrwt>0</asrwt>
<pdfrwt beam="1">  1       21 0.16189089E+00 0.11497744E+04</pdfrwt>
<pdfrwt beam="2">  1       21 0.17687039E+00 0.11497744E+04</pdfrwt>
<totfact> 0.21288256E+01</totfact>
</mgrwt>
</event>
<event>
 8    1  0.1094795E-005  0.1367338E+04  0.7818608E-02  0.8495022E-01
         21   -1    0    0  501  502  0.00000000000E+00  0.00000000000E+00  0.78132714128E+03  0.78132714128E+03  0.00000000000E+00 0.  1.
         21   -1    0    0  502  503 -0.00000000000E+00 -0.00000000000E+00 -0.23412051163E+04  0.23412051163E+04  0.00000000000E+00 0.  1.
   -9000010    2    1    2    0  503  0.35353458053E+03 -0.80336949657E+03 -0.76904276639E+03  0.15429644457E+04  0.10094172856E+04 0.  0.
    9000010    2    1    2  501    0 -0.35353458053E+03  0.80336949657E+03 -0.79083520865E+03  0.15795678119E+04  0.10484392675E+04 0.  0.
        -13    1    4    4    0    0  0.57853044745E+02  0.84527490821E+03 -0.22117751379E+03  0.87564613230E+03  0.10566000000E+00 0.  1.
          4    1    4    4  501    0 -0.41138762527E+03 -0.41905411643E+02 -0.56965769486E+03  0.70392167964E+03  0.00000000000E+00 0.  1.
         13    1    3    3    0    0 -0.31086693535E+03 -0.53945296674E+03 -0.36907852967E+03  0.72378638219E+03  0.10566000000E+00 0. -1.
         -4    1    3    3    0  503  0.66440151588E+03 -0.26391652983E+03 -0.39996423672E+03  0.81917806347E+03  0.00000000000E+00 0. -1.
<mgrwt>
<rscale>  2 0.13598555E+04</rscale>
<asrwt>0</asrwt>
<pdfrwt beam="1">  1       21 0.12020417E+00 0.13673383E+04</pdfrwt>
<pdfrwt beam="2">  1       21 0.36018540E+00 0.13673383E+04</pdfrwt>
<totfact> 0.22591086E+00</totfact>
</mgrwt>
</event>
<event>
 8    1  0.1094795E-005  0.1287313E+04  0.7818608E-02  0.8565969E-01
         21   -1    0    0  503  502  0.00000000000E+00  0.00000000000E+00  0.69616011943E+03  0.69616011943E+03  0.00000000000E+00 0. -1.
         21   -1    0    0  501  503 -0.00000000000E+00 -0.00000000000E+00 -0.21586371369E+04  0.21586371369E+04  0.00000000000E+00 0. -1.
    9000010    2    1    2  501    0  0.55613104227E+03 -0.16985530198E+03 -0.68319830028E+03  0.13499884755E+04  0.10087499228E+04 0.  0.
   -9000010    2    1    2    0  502 -0.55613104227E+03  0.16985530198E+03 -0.77927871714E+03  0.15048087807E+04  0.11484953582E+04 0.  0.
        -13    1    3    3    0    0  0.81781394042E+03 -0.15463742853E+03 -0.69970371398E+03  0.10873443217E+04  0.10566000000E+00 0.  1.
          4    1    3    3  501    0 -0.26168289815E+03 -0.15217873450E+02  0.16505413705E+02  0.26264415383E+03  0.00000000000E+00 0.  1.
         13    1    4    4    0    0  0.14129829250E+03 -0.12376855004E+03  0.19528021664E+03  0.27095799604E+03  0.10566000000E+00 0. -1.
         -4    1    4    4    0  502 -0.69742933477E+03  0.29362385203E+03 -0.97455893378E+03  0.12338507847E+04  0.00000000000E+00 0. -1.
<mgrwt>
<rscale>  2 0.12554050E+04</rscale>
<asrwt>0</asrwt>
<pdfrwt beam="1">  1       21 0.10710156E+00 0.12873128E+04</pdfrwt>
<pdfrwt beam="2">  1       21 0.33209802E+00 0.12873128E+04</pdfrwt>
<totfact> 0.49591137E+00</totfact>
</mgrwt>
</event>
<event>
 8    1  0.1094795E-005  0.1102597E+04  0.7818608E-02  0.8685892E-01
         21   -1    0    0  503  502  0.00000000000E+00  0.00000000000E+00  0.19276238106E+04  0.19276238106E+04  0.00000000000E+00 0.  1.
         21   -1    0    0  501  503 -0.00000000000E+00 -0.00000000000E+00 -0.63639211170E+03  0.63639211170E+03  0.00000000000E+00 0.  1.
    9000010    2    1    2  501    0 -0.45146878542E+03  0.52058169420E+02  0.82105575132E+03  0.13747193148E+04  0.10045827643E+04 0.  0.
   -9000010    2    1    2    0  502  0.45146878542E+03 -0.52058169420E+02  0.47017594758E+03  0.11892966075E+04  0.99339160547E+03 0.  0.
        -13    1    3    3    0    0  0.27166819579E+03 -0.18824784756E+03  0.16607624402E+03  0.36989483736E+03  0.10566000000E+00 0.  1.
          4    1    3    3  501    0 -0.72313698122E+03  0.24030601698E+03  0.65497950730E+03  0.10048244774E+04  0.00000000000E+00 0.  1.
         13    1    4    4    0    0  0.38891526958E+03 -0.33322781598E+03  0.66662086583E+03  0.84064216774E+03  0.10566000000E+00 0. -1.
         -4    1    4    4    0  502  0.62553515843E+02  0.28116964656E+03 -0.19644491825E+03  0.34865443981E+03  0.00000000000E+00 0. -1.
<mgrwt>
<rscale>  2 0.11000417E+04</rscale>
<asrwt>0</asrwt>
<pdfrwt beam="1">  1       21 0.29655751E+00 0.11025972E+04</pdfrwt>
<pdfrwt beam="2">  1       21 0.97906480E-01 0.11025972E+04</pdfrwt>
<totfact> 0.11620452E+01</totfact>
</mgrwt>
</event>
<event>
 8    1  0.1094795E-005  0.1166403E+04  0.7818608E-02  0.8633017E-01
         21   -1    0    0  501  502  0.00000000000E+00  0.00000000000E+00  0.12660749766E+04  0.12660749766E+04  0.00000000000E+00 0. -1.
         21   -1    0    0  502  503 -0.00000000000E+00 -0.00000000000E+00 -0.14338503203E+04  0.14338503203E+04  0.00000000000E+00 0. -1.
   -9000010    2    1    2    0  503  0.43445933127E+03 -0.39056312012E+03 -0.76290045749E+03  0.13937409694E+04  0.10095555063E+04 0.  0.
    9000010    2    1    2  501    0 -0.43445933127E+03  0.39056312012E+03  0.59512511383E+03  0.13061843275E+04  0.10053104670E+04 0.  0.
        -13    1    4    4    0    0 -0.42290656395E+03  0.59678718527E+03  0.61548373454E+02  0.73402528552E+03  0.10566000000E+00 0.  1.
          4    1    4    4  501    0 -0.11552767322E+02 -0.20622406515E+03  0.53357674038E+03  0.57215904201E+03  0.00000000000E+00 0.  1.
         13    1    3    3    0    0  0.98087383949E+02  0.33253385142E+03 -0.11203160525E+03  0.36435009122E+03  0.10566000000E+00 0. -1.
         -4    1    3    3    0  503  0.33637194732E+03 -0.72309697155E+03 -0.65086885225E+03  0.10293908782E+04  0.00000000000E+00 0. -1.
<mgrwt>
<rscale>  2 0.11654842E+04</rscale>
<asrwt>0</asrwt>
<pdfrwt beam="1">  1       21 0.19478077E+00 0.11664034E+04</pdfrwt>
<pdfrwt beam="2">  1       21 0.22059236E+00 0.11664034E+04</pdfrwt>
<totfact> 0.51597595E+00</totfact>
</mgrwt>
</event>
<event>
 8    1  0.1094795E-005  0.1138243E+04  0.7818608E-02  0.8654959E-01
         21   -1    0    0  503  502  0.00000000000E+00  0.00000000000E+00  0.14698618771E+04  0.14698618771E+04  0.00000000000E+00 0. -1.
         21   -1    0    0  501  503 -0.00000000000E+00 -0.00000000000E+00 -0.93825602462E+03  0.93825602462E+03  0.00000000000E+00 0. -1.
    9000010    2    1    2  501    0 -0.43821700648E+03 -0.33151566079E+03 -0.34509914370E+02  0.11368651499E+04  0.99465303333E+03 0.  0.
   -9000010    2    1    2    0  502  0.43821700648E+03  0.33151566079E+03  0.56611576688E+03  0.12712527519E+04  0.99682481886E+03 0.  0.
        -13    1    3    3    0    0 -0.22341301669E+03 -0.17034763121E+03 -0.51487105395E+03  0.58653551030E+03  0.10566000000E+00 0.  1.
          4    1    3    3  501    0 -0.21480398978E+03 -0.16116802957E+03  0.48036113958E+03  0.55032963958E+03  0.00000000000E+00 0.  1.
         13    1    4    4    0    0  0.15583911971E+03 -0.11117144643E+03 -0.24136586875E+03  0.30806235650E+03  0.10566000000E+00 0. -1.
         -4    1    4    4    0  502  0.28237788677E+03  0.44268710721E+03  0.80748163563E+03  0.96319039536E+03  0.00000000000E+00 0. -1.
<mgrwt>
<rscale>  2 0.11377671E+04</rscale>
<asrwt>0</asrwt>
<pdfrwt beam="1">  1       21 0.22613260E+00 0.11382427E+04</pdfrwt>
<pdfrwt beam="2">  1       21 0.14434708E+00 0.11382427E+04</pdfrwt>
<totfact> 0.12570335E+01</totfact>
</mgrwt>
</event>
<event>
 8    1  0.1094795E-005  0.1095206E+04  0.7818608E-02  0.8697531E-01
         21   -1    0    0  501  502  0.00000000000E+00  0.00000000000E+00  0.21604109285E+04  0.21604109285E+04  0.00000000000E+00 0.  1.
         21   -1    0    0  502  503 -0.00000000000E+00 -0.00000000000E+00 -0.54051545610E+03  0.54051545610E+03  0.00000000000E+00 0.  1.
   -9000010    2    1    2    0  503  0.34672896556E+03 -0.65450509956E+02  0.72063999406E+03  0.13110297794E+04  0.10368087271E+04 0.  0.
    9000010    2    1    2  501    0 -0.34672896556E+03  0.65450509956E+02  0.89925547831E+03  0.13898966052E+04  0.99932347766E+03 0.  0.
        -13    1    4    4    0    0 -0.59581594959E+03  0.31901393585E+03  0.42931117495E+03  0.80067136402E+03  0.10566000000E+00 0.  1.
          4    1    4    4  501    0  0.24908698403E+03 -0.25356342589E+03  0.46994430336E+03  0.58922524117E+03  0.00000000000E+00 0.  1.
         13    1    3    3    0    0 -0.12626915873E+03 -0.41109925786E+03  0.70347996736E+02  0.43576983841E+03  0.10566000000E+00 0. -1.
         -4    1    3    3    0  503  0.47299812430E+03  0.34564874790E+03  0.65029199733E+03  0.87525994099E+03  0.00000000000E+00 0. -1.
<mgrwt>
<rscale>  2 0.10862425E+04</rscale>
<asrwt>0</asrwt>
<pdfrwt beam="1">  1       21 0.33237091E+00 0.10952064E+04</pdfrwt>
<pdfrwt beam="2">  1       21 0.83156225E-01 0.10952064E+04</pdfrwt>
<totfact> 0.98772023E+00</totfact>
</mgrwt>
</event>
<event>
 8    1  0.1094795E-005  0.1206294E+04  0.7818608E-02  0.8608506E-01
         21   -1    0    0  501  502  0.00000000000E+00  0.00000000000E+00  0.10359708084E+04  0.10359708084E+04  0.00000000000E+00 0. -1.
         21   -1    0    0  502  503 -0.00000000000E+00 -0.00000000000E+00 -0.13735400357E+04  0.13735400357E+04  0.00000000000E+00 0. -1.
   -9000010    2    1    2    0  503  0.33739773889E+03  0.48606600759E+03 -0.27138946578E+03  0.12364450332E+04  0.10512120052E+04 0.  0.
    9000010    2    1    2  501    0 -0.33739773889E+03 -0.48606600759E+03 -0.66179761496E+02  0.11730658109E+04  0.10107453873E+04 0.  0.
        -13    1    4    4    0    0 -0.95151226484E+02 -0.74639984662E+03 -0.22245339795E+03  0.78463495485E+03  0.10566000000E+00 0.  1.
          4    1    4    4  501    0 -0.24224651241E+03  0.26033383903E+03  0.15627363646E+03  0.38843085610E+03  0.00000000000E+00 0.  1.
         13    1    3    3    0    0 -0.34548822283E+03  0.94495862452E+02 -0.27118785713E+03  0.44925988598E+03  0.10566000000E+00 0. -1.
         -4    1    3    3    0  503  0.68288596173E+03  0.39157014514E+03 -0.20160865888E+00  0.78718514717E+03  0.00000000000E+00 0. -1.
<mgrwt>
<rscale>  2 0.11974221E+04</rscale>
<asrwt>0</asrwt>
<pdfrwt beam="1">  1       21 0.15938013E+00 0.12062935E+04</pdfrwt>
<pdfrwt beam="2">  1       21 0.21131385E+00 0.12062935E+04</pdfrwt>
<totfact> 0.11797450E+01</totfact>
</mgrwt>
</event>
<event>
 8    1  0.1094795E-005  0.1067586E+04  0.7818608E-02  0.8718234E-01
         21   -1    0    0  501  502  0.00000000000E+00  0.00000000000E+00  0.20103995652E+04  0.20103995652E+04  0.00000000000E+00 0.  1.
         21   -1    0    0  502  503 -0.00000000000E+00 -0.00000000000E+00 -0.55567889683E+03  0.55567889683E+03  0.00000000000E+00 0.  1.
   -9000010    2    1    2    0  503  0.33037508759E+03 -0.14118470972E+03  0.71164303568E+03  0.12653458630E+04  0.98264109527E+03 0.  0.
    9000010    2    1    2  501    0 -0.33037508759E+03  0.14118470972E+03  0.74307763269E+03  0.13007325990E+04  0.10053159230E+04 0.  0.
        -13    1    4    4    0    0 -0.79062320439E+02 -0.14616238748E+02  0.94131395240E+03  0.94474147421E+03  0.10566000000E+00 0.  1.
          4    1    4    4  501    0 -0.25131276715E+03  0.15580094847E+03 -0.19823631971E+03  0.35599112479E+03  0.00000000000E+00 0.  1.
         13    1    3    3    0    0  0.40000397698E+03 -0.51911329160E+03  0.37876777628E+03  0.75693251392E+03  0.10566000000E+00 0. -1.
         -4    1    3    3    0  503 -0.69628889389E+02  0.37792858188E+03  0.33287525940E+03  0.50841334912E+03  0.00000000000E+00 0. -1.
<mgrwt>
<rscale>  2 0.10622150E+04</rscale>
<asrwt>0</asrwt>
<pdfrwt beam="1">  1       21 0.30929224E+00 0.10675865E+04</pdfrwt>
<pdfrwt beam="2">  1       21 0.85489062E-01 0.10675865E+04</pdfrwt>
<totfact> 0.13468553E+01</totfact>
</mgrwt>
</event>
<event>
 8    1  0.1094795E-005  0.1146687E+04  0.7818608E-02  0.8648875E-01
         21   -1    0    0  503  502  0.00000000000E+00  0.00000000000E+00  0.67002447374E+03  0.67002447374E+03  0.00000000000E+00 0. -1.
         21   -1    0    0  501  503 -0.00000000000E+00 -0.00000000000E+00 -0.19737824391E+04  0.19737824391E+04  0.00000000000E+00 0. -1.
    9000010    2    1    2  501    0  0.41787996537E+03  0.34482953180E+03 -0.51628292379E+03  0.12527611938E+04  0.10046549059E+04 0.  0.
   -9000010    2    1    2    0  502 -0.41787996537E+03 -0.34482953180E+03 -0.78747504158E+03  0.13910457190E+04  0.10106236589E+04 0.  0.
        -13    1    3    3    0    0  0.59517339798E+03  0.47303708183E+03 -0.79704939484E+02  0.76442680683E+03  0.10566000000E+00 0.  1.
          4    1    3    3  501    0 -0.17729343261E+03 -0.12820755003E+03 -0.43657798430E+03  0.48833438698E+03  0.00000000000E+00 0.  1.
         13    1    4    4    0    0  0.28329100942E+03  0.11171557347E+03 -0.27192131690E+03  0.40825896085E+03  0.10566000000E+00 0. -1.
         -4    1    4    4    0  502 -0.70117097479E+03 -0.45654510527E+03 -0.51555372469E+03  0.98278675819E+03  0.00000000000E+00 0. -1.
<mgrwt>
<rscale>  2 0.11453706E+04</rscale>
<asrwt>0</asrwt>
<pdfrwt beam="1">  1       21 0.10308069E+00 0.11466871E+04</pdfrwt>
<pdfrwt beam="2">  1       21 0.30365883E+00 0.11466871E+04</pdfrwt>
<totfact> 0.89549213E+00</totfact>
</mgrwt>
</event>
<event>
 8    1  0.1094795E-005  0.1208519E+04  0.7818608E-02  0.8612836E-01
         21   -1    0    0  503  502  0.00000000000E+00  0.00000000000E+00  0.83723370153E+03  0.83723370153E+03  0.00000000000E+00 0.  1.
         21   -1    0    0  501  503 -0.00000000000E+00 -0.00000000000E+00 -0.16593061295E+04  0.16593061295E+04  0.00000000000E+00 0.  1.
    9000010    2    1    2  501    0  0.70304480425E+01  0.56270581575E+03 -0.51249811418E+03  0.13126963540E+04  0.10694999478E+04 0.  0.
   -9000010    2    1    2    0  502 -0.70304480425E+01 -0.56270581575E+03 -0.30957431375E+03  0.11838434770E+04  0.99446561534E+03 0.  0.
        -13    1    3    3    0    0  0.31568741310E+03  0.73863683181E+02  0.21081606424E+03  0.38672704921E+03  0.10566000000E+00 0.  1.
          4    1    3    3  501    0 -0.30865696506E+03  0.48884213257E+03 -0.72331417842E+03  0.92596930476E+03  0.00000000000E+00 0.  1.
         13    1    4    4    0    0 -0.48690544593E+03 -0.27753411387E+03 -0.34433711984E+02  0.56150493259E+03  0.10566000000E+00 0. -1.
         -4    1    4    4    0  502  0.47987499789E+03 -0.28517170188E+03 -0.27514060177E+03  0.62233854444E+03  0.00000000000E+00 0. -1.
<mgrwt>
<rscale>  2 0.11917038E+04</rscale>
<asrwt>0</asrwt>
<pdfrwt beam="1">  1       21 0.12880519E+00 0.12085187E+04</pdfrwt>
<pdfrwt beam="2">  1       21 0.25527786E+00 0.12085187E+04</pdfrwt>
<totfact> 0.10588329E+01</totfact>
</mgrwt>
</event>
<event>
 8    1  0.1094795E-005  0.1123908E+04  0.7818608E-02  0.8669598E-01
         21   -1    0    0  503  502  0.00000000000E+00  0.00000000000E+00  0.81984475493E+03  0.81984475493E+03  0.00000000000E+00 0. -1.
         21   -1    0    0  501  503 -0.00000000000E+00 -0.00000000000E+00 -0.17009477687E+04  0.17009477687E+04  0.00000000000E+00 0. -1.
    9000010    2    1    2  501    0 -0.16188817935E+03 -0.48216535335E+03 -0.85097622726E+03  0.13964804317E+04  0.98351707971E+03 0.  0.
   -9000010    2    1    2    0  502  0.16188817935E+03  0.48216535335E+03 -0.30126786546E+02  0.11243120920E+04  0.10022369213E+04 0.  0.
        -13    1    3    3    0    0  0.21820758216E+03  0.19594846424E+03 -0.40572712889E+03  0.50062447386E+03  0.10566000000E+00 0.  1.
          4    1    3    3  501    0 -0.38009576151E+03 -0.67811381759E+03 -0.44524909837E+03  0.89585595780E+03  0.00000000000E+00 0.  1.
         13    1    4    4    0    0  0.45239634987E+03  0.58395227428E+03  0.16889674596E+03  0.75775249124E+03  0.10566000000E+00 0. -1.
         -4    1    4    4    0  502 -0.29050817052E+03 -0.10178692093E+03 -0.19902353251E+03  0.36655960075E+03  0.00000000000E+00 0. -1.
<mgrwt>
<rscale>  2 0.11197198E+04</rscale>
<asrwt>0</asrwt>
<pdfrwt beam="1">  1       21 0.12612996E+00 0.11239084E+04</pdfrwt>
<pdfrwt beam="2">  1       21 0.26168427E+00 0.11239084E+04</pdfrwt>
<totfact> 0.10287149E+01</totfact>
</mgrwt>
</event>
<event>
 8    1  0.1094795E-005  0.1071180E+04  0.7818608E-02  0.8754588E-01
         21   -1    0    0  503  502  0.00000000000E+00  0.00000000000E+00  0.82269713527E+03  0.82269713527E+03  0.00000000000E+00 0. -1.
         21   -1    0    0  501  503 -0.00000000000E+00 -0.00000000000E+00 -0.11928620418E+04  0.11928620418E+04  0.00000000000E+00 0. -1.
    9000010    2    1    2  501    0 -0.30496955649E+03 -0.86353442887E+02 -0.12294621509E+02  0.88618025261E+03  0.82746657631E+03 0.  0.
   -9000010    2    1    2    0  502  0.30496955649E+03  0.86353442887E+02 -0.35787028504E+03  0.11293789245E+04  0.10232117409E+04 0.  0.
        -13    1    3    3    0    0 -0.52935849307E+03 -0.13549851773E+03  0.19159119847E+03  0.57904012036E+03  0.10566000000E+00 0.  1.
          4    1    3    3  501    0  0.22438893659E+03  0.49145074847E+02 -0.20388581998E+03  0.30714013224E+03  0.00000000000E+00 0.  1.
         13    1    4    4    0    0 -0.36579120643E+03  0.14847102430E+03 -0.93260128118E+02  0.40564062225E+03  0.10566000000E+00 0. -1.
         -4    1    4    4    0  502  0.67076076291E+03 -0.62117581417E+02 -0.26461015692E+03  0.72373830224E+03  0.00000000000E+00 0. -1.
<mgrwt>
<rscale>  2 0.10215668E+04</rscale>
<asrwt>0</asrwt>
<pdfrwt beam="1">  1       21 0.12656879E+00 0.10711795E+04</pdfrwt>
<pdfrwt beam="2">  1       21 0.18351724E+00 0.10711795E+04</pdfrwt>
<totfact> 0.40172179E+01</totfact>
</mgrwt>
</event>
<event>
 8    1  0.1094795E-005  0.1610375E+04  0.7818608E-02  0.8350775E-01
         21   -1    0    0  503  502  0.00000000000E+00  0.00000000000E+00  0.18183823755E+04  0.18183823755E+04  0.00000000000E+00 0. -1.
         21   -1    0    0  501  503 -0.00000000000E+00 -0.00000000000E+00 -0.15021231224E+04  0.15021231224E+04  0.00000000000E+00 0. -1.
    9000010    2    1    2  501    0 -0.65842668062E+03 -0.10741916635E+04 -0.24900550325E+03  0.16138039159E+04  0.97721334142E+03 0.  0.
   -9000010    2    1    2    0  502  0.65842668062E+03  0.10741916635E+04  0.56526475639E+03  0.17067015820E+04  0.10029419832E+04 0.  0.
        -13    1    3    3    0    0 -0.17641213084E+03 -0.43305716762E+03  0.37350228323E+03  0.59846780789E+03  0.10566000000E+00 0.  1.
          4    1    3    3  501    0 -0.48201454978E+03 -0.64113449590E+03 -0.62250778648E+03  0.10153361080E+04  0.00000000000E+00 0.  1.
         13    1    4    4    0    0  0.31413541141E+03  0.29105704211E+03 -0.27390685491E+03  0.50835050388E+03  0.10566000000E+00 0. -1.
         -4    1    4    4    0  502  0.34429126921E+03  0.78313462141E+03  0.83917161130E+03  0.11983510782E+04  0.00000000000E+00 0. -1.
<mgrwt>
<rscale>  2 0.16063855E+04</rscale>
<asrwt>0</asrwt>
<pdfrwt beam="1">  1       21 0.27975113E+00 0.16103745E+04</pdfrwt>
<pdfrwt beam="2">  1       21 0.23109587E+00 0.16103745E+04</pdfrwt>
<totfact> 0.92103613E-01</totfact>
</mgrwt>
</event>
<event>
 8    1  0.1094795E-005  0.1177284E+04  0.7818608E-02  0.8628808E-01
         21   -1    0    0  501  502  0.00000000000E+00  0.00000000000E+00  0.13125933757E+04  0.13125933757E+04  0.00000000000E+00 0.  1.
         21   -1    0    0  502  503 -0.00000000000E+00 -0.00000000000E+00 -0.14415897455E+04  0.14415897455E+04  0.00000000000E+00 0.  1.
   -9000010    2    1    2    0  503  0.36868801611E+03 -0.49259753109E+03 -0.79682787547E+03  0.14006702854E+04  0.97383746299E+03 0.  0.
    9000010    2    1    2  501    0 -0.36868801611E+03  0.49259753109E+03  0.66783150561E+03  0.13535128358E+04  0.10037006008E+04 0.  0.
        -13    1    4    4    0    0  0.10626726658E+03  0.18382079799E+02  0.67374476892E+03  0.68232152071E+03  0.10566000000E+00 0.  1.
          4    1    4    4  501    0 -0.47495528269E+03  0.47421545129E+03 -0.59132633130E+01  0.67119131511E+03  0.00000000000E+00 0.  1.
         13    1    3    3    0    0  0.65523510888E+02  0.21185789279E+03  0.80019926739E+02  0.23575473920E+03  0.10566000000E+00 0. -1.
         -4    1    3    3    0  503  0.30316450522E+03 -0.70445542388E+03 -0.87684780220E+03  0.11649155462E+04  0.00000000000E+00 0. -1.
<mgrwt>
<rscale>  2 0.11708938E+04</rscale>
<asrwt>0</asrwt>
<pdfrwt beam="1">  1       21 0.20193744E+00 0.11772842E+04</pdfrwt>
<pdfrwt beam="2">  1       21 0.22178304E+00 0.11772842E+04</pdfrwt>
<totfact> 0.44301263E+00</totfact>
</mgrwt>
</event>
<event>
 8    1  0.1094795E-005  0.1323078E+04  0.7818608E-02  0.8520086E-01
         21   -1    0    0  501  502  0.00000000000E+00  0.00000000000E+00  0.24695533467E+04  0.24695533467E+04  0.00000000000E+00 0. -1.
         21   -1    0    0  502  503 -0.00000000000E+00 -0.00000000000E+00 -0.72092482970E+03  0.72092482970E+03  0.00000000000E+00 0. -1.
   -9000010    2    1    2    0  503  0.84945741520E+03 -0.14295782999E+03  0.11012987863E+04  0.17175321572E+04  0.99751834711E+03 0.  0.
    9000010    2    1    2  501    0 -0.84945741520E+03  0.14295782999E+03  0.64732973068E+03  0.14729460192E+04  0.10042506430E+04 0.  0.
        -13    1    4    4    0    0 -0.64693140637E+03  0.52564575813E+03  0.21447179784E+03  0.86071009685E+03  0.10566000000E+00 0.  1.
          4    1    4    4  501    0 -0.20252600883E+03 -0.38268792814E+03  0.43285793284E+03  0.61223592235E+03  0.00000000000E+00 0.  1.
         13    1    3    3    0    0  0.53343120660E+03 -0.24430094214E+03  0.20656571034E+02  0.58707623662E+03  0.10566000000E+00 0. -1.
         -4    1    3    3    0  503  0.31602620860E+03  0.10134311215E+03  0.10806422153E+04  0.11304559206E+04  0.00000000000E+00 0. -1.
<mgrwt>
<rscale>  2 0.13218000E+04</rscale>
<asrwt>0</asrwt>
<pdfrwt beam="1">  1       21 0.37993128E+00 0.13230775E+04</pdfrwt>
<pdfrwt beam="2">  1       21 0.11091151E+00 0.13230775E+04</pdfrwt>
<totfact> 0.20690999E+00</totfact>
</mgrwt>
</event>
<event>
 8    1  0.1094795E-005  0.1098955E+04  0.7818608E-02  0.8691564E-01
         21   -1    0    0  503  502  0.00000000000E+00  0.00000000000E+00  0.14010257198E+04  0.14010257198E+04  0.00000000000E+00 0. -1.
         21   -1    0    0  501  503 -0.00000000000E+00 -0.00000000000E+00 -0.85873249450E+03  0.85873249450E+03  0.00000000000E+00 0. -1.
    9000010    2    1    2  501    0  0.45628276281E+03  0.56160574965E+02  0.41952859119E+03  0.11763103831E+04  0.99817528954E+03 0.  0.
   -9000010    2    1    2    0  502 -0.45628276281E+03 -0.56160574965E+02  0.12276463410E+03  0.10834478312E+04  0.97336533623E+03 0.  0.
        -13    1    3    3    0    0 -0.26924456750E+02  0.28127453599E+03  0.55807357980E+03  0.62552891428E+03  0.10566000000E+00 0.  1.
          4    1    3    3  501    0  0.48320721956E+03 -0.22511396103E+03 -0.13854498861E+03  0.55078146878E+03  0.00000000000E+00 0.  1.
         13    1    4    4    0    0 -0.53939733618E+03  0.36227723241E+03  0.81067190024E+02  0.65480239757E+03  0.10566000000E+00 0. -1.
         -4    1    4    4    0  502  0.83114573369E+02 -0.41843780738E+03  0.41697444078E+02  0.42864543365E+03  0.00000000000E+00 0. -1.
<mgrwt>
<rscale>  2 0.10932901E+04</rscale>
<asrwt>0</asrwt>
<pdfrwt beam="1">  1       21 0.21554242E+00 0.10989549E+04</pdfrwt>
<pdfrwt beam="2">  1       21 0.13211269E+00 0.10989549E+04</pdfrwt>
<totfact> 0.19816954E+01</totfact>
</mgrwt>
</event>
<event>
 8    1  0.1094795E-005  0.1061070E+04  0.7818608E-02  0.8723662E-01
         21   -1    0    0  503  502  0.00000000000E+00  0.00000000000E+00  0.22861190261E+04  0.22861190261E+04  0.00000000000E+00 0. -1.
         21   -1    0    0  501  503 -0.00000000000E+00 -0.00000000000E+00 -0.48380712969E+03  0.48380712969E+03  0.00000000000E+00 0. -1.
    9000010    2    1    2  501    0  0.43006372874E+02  0.31660768920E+03  0.95788752878E+03  0.14294816160E+04  0.10118197447E+04 0.  0.
   -9000010    2    1    2    0  502 -0.43006372874E+02 -0.31660768920E+03  0.84442436761E+03  0.13404445398E+04  0.99078205203E+03 0.  0.
        -13    1    3    3    0    0  0.41589069199E+03 -0.45490707817E+01  0.80692756507E+02  0.42367097357E+03  0.10566000000E+00 0.  1.
          4    1    3    3  501    0 -0.37288431912E+03  0.32115675998E+03  0.87719477227E+03  0.10058106424E+04  0.00000000000E+00 0.  1.
         13    1    4    4    0    0  0.38210205184E+02  0.34554908631E+03  0.43826642428E+03  0.55941188819E+03  0.10566000000E+00 0. -1.
         -4    1    4    4    0  502 -0.81216578058E+02 -0.66215677551E+03  0.40615794333E+03  0.78103265158E+03  0.00000000000E+00 0. -1.
<mgrwt>
<rscale>  2 0.10560235E+04</rscale>
<asrwt>0</asrwt>
<pdfrwt beam="1">  1       21 0.35171061E+00 0.10610698E+04</pdfrwt>
<pdfrwt beam="2">  1       21 0.74431867E-01 0.10610698E+04</pdfrwt>
<totfact> 0.95356763E+00</totfact>
</mgrwt>
</event>
<event>
 8    1  0.1094795E-005  0.1099448E+04  0.7818608E-02  0.8691831E-01
         21   -1    0    0  503  502  0.00000000000E+00  0.00000000000E+00  0.68586657238E+03  0.68586657238E+03  0.00000000000E+00 0.  1.
         21   -1    0    0  501  503 -0.00000000000E+00 -0.00000000000E+00 -0.17601477195E+04  0.17601477195E+04  0.00000000000E+00 0.  1.
    9000010    2    1    2  501    0  0.39424031839E+03  0.14617272273E+03 -0.72451817046E+03  0.13167050144E+04  0.10158708688E+04 0.  0.
   -9000010    2    1    2    0  502 -0.39424031839E+03 -0.14617272273E+03 -0.34976297663E+03  0.11293092775E+04  0.98803512633E+03 0.  0.
        -13    1    3    3    0    0  0.22008653100E+03  0.44881081848E+03  0.13718845315E+02  0.50005744649E+03  0.10566000000E+00 0.  1.
          4    1    3    3  501    0  0.17415378739E+03 -0.30263809574E+03 -0.73823701578E+03  0.81664756788E+03  0.00000000000E+00 0.  1.
         13    1    4    4    0    0 -0.29565020577E+03 -0.46274438994E+03 -0.52028283204E+03  0.75646259066E+03  0.10566000000E+00 0. -1.
         -4    1    4    4    0  502 -0.98590112620E+02  0.31657166721E+03  0.17051985541E+03  0.37284668682E+03  0.00000000000E+00 0. -1.
<mgrwt>
<rscale>  2 0.10929741E+04</rscale>
<asrwt>0</asrwt>
<pdfrwt beam="1">  1       21 0.10551794E+00 0.10994478E+04</pdfrwt>
<pdfrwt beam="2">  1       21 0.27079195E+00 0.10994478E+04</pdfrwt>
<totfact> 0.14558997E+01</totfact>
</mgrwt>
</event>
<event>
 8    1  0.1094795E-005  0.1127068E+04  0.7818608E-02  0.8668297E-01
         21   -1    0    0  503  502  0.00000000000E+00  0.00000000000E+00  0.12170924348E+04  0.12170924348E+04  0.00000000000E+00 0. -1.
         21   -1    0    0  501  503 -0.00000000000E+00 -0.00000000000E+00 -0.11155138577E+04  0.11155138577E+04  0.00000000000E+00 0. -1.
    9000010    2    1    2  501    0 -0.42945346089E+03 -0.25194199858E+03 -0.28524078656E+03  0.11626022807E+04  0.10111264565E+04 0.  0.
   -9000010    2    1    2    0  502  0.42945346089E+03  0.25194199858E+03  0.38681936367E+03  0.11700040118E+04  0.98558364529E+03 0.  0.
        -13    1    3    3    0    0 -0.22381580308E+03 -0.57095654252E+03 -0.43784850059E+03  0.75352253304E+03  0.10566000000E+00 0.  1.
          4    1    3    3  501    0 -0.20563765781E+03  0.31901454395E+03  0.15260771404E+03  0.40907974766E+03  0.00000000000E+00 0.  1.
         13    1    4    4    0    0  0.55209160336E+03 -0.16961891012E+03 -0.10818637474E+02  0.57766146423E+03  0.10566000000E+00 0. -1.
         -4    1    4    4    0  502 -0.12263814248E+03  0.42156090870E+03  0.39763800115E+03  0.59234254759E+03  0.00000000000E+00 0. -1.
<mgrwt>
<rscale>  2 0.11213094E+04</rscale>
<asrwt>0</asrwt>
<pdfrwt beam="1">  1       21 0.18724499E+00 0.11270678E+04</pdfrwt>
<pdfrwt beam="2">  1       21 0.17161752E+00 0.11270678E+04</pdfrwt>
<totfact> 0.14568181E+01</totfact>
</mgrwt>
</event>
<event>
 8    1  0.1094795E-005  0.1190427E+04  0.7818608E-02  0.8619403E-01
         21   -1    0    0  503  502  0.00000000000E+00  0.00000000000E+00  0.20591879016E+04  0.20591879016E+04  0.00000000000E+00 0. -1.
         21   -1    0    0  501  503 -0.00000000000E+00 -0.00000000000E+00 -0.77572932955E+03  0.77572932955E+03  0.00000000000E+00 0. -1.
    9000010    2    1    2  501    0 -0.53647996808E+03  0.37135330055E+03  0.12903199308E+03  0.11973997504E+04  0.99569215976E+03 0.  0.
   -9000010    2    1    2    0  502  0.53647996808E+03 -0.37135330055E+03  0.11544265789E+04  0.16375174807E+04  0.96075425764E+03 0.  0.
        -13    1    3    3    0    0  0.23127871286E+03  0.29811752285E+02  0.25743157945E+03  0.34734653138E+03  0.10566000000E+00 0.  1.
          4    1    3    3  501    0 -0.76775868094E+03  0.34154154827E+03 -0.12839958638E+03  0.85005321900E+03  0.00000000000E+00 0.  1.
         13    1    4    4    0    0 -0.12595310165E+03 -0.14848666461E+02  0.79272712187E+03  0.80280817610E+03  0.10566000000E+00 0. -1.
         -4    1    4    4    0  502  0.66243306972E+03 -0.35650463409E+03  0.36169945708E+03  0.83470930463E+03  0.00000000000E+00 0. -1.
<mgrwt>
<rscale>  2 0.11830935E+04</rscale>
<asrwt>0</asrwt>
<pdfrwt beam="1">  1       21 0.31679814E+00 0.11904272E+04</pdfrwt>
<pdfrwt beam="2">  1       21 0.11934297E+00 0.11904272E+04</pdfrwt>
<totfact> 0.48119605E+00</totfact>
</mgrwt>
</event>
<event>
 8    1  0.1094795E-005  0.1180043E+04  0.7818608E-02  0.8624208E-01
         21   -1    0    0  501  502  0.00000000000E+00  0.00000000000E+00  0.22380111984E+04  0.22380111984E+04  0.00000000000E+00 0.  1.
         21   -1    0    0  502  503 -0.00000000000E+00 -0.00000000000E+00 -0.74354849030E+03  0.74354849030E+03  0.00000000000E+00 0.  1.
   -9000010    2    1    2    0  503 -0.10551280175E+03  0.59831665559E+03  0.13194526448E+03  0.11873971140E+04  0.10116257123E+04 0.  0.
    9000010    2    1    2  501    0  0.10551280175E+03 -0.59831665559E+03  0.13625174436E+04  0.17941625747E+04  0.99671951358E+03 0.  0.
        -13    1    4    4    0    0 -0.20229085976E+03 -0.31757896567E+03  0.75642810218E+01  0.37661017099E+03  0.10566000000E+00 0.  1.
          4    1    4    4  501    0  0.30780366150E+03 -0.28073768992E+03  0.13549531626E+04  0.14175524037E+04  0.00000000000E+00 0.  1.
         13    1    3    3    0    0  0.24440159378E+03  0.53976443146E+03 -0.27011834200E+03  0.65118485114E+03  0.10566000000E+00 0. -1.
         -4    1    3    3    0  503 -0.34991439552E+03  0.58552224136E+02  0.40206360648E+03  0.53621226282E+03  0.00000000000E+00 0. -1.
<mgrwt>
<rscale>  2 0.11768420E+04</rscale>
<asrwt>0</asrwt>
<pdfrwt beam="1">  1       21 0.34430941E+00 0.11800434E+04</pdfrwt>
<pdfrwt beam="2">  1       21 0.11439208E+00 0.11800434E+04</pdfrwt>
<totfact> 0.34750589E+00</totfact>
</mgrwt>
</event>
<event>
 8    1  0.1094795E-005  0.1031138E+04  0.7818608E-02  0.8751438E-01
         21   -1    0    0  503  502  0.00000000000E+00  0.00000000000E+00  0.74068086798E+03  0.74068086798E+03  0.00000000000E+00 0.  1.
         21   -1    0    0  501  503 -0.00000000000E+00 -0.00000000000E+00 -0.14035585522E+04  0.14035585522E+04  0.00000000000E+00 0.  1.
    9000010    2    1    2  501    0  0.11917121453E+03  0.11501617260E+03 -0.29849018423E+03  0.10734720315E+04  0.10177501236E+04 0.  0.
   -9000010    2    1    2    0  502 -0.11917121453E+03 -0.11501617260E+03 -0.36438749994E+03  0.10707673886E+04  0.99314352040E+03 0.  0.
        -13    1    3    3    0    0 -0.30104568004E+03  0.17239317727E+03  0.21449559420E+03  0.40786796900E+03  0.10566000000E+00 0.  1.
          4    1    3    3  501    0  0.42021689457E+03 -0.57377004667E+02 -0.51298577843E+03  0.66560406250E+03  0.00000000000E+00 0.  1.
         13    1    4    4    0    0 -0.36495512490E+03  0.13469171853E+02  0.21827808799E+03  0.42546327296E+03  0.10566000000E+00 0. -1.
         -4    1    4    4    0  502  0.24578391037E+03 -0.12848534446E+03 -0.58266558794E+03  0.64530411567E+03  0.00000000000E+00 0. -1.
<mgrwt>
<rscale>  2 0.10250139E+04</rscale>
<asrwt>0</asrwt>
<pdfrwt beam="1">  1       21 0.11395090E+00 0.10311381E+04</pdfrwt>
<pdfrwt beam="2">  1       21 0.21593208E+00 0.10311381E+04</pdfrwt>
<totfact> 0.30328776E+01</totfact>
</mgrwt>
</event>
<event>
 8    1  0.1094795E-005  0.1139309E+04  0.7818608E-02  0.8669573E-01
         21   -1    0    0  501  502  0.00000000000E+00  0.00000000000E+00  0.15367916872E+04  0.15367916872E+04  0.00000000000E+00 0.  1.
         21   -1    0    0  502  503 -0.00000000000E+00 -0.00000000000E+00 -0.78946204683E+03  0.78946204683E+03  0.00000000000E+00 0.  1.
   -9000010    2    1    2    0  503 -0.59787507570E+02 -0.54941332532E+03  0.33433896091E+03  0.11144010512E+04  0.90811762129E+03 0.  0.
    9000010    2    1    2  501    0  0.59787507570E+02  0.54941332532E+03  0.41299067949E+03  0.12118526828E+04  0.99629115997E+03 0.  0.
        -13    1    4    4    0    0 -0.44421436898E+03  0.82325024582E+02  0.14873117385E+03  0.47563093731E+03  0.10566000000E+00 0.  1.
          4    1    4    4  501    0  0.50400187655E+03  0.46708830073E+03  0.26425950564E+03  0.73622174552E+03  0.00000000000E+00 0.  1.
         13    1    3    3    0    0 -0.33209203199E+03 -0.47775068387E+02 -0.14838860341E+03  0.36686068698E+03  0.10566000000E+00 0. -1.
         -4    1    3    3    0  503  0.27230452442E+03 -0.50163825693E+03  0.48272756431E+03  0.74754036425E+03  0.00000000000E+00 0. -1.
<mgrwt>
<rscale>  2 0.11197503E+04</rscale>
<asrwt>0</asrwt>
<pdfrwt beam="1">  1       21 0.23642949E+00 0.11393093E+04</pdfrwt>
<pdfrwt beam="2">  1       21 0.12145570E+00 0.11393093E+04</pdfrwt>
<totfact> 0.17441630E+01</totfact>
</mgrwt>
</event>
<event>
 8    1  0.1094795E-005  0.1028411E+04  0.7818608E-02  0.8752813E-01
         21   -1    0    0  503  502  0.00000000000E+00  0.00000000000E+00  0.14013061491E+04  0.14013061491E+04  0.00000000000E+00 0.  1.
         21   -1    0    0  501  503 -0.00000000000E+00 -0.00000000000E+00 -0.74684275612E+03  0.74684275612E+03  0.00000000000E+00 0.  1.
    9000010    2    1    2  501    0 -0.94360351725E+02 -0.84236778524E+02  0.42295944248E+03  0.10940033936E+04  0.10009740378E+04 0.  0.
   -9000010    2    1    2    0  502  0.94360351725E+02  0.84236778524E+02  0.23150395054E+03  0.10541455117E+04  0.10206022584E+04 0.  0.
        -13    1    3    3    0    0 -0.13740025774E+03 -0.27771752296E+03 -0.24642299507E+03  0.39589159760E+03  0.10566000000E+00 0.  1.
          4    1    3    3  501    0  0.43039906017E+02  0.19348074443E+03  0.66938243754E+03  0.69811179597E+03  0.00000000000E+00 0.  1.
         13    1    4    4    0    0 -0.17695640843E+03  0.46671038819E+03 -0.58864868962E+02  0.50259053005E+03  0.10566000000E+00 0. -1.
         -4    1    4    4    0  502  0.27131676015E+03 -0.38247360967E+03  0.29036881951E+03  0.55155498164E+03  0.00000000000E+00 0. -1.
<mgrwt>
<rscale>  2 0.10235067E+04</rscale>
<asrwt>0</asrwt>
<pdfrwt beam="1">  1       21 0.21558556E+00 0.10284108E+04</pdfrwt>
<pdfrwt beam="2">  1       21 0.11489889E+00 0.10284108E+04</pdfrwt>
<totfact> 0.29844039E+01</totfact>
</mgrwt>
</event>
<event>
 8    1  0.1094795E-005  0.1102118E+04  0.7818608E-02  0.8690727E-01
         21   -1    0    0  501  502  0.00000000000E+00  0.00000000000E+00  0.21859347710E+04  0.21859347710E+04  0.00000000000E+00 0.  1.
         21   -1    0    0  502  503 -0.00000000000E+00 -0.00000000000E+00 -0.60484893409E+03  0.60484893409E+03  0.00000000000E+00 0.  1.
   -9000010    2    1    2    0  503 -0.42847955028E+03 -0.18417398315E+02  0.34428147257E+03  0.11546405723E+04  0.10152493257E+04 0.  0.
    9000010    2    1    2  501    0  0.42847955028E+03  0.18417398315E+02  0.12368043643E+04  0.16361431328E+04  0.98150159949E+03 0.  0.
        -13    1    4    4    0    0 -0.31832917923E+03  0.47621901017E+02  0.32893768916E+03  0.46021878092E+03  0.10566000000E+00 0.  1.
          4    1    4    4  501    0  0.74680872950E+03 -0.29204502702E+02  0.90786667516E+03  0.11759243519E+04  0.00000000000E+00 0.  1.
         13    1    3    3    0    0  0.30217681819E+03  0.49516598583E+02  0.28521103319E+03  0.41845915882E+03  0.10566000000E+00 0. -1.
         -4    1    3    3    0  503 -0.73065636846E+03 -0.67933996899E+02  0.59070439378E+02  0.73618141346E+03  0.00000000000E+00 0. -1.
<mgrwt>
<rscale>  2 0.10942835E+04</rscale>
<asrwt>0</asrwt>
<pdfrwt beam="1">  1       21 0.33629765E+00 0.11021185E+04</pdfrwt>
<pdfrwt beam="2">  1       21 0.93053683E-01 0.11021185E+04</pdfrwt>
<totfact> 0.69513620E+00</totfact>
</mgrwt>
</event>
<event>
 8    1  0.1094795E-005  0.1106651E+04  0.7818608E-02  0.8681245E-01
         21   -1    0    0  503  502  0.00000000000E+00  0.00000000000E+00  0.19512572344E+04  0.19512572344E+04  0.00000000000E+00 0. -1.
         21   -1    0    0  501  503 -0.00000000000E+00 -0.00000000000E+00 -0.74530086273E+03  0.74530086273E+03  0.00000000000E+00 0. -1.
    9000010    2    1    2  501    0 -0.16407403792E+03 -0.45942935691E+03  0.60968730176E+02  0.11041781567E+04  0.98868427307E+03 0.  0.
   -9000010    2    1    2    0  502  0.16407403792E+03  0.45942935691E+03  0.11449876415E+04  0.15923799404E+04  0.99331845423E+03 0.  0.
        -13    1    3    3    0    0 -0.53187309013E+03 -0.27950859967E+02 -0.10606507736E+02  0.53271262774E+03  0.10566000000E+00 0.  1.
          4    1    3    3  501    0  0.36779905222E+03 -0.43147849694E+03  0.71575237912E+02  0.57146552898E+03  0.00000000000E+00 0.  1.
         13    1    4    4    0    0  0.53152310867E+03  0.25313350801E+03  0.97298340828E+03  0.11372291378E+04  0.10566000000E+00 0. -1.
         -4    1    4    4    0  502 -0.36744907075E+03  0.20629584890E+03  0.17200423324E+03  0.45515080262E+03  0.00000000000E+00 0. -1.
<mgrwt>
<rscale>  2 0.11056104E+04</rscale>
<asrwt>0</asrwt>
<pdfrwt beam="1">  1       21 0.30019342E+00 0.11066513E+04</pdfrwt>
<pdfrwt beam="2">  1       21 0.11466167E+00 0.11066513E+04</pdfrwt>
<totfact> 0.71683689E+00</totfact>
</mgrwt>
</event>
<event>
 8    1  0.1094795E-005  0.1103357E+04  0.7818608E-02  0.8685809E-01
         21   -1    0    0  503  502  0.00000000000E+00  0.00000000000E+00  0.61056505967E+03  0.61056505967E+03  0.00000000000E+00 0.  1.
         21   -1    0    0  501  503 -0.00000000000E+00 -0.00000000000E+00 -0.19712115987E+04  0.19712115987E+04  0.00000000000E+00 0.  1.
    9000010    2    1    2  501    0 -0.44033769476E+03 -0.66954985361E+02 -0.69496730823E+03  0.12931625650E+04  0.99544442563E+03 0.  0.
   -9000010    2    1    2    0  502  0.44033769476E+03  0.66954985361E+02 -0.66567923078E+03  0.12886140933E+04  0.10094638120E+04 0.  0.
        -13    1    3    3    0    0 -0.25133593360E+02  0.26164958544E+03 -0.71652701129E+03  0.76321895426E+03  0.10566000000E+00 0.  1.
          4    1    3    3  501    0 -0.41520410140E+03 -0.32860457080E+03  0.21559703056E+02  0.52994361074E+03  0.00000000000E+00 0.  1.
         13    1    4    4    0    0  0.55494956190E+03  0.28942346566E+03 -0.54585719702E+02  0.62826313809E+03  0.10566000000E+00 0. -1.
         -4    1    4    4    0  502 -0.11461186715E+03 -0.22246848030E+03 -0.61109351108E+03  0.66035095525E+03  0.00000000000E+00 0. -1.
<mgrwt>
<rscale>  2 0.11001404E+04</rscale>
<asrwt>0</asrwt>
<pdfrwt beam="1">  1       21 0.93933087E-01 0.11033574E+04</pdfrwt>
<pdfrwt beam="2">  1       21 0.30326332E+00 0.11033574E+04</pdfrwt>
<totfact> 0.11584770E+01</totfact>
</mgrwt>
</event>
<event>
 8    1  0.1094795E-005  0.1132788E+04  0.7818608E-02  0.8672571E-01
         21   -1    0    0  501  502  0.00000000000E+00  0.00000000000E+00  0.20418612372E+04  0.20418612372E+04  0.00000000000E+00 0.  1.
         21   -1    0    0  502  503 -0.00000000000E+00 -0.00000000000E+00 -0.59724541418E+03  0.59724541418E+03  0.00000000000E+00 0.  1.
   -9000010    2    1    2    0  503  0.22190901601E+03  0.28560193375E+03  0.58655288806E+03  0.12180221862E+04  0.10043513726E+04 0.  0.
    9000010    2    1    2  501    0 -0.22190901601E+03 -0.28560193375E+03  0.85806293496E+03  0.14210844652E+04  0.10734975458E+04 0.  0.
        -13    1    4    4    0    0  0.64481412774E+02 -0.64943721288E+03  0.37839458266E+03  0.75439314513E+03  0.10566000000E+00 0.  1.
          4    1    4    4  501    0 -0.28639042879E+03  0.36383527913E+03  0.47966835229E+03  0.66669132005E+03  0.00000000000E+00 0.  1.
         13    1    3    3    0    0  0.56740492377E+03  0.39254544804E+03  0.48166184822E+03  0.84145019074E+03  0.10566000000E+00 0. -1.
         -4    1    3    3    0  503 -0.34549590776E+03 -0.10694351429E+03  0.10489103984E+03  0.37657199546E+03  0.00000000000E+00 0. -1.
<mgrwt>
<rscale>  2 0.11160983E+04</rscale>
<asrwt>0</asrwt>
<pdfrwt beam="1">  1       21 0.31413250E+00 0.11327882E+04</pdfrwt>
<pdfrwt beam="2">  1       21 0.91883910E-01 0.11327882E+04</pdfrwt>
<totfact> 0.10211045E+01</totfact>
</mgrwt>
</event>
<event>
 8    1  0.1094795E-005  0.1027235E+04  0.7818608E-02  0.8754487E-01
         21   -1    0    0  503  502  0.00000000000E+00  0.00000000000E+00  0.14830685577E+04  0.14830685577E+04  0.00000000000E+00 0.  1.
         21   -1    0    0  501  503 -0.00000000000E+00 -0.00000000000E+00 -0.71414674034E+03  0.71414674034E+03  0.00000000000E+00 0.  1.
    9000010    2    1    2  501    0  0.26563577899E+03 -0.33735039413E+02  0.21492245890E+03  0.10494780039E+04  0.99172173382E+03 0.  0.
   -9000010    2    1    2    0  502 -0.26563577899E+03  0.33735039413E+02  0.55399935848E+03  0.11477372942E+04  0.96885767133E+03 0.  0.
        -13    1    3    3    0    0  0.12268094010E+03 -0.32135193702E+03 -0.29077209645E+03  0.45040659823E+03  0.10566000000E+00 0.  1.
          4    1    3    3  501    0  0.14295483889E+03  0.28761689761E+03  0.50569455535E+03  0.59907140565E+03  0.00000000000E+00 0.  1.
         13    1    4    4    0    0  0.11213075633E+03  0.22196945975E+03 -0.17589105656E+03  0.30460043093E+03  0.10566000000E+00 0. -1.
         -4    1    4    4    0  502 -0.37776653532E+03 -0.18823442034E+03  0.72989041504E+03  0.84313686325E+03  0.00000000000E+00 0. -1.
<mgrwt>
<rscale>  2 0.10216764E+04</rscale>
<asrwt>0</asrwt>
<pdfrwt beam="1">  1       21 0.22816439E+00 0.10272353E+04</pdfrwt>
<pdfrwt beam="2">  1       21 0.10986873E+00 0.10272353E+04</pdfrwt>
<totfact> 0.27137002E+01</totfact>
</mgrwt>
</event>
<event>
 8    1  0.1094795E-005  0.1036813E+04  0.7818608E-02  0.8748986E-01
         21   -1    0    0  501  502  0.00000000000E+00  0.00000000000E+00  0.49474962598E+03  0.49474962598E+03  0.00000000000E+00 0.  1.
         21   -1    0    0  502  503 -0.00000000000E+00 -0.00000000000E+00 -0.20994763855E+04  0.20994763855E+04  0.00000000000E+00 0.  1.
   -9000010    2    1    2    0  503  0.69404878931E+02  0.88996677821E+02 -0.82152358764E+03  0.12948458294E+04  0.99447839144E+03 0.  0.
    9000010    2    1    2  501    0 -0.69404878931E+02 -0.88996677821E+02 -0.78320317191E+03  0.12993801821E+04  0.10306523193E+04 0.  0.
        -13    1    4    4    0    0  0.84279111608E+02 -0.51673177830E+03 -0.63131385692E+03  0.82016577376E+03  0.10566000000E+00 0.  1.
          4    1    4    4  501    0 -0.15368399054E+03  0.42773510048E+03 -0.15188931500E+03  0.47921440832E+03  0.00000000000E+00 0.  1.
         13    1    3    3    0    0  0.31626373481E+03 -0.33062609382E+03 -0.18509040472E+03  0.49355327266E+03  0.10566000000E+00 0. -1.
         -4    1    3    3    0  503 -0.24685885588E+03  0.41962277164E+03 -0.63643318292E+03  0.80129255676E+03  0.00000000000E+00 0. -1.
<mgrwt>
<rscale>  2 0.10277061E+04</rscale>
<asrwt>0</asrwt>
<pdfrwt beam="1">  1       21 0.76115327E-01 0.10368132E+04</pdfrwt>
<pdfrwt beam="2">  1       21 0.32299637E+00 0.10368132E+04</pdfrwt>
<totfact> 0.14449029E+01</totfact>
</mgrwt>
</event>
<event>
 8    1  0.1094795E-005  0.1040595E+04  0.7818608E-02  0.8739957E-01
         21   -1    0    0  503  502  0.00000000000E+00  0.00000000000E+00  0.13379033476E+04  0.13379033476E+04  0.00000000000E+00 0.  1.
         21   -1    0    0  501  503 -0.00000000000E+00 -0.00000000000E+00 -0.80994995782E+03  0.80994995782E+03  0.00000000000E+00 0.  1.
    9000010    2    1    2  501    0  0.22010051478E+03  0.24499174833E+03  0.38205472428E+03  0.11085139113E+04  0.98710287506E+03 0.  0.
   -9000010    2    1    2    0  502 -0.22010051478E+03 -0.24499174833E+03  0.14589866546E+03  0.10393393940E+04  0.97492295184E+03 0.  0.
        -13    1    3    3    0    0  0.28044066945E+03 -0.33295192266E+03  0.28253021513E+03  0.51896751874E+03  0.10566000000E+00 0.  1.
          4    1    3    3  501    0 -0.60340154667E+02  0.57794367100E+03  0.99524509146E+02  0.58954639260E+03  0.00000000000E+00 0.  1.
         13    1    4    4    0    0 -0.39185074923E+03  0.27185306999E+03  0.13065558762E+03  0.49449165319E+03  0.10566000000E+00 0. -1.
         -4    1    4    4    0  502  0.17175023445E+03 -0.51684481833E+03  0.15243077844E+02  0.54484774083E+03  0.00000000000E+00 0. -1.
<mgrwt>
<rscale>  2 0.10376959E+04</rscale>
<asrwt>0</asrwt>
<pdfrwt beam="1">  1       21 0.20583128E+00 0.10405947E+04</pdfrwt>
<pdfrwt beam="2">  1       21 0.12460769E+00 0.10405947E+04</pdfrwt>
<totfact> 0.28178013E+01</totfact>
</mgrwt>
</event>
<event>
 8    1  0.1094795E-005  0.1052896E+04  0.7818608E-02  0.8728941E-01
         21   -1    0    0  501  502  0.00000000000E+00  0.00000000000E+00  0.95322537592E+03  0.95322537592E+03  0.00000000000E+00 0. -1.
         21   -1    0    0  502  503 -0.00000000000E+00 -0.00000000000E+00 -0.11891602928E+04  0.11891602928E+04  0.00000000000E+00 0. -1.
   -9000010    2    1    2    0  503  0.83214879070E+02  0.30975163741E+03  0.75874854207E+02  0.10442893314E+04  0.99091494147E+03 0.  0.
    9000010    2    1    2  501    0 -0.83214879070E+02 -0.30975163741E+03 -0.31180977105E+03  0.10980963373E+04  0.10028556425E+04 0.  0.
        -13    1    4    4    0    0 -0.47306458355E+02  0.22213070251E+03  0.24028779592E+03  0.33063300808E+03  0.10566000000E+00 0.  1.
          4    1    4    4  501    0 -0.35908420716E+02 -0.53188233992E+03 -0.55209756697E+03  0.76746332919E+03  0.00000000000E+00 0.  1.
         13    1    3    3    0    0 -0.58498822339E+02  0.66043658776E+03  0.59756587629E+02  0.66570974125E+03  0.10566000000E+00 0. -1.
         -4    1    3    3    0  503  0.14171370141E+03 -0.35068495035E+03  0.16118266578E+02  0.37857959016E+03  0.00000000000E+00 0. -1.
<mgrwt>
<rscale>  2 0.10500428E+04</rscale>
<asrwt>0</asrwt>
<pdfrwt beam="1">  1       21 0.14665006E+00 0.10528961E+04</pdfrwt>
<pdfrwt beam="2">  1       21 0.18294774E+00 0.10528961E+04</pdfrwt>
<totfact> 0.26402109E+01</totfact>
</mgrwt>
</event>
<event>
 8    1  0.1094795E-005  0.1261115E+04  0.7818608E-02  0.8562133E-01
         21   -1    0    0  501  502  0.00000000000E+00  0.00000000000E+00  0.18262465535E+04  0.18262465535E+04  0.00000000000E+00 0.  1.
         21   -1    0    0  502  503 -0.00000000000E+00 -0.00000000000E+00 -0.96000261303E+03  0.96000261303E+03  0.00000000000E+00 0. -1.
   -9000010    2    1    2    0  503  0.27806282137E+03 -0.71503610970E+03  0.63498698485E+01  0.12598714517E+04  0.99931986034E+03 0.  0.
    9000010    2    1    2  501    0 -0.27806282137E+03  0.71503610970E+03  0.85989407065E+03  0.15263777148E+04  0.10009073607E+04 0.  0.
        -13    1    4    4    0    0 -0.11178874697E+03  0.87247814941E+03  0.31327346351E+03  0.93373182405E+03  0.10566000000E+00 0.  1.
          4    1    4    4  501    0 -0.16627407441E+03 -0.15744203971E+03  0.54662060714E+03  0.59264589076E+03  0.00000000000E+00 0.  1.
         13    1    3    3    0    0  0.62283332489E+02 -0.56713262985E+03 -0.45483745024E+03  0.72965454200E+03  0.10566000000E+00 0. -1.
         -4    1    3    3    0  503  0.21577948888E+03 -0.14790347985E+03  0.46118732009E+03  0.53021690975E+03  0.00000000000E+00 0. -1.
<mgrwt>
<rscale>  2 0.12608000E+04</rscale>
<asrwt>0</asrwt>
<pdfrwt beam="1">  1       21 0.28096101E+00 0.12611150E+04</pdfrwt>
<pdfrwt beam="2">  1       21 0.14769271E+00 0.12611150E+04</pdfrwt>
<totfact> 0.45591213E+00</totfact>
</mgrwt>
</event>
<event>
 8    1  0.1094795E-005  0.1356227E+04  0.7818608E-02  0.8499143E-01
         21   -1    0    0  501  502  0.00000000000E+00  0.00000000000E+00  0.13345270971E+04  0.13345270971E+04  0.00000000000E+00 0.  1.
         21   -1    0    0  502  503 -0.00000000000E+00 -0.00000000000E+00 -0.15280144520E+04  0.15280144520E+04  0.00000000000E+00 0. -1.
   -9000010    2    1    2    0  503 -0.79685679277E+03 -0.44274728376E+03 -0.56128511770E+03  0.14677852526E+04  0.10041646573E+04 0.  0.
    9000010    2    1    2  501    0  0.79685679277E+03  0.44274728376E+03  0.36779776283E+03  0.13947562965E+04  0.98947664293E+03 0.  0.
        -13    1    4    4    0    0  0.95943085980E+03  0.31232125503E+03  0.52149801875E+03  0.11357870997E+04  0.10566000000E+00 0.  1.
          4    1    4    4  501    0 -0.16257406704E+03  0.13042602873E+03 -0.15370025592E+03  0.25896919684E+03  0.00000000000E+00 0.  1.
         13    1    3    3    0    0  0.51014348531E+02 -0.36190149765E+02 -0.52297262767E+03  0.52669969732E+03  0.10566000000E+00 0. -1.
         -4    1    3    3    0  503 -0.84787114130E+03 -0.40655713400E+03 -0.38312490025E+02  0.94108555527E+03  0.00000000000E+00 0. -1.
<mgrwt>
<rscale>  2 0.13535094E+04</rscale>
<asrwt>0</asrwt>
<pdfrwt beam="1">  1       21 0.20531186E+00 0.13562273E+04</pdfrwt>
<pdfrwt beam="2">  1       21 0.23507915E+00 0.13562273E+04</pdfrwt>
<totfact> 0.31978524E+00</totfact>
</mgrwt>
</event>
<event>
 8    1  0.1094795E-005  0.1103274E+04  0.7818608E-02  0.8691106E-01
         21   -1    0    0  501  502  0.00000000000E+00  0.00000000000E+00  0.76842807842E+03  0.76842807842E+03  0.00000000000E+00 0. -1.
         21   -1    0    0  502  503 -0.00000000000E+00 -0.00000000000E+00 -0.15407027750E+04  0.15407027750E+04  0.00000000000E+00 0. -1.
   -9000010    2    1    2    0  503  0.36195730992E+03 -0.43810648984E+02 -0.30090865409E+03  0.11435731061E+04  0.10412881271E+04 0.  0.
    9000010    2    1    2  501    0 -0.36195730992E+03  0.43810648984E+02 -0.47136604252E+03  0.11655577474E+04  0.10017017766E+04 0.  0.
        -13    1    4    4    0    0 -0.93670261672E+02 -0.46181495698E+03 -0.33203446634E+03  0.57644953848E+03  0.10566000000E+00 0.  1.
          4    1    4    4  501    0 -0.26828704825E+03  0.50562560597E+03 -0.13933157618E+03  0.58910820890E+03  0.00000000000E+00 0.  1.
         13    1    3    3    0    0 -0.32561750816E+03 -0.40882229898E+02 -0.31634268659E+03  0.45581885093E+03  0.10566000000E+00 0. -1.
         -4    1    3    3    0  503  0.68757481808E+03 -0.29284190861E+01  0.15434032502E+02  0.68775425514E+03  0.00000000000E+00 0. -1.
<mgrwt>
<rscale>  2 0.10938330E+04</rscale>
<asrwt>0</asrwt>
<pdfrwt beam="1">  1       21 0.11821971E+00 0.11032740E+04</pdfrwt>
<pdfrwt beam="2">  1       21 0.23703119E+00 0.11032740E+04</pdfrwt>
<totfact> 0.18759888E+01</totfact>
</mgrwt>
</event>
<event>
 8    1  0.1094795E-005  0.1144949E+04  0.7818608E-02  0.8650956E-01
         21   -1    0    0  501  502  0.00000000000E+00  0.00000000000E+00  0.95525834720E+03  0.95525834720E+03  0.00000000000E+00 0. -1.
         21   -1    0    0  502  503 -0.00000000000E+00 -0.00000000000E+00 -0.14047022992E+04  0.14047022992E+04  0.00000000000E+00 0. -1.
   -9000010    2    1    2    0  503 -0.39072399704E+03 -0.33534360156E+03 -0.43158689085E+03  0.12235910348E+04  0.10226373762E+04 0.  0.
    9000010    2    1    2  501    0  0.39072399704E+03  0.33534360156E+03 -0.17857061105E+02  0.11363696116E+04  0.10128654632E+04 0.  0.
        -13    1    4    4    0    0 -0.19239775434E+03 -0.23978737929E+03 -0.71325961879E+02  0.31559830028E+03  0.10566000000E+00 0.  1.
          4    1    4    4  501    0  0.58312175138E+03  0.57513098085E+03  0.53468900774E+02  0.82077131128E+03  0.00000000000E+00 0.  1.
         13    1    3    3    0    0  0.74278279126E+02 -0.28118091484E+03  0.25889657060E+03  0.38936796870E+03  0.10566000000E+00 0. -1.
         -4    1    3    3    0  503 -0.46500227617E+03 -0.54162686725E+02 -0.69048346145E+03  0.83422306610E+03  0.00000000000E+00 0. -1.
<mgrwt>
<rscale>  2 0.11427627E+04</rscale>
<asrwt>0</asrwt>
<pdfrwt beam="1">  1       21 0.14696282E+00 0.11449488E+04</pdfrwt>
<pdfrwt beam="2">  1       21 0.21610805E+00 0.11449488E+04</pdfrwt>
<totfact> 0.14143626E+01</totfact>
</mgrwt>
</event>
<event>
 8    1  0.1094795E-005  0.1332645E+04  0.7818608E-02  0.8513763E-01
         21   -1    0    0  503  502  0.00000000000E+00  0.00000000000E+00  0.13522004480E+04  0.13522004480E+04  0.00000000000E+00 0. -1.
         21   -1    0    0  501  503 -0.00000000000E+00 -0.00000000000E+00 -0.16362486220E+04  0.16362486220E+04  0.00000000000E+00 0. -1.
    9000010    2    1    2  501    0 -0.87800657805E+03  0.78261179334E+02 -0.81151614457E+03  0.15602887824E+04  0.99946098890E+03 0.  0.
   -9000010    2    1    2    0  502  0.87800657805E+03 -0.78261179334E+02  0.52746797053E+03  0.14281602876E+04  0.99216882836E+03 0.  0.
        -13    1    3    3    0    0 -0.28108558336E+03  0.33823648298E+02  0.22615524575E+03  0.36235252269E+03  0.10566000000E+00 0.  1.
          4    1    3    3  501    0 -0.59692099469E+03  0.44437531037E+02 -0.10376713903E+04  0.11979362597E+04  0.00000000000E+00 0.  1.
         13    1    4    4    0    0  0.58793207889E+03  0.42077570603E+03  0.14974076128E+03  0.73833503975E+03  0.10566000000E+00 0. -1.
         -4    1    4    4    0  502  0.29007449916E+03 -0.49903688536E+03  0.37772720925E+03  0.68982524789E+03  0.00000000000E+00 0. -1.
<mgrwt>
<rscale>  2 0.13312778E+04</rscale>
<asrwt>0</asrwt>
<pdfrwt beam="1">  1       21 0.20803084E+00 0.13326450E+04</pdfrwt>
<pdfrwt beam="2">  1       21 0.25173056E+00 0.13326450E+04</pdfrwt>
<totfact> 0.23093559E+00</totfact>
</mgrwt>
</event>
<event>
 8    1  0.1094795E-005  0.1117971E+04  0.7818608E-02  0.8671965E-01
         21   -1    0    0  503  502  0.00000000000E+00  0.00000000000E+00  0.17027266321E+04  0.17027266321E+04  0.00000000000E+00 0. -1.
         21   -1    0    0  501  503 -0.00000000000E+00 -0.00000000000E+00 -0.77555947496E+03  0.77555947496E+03  0.00000000000E+00 0. -1.
    9000010    2    1    2  501    0  0.34971345997E+03  0.35240515496E+03  0.16587525307E+03  0.11257241705E+04  0.99661999334E+03 0.  0.
   -9000010    2    1    2    0  502 -0.34971345997E+03 -0.35240515496E+03  0.76129190405E+03  0.13525619366E+04  0.10016833490E+04 0.  0.
        -13    1    3    3    0    0  0.51677433839E+03  0.22771187445E+03  0.48509576069E+03  0.74446378206E+03  0.10566000000E+00 0.  1.
          4    1    3    3  501    0 -0.16706087842E+03  0.12469328051E+03 -0.31922050762E+03  0.38126038843E+03  0.00000000000E+00 0.  1.
         13    1    4    4    0    0 -0.48105251169E+03 -0.20955695634E+03  0.94783960651E+03  0.10833861582E+04  0.10566000000E+00 0. -1.
         -4    1    4    4    0  502  0.13133905173E+03 -0.14284819862E+03 -0.18654770246E+03  0.26917577835E+03  0.00000000000E+00 0. -1.
<mgrwt>
<rscale>  2 0.11168353E+04</rscale>
<asrwt>0</asrwt>
<pdfrwt beam="1">  1       21 0.26195794E+00 0.11179707E+04</pdfrwt>
<pdfrwt beam="2">  1       21 0.11931684E+00 0.11179707E+04</pdfrwt>
<totfact> 0.11996792E+01</totfact>
</mgrwt>
</event>
<event>
 8    1  0.1094795E-005  0.1021401E+04  0.7818608E-02  0.8792878E-01
         21   -1    0    0  503  502  0.00000000000E+00  0.00000000000E+00  0.16390352201E+04  0.16390352201E+04  0.00000000000E+00 0.  1.
         21   -1    0    0  501  503 -0.00000000000E+00 -0.00000000000E+00 -0.54467589171E+03  0.54467589171E+03  0.00000000000E+00 0.  1.
    9000010    2    1    2  501    0 -0.88425876450E+01  0.10824384489E+03  0.50490268314E+03  0.10044239143E+04  0.86147882091E+03 0.  0.
   -9000010    2    1    2    0  502  0.88425876450E+01 -0.10824384489E+03  0.58945664520E+03  0.11792871975E+04  0.10156102777E+04 0.  0.
        -13    1    3    3    0    0  0.22979483072E+03  0.40780227727E+03  0.37573186509E+03  0.60023562639E+03  0.10566000000E+00 0.  1.
          4    1    3    3  501    0 -0.23863741837E+03 -0.29955843238E+03  0.12917081804E+03  0.40418828792E+03  0.00000000000E+00 0.  1.
         13    1    4    4    0    0 -0.48484635796E+02 -0.34859779292E+02  0.87597901268E+03  0.87801207619E+03  0.10566000000E+00 0. -1.
         -4    1    4    4    0  502  0.57327223441E+02 -0.73384065598E+02 -0.28652236748E+03  0.30127512127E+03  0.00000000000E+00 0. -1.
<mgrwt>
<rscale>  2 0.98076334E+03</rscale>
<asrwt>0</asrwt>
<pdfrwt beam="1">  1       21 0.25215926E+00 0.10214006E+04</pdfrwt>
<pdfrwt beam="2">  1       21 0.83796292E-01 0.10214006E+04</pdfrwt>
<totfact> 0.36565218E+01</totfact>
</mgrwt>
</event>
<event>
 8    1  0.1094795E-005  0.1212722E+04  0.7818608E-02  0.8598523E-01
         21   -1    0    0  501  502  0.00000000000E+00  0.00000000000E+00  0.16988389770E+04  0.16988389770E+04  0.00000000000E+00 0.  1.
         21   -1    0    0  502  503 -0.00000000000E+00 -0.00000000000E+00 -0.88927834146E+03  0.88927834146E+03  0.00000000000E+00 0.  1.
   -9000010    2    1    2    0  503  0.11030362878E+03  0.67488653359E+03  0.16889493232E+03  0.12165678317E+04  0.99190375903E+03 0.  0.
    9000010    2    1    2  501    0 -0.11030362878E+03 -0.67488653359E+03  0.64066570319E+03  0.13715494868E+04  0.10015271976E+04 0.  0.
        -13    1    4    4    0    0  0.27572010551E+02  0.25048692400E+03  0.28783771552E+02  0.25363838734E+03  0.10566000000E+00 0.  1.
          4    1    4    4  501    0 -0.13787563933E+03 -0.92537345759E+03  0.61188193164E+03  0.11179110994E+04  0.00000000000E+00 0.  1.
         13    1    3    3    0    0  0.94037530825E+00  0.14397468016E+03 -0.40339226261E+03  0.42831638018E+03  0.10566000000E+00 0. -1.
         -4    1    3    3    0  503  0.10936325347E+03  0.53091185343E+03  0.57228719492E+03  0.78825145150E+03  0.00000000000E+00 0. -1.
<mgrwt>
<rscale>  2 0.12107336E+04</rscale>
<asrwt>0</asrwt>
<pdfrwt beam="1">  1       21 0.26135984E+00 0.12127223E+04</pdfrwt>
<pdfrwt beam="2">  1       21 0.13681205E+00 0.12127223E+04</pdfrwt>
<totfact> 0.80144692E+00</totfact>
</mgrwt>
</event>
<event>
 8    1  0.1094795E-005  0.1149480E+04  0.7818608E-02  0.8656376E-01
         21   -1    0    0  503  502  0.00000000000E+00  0.00000000000E+00  0.70328892387E+03  0.70328892387E+03  0.00000000000E+00 0.  1.
         21   -1    0    0  501  503 -0.00000000000E+00 -0.00000000000E+00 -0.18243699704E+04  0.18243699704E+04  0.00000000000E+00 0.  1.
    9000010    2    1    2  501    0  0.28851760820E+03  0.46903657933E+03 -0.71272825566E+03  0.13078001319E+04  0.94822038347E+03 0.  0.
   -9000010    2    1    2    0  502 -0.28851760820E+03 -0.46903657933E+03 -0.40835279092E+03  0.12198587624E+04  0.10089924060E+04 0.  0.
        -13    1    3    3    0    0  0.57299840690E+03  0.48120600768E+03 -0.69705204425E+03  0.10226279674E+04  0.10566000000E+00 0.  1.
          4    1    3    3  501    0 -0.28448079870E+03 -0.12169428347E+02 -0.15676211411E+02  0.28517216453E+03  0.00000000000E+00 0.  1.
         13    1    4    4    0    0  0.17311785540E+03  0.18361651646E+03 -0.33168976627E+03  0.41677683380E+03  0.10566000000E+00 0. -1.
         -4    1    4    4    0  502 -0.46163546360E+03 -0.65265309579E+03 -0.76663024647E+02  0.80308192860E+03  0.00000000000E+00 0. -1.
<mgrwt>
<rscale>  2 0.11360050E+04</rscale>
<asrwt>0</asrwt>
<pdfrwt beam="1">  1       21 0.10819830E+00 0.11494796E+04</pdfrwt>
<pdfrwt beam="2">  1       21 0.28067230E+00 0.11494796E+04</pdfrwt>
<totfact> 0.11447835E+01</totfact>
</mgrwt>
</event>
<event>
 8    1  0.1094795E-005  0.1145347E+04  0.7818608E-02  0.8649950E-01
         21   -1    0    0  501  502  0.00000000000E+00  0.00000000000E+00  0.94001015240E+03  0.94001015240E+03  0.00000000000E+00 0.  1.
         21   -1    0    0  502  503 -0.00000000000E+00 -0.00000000000E+00 -0.13930164066E+04  0.13930164066E+04  0.00000000000E+00 0. -1.
   -9000010    2    1    2    0  503  0.40468051164E+03 -0.39488249740E+03 -0.28886916342E+03  0.11812136846E+04  0.99605314705E+03 0.  0.
    9000010    2    1    2  501    0 -0.40468051164E+03  0.39488249740E+03 -0.16413709082E+03  0.11518128745E+04  0.98996636812E+03 0.  0.
        -13    1    4    4    0    0 -0.15589832194E+03 -0.19085927295E+03 -0.40275004290E+03  0.47216433270E+03  0.10566000000E+00 0.  1.
          4    1    4    4  501    0 -0.24878218970E+03  0.58574177036E+03  0.23861295209E+03  0.67964854179E+03  0.00000000000E+00 0.  1.
         13    1    3    3    0    0 -0.25585777625E+03 -0.37286455086E+03 -0.25566164273E+03  0.51947479408E+03  0.10566000000E+00 0. -1.
         -4    1    3    3    0  503  0.66053828789E+03 -0.22017946541E+02 -0.33207520698E+02  0.66173889047E+03  0.00000000000E+00 0. -1.
<mgrwt>
<rscale>  2 0.11440226E+04</rscale>
<asrwt>0</asrwt>
<pdfrwt beam="1">  1       21 0.14461695E+00 0.11453473E+04</pdfrwt>
<pdfrwt beam="2">  1       21 0.21431022E+00 0.11453473E+04</pdfrwt>
<totfact> 0.15326769E+01</totfact>
</mgrwt>
</event>
<event>
 8    1  0.1094795E-005  0.1129401E+04  0.7818608E-02  0.8664724E-01
         21   -1    0    0  503  502  0.00000000000E+00  0.00000000000E+00  0.54422638933E+03  0.54422638933E+03  0.00000000000E+00 0.  1.
         21   -1    0    0  501  503 -0.00000000000E+00 -0.00000000000E+00 -0.25902710653E+04  0.25902710653E+04  0.00000000000E+00 0.  1.
    9000010    2    1    2  501    0  0.45379117219E+03 -0.22812847256E+03 -0.15295555087E+04  0.18926007434E+04  0.99218369863E+03 0.  0.
   -9000010    2    1    2    0  502 -0.45379117219E+03  0.22812847256E+03 -0.51648916725E+03  0.12418967112E+04  0.10087503921E+04 0.  0.
        -13    1    3    3    0    0  0.19338575849E+03 -0.17873038732E+03  0.69000888188E+02  0.27222001520E+03  0.10566000000E+00 0.  1.
          4    1    3    3  501    0  0.26040541370E+03 -0.49398085235E+02 -0.15985563969E+04  0.16203807282E+04  0.00000000000E+00 0.  1.
         13    1    4    4    0    0 -0.12271585413E+03  0.38130916716E+03  0.19260569392E+03  0.44446915114E+03  0.10566000000E+00 0. -1.
         -4    1    4    4    0  502 -0.33107531806E+03 -0.15318069460E+03 -0.70909486117E+03  0.79742756007E+03  0.00000000000E+00 0. -1.
<mgrwt>
<rscale>  2 0.11256896E+04</rscale>
<asrwt>0</asrwt>
<pdfrwt beam="1">  1       21 0.83727138E-01 0.11294009E+04</pdfrwt>
<pdfrwt beam="2">  1       21 0.39850324E+00 0.11294009E+04</pdfrwt>
<totfact> 0.33163667E+00</totfact>
</mgrwt>
</event>
<event>
 8    1  0.1094795E-005  0.1072843E+04  0.7818608E-02  0.8764290E-01
         21   -1    0    0  501  502  0.00000000000E+00  0.00000000000E+00  0.14556287992E+04  0.14556287992E+04  0.00000000000E+00 0. -1.
         21   -1    0    0  502  503 -0.00000000000E+00 -0.00000000000E+00 -0.75586042188E+03  0.75586042188E+03  0.00000000000E+00 0. -1.
   -9000010    2    1    2    0  503  0.32910764153E+03  0.19255972731E+03 -0.59659939362E+02  0.10745005560E+04  0.10027966136E+04 0.  0.
    9000010    2    1    2  501    0 -0.32910764153E+03 -0.19255972731E+03  0.75942831666E+03  0.11369886650E+04  0.75539444531E+03 0.  0.
        -13    1    4    4    0    0 -0.29346859249E+03 -0.23464014846E+03  0.17867045842E+00  0.37573908119E+03  0.10566000000E+00 0.  1.
          4    1    4    4  501    0 -0.35639049044E+02  0.42080421152E+02  0.75924964621E+03  0.76124958386E+03  0.00000000000E+00 0.  1.
         13    1    3    3    0    0 -0.91113915175E+02  0.46772194008E+03  0.19071588820E+03  0.51326223312E+03  0.10566000000E+00 0. -1.
         -4    1    3    3    0  503  0.42022155670E+03 -0.27516221277E+03 -0.25037582757E+03  0.56123832289E+03  0.00000000000E+00 0. -1.
<mgrwt>
<rscale>  2 0.10110373E+04</rscale>
<asrwt>0</asrwt>
<pdfrwt beam="1">  1       21 0.22394289E+00 0.10728430E+04</pdfrwt>
<pdfrwt beam="2">  1       21 0.11628622E+00 0.10728430E+04</pdfrwt>
<totfact> 0.24729814E+01</totfact>
</mgrwt>
</event>
<event>
 8    1  0.1094795E-005  0.1134991E+04  0.7818608E-02  0.8658037E-01
         21   -1    0    0  501  502  0.00000000000E+00  0.00000000000E+00  0.13536127782E+04  0.13536127782E+04  0.00000000000E+00 0.  1.
         21   -1    0    0  502  503 -0.00000000000E+00 -0.00000000000E+00 -0.95594221326E+03  0.95594221326E+03  0.00000000000E+00 0.  1.
   -9000010    2    1    2    0  503  0.38197068755E+02  0.55098274231E+03  0.95101605378E+02  0.11389685058E+04  0.99154623870E+03 0.  0.
    9000010    2    1    2  501    0 -0.38197068755E+02 -0.55098274231E+03  0.30256895960E+03  0.11705864857E+04  0.98675414709E+03 0.  0.
        -13    1    4    4    0    0  0.26273564899E+03  0.12223286289E+03 -0.12787215533E+03  0.31673678867E+03  0.10566000000E+00 0.  1.
          4    1    4    4  501    0 -0.30093271775E+03 -0.67321560521E+03  0.43044111493E+03  0.85384969703E+03  0.00000000000E+00 0.  1.
         13    1    3    3    0    0  0.48639012141E+03  0.96341231666E+02  0.61907112048E+02  0.49968938833E+03  0.10566000000E+00 0. -1.
         -4    1    3    3    0  503 -0.44819305265E+03  0.45464151065E+03  0.33194493330E+02  0.63927911747E+03  0.00000000000E+00 0. -1.
<mgrwt>
<rscale>  2 0.11339437E+04</rscale>
<asrwt>0</asrwt>
<pdfrwt beam="1">  1       21 0.20824812E+00 0.11349912E+04</pdfrwt>
<pdfrwt beam="2">  1       21 0.14706803E+00 0.11349912E+04</pdfrwt>
<totfact> 0.16240382E+01</totfact>
</mgrwt>
</event>
<event>
 8    1  0.1094795E-005  0.1185041E+04  0.7818608E-02  0.8641775E-01
         21   -1    0    0  503  502  0.00000000000E+00  0.00000000000E+00  0.10026165322E+04  0.10026165322E+04  0.00000000000E+00 0.  1.
         21   -1    0    0  501  503 -0.00000000000E+00 -0.00000000000E+00 -0.13099599560E+04  0.13099599560E+04  0.00000000000E+00 0. -1.
    9000010    2    1    2  501    0  0.60428008843E+03 -0.17055953747E+03  0.53745182869E+02  0.11862591565E+04  0.10050260000E+04 0.  0.
   -9000010    2    1    2    0  502 -0.60428008843E+03  0.17055953747E+03 -0.36108860673E+03  0.11263173317E+04  0.86253160443E+03 0.  0.
        -13    1    3    3    0    0  0.74627297611E+03 -0.43668401093E+03 -0.53054319547E+02  0.86627423618E+03  0.10566000000E+00 0.  1.
          4    1    3    3  501    0 -0.14199288768E+03  0.26612447346E+03  0.10679950242E+03  0.31998492033E+03  0.00000000000E+00 0.  1.
         13    1    4    4    0    0 -0.36264781676E+03  0.47887661833E+03 -0.10759595640E+02  0.60079283837E+03  0.10566000000E+00 0. -1.
         -4    1    4    4    0  502 -0.24163227167E+03 -0.30831708085E+03 -0.35032901109E+03  0.52552449331E+03  0.00000000000E+00 0. -1.
<mgrwt>
<rscale>  2 0.11543238E+04</rscale>
<asrwt>0</asrwt>
<pdfrwt beam="1">  1       21 0.15424870E+00 0.11850410E+04</pdfrwt>
<pdfrwt beam="2">  1       21 0.20153230E+00 0.11850410E+04</pdfrwt>
<totfact> 0.15633244E+01</totfact>
</mgrwt>
</event>
<event>
 8    1  0.1094795E-005  0.1087600E+04  0.7818608E-02  0.8701335E-01
         21   -1    0    0  501  502  0.00000000000E+00  0.00000000000E+00  0.10696295604E+04  0.10696295604E+04  0.00000000000E+00 0.  1.
         21   -1    0    0  502  503 -0.00000000000E+00 -0.00000000000E+00 -0.10846756970E+04  0.10846756970E+04  0.00000000000E+00 0.  1.
   -9000010    2    1    2    0  503  0.41559332537E+03 -0.48158952263E+02 -0.55572043318E+02  0.10659507016E+04  0.97883887814E+03 0.  0.
    9000010    2    1    2  501    0 -0.41559332537E+03  0.48158952263E+02  0.40525906777E+02  0.10883545559E+04  0.10039104509E+04 0.  0.
        -13    1    4    4    0    0 -0.67132544824E+03  0.21932642502E+03  0.21031168553E+03  0.73689412700E+03  0.10566000000E+00 0.  1.
          4    1    4    4  501    0  0.25573212287E+03 -0.17116747276E+03 -0.16978577875E+03  0.35146042887E+03  0.00000000000E+00 0.  1.
         13    1    3    3    0    0 -0.18422103630E+03 -0.33679502269E+03  0.65348463753E+02  0.38940815400E+03  0.10566000000E+00 0. -1.
         -4    1    3    3    0  503  0.59981436167E+03  0.28863607043E+03 -0.12092050707E+03  0.67654254755E+03  0.00000000000E+00 0. -1.
<mgrwt>
<rscale>  2 0.10817785E+04</rscale>
<asrwt>0</asrwt>
<pdfrwt beam="1">  1       21 0.16455839E+00 0.10875998E+04</pdfrwt>
<pdfrwt beam="2">  1       21 0.16687318E+00 0.10875998E+04</pdfrwt>
<totfact> 0.24799959E+01</totfact>
</mgrwt>
</event>
<event>
 8    1  0.1094795E-005  0.1151859E+04  0.7818608E-02  0.8648354E-01
         21   -1    0    0  501  502  0.00000000000E+00  0.00000000000E+00  0.41092628344E+03  0.41092628344E+03  0.00000000000E+00 0.  1.
         21   -1    0    0  502  503 -0.00000000000E+00 -0.00000000000E+00 -0.32558493439E+04  0.32558493439E+04  0.00000000000E+00 0.  1.
   -9000010    2    1    2    0  503 -0.51323240695E+03  0.26214132199E+03 -0.17160653402E+04  0.20539834918E+04  0.97048562932E+03 0.  0.
    9000010    2    1    2  501    0  0.51323240695E+03 -0.26214132199E+03 -0.11288577203E+04  0.16127921355E+04  0.99732298854E+03 0.  0.
        -13    1    4    4    0    0  0.27891872010E+03  0.17268103462E+03 -0.10654423952E+04  0.11148012831E+04  0.10566000000E+00 0.  1.
          4    1    4    4  501    0  0.23431368684E+03 -0.43482235661E+03 -0.63415325106E+02  0.49799085244E+03  0.00000000000E+00 0.  1.
         13    1    3    3    0    0 -0.63918871790E+03 -0.86122525839E+02 -0.14809852833E+04  0.16153317699E+04  0.10566000000E+00 0. -1.
         -4    1    3    3    0  503  0.12595631095E+03  0.34826384783E+03 -0.23508005694E+03  0.43865172192E+03  0.00000000000E+00 0. -1.
<mgrwt>
<rscale>  2 0.11460254E+04</rscale>
<asrwt>0</asrwt>
<pdfrwt beam="1">  1       21 0.63219430E-01 0.11518588E+04</pdfrwt>
<pdfrwt beam="2">  1       21 0.50089988E+00 0.11518588E+04</pdfrwt>
<totfact> 0.12614768E+00</totfact>
</mgrwt>
</event>
<event>
 8    1  0.1094795E-005  0.1207790E+04  0.7818608E-02  0.8600971E-01
         21   -1    0    0  503  502  0.00000000000E+00  0.00000000000E+00  0.17414958499E+04  0.17414958499E+04  0.00000000000E+00 0. -1.
         21   -1    0    0  501  503 -0.00000000000E+00 -0.00000000000E+00 -0.83884166558E+03  0.83884166558E+03  0.00000000000E+00 0. -1.
    9000010    2    1    2  501    0 -0.37227205398E+03 -0.55633660665E+03  0.51609457629E+03  0.13121955151E+04  0.10036964462E+04 0.  0.
   -9000010    2    1    2    0  502  0.37227205398E+03  0.55633660665E+03  0.38655960800E+03  0.12681420004E+04  0.10053153239E+04 0.  0.
        -13    1    3    3    0    0  0.27133542369E+03  0.87172813967E+02  0.20227689062E+03  0.34948242200E+03  0.10566000000E+00 0.  1.
          4    1    3    3  501    0 -0.64360747767E+03 -0.64350942062E+03  0.31381768567E+03  0.96271309308E+03  0.00000000000E+00 0.  1.
         13    1    4    4    0    0  0.69881891236E+03  0.22006316379E+03  0.29892589266E+03  0.79128526386E+03  0.10566000000E+00 0. -1.
         -4    1    4    4    0  502 -0.32654685838E+03  0.33627344286E+03  0.87633715339E+02  0.47685673651E+03  0.00000000000E+00 0. -1.
<mgrwt>
<rscale>  2 0.12074527E+04</rscale>
<asrwt>0</asrwt>
<pdfrwt beam="1">  1       21 0.26792244E+00 0.12077896E+04</pdfrwt>
<pdfrwt beam="2">  1       21 0.12905256E+00 0.12077896E+04</pdfrwt>
<totfact> 0.85353928E+00</totfact>
</mgrwt>
</event>
<event>
 8    1  0.1094795E-005  0.1197016E+04  0.7818608E-02  0.8619561E-01
         21   -1    0    0  503  502  0.00000000000E+00  0.00000000000E+00  0.77025217309E+03  0.77025217309E+03  0.00000000000E+00 0.  1.
         21   -1    0    0  501  503 -0.00000000000E+00 -0.00000000000E+00 -0.17749994200E+04  0.17749994200E+04  0.00000000000E+00 0.  1.
    9000010    2    1    2  501    0  0.56339558932E+03 -0.98156425460E+02 -0.48375008974E+03  0.12397688685E+04  0.98790861120E+03 0.  0.
   -9000010    2    1    2    0  502 -0.56339558932E+03  0.98156425460E+02 -0.52099715715E+03  0.13054827246E+04  0.10515692238E+04 0.  0.
        -13    1    3    3    0    0  0.53223960673E+03  0.86650408643E+02  0.16545039235E+03  0.56405774153E+03  0.10566000000E+00 0.  1.
          4    1    3    3  501    0  0.31155982585E+02 -0.18480683410E+03 -0.64920048209E+03  0.67571112698E+03  0.00000000000E+00 0.  1.
         13    1    4    4    0    0 -0.18073754239E+03  0.41410719464E+03 -0.65105989064E+03  0.79248332490E+03  0.10566000000E+00 0. -1.
         -4    1    4    4    0  502 -0.38265804692E+03 -0.31595076918E+03  0.13006273349E+03  0.51299939967E+03  0.00000000000E+00 0. -1.
<mgrwt>
<rscale>  2 0.11828877E+04</rscale>
<asrwt>0</asrwt>
<pdfrwt beam="1">  1       21 0.11850034E+00 0.11970159E+04</pdfrwt>
<pdfrwt beam="2">  1       21 0.27307683E+00 0.11970159E+04</pdfrwt>
<totfact> 0.10008196E+01</totfact>
</mgrwt>
</event>
<event>
 8    1  0.1094795E-005  0.1032758E+04  0.7818608E-02  0.8785438E-01
         21   -1    0    0  501  502  0.00000000000E+00  0.00000000000E+00  0.42428396079E+03  0.42428396079E+03  0.00000000000E+00 0.  1.
         21   -1    0    0  502  503 -0.00000000000E+00 -0.00000000000E+00 -0.21424163374E+04  0.21424163374E+04  0.00000000000E+00 0.  1.
   -9000010    2    1    2    0  503  0.53366097725E+02  0.17689563199E+03 -0.10441533856E+04  0.14686204769E+04  0.10160953732E+04 0.  0.
    9000010    2    1    2  501    0 -0.53366097725E+02 -0.17689563199E+03 -0.67397899097E+03  0.10980798213E+04  0.84698973353E+03 0.  0.
        -13    1    4    4    0    0 -0.13574553683E+03  0.21821461477E+03 -0.64397399345E+03  0.69335920292E+03  0.10566000000E+00 0.  1.
          4    1    4    4  501    0  0.82379439102E+02 -0.39511024676E+03 -0.30004997522E+02  0.40472061840E+03  0.00000000000E+00 0.  1.
         13    1    3    3    0    0  0.45725203124E+03  0.29766720412E+03 -0.32513667845E+03  0.63513703664E+03  0.10566000000E+00 0. -1.
         -4    1    3    3    0  503 -0.40388593351E+03 -0.12077157213E+03 -0.71901670719E+03  0.83348344023E+03  0.00000000000E+00 0. -1.
<mgrwt>
<rscale>  2 0.98853589E+03</rscale>
<asrwt>0</asrwt>
<pdfrwt beam="1">  1       21 0.65274457E-01 0.10327584E+04</pdfrwt>
<pdfrwt beam="2">  1       21 0.32960251E+00 0.10327584E+04</pdfrwt>
<totfact> 0.18721055E+01</totfact>
</mgrwt>
</event>
<event>
 8    1  0.1094795E-005  0.1195849E+04  0.7818608E-02  0.8610617E-01
         21   -1    0    0  503  502  0.00000000000E+00  0.00000000000E+00  0.12180466535E+04  0.12180466535E+04  0.00000000000E+00 0. -1.
         21   -1    0    0  501  503 -0.00000000000E+00 -0.00000000000E+00 -0.13755653922E+04  0.13755653922E+04  0.00000000000E+00 0. -1.
    9000010    2    1    2  501    0  0.50623793361E+03 -0.39508056200E+03 -0.58108183777E+03  0.13295531938E+04  0.10088062733E+04 0.  0.
   -9000010    2    1    2    0  502 -0.50623793361E+03  0.39508056200E+03  0.42356309902E+03  0.12640588519E+04  0.10030321960E+04 0.  0.
        -13    1    3    3    0    0  0.53120155253E+03 -0.64132742218E+03 -0.17032982229E+03  0.84999306549E+03  0.10566000000E+00 0.  1.
          4    1    3    3  501    0 -0.24963618923E+02  0.24624686018E+03 -0.41075201549E+03  0.47956012829E+03  0.00000000000E+00 0.  1.
         13    1    4    4    0    0  0.45534659325E+02 -0.15328806325E+03 -0.20777563353E+03  0.26218573682E+03  0.10566000000E+00 0. -1.
         -4    1    4    4    0  502 -0.55177259293E+03  0.54836862526E+03  0.63133873255E+03  0.10018731151E+04  0.00000000000E+00 0. -1.
<mgrwt>
<rscale>  2 0.11946307E+04</rscale>
<asrwt>0</asrwt>
<pdfrwt beam="1">  1       21 0.18739179E+00 0.11958493E+04</pdfrwt>
<pdfrwt beam="2">  1       21 0.21162544E+00 0.11958493E+04</pdfrwt>
<totfact> 0.68678462E+00</totfact>
</mgrwt>
</event>
<event>
 8    1  0.1094795E-005  0.1167119E+04  0.7818608E-02  0.8633020E-01
         21   -1    0    0  503  502  0.00000000000E+00  0.00000000000E+00  0.11524887720E+04  0.11524887720E+04  0.00000000000E+00 0. -1.
         21   -1    0    0  501  503 -0.00000000000E+00 -0.00000000000E+00 -0.19397217150E+04  0.19397217150E+04  0.00000000000E+00 0. -1.
    9000010    2    1    2  501    0 -0.55824046627E+03  0.93363328298E+02 -0.13635227309E+04  0.17905663695E+04  0.10132050911E+04 0.  0.
   -9000010    2    1    2    0  502  0.55824046627E+03 -0.93363328298E+02  0.57628978801E+03  0.13016441175E+04  0.10206950375E+04 0.  0.
        -13    1    3    3    0    0 -0.66187688183E+03 -0.30758462157E+03 -0.10097435132E+04  0.12459017938E+04  0.10566000000E+00 0.  1.
          4    1    3    3  501    0  0.10363641556E+03  0.40094794987E+03 -0.35377921769E+03  0.54466457568E+03  0.00000000000E+00 0.  1.
         13    1    4    4    0    0  0.78816286835E+03  0.13221489068E+03  0.56613359043E+03  0.97938181408E+03  0.10566000000E+00 0. -1.
         -4    1    4    4    0  502 -0.22992240209E+03 -0.22557821898E+03  0.10156197580E+02  0.32226230343E+03  0.00000000000E+00 0. -1.
<mgrwt>
<rscale>  2 0.11654797E+04</rscale>
<asrwt>0</asrwt>
<pdfrwt beam="1">  1       21 0.17730597E+00 0.11671193E+04</pdfrwt>
<pdfrwt beam="2">  1       21 0.29841872E+00 0.11671193E+04</pdfrwt>
<totfact> 0.19447908E+00</totfact>
</mgrwt>
</event>
<event>
 8    1  0.1094795E-005  0.1063765E+04  0.7818608E-02  0.8719302E-01
         21   -1    0    0  503  502  0.00000000000E+00  0.00000000000E+00  0.22289041410E+04  0.22289041410E+04  0.00000000000E+00 0. -1.
         21   -1    0    0  501  503 -0.00000000000E+00 -0.00000000000E+00 -0.50564658235E+03  0.50564658235E+03  0.00000000000E+00 0. -1.
    9000010    2    1    2  501    0 -0.22695715913E+03 -0.32261491099E+03  0.75711643076E+03  0.13056876357E+04  0.98792964301E+03 0.  0.
   -9000010    2    1    2    0  502  0.22695715913E+03  0.32261491099E+03  0.96614112788E+03  0.14288630876E+04  0.97602823279E+03 0.  0.
        -13    1    3    3    0    0 -0.16089268859E+03 -0.64473753770E+03  0.71176657171E+03  0.97374771554E+03  0.10566000000E+00 0.  1.
          4    1    3    3  501    0 -0.66064470546E+02  0.32212262671E+03  0.45349859052E+02  0.33193992020E+03  0.00000000000E+00 0.  1.
         13    1    4    4    0    0  0.25888644010E+03  0.20645332089E+03  0.11568411677E+04  0.12032982428E+04  0.10566000000E+00 0. -1.
         -4    1    4    4    0  502 -0.31929280974E+02  0.11616159010E+03 -0.19070003986E+03  0.22556484478E+03  0.00000000000E+00 0. -1.
<mgrwt>
<rscale>  2 0.10609928E+04</rscale>
<asrwt>0</asrwt>
<pdfrwt beam="1">  1       21 0.34290832E+00 0.10637645E+04</pdfrwt>
<pdfrwt beam="2">  1       21 0.77791783E-01 0.10637645E+04</pdfrwt>
<totfact> 0.98769318E+00</totfact>
</mgrwt>
</event>
<event>
 8    1  0.1094795E-005  0.1186116E+04  0.7818608E-02  0.8618125E-01
         21   -1    0    0  501  502  0.00000000000E+00  0.00000000000E+00  0.18199966181E+04  0.18199966181E+04  0.00000000000E+00 0. -1.
         21   -1    0    0  502  503 -0.00000000000E+00 -0.00000000000E+00 -0.89685543918E+03  0.89685543918E+03  0.00000000000E+00 0. -1.
   -9000010    2    1    2    0  503  0.16802971495E+03  0.61766889310E+03 -0.49440633113E+02  0.11871460081E+04  0.99856017430E+03 0.  0.
    9000010    2    1    2  501    0 -0.16802971495E+03 -0.61766889310E+03  0.97258181200E+03  0.15297060492E+04  0.99213727337E+03 0.  0.
        -13    1    4    4    0    0 -0.28262692303E+03 -0.73342492022E+03  0.10791552234E+04  0.13350528449E+04  0.10566000000E+00 0.  1.
          4    1    4    4  501    0  0.11459720808E+03  0.11575602712E+03 -0.10657341142E+03  0.19465320428E+03  0.00000000000E+00 0.  1.
         13    1    3    3    0    0  0.33282284731E+03  0.83684009633E+03 -0.10708452807E+03  0.90693963516E+03  0.10566000000E+00 0. -1.
         -4    1    3    3    0  503 -0.16479313236E+03 -0.21917120323E+03  0.57643894957E+02  0.28020637292E+03  0.00000000000E+00 0. -1.
<mgrwt>
<rscale>  2 0.11847632E+04</rscale>
<asrwt>0</asrwt>
<pdfrwt beam="1">  1       21 0.27999948E+00 0.11861160E+04</pdfrwt>
<pdfrwt beam="2">  1       21 0.13797776E+00 0.11861160E+04</pdfrwt>
<totfact> 0.57760433E+00</totfact>
</mgrwt>
</event>
<event>
 8    1  0.1094795E-005  0.1130415E+04  0.7818608E-02  0.8662771E-01
         21   -1    0    0  501  502  0.00000000000E+00  0.00000000000E+00  0.12353742257E+04  0.12353742257E+04  0.00000000000E+00 0. -1.
         21   -1    0    0  502  503 -0.00000000000E+00 -0.00000000000E+00 -0.10384492008E+04  0.10384492008E+04  0.00000000000E+00 0. -1.
   -9000010    2    1    2    0  503 -0.41084303416E+03  0.32280334962E+03  0.22296084396E+03  0.11431088571E+04  0.99196387033E+03 0.  0.
    9000010    2    1    2  501    0  0.41084303416E+03 -0.32280334962E+03 -0.26035819104E+02  0.11307145694E+04  0.10024188607E+04 0.  0.
        -13    1    4    4    0    0 -0.19959828148E+03  0.30506353515E+01 -0.32139836591E+03  0.37834600714E+03  0.10566000000E+00 0.  1.
          4    1    4    4  501    0  0.61044131564E+03 -0.32585398497E+03  0.29536254681E+03  0.75236856222E+03  0.00000000000E+00 0.  1.
         13    1    3    3    0    0  0.29567415265E+03 -0.81879858712E+02  0.69193299926E+02  0.31450793269E+03  0.10566000000E+00 0. -1.
         -4    1    3    3    0  503 -0.70651718681E+03  0.40468320833E+03  0.15376754403E+03  0.82860092442E+03  0.00000000000E+00 0. -1.
<mgrwt>
<rscale>  2 0.11280924E+04</rscale>
<asrwt>0</asrwt>
<pdfrwt beam="1">  1       21 0.19005757E+00 0.11304148E+04</pdfrwt>
<pdfrwt beam="2">  1       21 0.15976142E+00 0.11304148E+04</pdfrwt>
<totfact> 0.17431973E+01</totfact>
</mgrwt>
</event>
<event>
 8    1  0.1094795E-005  0.1047903E+04  0.7818608E-02  0.8736877E-01
         21   -1    0    0  503  502  0.00000000000E+00  0.00000000000E+00  0.10938137882E+04  0.10938137882E+04  0.00000000000E+00 0.  1.
         21   -1    0    0  501  503 -0.00000000000E+00 -0.00000000000E+00 -0.25907451224E+04  0.25907451224E+04  0.00000000000E+00 0.  1.
    9000010    2    1    2  501    0 -0.32294461403E+03  0.17582000995E+03 -0.21981191083E+04  0.24237002432E+04  0.95256986869E+03 0.  0.
   -9000010    2    1    2    0  502  0.32294461403E+03 -0.17582000995E+03  0.70118777414E+03  0.12608586674E+04  0.98127182016E+03 0.  0.
        -13    1    3    3    0    0 -0.55022453377E+03  0.25255831606E+03 -0.20595036877E+04  0.21466458002E+04  0.10566000000E+00 0.  1.
          4    1    3    3  501    0  0.22727991974E+03 -0.76738306111E+02 -0.13861542059E+03  0.27705444297E+03  0.00000000000E+00 0.  1.
         13    1    4    4    0    0  0.59213731027E+03 -0.37773915364E+03  0.54934855505E+03  0.89168229123E+03  0.10566000000E+00 0. -1.
         -4    1    4    4    0  502 -0.26919269624E+03  0.20191914369E+03  0.15183921909E+03  0.36917637621E+03  0.00000000000E+00 0. -1.
<mgrwt>
<rscale>  2 0.10411306E+04</rscale>
<asrwt>0</asrwt>
<pdfrwt beam="1">  1       21 0.16827905E+00 0.10479028E+04</pdfrwt>
<pdfrwt beam="2">  1       21 0.39857617E+00 0.10479028E+04</pdfrwt>
<totfact> 0.47169504E-01</totfact>
</mgrwt>
</event>
<event>
 8    1  0.1094795E-005  0.1046563E+04  0.7818608E-02  0.8735909E-01
         21   -1    0    0  501  502  0.00000000000E+00  0.00000000000E+00  0.17384570433E+04  0.17384570433E+04  0.00000000000E+00 0.  1.
         21   -1    0    0  502  503 -0.00000000000E+00 -0.00000000000E+00 -0.62247397363E+03  0.62247397363E+03  0.00000000000E+00 0.  1.
   -9000010    2    1    2    0  503  0.23175056491E+03  0.31264844669E+02  0.64181575947E+03  0.12276895908E+04  0.10201021750E+04 0.  0.
    9000010    2    1    2  501    0 -0.23175056491E+03 -0.31264844669E+02  0.47416731024E+03  0.11332414261E+04  0.10023550653E+04 0.  0.
        -13    1    4    4    0    0  0.37057499002E+03 -0.17528361393E+03  0.19302736546E+03  0.45311118229E+03  0.10566000000E+00 0.  1.
          4    1    4    4  501    0 -0.60232555493E+03  0.14401876926E+03  0.28113994477E+03  0.68013024382E+03  0.00000000000E+00 0.  1.
         13    1    3    3    0    0  0.49982799367E+03 -0.11004411698E+03 -0.67234030294E+01  0.51184269678E+03  0.10566000000E+00 0. -1.
         -4    1    3    3    0  503 -0.26807742876E+03  0.14130896165E+03  0.64853916250E+03  0.71584689407E+03  0.00000000000E+00 0. -1.
<mgrwt>
<rscale>  2 0.10422133E+04</rscale>
<asrwt>0</asrwt>
<pdfrwt beam="1">  1       21 0.26745493E+00 0.10465631E+04</pdfrwt>
<pdfrwt beam="2">  1       21 0.95765228E-01 0.10465631E+04</pdfrwt>
<totfact> 0.20069571E+01</totfact>
</mgrwt>
</event>
<event>
 8    1  0.1094795E-005  0.1115176E+04  0.7818608E-02  0.8676436E-01
         21   -1    0    0  503  502  0.00000000000E+00  0.00000000000E+00  0.14556209047E+04  0.14556209047E+04  0.00000000000E+00 0. -1.
         21   -1    0    0  501  503 -0.00000000000E+00 -0.00000000000E+00 -0.93188884552E+03  0.93188884552E+03  0.00000000000E+00 0. -1.
    9000010    2    1    2  501    0  0.47770150427E+03  0.84749852258E+02 -0.10859733450E+03  0.11055351186E+04  0.98743772095E+03 0.  0.
   -9000010    2    1    2    0  502 -0.47770150427E+03 -0.84749852258E+02  0.63232939365E+03  0.12819746316E+04  0.10041101679E+04 0.  0.
        -13    1    3    3    0    0  0.70688938958E+03  0.24765120161E+03 -0.25151444351E+03  0.79011597454E+03  0.10566000000E+00 0.  1.
          4    1    3    3  501    0 -0.22918788532E+03 -0.16290134935E+03  0.14291710901E+03  0.31541914406E+03  0.00000000000E+00 0.  1.
         13    1    4    4    0    0 -0.81983711064E+02 -0.15208068000E+03 -0.25503328140E+03  0.30804520431E+03  0.10566000000E+00 0. -1.
         -4    1    4    4    0  502 -0.39571779320E+03  0.67330827742E+02  0.88736267506E+03  0.97392942727E+03  0.00000000000E+00 0. -1.
<mgrwt>
<rscale>  2 0.11114104E+04</rscale>
<asrwt>0</asrwt>
<pdfrwt beam="1">  1       21 0.22394168E+00 0.11151764E+04</pdfrwt>
<pdfrwt beam="2">  1       21 0.14336751E+00 0.11151764E+04</pdfrwt>
<totfact> 0.13392111E+01</totfact>
</mgrwt>
</event>
<event>
 8    1  0.1094795E-005  0.1358737E+04  0.7818608E-02  0.8496679E-01
         21   -1    0    0  501  502  0.00000000000E+00  0.00000000000E+00  0.14362911499E+04  0.14362911499E+04  0.00000000000E+00 0. -1.
         21   -1    0    0  502  503 -0.00000000000E+00 -0.00000000000E+00 -0.13665461819E+04  0.13665461819E+04  0.00000000000E+00 0.  1.
   -9000010    2    1    2    0  503  0.44085717218E+03 -0.80513221493E+03  0.38773033265E+03  0.14129761303E+04  0.10017853084E+04 0.  0.
    9000010    2    1    2  501    0 -0.44085717218E+03  0.80513221493E+03 -0.31798536464E+03  0.13898612015E+04  0.99398517977E+03 0.  0.
        -13    1    4    4    0    0  0.13335662076E+03  0.10238065789E+03  0.26311616405E+03  0.31224335759E+03  0.10566000000E+00 0.  1.
          4    1    4    4  501    0 -0.57421379294E+03  0.70275155704E+03 -0.58110152869E+03  0.10776178439E+04  0.00000000000E+00 0.  1.
         13    1    3    3    0    0  0.21410017501E+03  0.59476861718E+02  0.46543222986E+03  0.51575532355E+03  0.10566000000E+00 0. -1.
         -4    1    3    3    0  503  0.22675699717E+03 -0.86460907665E+03 -0.77701897206E+02  0.89722080673E+03  0.00000000000E+00 0. -1.
<mgrwt>
<rscale>  2 0.13572997E+04</rscale>
<asrwt>0</asrwt>
<pdfrwt beam="1">  1       21 0.22096787E+00 0.13587372E+04</pdfrwt>
<pdfrwt beam="2">  1       21 0.21023787E+00 0.13587372E+04</pdfrwt>
<totfact> 0.37343981E+00</totfact>
</mgrwt>
</event>
<event>
 8    1  0.1094795E-005  0.1091620E+04  0.7818608E-02  0.8697031E-01
         21   -1    0    0  501  502  0.00000000000E+00  0.00000000000E+00  0.13187945915E+04  0.13187945915E+04  0.00000000000E+00 0.  1.
         21   -1    0    0  502  503 -0.00000000000E+00 -0.00000000000E+00 -0.88909043910E+03  0.88909043910E+03  0.00000000000E+00 0.  1.
   -9000010    2    1    2    0  503  0.44630693520E+03  0.70524724632E+02  0.17244956158E+03  0.10863623703E+04  0.97276961876E+03 0.  0.
    9000010    2    1    2  501    0 -0.44630693520E+03 -0.70524724632E+02  0.25725459078E+03  0.11215226602E+04  0.99371501739E+03 0.  0.
        -13    1    4    4    0    0  0.17336143333E+03  0.23834933616E+03 -0.13672485818E+03  0.32489735398E+03  0.10566000000E+00 0.  1.
          4    1    4    4  501    0 -0.61966836853E+03 -0.30887406079E+03  0.39397944896E+03  0.79662530627E+03  0.00000000000E+00 0.  1.
         13    1    3    3    0    0  0.70354377925E+03  0.11346237774E+03 -0.87685221134E+02  0.71800854427E+03  0.10566000000E+00 0. -1.
         -4    1    3    3    0  503 -0.25723684404E+03 -0.42937653109E+02  0.26013478272E+03  0.36835382605E+03  0.00000000000E+00 0. -1.
<mgrwt>
<rscale>  2 0.10868301E+04</rscale>
<asrwt>0</asrwt>
<pdfrwt beam="1">  1       21 0.20289148E+00 0.10916195E+04</pdfrwt>
<pdfrwt beam="2">  1       21 0.13678314E+00 0.10916195E+04</pdfrwt>
<totfact> 0.22416353E+01</totfact>
</mgrwt>
</event>
<event>
 8    1  0.1094795E-005  0.1142017E+04  0.7818608E-02  0.8653054E-01
         21   -1    0    0  501  502  0.00000000000E+00  0.00000000000E+00  0.12515942821E+04  0.12515942821E+04  0.00000000000E+00 0.  1.
         21   -1    0    0  502  503 -0.00000000000E+00 -0.00000000000E+00 -0.10400406154E+04  0.10400406154E+04  0.00000000000E+00 0.  1.
   -9000010    2    1    2    0  503  0.54932299111E+03 -0.15430799861E+03  0.18416471606E+03  0.11567709323E+04  0.98926014786E+03 0.  0.
    9000010    2    1    2  501    0 -0.54932299111E+03  0.15430799861E+03  0.27388950564E+02  0.11348639652E+04  0.98061172637E+03 0.  0.
        -13    1    4    4    0    0 -0.66956636636E+02  0.24467278909E+03 -0.40692943805E+03  0.47952011806E+03  0.10566000000E+00 0.  1.
          4    1    4    4  501    0 -0.48236635447E+03 -0.90364790482E+02  0.43431838861E+03  0.65534384713E+03  0.00000000000E+00 0.  1.
         13    1    3    3    0    0  0.83754973714E+03 -0.10040230638E+03  0.18477424874E+03  0.86354601468E+03  0.10566000000E+00 0. -1.
         -4    1    3    3    0  503 -0.28822674603E+03 -0.53905692226E+02 -0.60953268385E+00  0.29322491761E+03  0.00000000000E+00 0. -1.
<mgrwt>
<rscale>  2 0.11401413E+04</rscale>
<asrwt>0</asrwt>
<pdfrwt beam="1">  1       21 0.19255297E+00 0.11420168E+04</pdfrwt>
<pdfrwt beam="2">  1       21 0.16000625E+00 0.11420168E+04</pdfrwt>
<totfact> 0.16531790E+01</totfact>
</mgrwt>
</event>
<event>
 8    1  0.1094795E-005  0.1104159E+04  0.7818608E-02  0.8684119E-01
         21   -1    0    0  501  502  0.00000000000E+00  0.00000000000E+00  0.23285756957E+04  0.23285756957E+04  0.00000000000E+00 0. -1.
         21   -1    0    0  502  503 -0.00000000000E+00 -0.00000000000E+00 -0.53731685338E+03  0.53731685338E+03  0.00000000000E+00 0. -1.
   -9000010    2    1    2    0  503 -0.40728068763E+03  0.23979522848E+03  0.63374309992E+03  0.12662019753E+04  0.98906916618E+03 0.  0.
    9000010    2    1    2  501    0  0.40728068763E+03 -0.23979522848E+03  0.11575157424E+04  0.15996905738E+04  0.99789174150E+03 0.  0.
        -13    1    4    4    0    0 -0.30617754622E+03 -0.24195126429E+03  0.43148854270E+03  0.58177957832E+03  0.10566000000E+00 0.  1.
          4    1    4    4  501    0  0.71345823385E+03  0.21560358055E+01  0.72602719970E+03  0.10179109954E+04  0.00000000000E+00 0.  1.
         13    1    3    3    0    0 -0.24333330575E+03  0.60148856559E+03  0.20191390820E+03  0.67953574572E+03  0.10566000000E+00 0. -1.
         -4    1    3    3    0  503 -0.16394738188E+03 -0.36169333711E+03  0.43182919172E+03  0.58666622960E+03  0.00000000000E+00 0. -1.
<mgrwt>
<rscale>  2 0.11021619E+04</rscale>
<asrwt>0</asrwt>
<pdfrwt beam="1">  1       21 0.35824241E+00 0.11041591E+04</pdfrwt>
<pdfrwt beam="2">  1       21 0.82664132E-01 0.11041591E+04</pdfrwt>
<totfact> 0.65876532E+00</totfact>
</mgrwt>
</event>
<event>
 8    1  0.1094795E-005  0.1066481E+04  0.7818608E-02  0.8715874E-01
         21   -1    0    0  503  502  0.00000000000E+00  0.00000000000E+00  0.13222503641E+04  0.13222503641E+04  0.00000000000E+00 0.  1.
         21   -1    0    0  501  503 -0.00000000000E+00 -0.00000000000E+00 -0.85660892002E+03  0.85660892002E+03  0.00000000000E+00 0.  1.
    9000010    2    1    2  501    0 -0.11833314921E+02 -0.37944947014E+03  0.18888418347E+03  0.10830784028E+04  0.99662413385E+03 0.  0.
   -9000010    2    1    2    0  502  0.11833314921E+02  0.37944947014E+03  0.27675726058E+03  0.10957808813E+04  0.98995920660E+03 0.  0.
        -13    1    3    3    0    0 -0.43544589833E+03 -0.11393984873E+03 -0.15526597747E+03  0.47613333681E+03  0.10566000000E+00 0.  1.
          4    1    3    3  501    0  0.42361258341E+03 -0.26550962140E+03  0.34415016094E+03  0.60694506601E+03  0.00000000000E+00 0.  1.
         13    1    4    4    0    0 -0.25151322843E+03 -0.22094015649E+03 -0.87173985727E+02  0.34593752583E+03  0.10566000000E+00 0. -1.
         -4    1    4    4    0  502  0.26334654335E+03  0.60038962663E+03  0.36393124630E+03  0.74984335544E+03  0.00000000000E+00 0. -1.
<mgrwt>
<rscale>  2 0.10649211E+04</rscale>
<asrwt>0</asrwt>
<pdfrwt beam="1">  1       21 0.20342313E+00 0.10664809E+04</pdfrwt>
<pdfrwt beam="2">  1       21 0.13178599E+00 0.10664809E+04</pdfrwt>
<totfact> 0.24899607E+01</totfact>
</mgrwt>
</event>
