<event>
 8    1  0.7046235E-006  0.1261668E+04  0.7818608E-02  0.8561517E-01
          2   -1    0    0  502    0  0.00000000000E+00  0.00000000000E+00  0.12636913074E+04  0.12636913074E+04  0.00000000000E+00 0. -1.
         -2   -1    0    0    0  501 -0.00000000000E+00 -0.00000000000E+00 -0.12733556583E+04  0.12733556583E+04  0.00000000000E+00 0.  1.
    9000010    2    1    2  502    0 -0.13437771941E+03  0.83312684444E+03  0.12251698562E+03  0.12346644062E+04  0.89287629257E+03 0.  0.
   -9000010    2    1    2    0  501  0.13437771941E+03 -0.83312684444E+03 -0.13218133656E+03  0.13023825595E+04  0.98314328316E+03 0.  0.
        -13    1    3    3    0    0 -0.40566518635E+03  0.68308374066E+03  0.33143583409E+03  0.86082365410E+03  0.10566000000E+00 0.  1.
          4    1    3    3  502    0  0.27128746694E+03  0.15004310378E+03 -0.20891884847E+03  0.37384075213E+03  0.00000000000E+00 0.  1.
         13    1    4    4    0    0  0.40125233886E+03 -0.90510377667E+02  0.18613068253E+03  0.45148666652E+03  0.10566000000E+00 0. -1.
         -4    1    4    4    0  501 -0.26687461945E+03 -0.74261646678E+03 -0.31831201909E+03  0.85089589300E+03  0.00000000000E+00 0. -1.
<mgrwt>
<rscale>  2 0.12616683E+04</rscale>
<asrwt>0</asrwt>
<pdfrwt beam="1">  1        2 0.19441405E+00 0.12616683E+04</pdfrwt>
<pdfrwt beam="2">  1       -2 0.19590087E+00 0.12616683E+04</pdfrwt>
<totfact> 0.28892304E+00</totfact>
</mgrwt>
</event>
<event>
 8    1  0.7046235E-006  0.1376271E+04  0.7818608E-02  0.8484470E-01
         -2   -1    0    0    0  501 -0.00000000000E+00  0.00000000000E+00  0.16236340203E+04  0.16236340203E+04  0.00000000000E+00 0. -1.
          2   -1    0    0  502    0  0.00000000000E+00 -0.00000000000E+00 -0.13769380300E+04  0.13769380300E+04  0.00000000000E+00 0.  1.
    9000010    2    1    2  502    0  0.93224007182E+03 -0.10535886801E+03  0.71011687786E+03  0.15535330927E+04  0.10144097038E+04 0.  0.
   -9000010    2    1    2    0  501 -0.93224007182E+03  0.10535886801E+03 -0.46342088755E+03  0.14470389576E+04  0.99949526423E+03 0.  0.
        -13    1    3    3    0    0  0.88679669550E+03 -0.35464168443E+03  0.83718890293E+03  0.12700647125E+04  0.10566000000E+00 0.  1.
          4    1    3    3  502    0  0.45443376318E+02  0.24928281642E+03 -0.12707202507E+03  0.28346838019E+03  0.00000000000E+00 0.  1.
         13    1    4    4    0    0  0.13691572929E+02  0.26357929595E+03 -0.40856092872E+03  0.48639854858E+03  0.10566000000E+00 0. -1.
         -4    1    4    4    0  501 -0.94593164474E+03 -0.15822042794E+03 -0.54859958833E+02  0.96064040901E+03  0.00000000000E+00 0. -1.
<mgrwt>
<rscale>  2 0.13762708E+04</rscale>
<asrwt>0</asrwt>
<pdfrwt beam="2">  1        2 0.21183662E+00 0.13762708E+04</pdfrwt>
<pdfrwt beam="1">  1       -2 0.24978985E+00 0.13762708E+04</pdfrwt>
<totfact> 0.90698753E-01</totfact>
</mgrwt>
</event>
<event>
 8    1  0.7046235E-006  0.1097288E+04  0.7818608E-02  0.8688200E-01
          2   -1    0    0  502    0  0.00000000000E+00  0.00000000000E+00  0.17590282550E+04  0.17590282550E+04  0.00000000000E+00 0.  1.
         -2   -1    0    0    0  501 -0.00000000000E+00 -0.00000000000E+00 -0.77962214190E+03  0.77962214190E+03  0.00000000000E+00 0. -1.
    9000010    2    1    2  502    0 -0.30802794555E+03  0.30523468714E+03  0.93190110309E+03  0.14373138626E+04  0.10046800705E+04 0.  0.
   -9000010    2    1    2    0  501  0.30802794555E+03 -0.30523468714E+03  0.47505009978E+02  0.11013365343E+04  0.10112546694E+04 0.  0.
        -13    1    3    3    0    0 -0.29543894130E+02  0.11829889917E+03 -0.21237750041E+03  0.24489116985E+03  0.10566000000E+00 0.  1.
          4    1    3    3  502    0 -0.27848405142E+03  0.18693578797E+03  0.11442786035E+04  0.11924226927E+04  0.00000000000E+00 0.  1.
         13    1    4    4    0    0  0.25946814612E+03 -0.49811911516E+03 -0.34652927230E+03  0.65994614891E+03  0.10566000000E+00 0. -1.
         -4    1    4    4    0  501  0.48559799432E+02  0.19288442802E+03  0.39403428228E+03  0.44139038538E+03  0.00000000000E+00 0. -1.
<mgrwt>
<rscale>  2 0.10972877E+04</rscale>
<asrwt>0</asrwt>
<pdfrwt beam="1">  1        2 0.27061973E+00 0.10972877E+04</pdfrwt>
<pdfrwt beam="2">  1       -2 0.11994187E+00 0.10972877E+04</pdfrwt>
<totfact> 0.72415479E+00</totfact>
</mgrwt>
</event>
<event>
 8    1  0.7046235E-006  0.1048690E+04  0.7818608E-02  0.8730141E-01
         -2   -1    0    0    0  501 -0.00000000000E+00  0.00000000000E+00  0.97936654520E+03  0.97936654520E+03  0.00000000000E+00 0.  1.
          2   -1    0    0  502    0  0.00000000000E+00 -0.00000000000E+00 -0.11361372969E+04  0.11361372969E+04  0.00000000000E+00 0. -1.
    9000010    2    1    2  502    0  0.19791688482E+03  0.17313684794E+03  0.35643302468E+02  0.10500383825E+04  0.10159540827E+04 0.  0.
   -9000010    2    1    2    0  501 -0.19791688482E+03 -0.17313684794E+03 -0.19241405418E+03  0.10654654597E+04  0.10144190535E+04 0.  0.
        -13    1    3    3    0    0  0.44849323733E+03  0.36365826818E+03  0.28925515676E+03  0.64580343513E+03  0.10566000000E+00 0.  1.
          4    1    3    3  502    0 -0.25057635251E+03 -0.19052142025E+03 -0.25361185429E+03  0.40423494733E+03  0.00000000000E+00 0.  1.
         13    1    4    4    0    0 -0.24361982019E+03 -0.10156570934E+03  0.39328371415E+03  0.47364364356E+03  0.10566000000E+00 0. -1.
         -4    1    4    4    0  501  0.45702935364E+02 -0.71571138595E+02 -0.58569776833E+03  0.59182181610E+03  0.00000000000E+00 0. -1.
<mgrwt>
<rscale>  2 0.10486900E+04</rscale>
<asrwt>0</asrwt>
<pdfrwt beam="2">  1        2 0.17479035E+00 0.10486900E+04</pdfrwt>
<pdfrwt beam="1">  1       -2 0.15067178E+00 0.10486900E+04</pdfrwt>
<totfact> 0.84260484E+00</totfact>
</mgrwt>
</event>
<event>
 8    1  0.7046235E-006  0.1418717E+04  0.7818608E-02  0.8457870E-01
          2   -1    0    0  502    0  0.00000000000E+00  0.00000000000E+00  0.24901304490E+04  0.24901304490E+04  0.00000000000E+00 0.  1.
         -2   -1    0    0    0  501 -0.00000000000E+00 -0.00000000000E+00 -0.92924908199E+03  0.92924908199E+03  0.00000000000E+00 0. -1.
    9000010    2    1    2  502    0  0.20101918852E+03  0.95261743979E+03  0.13768992998E+04  0.19496764131E+04  0.97851813124E+03 0.  0.
   -9000010    2    1    2    0  501 -0.20101918852E+03 -0.95261743979E+03  0.18398206720E+03  0.14697031179E+04  0.10854902823E+04 0.  0.
        -13    1    3    3    0    0  0.30376192458E+03  0.86772428029E+03  0.46905170340E+03  0.10320979823E+04  0.10566000000E+00 0.  1.
          4    1    3    3  502    0 -0.10274273606E+03  0.84893159501E+02  0.90784759641E+03  0.91757843079E+03  0.00000000000E+00 0.  1.
         13    1    4    4    0    0  0.26924483821E+03  0.81848025933E+02 -0.99594391780E+02  0.29851454954E+03  0.10566000000E+00 0. -1.
         -4    1    4    4    0  501 -0.47026402673E+03 -0.10344654657E+04  0.28357645898E+03  0.11711885684E+04  0.00000000000E+00 0. -1.
<mgrwt>
<rscale>  2 0.14187166E+04</rscale>
<asrwt>0</asrwt>
<pdfrwt beam="1">  1        2 0.38309699E+00 0.14187166E+04</pdfrwt>
<pdfrwt beam="2">  1       -2 0.14296140E+00 0.14187166E+04</pdfrwt>
<totfact> 0.17016771E+00</totfact>
</mgrwt>
</event>
<event>
 8    1  0.7046235E-006  0.1412941E+04  0.7818608E-02  0.8461433E-01
         -1   -1    0    0    0  501 -0.00000000000E+00  0.00000000000E+00  0.29311357816E+04  0.29311357816E+04  0.00000000000E+00 0.  1.
          1   -1    0    0  502    0  0.00000000000E+00 -0.00000000000E+00 -0.68360032207E+03  0.68360032207E+03  0.00000000000E+00 0. -1.
    9000010    2    1    2  502    0  0.87394205343E+02 -0.90658179415E+03  0.11148318719E+04  0.18560880849E+04  0.11716162254E+04 0.  0.
   -9000010    2    1    2    0  501 -0.87394205343E+02  0.90658179415E+03  0.11327035877E+04  0.17586480188E+04  0.99009956065E+03 0.  0.
        -13    1    3    3    0    0 -0.34429437890E+03  0.62167985713E+02  0.50397857849E+02  0.35347338376E+03  0.10566000000E+00 0.  1.
          4    1    3    3  502    0  0.43168858424E+03 -0.96874977986E+03  0.10644340141E+04  0.15026147011E+04  0.00000000000E+00 0.  1.
         13    1    4    4    0    0 -0.88307174364E+02  0.78975241261E+03  0.20106991487E+03  0.81971711712E+03  0.10566000000E+00 0. -1.
         -4    1    4    4    0  501  0.91296902079E+00  0.11682938154E+03  0.93163367278E+03  0.93893090170E+03  0.00000000000E+00 0. -1.
<mgrwt>
<rscale>  2 0.14129409E+04</rscale>
<asrwt>0</asrwt>
<pdfrwt beam="2">  1        1 0.10516928E+00 0.14129409E+04</pdfrwt>
<pdfrwt beam="1">  1       -1 0.45094396E+00 0.14129409E+04</pdfrwt>
<totfact> 0.42035569E-01</totfact>
</mgrwt>
</event>
<event>
 8    1  0.7046235E-006  0.1124575E+04  0.7818608E-02  0.8665632E-01
         -2   -1    0    0    0  501 -0.00000000000E+00  0.00000000000E+00  0.16761169281E+04  0.16761169281E+04  0.00000000000E+00 0. -1.
          2   -1    0    0  502    0  0.00000000000E+00 -0.00000000000E+00 -0.78281217554E+03  0.78281217554E+03  0.00000000000E+00 0.  1.
    9000010    2    1    2  502    0  0.50037885298E+03 -0.43029091568E+00  0.67728021401E+03  0.13062174858E+04  0.99855718427E+03 0.  0.
   -9000010    2    1    2    0  501 -0.50037885298E+03  0.43029091568E+00  0.21602453857E+03  0.11527116179E+04  0.10157254998E+04 0.  0.
        -13    1    3    3    0    0  0.55753917320E+03 -0.24295681257E+03  0.25811429496E+02  0.60872340474E+03  0.10566000000E+00 0.  1.
          4    1    3    3  502    0 -0.57160320225E+02  0.24252652165E+03  0.65146878451E+03  0.69749408105E+03  0.00000000000E+00 0.  1.
         13    1    4    4    0    0 -0.64787648480E+03  0.14702740508E+03 -0.19474139226E+03  0.69230428168E+03  0.10566000000E+00 0. -1.
         -4    1    4    4    0  501  0.14749763183E+03 -0.14659711417E+03  0.41076593083E+03  0.46040733618E+03  0.00000000000E+00 0. -1.
<mgrwt>
<rscale>  2 0.11245747E+04</rscale>
<asrwt>0</asrwt>
<pdfrwt beam="2">  1        2 0.12043264E+00 0.11245747E+04</pdfrwt>
<pdfrwt beam="1">  1       -2 0.25786414E+00 0.11245747E+04</pdfrwt>
<totfact> 0.18454032E+00</totfact>
</mgrwt>
</event>
<event>
 8    1  0.7046235E-006  0.1250895E+04  0.7818608E-02  0.8569192E-01
         -2   -1    0    0    0  501 -0.00000000000E+00  0.00000000000E+00  0.63180216596E+03  0.63180216596E+03  0.00000000000E+00 0. -1.
          2   -1    0    0  502    0  0.00000000000E+00 -0.00000000000E+00 -0.25429406246E+04  0.25429406246E+04  0.00000000000E+00 0.  1.
    9000010    2    1    2  502    0  0.58683627462E+03  0.49863826374E+03 -0.71469689997E+03  0.14575218885E+04  0.10102284223E+04 0.  0.
   -9000010    2    1    2    0  501 -0.58683627462E+03 -0.49863826374E+03 -0.11964415587E+04  0.17172209021E+04  0.96143553711E+03 0.  0.
        -13    1    3    3    0    0  0.77642617098E+03  0.41165566487E+03 -0.19874237331E+03  0.90099751804E+03  0.10566000000E+00 0.  1.
          4    1    3    3  502    0 -0.18958989636E+03  0.86982598868E+02 -0.51595452666E+03  0.55652437044E+03  0.00000000000E+00 0.  1.
         13    1    4    4    0    0 -0.29020471613E+03 -0.35384946145E+03  0.18729971288E+02  0.45801642069E+03  0.10566000000E+00 0. -1.
         -4    1    4    4    0  501 -0.29663155849E+03 -0.14478880228E+03 -0.12151715300E+04  0.12592044814E+04  0.00000000000E+00 0. -1.
<mgrwt>
<rscale>  2 0.12508947E+04</rscale>
<asrwt>0</asrwt>
<pdfrwt beam="2">  1        2 0.39122164E+00 0.12508947E+04</pdfrwt>
<pdfrwt beam="1">  1       -2 0.97200333E-01 0.12508947E+04</pdfrwt>
<totfact> 0.44725400E+00</totfact>
</mgrwt>
</event>
<event>
 8    1  0.7046235E-006  0.1298992E+04  0.7818608E-02  0.8535528E-01
         -1   -1    0    0    0  501 -0.00000000000E+00  0.00000000000E+00  0.17263215148E+04  0.17263215148E+04  0.00000000000E+00 0.  1.
          1   -1    0    0  502    0  0.00000000000E+00 -0.00000000000E+00 -0.13798502293E+04  0.13798502293E+04  0.00000000000E+00 0. -1.
    9000010    2    1    2  502    0  0.47440410853E+03  0.67018623813E+03  0.10125393213E+04  0.16522459303E+04  0.10151216110E+04 0.  0.
   -9000010    2    1    2    0  501 -0.47440410853E+03 -0.67018623813E+03 -0.66606803585E+03  0.14539258138E+04  0.99802043657E+03 0.  0.
        -13    1    3    3    0    0  0.48537804756E+03  0.81123474548E+03  0.11264786648E+04  0.14705943882E+04  0.10566000000E+00 0.  1.
          4    1    3    3  502    0 -0.10973939025E+02 -0.14104850735E+03 -0.11393934344E+03  0.18165154210E+03  0.00000000000E+00 0.  1.
         13    1    4    4    0    0 -0.60915546360E+03 -0.84594242011E+03 -0.42273224740E+03  0.11248962268E+04  0.10566000000E+00 0. -1.
         -4    1    4    4    0  501  0.13475135506E+03  0.17575618198E+03 -0.24333578845E+03  0.32902958702E+03  0.00000000000E+00 0. -1.
<mgrwt>
<rscale>  2 0.12989917E+04</rscale>
<asrwt>0</asrwt>
<pdfrwt beam="2">  1        1 0.21228465E+00 0.12989917E+04</pdfrwt>
<pdfrwt beam="1">  1       -1 0.26558793E+00 0.12989917E+04</pdfrwt>
<totfact> 0.34092131E-01</totfact>
</mgrwt>
</event>
<event>
 8    1  0.7046235E-006  0.1281701E+04  0.7818608E-02  0.8547454E-01
          1   -1    0    0  502    0  0.00000000000E+00  0.00000000000E+00  0.20287100546E+04  0.20287100546E+04  0.00000000000E+00 0.  1.
         -1   -1    0    0    0  501 -0.00000000000E+00 -0.00000000000E+00 -0.94405709650E+03  0.94405709650E+03  0.00000000000E+00 0. -1.
    9000010    2    1    2  502    0 -0.24972779447E+03  0.81037249828E+03  0.10917519602E+04  0.16624696757E+04  0.92348011494E+03 0.  0.
   -9000010    2    1    2    0  501  0.24972779447E+03 -0.81037249828E+03 -0.70990021734E+01  0.13102974754E+04  0.99888013335E+03 0.  0.
        -13    1    3    3    0    0 -0.42231380445E+03  0.74435316205E+03  0.11800186510E+04  0.14576881035E+04  0.10566000000E+00 0.  1.
          4    1    3    3  502    0  0.17258600998E+03  0.66019336232E+02 -0.88266690791E+02  0.20478157217E+03  0.00000000000E+00 0.  1.
         13    1    4    4    0    0 -0.24682374316E+02 -0.88108530138E+03 -0.27194180716E+03  0.92242771292E+03  0.10566000000E+00 0. -1.
         -4    1    4    4    0  501  0.27441016878E+03  0.70712803107E+02  0.26484280499E+03  0.38786976243E+03  0.00000000000E+00 0. -1.
<mgrwt>
<rscale>  2 0.12817013E+04</rscale>
<asrwt>0</asrwt>
<pdfrwt beam="1">  1        1 0.31210924E+00 0.12817013E+04</pdfrwt>
<pdfrwt beam="2">  1       -1 0.14523955E+00 0.12817013E+04</pdfrwt>
<totfact> 0.14035773E+00</totfact>
</mgrwt>
</event>
<event>
 8    1  0.7046235E-006  0.1261347E+04  0.7818608E-02  0.8561745E-01
         -2   -1    0    0    0  501 -0.00000000000E+00  0.00000000000E+00  0.20162987944E+04  0.20162987944E+04  0.00000000000E+00 0. -1.
          2   -1    0    0  502    0  0.00000000000E+00 -0.00000000000E+00 -0.80463192742E+03  0.80463192742E+03  0.00000000000E+00 0.  1.
    9000010    2    1    2  502    0 -0.75513382214E+03  0.22752034090E+02  0.40618076697E+03  0.13177173793E+04  0.10003257128E+04 0.  0.
   -9000010    2    1    2    0  501  0.75513382214E+03 -0.22752034090E+02  0.80548610001E+03  0.15032133426E+04  0.10198518282E+04 0.  0.
        -13    1    3    3    0    0 -0.85873469813E+03 -0.16237098682E+03  0.16583953662E+02  0.87410792115E+03  0.10566000000E+00 0.  1.
          4    1    3    3  502    0  0.10360087599E+03  0.18512302091E+03  0.38959681331E+03  0.44360945811E+03  0.00000000000E+00 0.  1.
         13    1    4    4    0    0  0.50477817076E+03 -0.25480990795E+03  0.97115313952E+03  0.11237737861E+04  0.10566000000E+00 0. -1.
         -4    1    4    4    0  501  0.25035565138E+03  0.23205787386E+03 -0.16566703951E+03  0.37943955642E+03  0.00000000000E+00 0. -1.
<mgrwt>
<rscale>  2 0.12613474E+04</rscale>
<asrwt>0</asrwt>
<pdfrwt beam="2">  1        2 0.12378953E+00 0.12613474E+04</pdfrwt>
<pdfrwt beam="1">  1       -2 0.31019981E+00 0.12613474E+04</pdfrwt>
<totfact> 0.73904889E-01</totfact>
</mgrwt>
</event>
<event>
 8    1  0.7046235E-006  0.1262839E+04  0.7818608E-02  0.8560688E-01
         -2   -1    0    0    0  501 -0.00000000000E+00  0.00000000000E+00  0.66075313760E+03  0.66075313760E+03  0.00000000000E+00 0. -1.
          2   -1    0    0  502    0  0.00000000000E+00 -0.00000000000E+00 -0.24688713007E+04  0.24688713007E+04  0.00000000000E+00 0.  1.
    9000010    2    1    2  502    0  0.20298130334E+03  0.73263169297E+03 -0.11270220685E+04  0.16814835637E+04  0.98957446672E+03 0.  0.
   -9000010    2    1    2    0  501 -0.20298130334E+03 -0.73263169297E+03 -0.68109609462E+03  0.14481408746E+04  0.10272631092E+04 0.  0.
        -13    1    3    3    0    0  0.44406816922E+03  0.17574530417E+03 -0.92655764702E+03  0.10423972541E+04  0.10566000000E+00 0.  1.
          4    1    3    3  502    0 -0.24108686588E+03  0.55688638880E+03 -0.20046442146E+03  0.63908630967E+03  0.00000000000E+00 0.  1.
         13    1    4    4    0    0 -0.18763867831E+03 -0.76192490835E+03 -0.91872673330E+03  0.12082204522E+04  0.10566000000E+00 0. -1.
         -4    1    4    4    0  501 -0.15342625037E+02  0.29293215379E+02  0.23763063869E+03  0.23992042233E+03  0.00000000000E+00 0. -1.
<mgrwt>
<rscale>  2 0.12628386E+04</rscale>
<asrwt>0</asrwt>
<pdfrwt beam="2">  1        2 0.37982635E+00 0.12628386E+04</pdfrwt>
<pdfrwt beam="1">  1       -2 0.10165433E+00 0.12628386E+04</pdfrwt>
<totfact> 0.44159864E+00</totfact>
</mgrwt>
</event>
<event>
 8    1  0.7046235E-006  0.1675146E+04  0.7818608E-02  0.8315266E-01
          2   -1    0    0  502    0  0.00000000000E+00  0.00000000000E+00  0.23701745227E+04  0.23701745227E+04  0.00000000000E+00 0.  1.
         -2   -1    0    0    0  501 -0.00000000000E+00 -0.00000000000E+00 -0.13332040061E+04  0.13332040061E+04  0.00000000000E+00 0. -1.
    9000010    2    1    2  502    0 -0.35681852462E+03 -0.12998766186E+04  0.11408692480E+04  0.20354562629E+04  0.10121763058E+04 0.  0.
   -9000010    2    1    2    0  501  0.35681852462E+03  0.12998766186E+04 -0.10389873138E+03  0.16679222658E+04  0.97681679714E+03 0.  0.
        -13    1    3    3    0    0 -0.51568112577E+03 -0.63078467032E+03  0.10688965042E+04  0.13440074671E+04  0.10566000000E+00 0.  1.
          4    1    3    3  502    0  0.15886260115E+03 -0.66909194833E+03  0.71972743736E+02  0.69144879579E+03  0.00000000000E+00 0.  1.
         13    1    4    4    0    0  0.20552027955E+03  0.30781268058E+03  0.40001365294E+03  0.54497538049E+03  0.10566000000E+00 0. -1.
         -4    1    4    4    0  501  0.15129824506E+03  0.99206393806E+03 -0.50391238432E+03  0.11229468853E+04  0.00000000000E+00 0. -1.
<mgrwt>
<rscale>  2 0.16751461E+04</rscale>
<asrwt>0</asrwt>
<pdfrwt beam="1">  1        2 0.36464223E+00 0.16751461E+04</pdfrwt>
<pdfrwt beam="2">  1       -2 0.20510831E+00 0.16751461E+04</pdfrwt>
<totfact> 0.57155909E-01</totfact>
</mgrwt>
</event>
<event>
 8    1  0.7046235E-006  0.1089061E+04  0.7818608E-02  0.8695139E-01
         -1   -1    0    0    0  501 -0.00000000000E+00  0.00000000000E+00  0.27583038408E+04  0.27583038408E+04  0.00000000000E+00 0. -1.
          1   -1    0    0  502    0  0.00000000000E+00 -0.00000000000E+00 -0.45342211556E+03  0.45342211556E+03  0.00000000000E+00 0.  1.
    9000010    2    1    2  502    0  0.39121128653E+03 -0.15724953564E+03  0.78873601403E+03  0.13457431660E+04  0.10055577964E+04 0.  0.
   -9000010    2    1    2    0  501 -0.39121128653E+03  0.15724953564E+03  0.15161457112E+04  0.18659827904E+04  0.10027064721E+04 0.  0.
        -13    1    3    3    0    0  0.28774752639E+03 -0.73709924004E+02 -0.19352664469E+03  0.35451990805E+03  0.10566000000E+00 0.  1.
          4    1    3    3  502    0  0.10346376014E+03 -0.83539611638E+02  0.98226265871E+03  0.99122325794E+03  0.00000000000E+00 0.  1.
         13    1    4    4    0    0  0.13601046243E+03 -0.70089546071E+02  0.12016318481E+04  0.12113341818E+04  0.10566000000E+00 0. -1.
         -4    1    4    4    0  501 -0.52722174896E+03  0.22733908171E+03  0.31451386308E+03  0.65464860858E+03  0.00000000000E+00 0. -1.
<mgrwt>
<rscale>  2 0.10890609E+04</rscale>
<asrwt>0</asrwt>
<pdfrwt beam="2">  1        1 0.69757250E-01 0.10890609E+04</pdfrwt>
<pdfrwt beam="1">  1       -1 0.42435443E+00 0.10890609E+04</pdfrwt>
<totfact> 0.81829639E-01</totfact>
</mgrwt>
</event>
<event>
 8    1  0.7046235E-006  0.1276362E+04  0.7818608E-02  0.8551176E-01
          2   -1    0    0  502    0  0.00000000000E+00  0.00000000000E+00  0.25368726526E+04  0.25368726526E+04  0.00000000000E+00 0.  1.
         -2   -1    0    0    0  501 -0.00000000000E+00 -0.00000000000E+00 -0.65795294052E+03  0.65795294052E+03  0.00000000000E+00 0. -1.
    9000010    2    1    2  502    0 -0.86594202922E+02 -0.78621904674E+03  0.70544986610E+03  0.14736433143E+04  0.10238779999E+04 0.  0.
   -9000010    2    1    2    0  501  0.86594202922E+02  0.78621904674E+03  0.11734698460E+04  0.17211822788E+04  0.97969281519E+03 0.  0.
        -13    1    3    3    0    0 -0.34044404411E+03 -0.85280644977E+03  0.77562182046E+03  0.12019859431E+04  0.10566000000E+00 0.  1.
          4    1    3    3  502    0  0.25384984119E+03  0.66587403030E+02 -0.70171954360E+02  0.27165737114E+03  0.00000000000E+00 0.  1.
         13    1    4    4    0    0  0.39598311653E+03  0.82547247614E+03  0.10294349444E+04  0.13776587943E+04  0.10566000000E+00 0. -1.
         -4    1    4    4    0  501 -0.30938891361E+03 -0.39253429394E+02  0.14403490153E+03  0.34352348456E+03  0.00000000000E+00 0. -1.
<mgrwt>
<rscale>  2 0.12763619E+04</rscale>
<asrwt>0</asrwt>
<pdfrwt beam="1">  1        2 0.39028810E+00 0.12763619E+04</pdfrwt>
<pdfrwt beam="2">  1       -2 0.10122353E+00 0.12763619E+04</pdfrwt>
<totfact> 0.40783278E+00</totfact>
</mgrwt>
</event>
<event>
 8    1  0.7046235E-006  0.1228811E+04  0.7818608E-02  0.8585177E-01
         -2   -1    0    0    0  501 -0.00000000000E+00  0.00000000000E+00  0.31124342025E+03  0.31124342025E+03  0.00000000000E+00 0.  1.
          2   -1    0    0  502    0  0.00000000000E+00 -0.00000000000E+00 -0.49046469897E+04  0.49046469897E+04  0.00000000000E+00 0. -1.
    9000010    2    1    2  502    0  0.48202149072E+03  0.49844753726E+03 -0.19969211291E+04  0.23361969755E+04  0.99464950985E+03 0.  0.
   -9000010    2    1    2    0  501 -0.48202149072E+03 -0.49844753726E+03 -0.25964824403E+04  0.28796934345E+04  0.10344653443E+04 0.  0.
        -13    1    3    3    0    0  0.38108400850E+03  0.17771338805E+03 -0.13128539431E+03  0.44050304852E+03  0.10566000000E+00 0.  1.
          4    1    3    3  502    0  0.10093748221E+03  0.32073414922E+03 -0.18656357348E+04  0.18956939270E+04  0.00000000000E+00 0.  1.
         13    1    4    4    0    0 -0.74217987448E+03 -0.60715697674E+03 -0.21041121547E+04  0.23123058905E+04  0.10566000000E+00 0. -1.
         -4    1    4    4    0  501  0.26015838377E+03  0.10870943947E+03 -0.49237028564E+03  0.56738754398E+03  0.00000000000E+00 0. -1.
<mgrwt>
<rscale>  2 0.12288114E+04</rscale>
<asrwt>0</asrwt>
<pdfrwt beam="2">  1        2 0.75456101E+00 0.12288114E+04</pdfrwt>
<pdfrwt beam="1">  1       -2 0.47883607E-01 0.12288114E+04</pdfrwt>
<totfact> 0.30276676E-01</totfact>
</mgrwt>
</event>
<event>
 8    1  0.7046235E-006  0.1263616E+04  0.7818608E-02  0.8560138E-01
         -1   -1    0    0    0  501 -0.00000000000E+00  0.00000000000E+00  0.72394227286E+03  0.72394227286E+03  0.00000000000E+00 0.  1.
          1   -1    0    0  502    0  0.00000000000E+00 -0.00000000000E+00 -0.22153268159E+04  0.22153268159E+04  0.00000000000E+00 0. -1.
    9000010    2    1    2  502    0 -0.75569431341E+03  0.19695231813E+02 -0.64876803518E+03  0.14211289514E+04  0.10135313194E+04 0.  0.
   -9000010    2    1    2    0  501  0.75569431341E+03 -0.19695231813E+02 -0.84261650789E+03  0.15181401374E+04  0.10115755533E+04 0.  0.
        -13    1    3    3    0    0  0.22286375015E+03  0.14051859620E+03 -0.51815753541E+02  0.26851184423E+03  0.10566000000E+00 0.  1.
          4    1    3    3  502    0 -0.97855806356E+03 -0.12082336439E+03 -0.59695228164E+03  0.11526171071E+04  0.00000000000E+00 0.  1.
         13    1    4    4    0    0  0.26377326991E+03 -0.11592052626E+03 -0.96086843799E+03  0.10031361187E+04  0.10566000000E+00 0. -1.
         -4    1    4    4    0  501  0.49192104350E+03  0.96225294447E+02  0.11825193010E+03  0.51500401872E+03  0.00000000000E+00 0. -1.
<mgrwt>
<rscale>  2 0.12636162E+04</rscale>
<asrwt>0</asrwt>
<pdfrwt beam="2">  1        1 0.34081951E+00 0.12636162E+04</pdfrwt>
<pdfrwt beam="1">  1       -1 0.11137573E+00 0.12636162E+04</pdfrwt>
<totfact> 0.19969281E+00</totfact>
</mgrwt>
</event>
<event>
 8    1  0.7046235E-006  0.1357846E+04  0.7818608E-02  0.8496324E-01
          1   -1    0    0  502    0  0.00000000000E+00  0.00000000000E+00  0.16671663869E+04  0.16671663869E+04  0.00000000000E+00 0. -1.
         -1   -1    0    0    0  501 -0.00000000000E+00 -0.00000000000E+00 -0.11465788386E+04  0.11465788386E+04  0.00000000000E+00 0.  1.
    9000010    2    1    2  502    0 -0.84179887934E+03 -0.37163241882E+03  0.52676163600E+03  0.14650235575E+04  0.10109798192E+04 0.  0.
   -9000010    2    1    2    0  501  0.84179887934E+03  0.37163241882E+03 -0.61740876986E+01  0.13487216680E+04  0.98604057237E+03 0.  0.
        -13    1    3    3    0    0 -0.41505521507E+03 -0.28488808432E+03  0.80413575678E+03  0.94871828202E+03  0.10566000000E+00 0.  1.
          4    1    3    3  502    0 -0.42674366427E+03 -0.86744334503E+02 -0.27737412079E+03  0.51630527544E+03  0.00000000000E+00 0.  1.
         13    1    4    4    0    0  0.47851390361E+03  0.12336549068E+03 -0.48918324576E+03  0.69533794614E+03  0.10566000000E+00 0. -1.
         -4    1    4    4    0  501  0.36328497573E+03  0.24826692814E+03  0.48300915807E+03  0.65338372185E+03  0.00000000000E+00 0. -1.
<mgrwt>
<rscale>  2 0.13578461E+04</rscale>
<asrwt>0</asrwt>
<pdfrwt beam="1">  1        1 0.25648714E+00 0.13578461E+04</pdfrwt>
<pdfrwt beam="2">  1       -1 0.17639674E+00 0.13578461E+04</pdfrwt>
<totfact> 0.13963567E+00</totfact>
</mgrwt>
</event>
<event>
 8    1  0.7046235E-006  0.1056100E+04  0.7818608E-02  0.8723594E-01
         -2   -1    0    0    0  501 -0.00000000000E+00  0.00000000000E+00  0.11550138564E+04  0.11550138564E+04  0.00000000000E+00 0.  1.
          2   -1    0    0  502    0  0.00000000000E+00 -0.00000000000E+00 -0.12688879249E+04  0.12688879249E+04  0.00000000000E+00 0. -1.
    9000010    2    1    2  502    0 -0.34846262279E+03 -0.55905561516E+02  0.53561749120E+03  0.11820133420E+04  0.99283322488E+03 0.  0.
   -9000010    2    1    2    0  501  0.34846262279E+03  0.55905561516E+02 -0.64949155964E+03  0.12418884393E+04  0.99794587949E+03 0.  0.
        -13    1    3    3    0    0 -0.66841239366E+03 -0.73730024104E+02  0.16566046797E+03  0.69257104059E+03  0.10566000000E+00 0.  1.
          4    1    3    3  502    0  0.31994977087E+03  0.17824462587E+02  0.36995702323E+03  0.48944230138E+03  0.00000000000E+00 0.  1.
         13    1    4    4    0    0  0.19055964779E+03  0.12098943075E-01 -0.91133882824E+03  0.93104857582E+03  0.10566000000E+00 0. -1.
         -4    1    4    4    0  501  0.15790297500E+03  0.55893462573E+02  0.26184726860E+03  0.31083986351E+03  0.00000000000E+00 0. -1.
<mgrwt>
<rscale>  2 0.10560999E+04</rscale>
<asrwt>0</asrwt>
<pdfrwt beam="2">  1        2 0.19521353E+00 0.10560999E+04</pdfrwt>
<pdfrwt beam="1">  1       -2 0.17769444E+00 0.10560999E+04</pdfrwt>
<totfact> 0.41586232E+00</totfact>
</mgrwt>
</event>
<event>
 8    1  0.7046235E-006  0.1264245E+04  0.7818608E-02  0.8559693E-01
          2   -1    0    0  502    0  0.00000000000E+00  0.00000000000E+00  0.34507117872E+04  0.34507117872E+04  0.00000000000E+00 0. -1.
         -2   -1    0    0    0  501 -0.00000000000E+00 -0.00000000000E+00 -0.46804192457E+03  0.46804192457E+03  0.00000000000E+00 0.  1.
    9000010    2    1    2  502    0 -0.75781009523E+03 -0.27132556469E+03  0.13119487274E+04  0.18331664016E+04  0.99568865117E+03 0.  0.
   -9000010    2    1    2    0  501  0.75781009523E+03  0.27132556469E+03  0.16707211352E+04  0.20855873101E+04  0.95418636241E+03 0.  0.
        -13    1    3    3    0    0  0.10828639085E+03 -0.23259974372E+03  0.76792006554E+03  0.80964796142E+03  0.10566000000E+00 0.  1.
          4    1    3    3  502    0 -0.86609648608E+03 -0.38725820967E+02  0.54402866186E+03  0.10235184402E+04  0.00000000000E+00 0.  1.
         13    1    4    4    0    0  0.70130418956E+03 -0.17451847662E+03  0.13572074660E+04  0.15376268670E+04  0.10566000000E+00 0. -1.
         -4    1    4    4    0  501  0.56505905674E+02  0.44584404131E+03  0.31351366914E+03  0.54796044318E+03  0.00000000000E+00 0. -1.
<mgrwt>
<rscale>  2 0.12642450E+04</rscale>
<asrwt>0</asrwt>
<pdfrwt beam="1">  1        2 0.53087872E+00 0.12642450E+04</pdfrwt>
<pdfrwt beam="2">  1       -2 0.72006452E-01 0.12642450E+04</pdfrwt>
<totfact> 0.23647884E+00</totfact>
</mgrwt>
</event>
<event>
 8    1  0.7046235E-006  0.1563266E+04  0.7818608E-02  0.8373992E-01
         -2   -1    0    0    0  501 -0.00000000000E+00  0.00000000000E+00  0.87404425141E+03  0.87404425141E+03  0.00000000000E+00 0. -1.
          2   -1    0    0  502    0  0.00000000000E+00 -0.00000000000E+00 -0.31632103203E+04  0.31632103203E+04  0.00000000000E+00 0.  1.
    9000010    2    1    2  502    0  0.11977517296E+04  0.28954132112E+03 -0.18432572148E+04  0.24282148770E+04  0.99004391151E+03 0.  0.
   -9000010    2    1    2    0  501 -0.11977517296E+04 -0.28954132112E+03 -0.44590885408E+03  0.16090396947E+04  0.93366517053E+03 0.  0.
        -13    1    3    3    0    0  0.55852124428E+03  0.30467814184E+03 -0.20313525678E+03  0.66786128361E+03  0.10566000000E+00 0.  1.
          4    1    3    3  502    0  0.63923048527E+03 -0.15136820716E+02 -0.16401219580E+04  0.17603535934E+04  0.00000000000E+00 0.  1.
         13    1    4    4    0    0 -0.40145334532E+03 -0.51235104202E+03  0.36148145525E+02  0.65190112618E+03  0.10566000000E+00 0. -1.
         -4    1    4    4    0  501 -0.79629838423E+03  0.22280972090E+03 -0.48205699961E+03  0.95713856851E+03  0.00000000000E+00 0. -1.
<mgrwt>
<rscale>  2 0.15632660E+04</rscale>
<asrwt>0</asrwt>
<pdfrwt beam="2">  1        2 0.48664774E+00 0.15632660E+04</pdfrwt>
<pdfrwt beam="1">  1       -2 0.13446835E+00 0.15632660E+04</pdfrwt>
<totfact> 0.78721415E-01</totfact>
</mgrwt>
</event>
<event>
 8    1  0.7046235E-006  0.2077510E+04  0.7818608E-02  0.8137543E-01
         -2   -1    0    0    0  501 -0.00000000000E+00  0.00000000000E+00  0.23129667779E+04  0.23129667779E+04  0.00000000000E+00 0. -1.
          2   -1    0    0  502    0  0.00000000000E+00 -0.00000000000E+00 -0.18815106213E+04  0.18815106213E+04  0.00000000000E+00 0.  1.
    9000010    2    1    2  502    0  0.12573422822E+04 -0.13338455839E+04  0.24642629510E+02  0.20667793860E+04  0.95441925532E+03 0.  0.
   -9000010    2    1    2    0  501 -0.12573422822E+04  0.13338455839E+04  0.40681352704E+03  0.21276980133E+04  0.10007736676E+04 0.  0.
        -13    1    3    3    0    0  0.14033864043E+04 -0.13077086338E+04  0.26227727725E+02  0.19184064157E+04  0.10566000000E+00 0.  1.
          4    1    3    3  502    0 -0.14604412215E+03 -0.26136950015E+02 -0.15850982147E+01  0.14837297027E+03  0.00000000000E+00 0.  1.
         13    1    4    4    0    0 -0.38274056854E+03  0.11111556320E+04  0.12314528642E+03  0.11816606763E+04  0.10566000000E+00 0. -1.
         -4    1    4    4    0  501 -0.87460171364E+03  0.22268995189E+03  0.28366824062E+03  0.94603733695E+03  0.00000000000E+00 0. -1.
<mgrwt>
<rscale>  2 0.20775100E+04</rscale>
<asrwt>0</asrwt>
<pdfrwt beam="2">  1        2 0.28946317E+00 0.20775100E+04</pdfrwt>
<pdfrwt beam="1">  1       -2 0.35584104E+00 0.20775100E+04</pdfrwt>
<totfact> 0.81565886E-02</totfact>
</mgrwt>
</event>
<event>
 8    1  0.7046235E-006  0.1031584E+04  0.7818608E-02  0.8745469E-01
         -1   -1    0    0    0  501 -0.00000000000E+00  0.00000000000E+00  0.73750996611E+03  0.73750996611E+03  0.00000000000E+00 0. -1.
          1   -1    0    0  502    0  0.00000000000E+00 -0.00000000000E+00 -0.15302092886E+04  0.15302092886E+04  0.00000000000E+00 0.  1.
    9000010    2    1    2  502    0 -0.10293988877E+03  0.26747207656E+03 -0.66604717876E+03  0.12253838835E+04  0.98783039287E+03 0.  0.
   -9000010    2    1    2    0  501  0.10293988877E+03 -0.26747207656E+03 -0.12665214373E+03  0.10423353712E+04  0.99412490574E+03 0.  0.
        -13    1    3    3    0    0  0.33098899725E+03 -0.13341126172E+03 -0.49524208088E+03  0.61042363232E+03  0.10566000000E+00 0.  1.
          4    1    3    3  502    0 -0.43392888602E+03  0.40088333828E+03 -0.17080509788E+03  0.61496025114E+03  0.00000000000E+00 0.  1.
         13    1    4    4    0    0  0.25699221872E+03  0.19245164064E+03 -0.37807413309E+03  0.49600674969E+03  0.10566000000E+00 0. -1.
         -4    1    4    4    0  501 -0.15405232995E+03 -0.45992371719E+03  0.25142198936E+03  0.54632862155E+03  0.00000000000E+00 0. -1.
<mgrwt>
<rscale>  2 0.10315843E+04</rscale>
<asrwt>0</asrwt>
<pdfrwt beam="2">  1        1 0.23541681E+00 0.10315843E+04</pdfrwt>
<pdfrwt beam="1">  1       -1 0.11346307E+00 0.10315843E+04</pdfrwt>
<totfact> 0.65219349E+00</totfact>
</mgrwt>
</event>
<event>
 8    1  0.7046235E-006  0.1503820E+04  0.7818608E-02  0.8407304E-01
          2   -1    0    0  502    0  0.00000000000E+00  0.00000000000E+00  0.34523570767E+04  0.34523570767E+04  0.00000000000E+00 0. -1.
         -2   -1    0    0    0  501 -0.00000000000E+00 -0.00000000000E+00 -0.68096567407E+03  0.68096567407E+03  0.00000000000E+00 0.  1.
    9000010    2    1    2  502    0  0.50147899229E+03 -0.10092104646E+04  0.98422201863E+03  0.17988417997E+04  0.99857493303E+03 0.  0.
   -9000010    2    1    2    0  501 -0.50147899229E+03  0.10092104646E+04  0.17871693840E+04  0.23344809510E+04  0.99289473865E+03 0.  0.
        -13    1    3    3    0    0  0.18934638329E+03  0.14009699777E+03 -0.26235779285E+02  0.23699693865E+03  0.10566000000E+00 0.  1.
          4    1    3    3  502    0  0.31213260900E+03 -0.11493074624E+04  0.10104577979E+04  0.15618448611E+04  0.00000000000E+00 0.  1.
         13    1    4    4    0    0 -0.23696877865E+03  0.36381897242E+03  0.20004869575E+02  0.43464773405E+03  0.10566000000E+00 0. -1.
         -4    1    4    4    0  501 -0.26451021364E+03  0.64539149219E+03  0.17671645144E+04  0.18998332170E+04  0.00000000000E+00 0. -1.
<mgrwt>
<rscale>  2 0.15038204E+04</rscale>
<asrwt>0</asrwt>
<pdfrwt beam="1">  1        2 0.53113185E+00 0.15038204E+04</pdfrwt>
<pdfrwt beam="2">  1       -2 0.10476395E+00 0.15038204E+04</pdfrwt>
<totfact> 0.97452551E-01</totfact>
</mgrwt>
</event>
<event>
 8    1  0.7046235E-006  0.1376973E+04  0.7818608E-02  0.8484021E-01
         -2   -1    0    0    0  501 -0.00000000000E+00  0.00000000000E+00  0.75243829350E+03  0.75243829350E+03  0.00000000000E+00 0.  1.
          2   -1    0    0  502    0  0.00000000000E+00 -0.00000000000E+00 -0.25365050586E+04  0.25365050586E+04  0.00000000000E+00 0. -1.
    9000010    2    1    2  502    0  0.90542560765E+03  0.16381738640E+03 -0.74729407388E+03  0.15473863630E+04  0.99464790578E+03 0.  0.
   -9000010    2    1    2    0  501 -0.90542560765E+03 -0.16381738640E+03 -0.10367726912E+04  0.17415569891E+04  0.10542729561E+04 0.  0.
        -13    1    3    3    0    0  0.42840190801E+03  0.54987908066E+03 -0.20017659009E+03  0.72523504916E+03  0.10566000000E+00 0.  1.
          4    1    3    3  502    0  0.47702369964E+03 -0.38606169426E+03 -0.54711748379E+03  0.82215131384E+03  0.00000000000E+00 0.  1.
         13    1    4    4    0    0 -0.10850069438E+04 -0.24847491524E+03 -0.60630436339E+03  0.12675112796E+04  0.10566000000E+00 0. -1.
         -4    1    4    4    0  501  0.17958133614E+03  0.84657528834E+02 -0.43046832782E+03  0.47404570955E+03  0.00000000000E+00 0. -1.
<mgrwt>
<rscale>  2 0.13769735E+04</rscale>
<asrwt>0</asrwt>
<pdfrwt beam="2">  1        2 0.39023155E+00 0.13769735E+04</pdfrwt>
<pdfrwt beam="1">  1       -2 0.11575974E+00 0.13769735E+04</pdfrwt>
<totfact> 0.28852969E+00</totfact>
</mgrwt>
</event>
<event>
 8    1  0.7046235E-006  0.1395188E+04  0.7818608E-02  0.8472495E-01
          2   -1    0    0  502    0  0.00000000000E+00  0.00000000000E+00  0.12281565211E+04  0.12281565211E+04  0.00000000000E+00 0. -1.
         -2   -1    0    0    0  501 -0.00000000000E+00 -0.00000000000E+00 -0.16389380988E+04  0.16389380988E+04  0.00000000000E+00 0.  1.
    9000010    2    1    2  502    0 -0.17919735226E+03  0.96636342709E+03 -0.46710837398E+03  0.14835928789E+04  0.10084084654E+04 0.  0.
   -9000010    2    1    2    0  501  0.17919735226E+03 -0.96636342709E+03  0.56326796217E+02  0.13835017410E+04  0.97207736063E+03 0.  0.
        -13    1    3    3    0    0 -0.38049434081E+03  0.43181506522E+03  0.19636952054E+03  0.60811281330E+03  0.10566000000E+00 0.  1.
          4    1    3    3  502    0  0.20129698854E+03  0.53454836187E+03 -0.66347789452E+03  0.87548006561E+03  0.00000000000E+00 0.  1.
         13    1    4    4    0    0  0.44803818120E+03 -0.10144381881E+04  0.56185710639E+02  0.11103962781E+04  0.10566000000E+00 0. -1.
         -4    1    4    4    0  501 -0.26884082894E+03  0.48074760966E+02  0.14108557774E+00  0.27310546287E+03  0.00000000000E+00 0. -1.
<mgrwt>
<rscale>  2 0.13951876E+04</rscale>
<asrwt>0</asrwt>
<pdfrwt beam="1">  1        2 0.18894716E+00 0.13951876E+04</pdfrwt>
<pdfrwt beam="2">  1       -2 0.25214432E+00 0.13951876E+04</pdfrwt>
<totfact> 0.10537948E+00</totfact>
</mgrwt>
</event>
<event>
 8    1  0.7046235E-006  0.1602580E+04  0.7818608E-02  0.8352793E-01
          2   -1    0    0  502    0  0.00000000000E+00  0.00000000000E+00  0.25889534550E+04  0.25889534550E+04  0.00000000000E+00 0. -1.
         -2   -1    0    0    0  501 -0.00000000000E+00 -0.00000000000E+00 -0.99537813223E+03  0.99537813223E+03  0.00000000000E+00 0.  1.
    9000010    2    1    2  502    0  0.38222244983E+03 -0.11911525850E+04  0.69107474354E+03  0.17424892777E+04  0.99686814562E+03 0.  0.
   -9000010    2    1    2    0  501 -0.38222244983E+03  0.11911525850E+04  0.90250057928E+03  0.18418423096E+04  0.10064478704E+04 0.  0.
        -13    1    3    3    0    0  0.57137248718E+03 -0.42988246725E+03  0.28343641478E+02  0.71558984616E+03  0.10566000000E+00 0.  1.
          4    1    3    3  502    0 -0.18915003735E+03 -0.76127011776E+03  0.66273110206E+03  0.10268994315E+04  0.00000000000E+00 0.  1.
         13    1    4    4    0    0 -0.40333821527E+03  0.12646624159E+03  0.60159529879E+03  0.73524984927E+03  0.10566000000E+00 0. -1.
         -4    1    4    4    0  501  0.21115765439E+02  0.10646863434E+04  0.30090528048E+03  0.11065924603E+04  0.00000000000E+00 0. -1.
<mgrwt>
<rscale>  2 0.16025799E+04</rscale>
<asrwt>0</asrwt>
<pdfrwt beam="1">  1        2 0.39830053E+00 0.16025799E+04</pdfrwt>
<pdfrwt beam="2">  1       -2 0.15313510E+00 0.16025799E+04</pdfrwt>
<totfact> 0.11901483E+00</totfact>
</mgrwt>
</event>
<event>
 8    1  0.7046235E-006  0.1148707E+04  0.7818608E-02  0.8646221E-01
         -4   -1    0    0    0  501 -0.00000000000E+00  0.00000000000E+00  0.16341927936E+04  0.16341927936E+04  0.00000000000E+00 0. -1.
          4   -1    0    0  502    0  0.00000000000E+00 -0.00000000000E+00 -0.81372156745E+03  0.81372156745E+03  0.00000000000E+00 0.  1.
    9000010    2    1    2  502    0  0.58362312413E+03  0.13323647687E+03  0.50891267218E+03  0.12389957587E+04  0.95799293968E+03 0.  0.
   -9000010    2    1    2    0  501 -0.58362312413E+03 -0.13323647687E+03  0.31155855397E+03  0.12089186023E+04  0.10030192145E+04 0.  0.
        -13    1    3    3    0    0  0.40668656827E+03 -0.16305930380E+03 -0.17589502711E+03  0.47214549992E+03  0.10566000000E+00 0.  1.
          4    1    3    3  502    0  0.17693655586E+03  0.29629578067E+03  0.68480769929E+03  0.76685025882E+03  0.00000000000E+00 0.  1.
         13    1    4    4    0    0 -0.68455477143E+03 -0.27463145431E+03  0.54559754996E+03  0.91744992695E+03  0.10566000000E+00 0. -1.
         -4    1    4    4    0  501  0.10093164730E+03  0.14139497744E+03 -0.23403899599E+03  0.29146867536E+03  0.00000000000E+00 0. -1.
<mgrwt>
<rscale>  2 0.11487073E+04</rscale>
<asrwt>0</asrwt>
<pdfrwt beam="2">  1        4 0.12518793E+00 0.11487073E+04</pdfrwt>
<pdfrwt beam="1">  1       -4 0.25141428E+00 0.11487073E+04</pdfrwt>
<totfact> 0.26547460E-01</totfact>
</mgrwt>
</event>
<event>
 8    1  0.7046235E-006  0.1112925E+04  0.7818608E-02  0.8675184E-01
         -2   -1    0    0    0  501 -0.00000000000E+00  0.00000000000E+00  0.64063381981E+03  0.64063381981E+03  0.00000000000E+00 0. -1.
          2   -1    0    0  502    0  0.00000000000E+00 -0.00000000000E+00 -0.20254796864E+04  0.20254796864E+04  0.00000000000E+00 0.  1.
    9000010    2    1    2  502    0 -0.47113045874E+03 -0.14561138150E+03 -0.98128732968E+03  0.14898547833E+04  0.10067650512E+04 0.  0.
   -9000010    2    1    2    0  501  0.47113045874E+03  0.14561138150E+03 -0.40355853687E+03  0.11762587229E+04  0.98871558446E+03 0.  0.
        -13    1    3    3    0    0 -0.18565417815E+03  0.38826825010E+03 -0.13840192107E+03  0.45207832377E+03  0.10566000000E+00 0.  1.
          4    1    3    3  502    0 -0.28547628059E+03 -0.53387963160E+03 -0.84288540861E+03  0.10377764595E+04  0.00000000000E+00 0.  1.
         13    1    4    4    0    0 -0.93835360017E+02  0.90487760607E+02 -0.56999644634E+03  0.58471280951E+03  0.10566000000E+00 0. -1.
         -4    1    4    4    0  501  0.56496581876E+03  0.55123620892E+02  0.16643790946E+03  0.59154591340E+03  0.00000000000E+00 0. -1.
<mgrwt>
<rscale>  2 0.11129254E+04</rscale>
<asrwt>0</asrwt>
<pdfrwt beam="2">  1        2 0.31161225E+00 0.11129254E+04</pdfrwt>
<pdfrwt beam="1">  1       -2 0.98559051E-01 0.11129254E+04</pdfrwt>
<totfact> 0.84686843E+00</totfact>
</mgrwt>
</event>
<event>
 8    1  0.7046235E-006  0.1335135E+04  0.7818608E-02  0.8511205E-01
          2   -1    0    0  502    0  0.00000000000E+00  0.00000000000E+00  0.19892641031E+04  0.19892641031E+04  0.00000000000E+00 0.  1.
         -2   -1    0    0    0  501 -0.00000000000E+00 -0.00000000000E+00 -0.90365371030E+03  0.90365371030E+03  0.00000000000E+00 0. -1.
    9000010    2    1    2  502    0  0.80070752239E+03  0.39691612545E+03  0.67103297952E+03  0.14862689408E+04  0.97981383829E+03 0.  0.
   -9000010    2    1    2    0  501 -0.80070752239E+03 -0.39691612545E+03  0.41457741328E+03  0.14066488726E+04  0.10040476444E+04 0.  0.
        -13    1    3    3    0    0 -0.78020887897E+02 -0.10952720727E+03 -0.13516108725E+03  0.19066200133E+03  0.10566000000E+00 0.  1.
          4    1    3    3  502    0  0.87872841029E+03  0.50644333272E+03  0.80619406677E+03  0.12956069395E+04  0.00000000000E+00 0.  1.
         13    1    4    4    0    0 -0.31102310356E+03  0.32632037171E+03  0.28484200818E+02  0.45169870135E+03  0.10566000000E+00 0. -1.
         -4    1    4    4    0  501 -0.48968441883E+03 -0.72323649716E+03  0.38609321246E+03  0.95495017125E+03  0.00000000000E+00 0. -1.
<mgrwt>
<rscale>  2 0.13351353E+04</rscale>
<asrwt>0</asrwt>
<pdfrwt beam="1">  1        2 0.30604063E+00 0.13351353E+04</pdfrwt>
<pdfrwt beam="2">  1       -2 0.13902365E+00 0.13351353E+04</pdfrwt>
<totfact> 0.35167553E+00</totfact>
</mgrwt>
</event>
<event>
 8    1  0.7046235E-006  0.1112584E+04  0.7818608E-02  0.8675466E-01
          2   -1    0    0  502    0  0.00000000000E+00  0.00000000000E+00  0.22988030307E+04  0.22988030307E+04  0.00000000000E+00 0. -1.
         -2   -1    0    0    0  501 -0.00000000000E+00 -0.00000000000E+00 -0.65134716766E+03  0.65134716766E+03  0.00000000000E+00 0.  1.
    9000010    2    1    2  502    0  0.58689389858E+01  0.53210391128E+03  0.14502388997E+04  0.18410756788E+04  0.10015976099E+04 0.  0.
   -9000010    2    1    2    0  501 -0.58689389858E+01 -0.53210391128E+03  0.19721696336E+03  0.11090745195E+04  0.95288128451E+03 0.  0.
        -13    1    3    3    0    0 -0.48455143143E+03  0.24585846504E+03  0.89409795032E+03  0.10462540946E+04  0.10566000000E+00 0.  1.
          4    1    3    3  502    0  0.49042037042E+03  0.28624544624E+03  0.55614094937E+03  0.79482158425E+03  0.00000000000E+00 0.  1.
         13    1    4    4    0    0  0.15109430572E+03  0.17897187126E+03 -0.17394155842E+03  0.29174663122E+03  0.10566000000E+00 0. -1.
         -4    1    4    4    0  501 -0.15696324471E+03 -0.71107578254E+03  0.37115852178E+03  0.81732788829E+03  0.00000000000E+00 0. -1.
<mgrwt>
<rscale>  2 0.11125844E+04</rscale>
<asrwt>0</asrwt>
<pdfrwt beam="1">  1        2 0.35366200E+00 0.11125844E+04</pdfrwt>
<pdfrwt beam="2">  1       -2 0.10020726E+00 0.11125844E+04</pdfrwt>
<totfact> 0.57696032E+00</totfact>
</mgrwt>
</event>
<event>
 8    1  0.7046235E-006  0.1071826E+04  0.7818608E-02  0.8709885E-01
          1   -1    0    0  502    0  0.00000000000E+00  0.00000000000E+00  0.70991621466E+03  0.70991621466E+03  0.00000000000E+00 0.  1.
         -1   -1    0    0    0  501 -0.00000000000E+00 -0.00000000000E+00 -0.17041463353E+04  0.17041463353E+04  0.00000000000E+00 0. -1.
    9000010    2    1    2  502    0 -0.42425584654E+03 -0.91890395180E+02 -0.76085110150E+03  0.13020756310E+04  0.96336373305E+03 0.  0.
   -9000010    2    1    2    0  501  0.42425584654E+03  0.91890395180E+02 -0.23337901910E+03  0.11119869189E+04  0.99680101988E+03 0.  0.
        -13    1    3    3    0    0 -0.49397311221E+03 -0.45254525210E+03 -0.36843150799E+03  0.76455766822E+03  0.10566000000E+00 0.  1.
          4    1    3    3  502    0  0.69717265672E+02  0.36065485692E+03 -0.39241959351E+03  0.53751796279E+03  0.00000000000E+00 0.  1.
         13    1    4    4    0    0 -0.14901070912E+03  0.20473826215E+02 -0.46565298902E+03  0.48934250413E+03  0.10566000000E+00 0. -1.
         -4    1    4    4    0  501  0.57326655566E+03  0.71416568965E+02  0.23227396992E+03  0.62264441479E+03  0.00000000000E+00 0. -1.
<mgrwt>
<rscale>  2 0.10718258E+04</rscale>
<asrwt>0</asrwt>
<pdfrwt beam="1">  1        1 0.10921788E+00 0.10718258E+04</pdfrwt>
<pdfrwt beam="2">  1       -1 0.26217636E+00 0.10718258E+04</pdfrwt>
<totfact> 0.13433390E+00</totfact>
</mgrwt>
</event>
<event>
 8    1  0.7046235E-006  0.1022304E+04  0.7818608E-02  0.8753913E-01
          1   -1    0    0  502    0  0.00000000000E+00  0.00000000000E+00  0.81365435913E+03  0.81365435913E+03  0.00000000000E+00 0.  1.
         -1   -1    0    0    0  501 -0.00000000000E+00 -0.00000000000E+00 -0.16838210044E+04  0.16838210044E+04  0.00000000000E+00 0. -1.
    9000010    2    1    2  502    0  0.11281006931E+03 -0.53815306554E+00  0.16879514398E+03  0.10486308647E+04  0.10287898174E+04 0.  0.
   -9000010    2    1    2    0  501 -0.11281006931E+03  0.53815306554E+00 -0.10389617892E+04  0.14488444988E+04  0.10034851174E+04 0.  0.
        -13    1    3    3    0    0 -0.46252610127E+02  0.49331628535E+03 -0.21628452432E+02  0.49595167351E+03  0.10566000000E+00 0.  1.
          4    1    3    3  502    0  0.15906267943E+03 -0.49385443842E+03  0.19042359641E+03  0.55267919122E+03  0.00000000000E+00 0.  1.
         13    1    4    4    0    0 -0.49684699818E+03  0.16323774295E+03 -0.83329982066E+03  0.98381507541E+03  0.10566000000E+00 0. -1.
         -4    1    4    4    0  501  0.38403692888E+03 -0.16269958989E+03 -0.20566196859E+03  0.46502942339E+03  0.00000000000E+00 0. -1.
<mgrwt>
<rscale>  2 0.10223041E+04</rscale>
<asrwt>0</asrwt>
<pdfrwt beam="1">  1        1 0.12517759E+00 0.10223041E+04</pdfrwt>
<pdfrwt beam="2">  1       -1 0.25904938E+00 0.10223041E+04</pdfrwt>
<totfact> 0.11656487E+00</totfact>
</mgrwt>
</event>
<event>
 8    1  0.7046235E-006  0.1073644E+04  0.7818608E-02  0.8708315E-01
         -1   -1    0    0    0  501 -0.00000000000E+00  0.00000000000E+00  0.52100429947E+03  0.52100429947E+03  0.00000000000E+00 0. -1.
          1   -1    0    0  502    0  0.00000000000E+00 -0.00000000000E+00 -0.22808847180E+04  0.22808847180E+04  0.00000000000E+00 0.  1.
    9000010    2    1    2  502    0  0.17030456800E+03 -0.36687437430E+03 -0.11232202395E+04  0.15543986428E+04  0.99545516328E+03 0.  0.
   -9000010    2    1    2    0  501 -0.17030456800E+03  0.36687437430E+03 -0.63666017910E+03  0.12474903747E+04  0.99362749501E+03 0.  0.
        -13    1    3    3    0    0  0.75348037976E+02  0.85151655013E+02 -0.10849852781E+04  0.10909267601E+04  0.10566000000E+00 0.  1.
          4    1    3    3  502    0  0.94956530027E+02 -0.45202602931E+03 -0.38234961383E+02  0.46347188269E+03  0.00000000000E+00 0.  1.
         13    1    4    4    0    0  0.79271077824E+02  0.32150271365E+03  0.19069895198E+03  0.38211778303E+03  0.10566000000E+00 0. -1.
         -4    1    4    4    0  501 -0.24957564583E+03  0.45371660655E+02 -0.82735913108E+03  0.86537259164E+03  0.00000000000E+00 0. -1.
<mgrwt>
<rscale>  2 0.10736444E+04</rscale>
<asrwt>0</asrwt>
<pdfrwt beam="2">  1        1 0.35090533E+00 0.10736444E+04</pdfrwt>
<pdfrwt beam="1">  1       -1 0.80154509E-01 0.10736444E+04</pdfrwt>
<totfact> 0.36301568E+00</totfact>
</mgrwt>
</event>
<event>
 8    1  0.7046235E-006  0.1770011E+04  0.7818608E-02  0.8269062E-01
          4   -1    0    0  502    0  0.00000000000E+00  0.00000000000E+00  0.10630223260E+04  0.10630223260E+04  0.00000000000E+00 0.  1.
         -4   -1    0    0    0  501 -0.00000000000E+00 -0.00000000000E+00 -0.32251334268E+04  0.32251334268E+04  0.00000000000E+00 0. -1.
    9000010    2    1    2  502    0 -0.14548606394E+04  0.37081543291E+02 -0.17097418669E+04  0.24599883236E+04  0.10051521179E+04 0.  0.
   -9000010    2    1    2    0  501  0.14548606394E+04 -0.37081543291E+02 -0.45236923389E+03  0.18281674292E+04  0.10097344723E+04 0.  0.
        -13    1    3    3    0    0 -0.11129464494E+04 -0.55077683889E+02 -0.17789905005E+04  0.20991642533E+04  0.10566000000E+00 0.  1.
          4    1    3    3  502    0 -0.34191419000E+03  0.92159227180E+02  0.69248633562E+02  0.36082407033E+03  0.00000000000E+00 0.  1.
         13    1    4    4    0    0  0.16074648156E+04 -0.66220080939E+02 -0.36421856870E+03  0.16495403631E+04  0.10566000000E+00 0. -1.
         -4    1    4    4    0  501 -0.15260417623E+03  0.29138537648E+02 -0.88150665186E+02  0.17862706612E+03  0.00000000000E+00 0. -1.
<mgrwt>
<rscale>  2 0.17700108E+04</rscale>
<asrwt>0</asrwt>
<pdfrwt beam="1">  1        4 0.16354190E+00 0.17700108E+04</pdfrwt>
<pdfrwt beam="2">  1       -4 0.49617437E+00 0.17700108E+04</pdfrwt>
<totfact> 0.21808361E-02</totfact>
</mgrwt>
</event>
<event>
 8    1  0.7046235E-006  0.1116802E+04  0.7818608E-02  0.8671992E-01
         -2   -1    0    0    0  501 -0.00000000000E+00  0.00000000000E+00  0.41729387138E+03  0.41729387138E+03  0.00000000000E+00 0.  1.
          2   -1    0    0  502    0  0.00000000000E+00 -0.00000000000E+00 -0.31355098603E+04  0.31355098603E+04  0.00000000000E+00 0. -1.
    9000010    2    1    2  502    0  0.34465588134E+02 -0.48564230804E+03 -0.96841645831E+03  0.14738730370E+04  0.99871665866E+03 0.  0.
   -9000010    2    1    2    0  501 -0.34465588134E+02  0.48564230804E+03 -0.17497995306E+04  0.20789306947E+04  0.10114930093E+04 0.  0.
        -13    1    3    3    0    0 -0.93428093793E+02 -0.67492371917E+03 -0.25957243901E+03  0.72912872503E+03  0.10566000000E+00 0.  1.
          4    1    3    3  502    0  0.12789368193E+03  0.18928141113E+03 -0.70884401930E+03  0.74474431195E+03  0.00000000000E+00 0.  1.
         13    1    4    4    0    0 -0.50131381280E+03  0.30374543728E+03 -0.11973117524E+04  0.13330912472E+04  0.10566000000E+00 0. -1.
         -4    1    4    4    0  501  0.46684822467E+03  0.18189687076E+03 -0.55248777817E+03  0.74583944753E+03  0.00000000000E+00 0. -1.
<mgrwt>
<rscale>  2 0.11168020E+04</rscale>
<asrwt>0</asrwt>
<pdfrwt beam="2">  1        2 0.48238614E+00 0.11168020E+04</pdfrwt>
<pdfrwt beam="1">  1       -2 0.64199056E-01 0.11168020E+04</pdfrwt>
<totfact> 0.49875692E+00</totfact>
</mgrwt>
</event>
<event>
 8    1  0.7046235E-006  0.1283354E+04  0.7818608E-02  0.8546306E-01
         -4   -1    0    0    0  501 -0.00000000000E+00  0.00000000000E+00  0.30440614114E+04  0.30440614114E+04  0.00000000000E+00 0. -1.
          4   -1    0    0  502    0  0.00000000000E+00 -0.00000000000E+00 -0.66010670854E+03  0.66010670854E+03  0.00000000000E+00 0.  1.
    9000010    2    1    2  502    0  0.25790273147E+03  0.76621212562E+03  0.40358187698E+03  0.13429960635E+04  0.99356190279E+03 0.  0.
   -9000010    2    1    2    0  501 -0.25790273147E+03 -0.76621212562E+03  0.19803728259E+04  0.23611720565E+04  0.99983104098E+03 0.  0.
        -13    1    3    3    0    0  0.52454750409E+03  0.38664683854E+03 -0.98934486022E+02  0.65911600306E+03  0.10566000000E+00 0.  1.
          4    1    3    3  502    0 -0.26664477262E+03  0.37956528708E+03  0.50251636300E+03  0.68388006040E+03  0.00000000000E+00 0.  1.
         13    1    4    4    0    0  0.20124903541E+03 -0.77521798757E+03  0.10219256721E+04  0.12983821444E+04  0.10566000000E+00 0. -1.
         -4    1    4    4    0  501 -0.45915176689E+03  0.90058619540E+01  0.95844715377E+03  0.10627899120E+04  0.00000000000E+00 0. -1.
<mgrwt>
<rscale>  2 0.12833537E+04</rscale>
<asrwt>0</asrwt>
<pdfrwt beam="2">  1        4 0.10155488E+00 0.12833537E+04</pdfrwt>
<pdfrwt beam="1">  1       -4 0.46831713E+00 0.12833537E+04</pdfrwt>
<totfact> 0.66664373E-02</totfact>
</mgrwt>
</event>
<event>
 8    1  0.7046235E-006  0.1228594E+04  0.7818608E-02  0.8585336E-01
         -2   -1    0    0    0  501 -0.00000000000E+00  0.00000000000E+00  0.10975554749E+04  0.10975554749E+04  0.00000000000E+00 0. -1.
          2   -1    0    0  502    0  0.00000000000E+00 -0.00000000000E+00 -0.13767040533E+04  0.13767040533E+04  0.00000000000E+00 0.  1.
    9000010    2    1    2  502    0  0.65325775660E+03 -0.29646359804E+03 -0.99905672439E+02  0.12339244238E+04  0.99897546457E+03 0.  0.
   -9000010    2    1    2    0  501 -0.65325775660E+03  0.29646359804E+03 -0.17924290606E+03  0.12403351044E+04  0.99582467846E+03 0.  0.
        -13    1    3    3    0    0  0.41465139061E+03 -0.51990057126E+03 -0.41174029676E+03  0.78215245500E+03  0.10566000000E+00 0.  1.
          4    1    3    3  502    0  0.23860636599E+03  0.22343697322E+03  0.31183462432E+03  0.45177196883E+03  0.00000000000E+00 0.  1.
         13    1    4    4    0    0 -0.25391406766E+03  0.45559803289E+03 -0.48545965817E+03  0.71253983201E+03  0.10566000000E+00 0. -1.
         -4    1    4    4    0  501 -0.39934368894E+03 -0.15913443485E+03  0.30621675211E+03  0.52779527236E+03  0.00000000000E+00 0. -1.
<mgrwt>
<rscale>  2 0.12285937E+04</rscale>
<asrwt>0</asrwt>
<pdfrwt beam="2">  1        2 0.21180062E+00 0.12285937E+04</pdfrwt>
<pdfrwt beam="1">  1       -2 0.16885469E+00 0.12285937E+04</pdfrwt>
<totfact> 0.42129612E+00</totfact>
</mgrwt>
</event>
<event>
 8    1  0.7046235E-006  0.1292693E+04  0.7818608E-02  0.8539850E-01
          1   -1    0    0  502    0  0.00000000000E+00  0.00000000000E+00  0.24996198590E+04  0.24996198590E+04  0.00000000000E+00 0. -1.
         -1   -1    0    0    0  501 -0.00000000000E+00 -0.00000000000E+00 -0.75726955087E+03  0.75726955087E+03  0.00000000000E+00 0.  1.
    9000010    2    1    2  502    0  0.28348130678E+03  0.75823527222E+03  0.14228712040E+04  0.19160530258E+04  0.99569792369E+03 0.  0.
   -9000010    2    1    2    0  501 -0.28348130678E+03 -0.75823527222E+03  0.31947910411E+03  0.13408363840E+04  0.10200455536E+04 0.  0.
        -13    1    3    3    0    0  0.20449881124E+03  0.10041515415E+04  0.11232775879E+04  0.15204909183E+04  0.10566000000E+00 0.  1.
          4    1    3    3  502    0  0.78982495546E+02 -0.24591626925E+03  0.29959361615E+03  0.39556210754E+03  0.00000000000E+00 0.  1.
         13    1    4    4    0    0 -0.40625837521E+03  0.10781720638E+03  0.38397575880E+02  0.42207203463E+03  0.10566000000E+00 0. -1.
         -4    1    4    4    0  501  0.12277706842E+03 -0.86605247860E+03  0.28108152823E+03  0.91876434940E+03  0.00000000000E+00 0. -1.
<mgrwt>
<rscale>  2 0.12926933E+04</rscale>
<asrwt>0</asrwt>
<pdfrwt beam="1">  1        1 0.38455690E+00 0.12926933E+04</pdfrwt>
<pdfrwt beam="2">  1       -1 0.11650301E+00 0.12926933E+04</pdfrwt>
<totfact> 0.10186049E+00</totfact>
</mgrwt>
</event>
<event>
 8    1  0.7046235E-006  0.1144032E+04  0.7818608E-02  0.8649943E-01
          1   -1    0    0  502    0  0.00000000000E+00  0.00000000000E+00  0.96877351302E+03  0.96877351302E+03  0.00000000000E+00 0. -1.
         -1   -1    0    0    0  501 -0.00000000000E+00 -0.00000000000E+00 -0.14324212088E+04  0.14324212088E+04  0.00000000000E+00 0.  1.
    9000010    2    1    2  502    0 -0.54406963863E+03  0.14145607748E+03 -0.51795519072E+03  0.12552706369E+04  0.99569332560E+03 0.  0.
   -9000010    2    1    2    0  501  0.54406963863E+03 -0.14145607748E+03  0.54307494919E+02  0.11459240850E+04  0.99708129608E+03 0.  0.
        -13    1    3    3    0    0  0.39809071671E+02  0.40974108463E+03  0.27251871408E+02  0.41257144142E+03  0.10566000000E+00 0.  1.
          4    1    3    3  502    0 -0.58387871030E+03 -0.26828500714E+03 -0.54520706213E+03  0.84269919544E+03  0.00000000000E+00 0.  1.
         13    1    4    4    0    0  0.30604107659E+03 -0.48397472240E+03 -0.25481685468E+03  0.62675698088E+03  0.10566000000E+00 0. -1.
         -4    1    4    4    0  501  0.23802856204E+03  0.34251864492E+03  0.30912434960E+03  0.51916710410E+03  0.00000000000E+00 0. -1.
<mgrwt>
<rscale>  2 0.11440319E+04</rscale>
<asrwt>0</asrwt>
<pdfrwt beam="1">  1        1 0.14904208E+00 0.11440319E+04</pdfrwt>
<pdfrwt beam="2">  1       -1 0.22037249E+00 0.11440319E+04</pdfrwt>
<totfact> 0.19821935E+00</totfact>
</mgrwt>
</event>
<event>
 8    1  0.7046235E-006  0.1609941E+04  0.7818608E-02  0.8348894E-01
          2   -1    0    0  502    0  0.00000000000E+00  0.00000000000E+00  0.66026579119E+03  0.66026579119E+03  0.00000000000E+00 0.  1.
         -2   -1    0    0    0  501 -0.00000000000E+00 -0.00000000000E+00 -0.41452871251E+04  0.41452871251E+04  0.00000000000E+00 0. -1.
    9000010    2    1    2  502    0  0.61597421895E+03 -0.11048337004E+04 -0.22939210351E+04  0.28014983057E+04  0.99309480782E+03 0.  0.
   -9000010    2    1    2    0  501 -0.61597421895E+03  0.11048337004E+04 -0.11911002988E+04  0.20040546106E+04  0.99871578363E+03 0.  0.
        -13    1    3    3    0    0  0.67087892063E+03 -0.11948033936E+04 -0.23186077195E+04  0.26932462649E+04  0.10566000000E+00 0.  1.
          4    1    3    3  502    0 -0.54904701679E+02  0.89969693162E+02  0.24686684318E+02  0.10825204080E+03  0.00000000000E+00 0.  1.
         13    1    4    4    0    0 -0.71384084708E+03  0.90487917021E+03 -0.46195791097E+03  0.12416844166E+04  0.10566000000E+00 0. -1.
         -4    1    4    4    0  501  0.97866628132E+02  0.19995453024E+03 -0.72914238782E+03  0.76237019405E+03  0.00000000000E+00 0. -1.
<mgrwt>
<rscale>  2 0.16099413E+04</rscale>
<asrwt>0</asrwt>
<pdfrwt beam="1">  1        2 0.10157935E+00 0.16099413E+04</pdfrwt>
<pdfrwt beam="2">  1       -2 0.63773649E+00 0.16099413E+04</pdfrwt>
<totfact> 0.23993047E-01</totfact>
</mgrwt>
</event>
<event>
 8    1  0.7046235E-006  0.1452377E+04  0.7818608E-02  0.8437445E-01
         -1   -1    0    0    0  501 -0.00000000000E+00  0.00000000000E+00  0.25049255648E+04  0.25049255648E+04  0.00000000000E+00 0.  1.
          1   -1    0    0  502    0  0.00000000000E+00 -0.00000000000E+00 -0.84963472118E+03  0.84963472118E+03  0.00000000000E+00 0. -1.
    9000010    2    1    2  502    0  0.32711877399E+03 -0.10000614132E+04  0.67108068306E+03  0.16021061419E+04  0.10046219608E+04 0.  0.
   -9000010    2    1    2    0  501 -0.32711877399E+03  0.10000614132E+04  0.98421016052E+03  0.17524541441E+04  0.99764541020E+03 0.  0.
        -13    1    3    3    0    0 -0.78350114697E+02 -0.95496475981E+03  0.70960293746E+03  0.11923224283E+04  0.10566000000E+00 0.  1.
          4    1    3    3  502    0  0.40546888869E+03 -0.45096653423E+02 -0.38522254403E+02  0.40978371359E+03  0.00000000000E+00 0.  1.
         13    1    4    4    0    0 -0.40184713509E+03  0.67552588913E+03  0.11400644278E+04  0.13847610832E+04  0.10566000000E+00 0. -1.
         -4    1    4    4    0  501  0.74728361101E+02  0.32453552410E+03 -0.15585426731E+03  0.36769306084E+03  0.00000000000E+00 0. -1.
<mgrwt>
<rscale>  2 0.14523769E+04</rscale>
<asrwt>0</asrwt>
<pdfrwt beam="2">  1        1 0.13071304E+00 0.14523769E+04</pdfrwt>
<pdfrwt beam="1">  1       -1 0.38537316E+00 0.14523769E+04</pdfrwt>
<totfact> 0.29270156E-01</totfact>
</mgrwt>
</event>
<event>
 8    1  0.7046235E-006  0.1633928E+04  0.7818608E-02  0.8336335E-01
         -2   -1    0    0    0  501 -0.00000000000E+00  0.00000000000E+00  0.13548828346E+04  0.13548828346E+04  0.00000000000E+00 0.  1.
          2   -1    0    0  502    0  0.00000000000E+00 -0.00000000000E+00 -0.24258865688E+04  0.24258865688E+04  0.00000000000E+00 0. -1.
    9000010    2    1    2  502    0  0.11846179479E+04 -0.49431068389E+03  0.27862769848E+03  0.16750653494E+04  0.10394940094E+04 0.  0.
   -9000010    2    1    2    0  501 -0.11846179479E+04  0.49431068389E+03 -0.13496314327E+04  0.21057040541E+04  0.98225344216E+03 0.  0.
        -13    1    3    3    0    0  0.80167898218E+03  0.56382428155E+02  0.52562205103E+03  0.96028470797E+03  0.10566000000E+00 0.  1.
          4    1    3    3  502    0  0.38293896572E+03 -0.55069311204E+03 -0.24699435254E+03  0.71478064139E+03  0.00000000000E+00 0.  1.
         13    1    4    4    0    0 -0.10532929027E+04 -0.51439190689E+02 -0.90412431326E+03  0.13890690099E+04  0.10566000000E+00 0. -1.
         -4    1    4    4    0  501 -0.13132504515E+03  0.54574987457E+03 -0.44550711941E+03  0.71663504417E+03  0.00000000000E+00 0. -1.
<mgrwt>
<rscale>  2 0.16339280E+04</rscale>
<asrwt>0</asrwt>
<pdfrwt beam="2">  1        2 0.37321332E+00 0.16339280E+04</pdfrwt>
<pdfrwt beam="1">  1       -2 0.20844351E+00 0.16339280E+04</pdfrwt>
<totfact> 0.50165183E-01</totfact>
</mgrwt>
</event>
<event>
 8    1  0.7046235E-006  0.1166243E+04  0.7818608E-02  0.8632425E-01
         -1   -1    0    0    0  501 -0.00000000000E+00  0.00000000000E+00  0.28135486008E+04  0.28135486008E+04  0.00000000000E+00 0. -1.
          1   -1    0    0  502    0  0.00000000000E+00 -0.00000000000E+00 -0.50068469883E+03  0.50068469883E+03  0.00000000000E+00 0.  1.
    9000010    2    1    2  502    0  0.30177510458E+03 -0.53474705379E+03  0.14640359056E+04  0.18716931865E+04  0.99136856221E+03 0.  0.
   -9000010    2    1    2    0  501 -0.30177510458E+03  0.53474705379E+03  0.84882799636E+03  0.14425401132E+04  0.99166041837E+03 0.  0.
        -13    1    3    3    0    0  0.35899554038E+03  0.20801461602E+03  0.43313625217E+03  0.59979571739E+03  0.10566000000E+00 0.  1.
          4    1    3    3  502    0 -0.57220435800E+02 -0.74276166982E+03  0.10308996535E+04  0.12718974691E+04  0.00000000000E+00 0.  1.
         13    1    4    4    0    0  0.25198785406E+03 -0.89103143065E+02  0.22252540219E+02  0.26820222857E+03  0.10566000000E+00 0. -1.
         -4    1    4    4    0  501 -0.55376295864E+03  0.62385019686E+03  0.82657545614E+03  0.11743378846E+04  0.00000000000E+00 0. -1.
<mgrwt>
<rscale>  2 0.11662434E+04</rscale>
<asrwt>0</asrwt>
<pdfrwt beam="2">  1        1 0.77028417E-01 0.11662434E+04</pdfrwt>
<pdfrwt beam="1">  1       -1 0.43285362E+00 0.11662434E+04</pdfrwt>
<totfact> 0.70547179E-01</totfact>
</mgrwt>
</event>
<event>
 8    1  0.7046235E-006  0.1480062E+04  0.7818608E-02  0.8421067E-01
         -1   -1    0    0    0  501 -0.00000000000E+00  0.00000000000E+00  0.16192151250E+04  0.16192151250E+04  0.00000000000E+00 0. -1.
          1   -1    0    0  502    0  0.00000000000E+00 -0.00000000000E+00 -0.15241874092E+04  0.15241874092E+04  0.00000000000E+00 0.  1.
    9000010    2    1    2  502    0 -0.73289189269E+03  0.78926519504E+03 -0.47955645126E+03  0.15498110725E+04  0.10059174400E+04 0.  0.
   -9000010    2    1    2    0  501  0.73289189269E+03 -0.78926519504E+03  0.57458416699E+03  0.15935914617E+04  0.10243616097E+04 0.  0.
        -13    1    3    3    0    0 -0.90914628424E+03  0.31007918057E+03 -0.35673029305E+03  0.10246719365E+04  0.10566000000E+00 0.  1.
          4    1    3    3  502    0  0.17625439155E+03  0.47918601446E+03 -0.12282615820E+03  0.52513913598E+03  0.00000000000E+00 0.  1.
         13    1    4    4    0    0  0.91122992641E+03 -0.48718708078E+03  0.15205007834E+03  0.10444187225E+04  0.10566000000E+00 0. -1.
         -4    1    4    4    0  501 -0.17833803372E+03 -0.30207811426E+03  0.42253408865E+03  0.54917273918E+03  0.00000000000E+00 0. -1.
<mgrwt>
<rscale>  2 0.14800619E+04</rscale>
<asrwt>0</asrwt>
<pdfrwt beam="2">  1        1 0.23449037E+00 0.14800619E+04</pdfrwt>
<pdfrwt beam="1">  1       -1 0.24911002E+00 0.14800619E+04</pdfrwt>
<totfact> 0.37818611E-01</totfact>
</mgrwt>
</event>
<event>
 8    1  0.7046235E-006  0.1276434E+04  0.7818608E-02  0.8551126E-01
         -2   -1    0    0    0  501 -0.00000000000E+00  0.00000000000E+00  0.13157797424E+04  0.13157797424E+04  0.00000000000E+00 0. -1.
          2   -1    0    0  502    0  0.00000000000E+00 -0.00000000000E+00 -0.12408601311E+04  0.12408601311E+04  0.00000000000E+00 0.  1.
    9000010    2    1    2  502    0 -0.69791430635E+03 -0.38553110355E+03 -0.20002964996E+02  0.12641431920E+04  0.98078503273E+03 0.  0.
   -9000010    2    1    2    0  501  0.69791430635E+03  0.38553110355E+03  0.94922576329E+02  0.12924966816E+04  0.10128271153E+04 0.  0.
        -13    1    3    3    0    0  0.14381941028E+03 -0.27209385767E+03  0.22376267887E+03  0.38051128469E+03  0.10566000000E+00 0.  1.
          4    1    3    3  502    0 -0.84173371663E+03 -0.11343724588E+03 -0.24376564387E+03  0.88363190730E+03  0.00000000000E+00 0.  1.
         13    1    4    4    0    0  0.15547750724E+03 -0.23162855095E+03 -0.27471037261E+03  0.39152374239E+03  0.10566000000E+00 0. -1.
         -4    1    4    4    0  501  0.54243679911E+03  0.61715965451E+03  0.36963294893E+03  0.90097293917E+03  0.00000000000E+00 0. -1.
<mgrwt>
<rscale>  2 0.12764343E+04</rscale>
<asrwt>0</asrwt>
<pdfrwt beam="2">  1        2 0.19090156E+00 0.12764343E+04</pdfrwt>
<pdfrwt beam="1">  1       -2 0.20242765E+00 0.12764343E+04</pdfrwt>
<totfact> 0.26247236E+00</totfact>
</mgrwt>
</event>
<event>
 8    1  0.7046235E-006  0.1118645E+04  0.7818608E-02  0.8670479E-01
         -2   -1    0    0    0  501 -0.00000000000E+00  0.00000000000E+00  0.91989318041E+03  0.91989318041E+03  0.00000000000E+00 0.  1.
          2   -1    0    0  502    0  0.00000000000E+00 -0.00000000000E+00 -0.17883234948E+04  0.17883234948E+04  0.00000000000E+00 0. -1.
    9000010    2    1    2  502    0  0.47132855213E+03  0.18113879578E+03  0.22469327043E+03  0.11523039341E+04  0.10111159297E+04 0.  0.
   -9000010    2    1    2    0  501 -0.47132855213E+03 -0.18113879578E+03 -0.10931235848E+04  0.15559127411E+04  0.98538490900E+03 0.  0.
        -13    1    3    3    0    0  0.52760887035E+03  0.20804183812E+03 -0.28782748938E+03  0.63600094441E+03  0.10566000000E+00 0.  1.
          4    1    3    3  502    0 -0.56280318228E+02 -0.26903042343E+02  0.51252075981E+03  0.51630298967E+03  0.00000000000E+00 0.  1.
         13    1    4    4    0    0 -0.74824967554E+03 -0.29985486594E+01 -0.58217697341E+03  0.94805939043E+03  0.10566000000E+00 0. -1.
         -4    1    4    4    0  501  0.27692112342E+03 -0.17814024712E+03 -0.51094661139E+03  0.60785335068E+03  0.00000000000E+00 0. -1.
<mgrwt>
<rscale>  2 0.11186455E+04</rscale>
<asrwt>0</asrwt>
<pdfrwt beam="2">  1        2 0.27512669E+00 0.11186455E+04</pdfrwt>
<pdfrwt beam="1">  1       -2 0.14152203E+00 0.11186455E+04</pdfrwt>
<totfact> 0.43986273E+00</totfact>
</mgrwt>
</event>
<event>
 8    1  0.7046235E-006  0.1318046E+04  0.7818608E-02  0.8522606E-01
          2   -1    0    0  502    0  0.00000000000E+00  0.00000000000E+00  0.18203184771E+04  0.18203184771E+04  0.00000000000E+00 0.  1.
         -2   -1    0    0    0  501 -0.00000000000E+00 -0.00000000000E+00 -0.98054176747E+03  0.98054176747E+03  0.00000000000E+00 0. -1.
    9000010    2    1    2  502    0 -0.78144646926E+03 -0.36761501849E+03  0.19017218897E+03  0.13287857204E+04  0.99181986420E+03 0.  0.
   -9000010    2    1    2    0  501  0.78144646926E+03  0.36761501849E+03  0.64960452063E+03  0.14720745242E+04  0.99960891623E+03 0.  0.
        -13    1    3    3    0    0  0.10494828502E+03 -0.39341452214E+03 -0.49572574153E+02  0.41017871719E+03  0.10566000000E+00 0.  1.
          4    1    3    3  502    0 -0.88639475429E+03  0.25799503657E+02  0.23974476313E+03  0.91860700316E+03  0.00000000000E+00 0.  1.
         13    1    4    4    0    0  0.84090444216E+03  0.33289587166E+03  0.90691093666E+02  0.90893609668E+03  0.10566000000E+00 0. -1.
         -4    1    4    4    0  501 -0.59457972896E+02  0.34719146825E+02  0.55891342696E+03  0.56313842751E+03  0.00000000000E+00 0. -1.
<mgrwt>
<rscale>  2 0.13180457E+04</rscale>
<asrwt>0</asrwt>
<pdfrwt beam="1">  1        2 0.28004900E+00 0.13180457E+04</pdfrwt>
<pdfrwt beam="2">  1       -2 0.15085258E+00 0.13180457E+04</pdfrwt>
<totfact> 0.34162591E+00</totfact>
</mgrwt>
</event>
<event>
 8    1  0.7046235E-006  0.1926411E+04  0.7818608E-02  0.8199029E-01
          4   -1    0    0  502    0  0.00000000000E+00  0.00000000000E+00  0.17807671054E+04  0.17807671054E+04  0.00000000000E+00 0.  1.
         -4   -1    0    0    0  501 -0.00000000000E+00 -0.00000000000E+00 -0.37437790003E+04  0.37437790003E+04  0.00000000000E+00 0. -1.
    9000010    2    1    2  502    0 -0.45368557708E+03  0.15331103584E+04  0.86788826377E+03  0.20785956066E+04  0.10055206033E+04 0.  0.
   -9000010    2    1    2    0  501  0.45368557708E+03 -0.15331103584E+04 -0.28309001587E+04  0.34459504990E+04  0.11420688067E+04 0.  0.
        -13    1    3    3    0    0  0.20069302765E+02  0.14742747702E+03  0.56356807653E+03  0.58287788253E+03  0.10566000000E+00 0.  1.
          4    1    3    3  502    0 -0.47375487984E+03  0.13856828813E+04  0.30432018724E+03  0.14957177241E+04  0.00000000000E+00 0.  1.
         13    1    4    4    0    0 -0.19071089634E+03  0.73702469577E+02 -0.14574203792E+03  0.25108455306E+03  0.10566000000E+00 0. -1.
         -4    1    4    4    0  501  0.64439647342E+03 -0.16068128279E+04 -0.26851581208E+04  0.31948659460E+04  0.00000000000E+00 0. -1.
<mgrwt>
<rscale>  2 0.19264109E+04</rscale>
<asrwt>0</asrwt>
<pdfrwt beam="1">  1        4 0.27396417E+00 0.19264109E+04</pdfrwt>
<pdfrwt beam="2">  1       -4 0.57596599E+00 0.19264109E+04</pdfrwt>
<totfact> 0.41686414E-03</totfact>
</mgrwt>
</event>
<event>
 8    1  0.7046235E-006  0.1183420E+04  0.7818608E-02  0.8619153E-01
          2   -1    0    0  502    0  0.00000000000E+00  0.00000000000E+00  0.41019962654E+03  0.41019962654E+03  0.00000000000E+00 0. -1.
         -2   -1    0    0    0  501 -0.00000000000E+00 -0.00000000000E+00 -0.36020455542E+04  0.36020455542E+04  0.00000000000E+00 0.  1.
    9000010    2    1    2  502    0  0.38708982637E+03 -0.53454532577E+03 -0.20726211189E+04  0.23942189598E+04  0.10004743306E+04 0.  0.
   -9000010    2    1    2    0  501 -0.38708982637E+03  0.53454532577E+03 -0.11192248088E+04  0.16180262209E+04  0.96424449179E+03 0.  0.
        -13    1    3    3    0    0  0.72958853704E+03 -0.35127789336E+03 -0.14276638553E+04  0.16413164493E+04  0.10566000000E+00 0.  1.
          4    1    3    3  502    0 -0.34249871066E+03 -0.18326743240E+03 -0.64495726352E+03  0.75290251052E+03  0.00000000000E+00 0.  1.
         13    1    4    4    0    0  0.20251474513E+03  0.40397925852E+03 -0.83753503733E+03  0.95167032801E+03  0.10566000000E+00 0. -1.
         -4    1    4    4    0  501 -0.58960457150E+03  0.13056606725E+03 -0.28168977148E+03  0.66635589290E+03  0.00000000000E+00 0. -1.
<mgrwt>
<rscale>  2 0.11834201E+04</rscale>
<asrwt>0</asrwt>
<pdfrwt beam="1">  1        2 0.63107638E-01 0.11834201E+04</pdfrwt>
<pdfrwt beam="2">  1       -2 0.55416082E+00 0.11834201E+04</pdfrwt>
<totfact> 0.42606922E-01</totfact>
</mgrwt>
</event>
<event>
 8    1  0.7046235E-006  0.1056799E+04  0.7818608E-02  0.8722980E-01
          2   -1    0    0  502    0  0.00000000000E+00  0.00000000000E+00  0.18746629895E+04  0.18746629895E+04  0.00000000000E+00 0.  1.
         -2   -1    0    0    0  501 -0.00000000000E+00 -0.00000000000E+00 -0.13320498926E+04  0.13320498926E+04  0.00000000000E+00 0. -1.
    9000010    2    1    2  502    0  0.27952620464E+03  0.22531719037E+03 -0.92121512777E+03  0.13988542904E+04  0.98957227059E+03 0.  0.
   -9000010    2    1    2    0  501 -0.27952620464E+03 -0.22531719037E+03  0.14638282247E+04  0.18078585918E+04  0.99832704114E+03 0.  0.
        -13    1    3    3    0    0 -0.86121645408E+02  0.40317770903E+02  0.19110251333E+03  0.21345407521E+03  0.10566000000E+00 0.  1.
          4    1    3    3  502    0  0.36564785005E+03  0.18499941947E+03 -0.11123176411E+04  0.11854002152E+04  0.00000000000E+00 0.  1.
         13    1    4    4    0    0 -0.28314848368E+02  0.39132410286E+03  0.60631571291E+03  0.72218767574E+03  0.10566000000E+00 0. -1.
         -4    1    4    4    0  501 -0.25121135627E+03 -0.61664129323E+03  0.85751251178E+03  0.10856709160E+04  0.00000000000E+00 0. -1.
<mgrwt>
<rscale>  2 0.10567989E+04</rscale>
<asrwt>0</asrwt>
<pdfrwt beam="1">  1        2 0.28840969E+00 0.10567989E+04</pdfrwt>
<pdfrwt beam="2">  1       -2 0.20493075E+00 0.10567989E+04</pdfrwt>
<totfact> 0.11546570E+00</totfact>
</mgrwt>
</event>
<event>
 8    1  0.7046235E-006  0.1052374E+04  0.7818608E-02  0.8726879E-01
          2   -1    0    0  502    0  0.00000000000E+00  0.00000000000E+00  0.24653233168E+04  0.24653233168E+04  0.00000000000E+00 0.  1.
         -2   -1    0    0    0  501 -0.00000000000E+00 -0.00000000000E+00 -0.49880022443E+03  0.49880022443E+03  0.00000000000E+00 0. -1.
    9000010    2    1    2  502    0 -0.13888303245E+03 -0.32075156954E+03  0.52352818246E+03  0.11832409433E+04  0.10019018445E+04 0.  0.
   -9000010    2    1    2    0  501  0.13888303245E+03  0.32075156954E+03  0.14429949099E+04  0.17808825979E+04  0.98343197603E+03 0.  0.
        -13    1    3    3    0    0 -0.67958503691E+02  0.32724724492E+03  0.39743050002E+03  0.51928810023E+03  0.10566000000E+00 0.  1.
          4    1    3    3  502    0 -0.70924528760E+02 -0.64799881446E+03  0.12609768244E+03  0.66395284308E+03  0.00000000000E+00 0.  1.
         13    1    4    4    0    0  0.48391766967E+03  0.24732600631E+03  0.12833550443E+04  0.13936809697E+04  0.10566000000E+00 0. -1.
         -4    1    4    4    0  501 -0.34503463722E+03  0.73425563234E+02  0.15963986565E+03  0.38720162825E+03  0.00000000000E+00 0. -1.
<mgrwt>
<rscale>  2 0.10523741E+04</rscale>
<asrwt>0</asrwt>
<pdfrwt beam="1">  1        2 0.37928050E+00 0.10523741E+04</pdfrwt>
<pdfrwt beam="2">  1       -2 0.76738497E-01 0.10523741E+04</pdfrwt>
<totfact> 0.86428514E+00</totfact>
</mgrwt>
</event>
<event>
 8    1  0.7046235E-006  0.1042824E+04  0.7818608E-02  0.8735363E-01
         -2   -1    0    0    0  501 -0.00000000000E+00  0.00000000000E+00  0.78142762847E+03  0.78142762847E+03  0.00000000000E+00 0.  1.
          2   -1    0    0  502    0  0.00000000000E+00 -0.00000000000E+00 -0.20813904662E+04  0.20813904662E+04  0.00000000000E+00 0. -1.
    9000010    2    1    2  502    0 -0.24584406990E+03 -0.15511806470E+03 -0.14765042064E+04  0.18112007684E+04  0.10079100313E+04 0.  0.
   -9000010    2    1    2    0  501  0.24584406990E+03  0.15511806470E+03  0.17654136866E+03  0.10516173263E+04  0.99510362549E+03 0.  0.
        -13    1    3    3    0    0 -0.36127576996E+03  0.17877558472E+03 -0.13675636070E+03  0.42565620518E+03  0.10566000000E+00 0.  1.
          4    1    3    3  502    0  0.11543170006E+03 -0.33389364942E+03 -0.13397478457E+04  0.13855445632E+04  0.00000000000E+00 0.  1.
         13    1    4    4    0    0 -0.14026192860E+03  0.48751579912E+03  0.19068078377E+03  0.54194486386E+03  0.10566000000E+00 0. -1.
         -4    1    4    4    0  501  0.38610599850E+03 -0.33239773442E+03 -0.14139415114E+02  0.50967246245E+03  0.00000000000E+00 0. -1.
<mgrwt>
<rscale>  2 0.10428242E+04</rscale>
<asrwt>0</asrwt>
<pdfrwt beam="2">  1        2 0.32021391E+00 0.10428242E+04</pdfrwt>
<pdfrwt beam="1">  1       -2 0.12021964E+00 0.10428242E+04</pdfrwt>
<totfact> 0.48447084E+00</totfact>
</mgrwt>
</event>
<event>
 8    1  0.7046235E-006  0.1607445E+04  0.7818608E-02  0.8350214E-01
          2   -1    0    0  502    0  0.00000000000E+00  0.00000000000E+00  0.31382429341E+04  0.31382429341E+04  0.00000000000E+00 0. -1.
         -2   -1    0    0    0  501 -0.00000000000E+00 -0.00000000000E+00 -0.84734637828E+03  0.84734637828E+03  0.00000000000E+00 0.  1.
    9000010    2    1    2  502    0  0.11163216332E+04  0.57666794419E+03  0.14864642194E+04  0.21956116592E+04  0.10160781347E+04 0.  0.
   -9000010    2    1    2    0  501 -0.11163216332E+04 -0.57666794419E+03  0.80443233638E+03  0.17899776532E+04  0.98903423013E+03 0.  0.
        -13    1    3    3    0    0  0.12946345597E+04  0.38296625362E+03  0.11968648099E+04  0.18042248139E+04  0.10566000000E+00 0.  1.
          4    1    3    3  502    0 -0.17831292652E+03  0.19370169057E+03  0.28959940952E+03  0.39138684532E+03  0.00000000000E+00 0.  1.
         13    1    4    4    0    0 -0.44888732604E+03 -0.34810491549E+02  0.81400993563E+03  0.93022781525E+03  0.10566000000E+00 0. -1.
         -4    1    4    4    0  501 -0.66743430718E+03 -0.54185745264E+03 -0.95775992518E+01  0.85974983791E+03  0.00000000000E+00 0. -1.
<mgrwt>
<rscale>  2 0.16074450E+04</rscale>
<asrwt>0</asrwt>
<pdfrwt beam="1">  1        2 0.48280660E+00 0.16074450E+04</pdfrwt>
<pdfrwt beam="2">  1       -2 0.13036098E+00 0.16074450E+04</pdfrwt>
<totfact> 0.88733874E-01</totfact>
</mgrwt>
</event>
<event>
 8    1  0.7046235E-006  0.1584656E+04  0.7818608E-02  0.8362379E-01
          2   -1    0    0  502    0  0.00000000000E+00  0.00000000000E+00  0.17537733002E+04  0.17537733002E+04  0.00000000000E+00 0.  1.
         -2   -1    0    0    0  501 -0.00000000000E+00 -0.00000000000E+00 -0.14870700425E+04  0.14870700425E+04  0.00000000000E+00 0. -1.
    9000010    2    1    2  502    0  0.12315180035E+04  0.23626447669E+03 -0.17877973721E+03  0.15963034088E+04  0.97147562130E+03 0.  0.
   -9000010    2    1    2    0  501 -0.12315180035E+04 -0.23626447669E+03  0.44548299498E+03  0.16445399338E+04  0.96622926853E+03 0.  0.
        -13    1    3    3    0    0  0.74837245712E+03  0.50423459868E+03  0.20274382759E+03  0.92488860728E+03  0.10566000000E+00 0.  1.
          4    1    3    3  502    0  0.48314554636E+03 -0.26797012199E+03 -0.38152356480E+03  0.67141480155E+03  0.00000000000E+00 0.  1.
         13    1    4    4    0    0 -0.12477469070E+04 -0.46911574120E+03  0.46131826306E+03  0.14105872796E+04  0.10566000000E+00 0. -1.
         -4    1    4    4    0  501  0.16228903491E+02  0.23285126451E+03 -0.15835268084E+02  0.23395265420E+03  0.00000000000E+00 0. -1.
<mgrwt>
<rscale>  2 0.15846559E+04</rscale>
<asrwt>0</asrwt>
<pdfrwt beam="1">  1        2 0.26981128E+00 0.15846559E+04</pdfrwt>
<pdfrwt beam="2">  1       -2 0.22878001E+00 0.15846559E+04</pdfrwt>
<totfact> 0.80685258E-01</totfact>
</mgrwt>
</event>
<event>
 8    1  0.7046235E-006  0.1168648E+04  0.7818608E-02  0.8630553E-01
         -1   -1    0    0    0  501 -0.00000000000E+00  0.00000000000E+00  0.49691095338E+03  0.49691095338E+03  0.00000000000E+00 0.  1.
          1   -1    0    0  502    0  0.00000000000E+00 -0.00000000000E+00 -0.28088339419E+04  0.28088339419E+04  0.00000000000E+00 0. -1.
    9000010    2    1    2  502    0  0.30427404855E+02 -0.60611496665E+03 -0.14006319265E+04  0.18257084646E+04  0.10015689814E+04 0.  0.
   -9000010    2    1    2    0  501 -0.30427404855E+02  0.60611496665E+03 -0.91129106207E+03  0.14800364307E+04  0.99586909616E+03 0.  0.
        -13    1    3    3    0    0 -0.34513141518E+03 -0.61682303107E+03 -0.12173696803E+04  0.14076843734E+04  0.10566000000E+00 0.  1.
          4    1    3    3  502    0  0.37555882004E+03  0.10708064415E+02 -0.18326224619E+03  0.41802409121E+03  0.00000000000E+00 0.  1.
         13    1    4    4    0    0 -0.38425130005E+03  0.52537935471E+03 -0.90787932704E+03  0.11171022386E+04  0.10566000000E+00 0. -1.
         -4    1    4    4    0  501  0.35382389519E+03  0.80735611943E+02 -0.34117350316E+01  0.36293419208E+03  0.00000000000E+00 0. -1.
<mgrwt>
<rscale>  2 0.11686476E+04</rscale>
<asrwt>0</asrwt>
<pdfrwt beam="2">  1        1 0.43212830E+00 0.11686476E+04</pdfrwt>
<pdfrwt beam="1">  1       -1 0.76447839E-01 0.11686476E+04</pdfrwt>
<totfact> 0.12891301E+00</totfact>
</mgrwt>
</event>
<event>
 8    1  0.7046235E-006  0.1173948E+04  0.7818608E-02  0.8626443E-01
          2   -1    0    0  502    0  0.00000000000E+00  0.00000000000E+00  0.16663310046E+04  0.16663310046E+04  0.00000000000E+00 0.  1.
         -2   -1    0    0    0  501 -0.00000000000E+00 -0.00000000000E+00 -0.83771848656E+03  0.83771848656E+03  0.00000000000E+00 0. -1.
    9000010    2    1    2  502    0 -0.18485963372E+03 -0.55426791657E+03  0.27291072758E+03  0.12048027993E+04  0.10176853701E+04 0.  0.
   -9000010    2    1    2    0  501  0.18485963372E+03  0.55426791657E+03  0.55570179049E+03  0.12992466918E+04  0.10187499589E+04 0.  0.
        -13    1    3    3    0    0 -0.15594021181E+03  0.28272276177E+03 -0.34425191219E+01  0.32289529538E+03  0.10566000000E+00 0.  1.
          4    1    3    3  502    0 -0.28919421915E+02 -0.83699067834E+03  0.27635324670E+03  0.88190750396E+03  0.00000000000E+00 0.  1.
         13    1    4    4    0    0  0.14418928409E+02  0.11966189213E+03 -0.30065340267E+03  0.32391257096E+03  0.10566000000E+00 0. -1.
         -4    1    4    4    0  501  0.17044070531E+03  0.43460602444E+03  0.85635519316E+03  0.97533412088E+03  0.00000000000E+00 0. -1.
<mgrwt>
<rscale>  2 0.11739476E+04</rscale>
<asrwt>0</asrwt>
<pdfrwt beam="1">  1        2 0.25635862E+00 0.11739476E+04</pdfrwt>
<pdfrwt beam="2">  1       -2 0.12887977E+00 0.11739476E+04</pdfrwt>
<totfact> 0.66473691E+00</totfact>
</mgrwt>
</event>
<event>
 8    1  0.7046235E-006  0.1872130E+04  0.7818608E-02  0.8222538E-01
          2   -1    0    0  502    0  0.00000000000E+00  0.00000000000E+00  0.25506684889E+04  0.25506684889E+04  0.00000000000E+00 0.  1.
         -2   -1    0    0    0  501 -0.00000000000E+00 -0.00000000000E+00 -0.14594527696E+04  0.14594527696E+04  0.00000000000E+00 0. -1.
    9000010    2    1    2  502    0 -0.15365055981E+04  0.35632272301E+03  0.10300419978E+04  0.21353425567E+04  0.10054282577E+04 0.  0.
   -9000010    2    1    2    0  501  0.15365055981E+04 -0.35632272301E+03  0.61173721520E+02  0.18747787019E+04  0.10115520851E+04 0.  0.
        -13    1    3    3    0    0 -0.13966552857E+04  0.48258640049E+03  0.11828151907E+04  0.18927724130E+04  0.10566000000E+00 0.  1.
          4    1    3    3  502    0 -0.13985031242E+03 -0.12626367748E+03 -0.15277319293E+03  0.24257014370E+03  0.00000000000E+00 0.  1.
         13    1    4    4    0    0  0.93568170044E+03  0.30088404886E+03  0.11432036083E+02  0.98293548009E+03  0.10566000000E+00 0. -1.
         -4    1    4    4    0  501  0.60082389765E+03 -0.65720677187E+03  0.49741685437E+02  0.89184322179E+03  0.00000000000E+00 0. -1.
<mgrwt>
<rscale>  2 0.18721303E+04</rscale>
<asrwt>0</asrwt>
<pdfrwt beam="1">  1        2 0.39241054E+00 0.18721303E+04</pdfrwt>
<pdfrwt beam="2">  1       -2 0.22453119E+00 0.18721303E+04</pdfrwt>
<totfact> 0.30735879E-01</totfact>
</mgrwt>
</event>
<event>
 8    1  0.7046235E-006  0.1284993E+04  0.7818608E-02  0.8545169E-01
         -1   -1    0    0    0  501 -0.00000000000E+00  0.00000000000E+00  0.11103125394E+04  0.11103125394E+04  0.00000000000E+00 0. -1.
          1   -1    0    0  502    0  0.00000000000E+00 -0.00000000000E+00 -0.15507306037E+04  0.15507306037E+04  0.00000000000E+00 0.  1.
    9000010    2    1    2  502    0 -0.70148133833E+03 -0.41830620490E+03  0.49083682265E+02  0.12865799644E+04  0.99288601950E+03 0.  0.
   -9000010    2    1    2    0  501  0.70148133833E+03  0.41830620490E+03 -0.48950174656E+03  0.13744631788E+04  0.99120175593E+03 0.  0.
        -13    1    3    3    0    0 -0.84839947939E+03 -0.22892997011E+03 -0.24012417706E+03  0.91096116241E+03  0.10566000000E+00 0.  1.
          4    1    3    3  502    0  0.14691814107E+03 -0.18937623480E+03  0.28920785932E+03  0.37561880194E+03  0.00000000000E+00 0.  1.
         13    1    4    4    0    0 -0.21626723111E+03  0.28097889548E+03 -0.16823310575E+03  0.39245769707E+03  0.10566000000E+00 0. -1.
         -4    1    4    4    0  501  0.91774856943E+03  0.13732730942E+03 -0.32126864081E+03  0.98200548175E+03  0.00000000000E+00 0. -1.
<mgrwt>
<rscale>  2 0.12849930E+04</rscale>
<asrwt>0</asrwt>
<pdfrwt beam="2">  1        1 0.23857394E+00 0.12849930E+04</pdfrwt>
<pdfrwt beam="1">  1       -1 0.17081731E+00 0.12849930E+04</pdfrwt>
<totfact> 0.19237478E+00</totfact>
</mgrwt>
</event>
<event>
 8    1  0.7046235E-006  0.1110808E+04  0.7818608E-02  0.8676934E-01
         -2   -1    0    0    0  501 -0.00000000000E+00  0.00000000000E+00  0.47975330947E+03  0.47975330947E+03  0.00000000000E+00 0. -1.
          2   -1    0    0  502    0  0.00000000000E+00 -0.00000000000E+00 -0.25737677264E+04  0.25737677264E+04  0.00000000000E+00 0.  1.
    9000010    2    1    2  502    0  0.23799162988E+03  0.17004872509E+03 -0.10954496760E+04  0.15754041736E+04  0.10937695062E+04 0.  0.
   -9000010    2    1    2    0  501 -0.23799162988E+03 -0.17004872509E+03 -0.99856474100E+03  0.14781168623E+04  0.10498291918E+04 0.  0.
        -13    1    3    3    0    0 -0.26736784678E+03 -0.84987588508E+02 -0.95054846951E+03  0.99108569747E+03  0.10566000000E+00 0.  1.
          4    1    3    3  502    0  0.50535947666E+03  0.25503631359E+03 -0.14490120646E+03  0.58431847612E+03  0.00000000000E+00 0.  1.
         13    1    4    4    0    0 -0.62500908419E+03  0.74176065931E+02 -0.62993143612E+03  0.89047856204E+03  0.10566000000E+00 0. -1.
         -4    1    4    4    0  501  0.38701745431E+03 -0.24422479102E+03 -0.36863330488E+03  0.58763830028E+03  0.00000000000E+00 0. -1.
<mgrwt>
<rscale>  2 0.11108081E+04</rscale>
<asrwt>0</asrwt>
<pdfrwt beam="2">  1        2 0.39596427E+00 0.11108081E+04</pdfrwt>
<pdfrwt beam="1">  1       -2 0.73808200E-01 0.11108081E+04</pdfrwt>
<totfact> 0.81029591E+00</totfact>
</mgrwt>
</event>
<event>
 8    1  0.7046235E-006  0.1381684E+04  0.7818608E-02  0.8481023E-01
         -2   -1    0    0    0  501 -0.00000000000E+00  0.00000000000E+00  0.15249337034E+04  0.15249337034E+04  0.00000000000E+00 0. -1.
          2   -1    0    0  502    0  0.00000000000E+00 -0.00000000000E+00 -0.13160646961E+04  0.13160646961E+04  0.00000000000E+00 0.  1.
    9000010    2    1    2  502    0  0.66297782778E+03 -0.68614435247E+03 -0.20979889013E+03  0.13874610082E+04  0.98524047943E+03 0.  0.
   -9000010    2    1    2    0  501 -0.66297782778E+03  0.68614435247E+03  0.41866789746E+03  0.14535373913E+04  0.10134862935E+04 0.  0.
        -13    1    3    3    0    0  0.61772733578E+03 -0.90266145176E+03 -0.32094977310E+03  0.11399094376E+04  0.10566000000E+00 0.  1.
          4    1    3    3  502    0  0.45250492006E+02  0.21651709929E+03  0.11115088297E+03  0.24755157058E+03  0.00000000000E+00 0.  1.
         13    1    4    4    0    0 -0.52050836656E+02 -0.22569757427E+03 -0.83922686613E+02  0.24635688162E+03  0.10566000000E+00 0. -1.
         -4    1    4    4    0  501 -0.61092699113E+03  0.91184192674E+03  0.50259058407E+03  0.12071805097E+04  0.00000000000E+00 0. -1.
<mgrwt>
<rscale>  2 0.13816843E+04</rscale>
<asrwt>0</asrwt>
<pdfrwt beam="2">  1        2 0.20247149E+00 0.13816843E+04</pdfrwt>
<pdfrwt beam="1">  1       -2 0.23460518E+00 0.13816843E+04</pdfrwt>
<totfact> 0.12899913E+00</totfact>
</mgrwt>
</event>
<event>
 8    1  0.7046235E-006  0.1387232E+04  0.7818608E-02  0.8477507E-01
          2   -1    0    0  502    0  0.00000000000E+00  0.00000000000E+00  0.26303706382E+04  0.26303706382E+04  0.00000000000E+00 0. -1.
         -2   -1    0    0    0  501 -0.00000000000E+00 -0.00000000000E+00 -0.84994908753E+03  0.84994908753E+03  0.00000000000E+00 0.  1.
    9000010    2    1    2  502    0 -0.90626145724E+03 -0.48470489677E+03  0.21843866041E+03  0.13606074785E+04  0.86445855670E+03 0.  0.
   -9000010    2    1    2    0  501  0.90626145724E+03  0.48470489677E+03  0.15619828903E+04  0.21197122473E+04  0.99856937464E+03 0.  0.
        -13    1    3    3    0    0 -0.33286834321E+02 -0.38872437165E+03  0.27999052206E+03  0.48021802763E+03  0.10566000000E+00 0.  1.
          4    1    3    3  502    0 -0.87297462292E+03 -0.95980525119E+02 -0.61551861647E+02  0.88038945083E+03  0.00000000000E+00 0.  1.
         13    1    4    4    0    0  0.37617563853E+03  0.57802961537E+03  0.13950015754E+04  0.15561670070E+04  0.10566000000E+00 0. -1.
         -4    1    4    4    0  501  0.53008581871E+03 -0.93324718599E+02  0.16698131489E+03  0.56354524027E+03  0.00000000000E+00 0. -1.
<mgrwt>
<rscale>  2 0.13872320E+04</rscale>
<asrwt>0</asrwt>
<pdfrwt beam="1">  1        2 0.40467240E+00 0.13872320E+04</pdfrwt>
<pdfrwt beam="2">  1       -2 0.13076140E+00 0.13872320E+04</pdfrwt>
<totfact> 0.18347650E+00</totfact>
</mgrwt>
</event>
<event>
 8    1  0.7046235E-006  0.1720695E+04  0.7818608E-02  0.8292699E-01
         -2   -1    0    0    0  501 -0.00000000000E+00  0.00000000000E+00  0.88776763928E+03  0.88776763928E+03  0.00000000000E+00 0. -1.
          2   -1    0    0  502    0  0.00000000000E+00 -0.00000000000E+00 -0.35745133128E+04  0.35745133128E+04  0.00000000000E+00 0.  1.
    9000010    2    1    2  502    0 -0.14120081481E+04  0.25732393160E+01 -0.75922689331E+03  0.18721717480E+04  0.96686500953E+03 0.  0.
   -9000010    2    1    2    0  501  0.14120081481E+04 -0.25732393160E+01 -0.19275187802E+04  0.25901092041E+04  0.99978168074E+03 0.  0.
        -13    1    3    3    0    0 -0.10362634944E+04  0.20960987087E+03 -0.69019855371E+02  0.10595008633E+04  0.10566000000E+00 0.  1.
          4    1    3    3  502    0 -0.37574465371E+03 -0.20703663155E+03 -0.69020703794E+03  0.81267088469E+03  0.00000000000E+00 0.  1.
         13    1    4    4    0    0  0.15291763034E+04  0.12562067867E+03 -0.18395321169E+04  0.23954204521E+04  0.10566000000E+00 0. -1.
         -4    1    4    4    0  501 -0.11716815534E+03 -0.12819391798E+03 -0.87986663260E+02  0.19468875198E+03  0.00000000000E+00 0. -1.
<mgrwt>
<rscale>  2 0.17206953E+04</rscale>
<asrwt>0</asrwt>
<pdfrwt beam="2">  1        2 0.54992512E+00 0.17206953E+04</pdfrwt>
<pdfrwt beam="1">  1       -2 0.13657964E+00 0.17206953E+04</pdfrwt>
<totfact> 0.38066737E-01</totfact>
</mgrwt>
</event>
<event>
 8    1  0.7046235E-006  0.1301714E+04  0.7818608E-02  0.8533668E-01
          1   -1    0    0  502    0  0.00000000000E+00  0.00000000000E+00  0.21959178975E+04  0.21959178975E+04  0.00000000000E+00 0.  1.
         -1   -1    0    0    0  501 -0.00000000000E+00 -0.00000000000E+00 -0.12718620285E+04  0.12718620285E+04  0.00000000000E+00 0. -1.
    9000010    2    1    2  502    0 -0.41252905415E+02  0.88967630814E+03 -0.62618054195E+03  0.14410046355E+04  0.94401618258E+03 0.  0.
   -9000010    2    1    2    0  501  0.41252905415E+02 -0.88967630814E+03  0.15502364109E+04  0.20267752906E+04  0.95465146162E+03 0.  0.
        -13    1    3    3    0    0  0.25268648724E+03  0.95487204190E+03 -0.40563753620E+03  0.10677887896E+04  0.10566000000E+00 0.  1.
          4    1    3    3  502    0 -0.29393939266E+03 -0.65195733760E+02 -0.22054300576E+03  0.37321584592E+03  0.00000000000E+00 0.  1.
         13    1    4    4    0    0  0.31929968918E+02 -0.14682103372E+03  0.11930166181E+04  0.12024411009E+04  0.10566000000E+00 0. -1.
         -4    1    4    4    0  501  0.93229364968E+01 -0.74285527442E+03  0.35721979282E+03  0.82433418967E+03  0.00000000000E+00 0. -1.
<mgrwt>
<rscale>  2 0.13017137E+04</rscale>
<asrwt>0</asrwt>
<pdfrwt beam="1">  1        1 0.33783352E+00 0.13017137E+04</pdfrwt>
<pdfrwt beam="2">  1       -1 0.19567108E+00 0.13017137E+04</pdfrwt>
<totfact> 0.37577790E-01</totfact>
</mgrwt>
</event>
<event>
 8    1  0.7046235E-006  0.1169452E+04  0.7818608E-02  0.8629927E-01
          2   -1    0    0  502    0  0.00000000000E+00  0.00000000000E+00  0.39771520194E+04  0.39771520194E+04  0.00000000000E+00 0.  1.
         -2   -1    0    0    0  501 -0.00000000000E+00 -0.00000000000E+00 -0.35700232930E+03  0.35700232930E+03  0.00000000000E+00 0. -1.
    9000010    2    1    2  502    0  0.23577305696E+02 -0.61588229643E+03  0.13972796738E+04  0.18233139567E+04  0.99610059998E+03 0.  0.
   -9000010    2    1    2    0  501 -0.23577305696E+02  0.61588229643E+03  0.22228700163E+04  0.25108403921E+04  0.99161558714E+03 0.  0.
        -13    1    3    3    0    0  0.24352779921E+03 -0.47547701281E+03  0.14602323597E+04  0.15548835114E+04  0.10566000000E+00 0.  1.
          4    1    3    3  502    0 -0.21995049351E+03 -0.14040528363E+03 -0.62952685871E+02  0.26843044523E+03  0.00000000000E+00 0.  1.
         13    1    4    4    0    0 -0.29004411899E+03  0.22855114142E+03  0.17307060249E+03  0.40781694400E+03  0.10566000000E+00 0. -1.
         -4    1    4    4    0  501  0.26646681330E+03  0.38733115501E+03  0.20497994138E+04  0.21030234481E+04  0.00000000000E+00 0. -1.
<mgrwt>
<rscale>  2 0.11694523E+04</rscale>
<asrwt>0</asrwt>
<pdfrwt beam="1">  1        2 0.61186951E+00 0.11694523E+04</pdfrwt>
<pdfrwt beam="2">  1       -2 0.54923438E-01 0.11694523E+04</pdfrwt>
<totfact> 0.15731721E+00</totfact>
</mgrwt>
</event>
<event>
 8    1  0.7046235E-006  0.1389272E+04  0.7818608E-02  0.8476219E-01
         -2   -1    0    0    0  501 -0.00000000000E+00  0.00000000000E+00  0.43238868389E+04  0.43238868389E+04  0.00000000000E+00 0. -1.
          2   -1    0    0  502    0  0.00000000000E+00 -0.00000000000E+00 -0.79824148160E+03  0.79824148160E+03  0.00000000000E+00 0.  1.
    9000010    2    1    2  502    0 -0.76921270925E+03 -0.53005298478E+03  0.34955269669E+04  0.37798662464E+04  0.10936341737E+04 0.  0.
   -9000010    2    1    2    0  501  0.76921270925E+03  0.53005298478E+03  0.30118390487E+02  0.13422620741E+04  0.96338777213E+03 0.  0.
        -13    1    3    3    0    0 -0.39987902249E+03  0.31891649314E+03  0.11776720428E+04  0.12839479794E+04  0.10566000000E+00 0.  1.
          4    1    3    3  502    0 -0.36933368676E+03 -0.84896947793E+03  0.23178549240E+04  0.24959182670E+04  0.00000000000E+00 0.  1.
         13    1    4    4    0    0  0.84429726677E+03  0.41075172826E+02  0.53623409192E+02  0.84699499744E+03  0.10566000000E+00 0. -1.
         -4    1    4    4    0  501 -0.75084557525E+02  0.48897781196E+03 -0.23505018705E+02  0.49526707671E+03  0.00000000000E+00 0. -1.
<mgrwt>
<rscale>  2 0.13892721E+04</rscale>
<asrwt>0</asrwt>
<pdfrwt beam="2">  1        2 0.12280638E+00 0.13892721E+04</pdfrwt>
<pdfrwt beam="1">  1       -2 0.66521334E+00 0.13892721E+04</pdfrwt>
<totfact> 0.12834864E-01</totfact>
</mgrwt>
</event>
<event>
 8    1  0.7046235E-006  0.1206717E+04  0.7818608E-02  0.8601521E-01
         -1   -1    0    0    0  501 -0.00000000000E+00  0.00000000000E+00  0.87172102591E+03  0.87172102591E+03  0.00000000000E+00 0. -1.
          1   -1    0    0  502    0  0.00000000000E+00 -0.00000000000E+00 -0.19184073876E+04  0.19184073876E+04  0.00000000000E+00 0.  1.
    9000010    2    1    2  502    0  0.66708601705E+03 -0.20822840200E+02 -0.10236204933E+04  0.15798624956E+04  0.10013636931E+04 0.  0.
   -9000010    2    1    2    0  501 -0.66708601705E+03  0.20822840200E+02 -0.23065868399E+02  0.12102659179E+04  0.10093434564E+04 0.  0.
        -13    1    3    3    0    0  0.64948788382E+03  0.34773551498E+03 -0.35864665968E+03  0.81937899489E+03  0.10566000000E+00 0.  1.
          4    1    3    3  502    0  0.17598133223E+02 -0.36855835518E+03 -0.66497383359E+03  0.76048350069E+03  0.00000000000E+00 0.  1.
         13    1    4    4    0    0 -0.68754601652E+03 -0.38821556240E+03 -0.92131638899E+02  0.79493339204E+03  0.10566000000E+00 0. -1.
         -4    1    4    4    0  501  0.20459999478E+02  0.40903840260E+03  0.69065770500E+02  0.41533252586E+03  0.00000000000E+00 0. -1.
<mgrwt>
<rscale>  2 0.12067174E+04</rscale>
<asrwt>0</asrwt>
<pdfrwt beam="2">  1        1 0.29513960E+00 0.12067174E+04</pdfrwt>
<pdfrwt beam="1">  1       -1 0.13411093E+00 0.12067174E+04</pdfrwt>
<totfact> 0.21494826E+00</totfact>
</mgrwt>
</event>
<event>
 8    1  0.7046235E-006  0.1122446E+04  0.7818608E-02  0.8667369E-01
          2   -1    0    0  502    0  0.00000000000E+00  0.00000000000E+00  0.36497352812E+04  0.36497352812E+04  0.00000000000E+00 0.  1.
         -2   -1    0    0    0  501 -0.00000000000E+00 -0.00000000000E+00 -0.35070126564E+03  0.35070126564E+03  0.00000000000E+00 0. -1.
    9000010    2    1    2  502    0  0.47436523009E+03  0.18900951952E+03  0.18967909571E+04  0.22028803559E+04  0.99705514263E+03 0.  0.
   -9000010    2    1    2    0  501 -0.47436523009E+03 -0.18900951952E+03  0.14022430584E+04  0.17975561909E+04  0.10020856723E+04 0.  0.
        -13    1    3    3    0    0  0.17762010071E+03  0.50481610427E+03  0.15741035791E+04  0.16625854228E+04  0.10566000000E+00 0.  1.
          4    1    3    3  502    0  0.29674512937E+03 -0.31580658475E+03  0.32268737802E+03  0.54029493308E+03  0.00000000000E+00 0.  1.
         13    1    4    4    0    0 -0.26776744685E+02  0.37024528185E+03  0.27501340899E+03  0.46198587540E+03  0.10566000000E+00 0. -1.
         -4    1    4    4    0  501 -0.44758848540E+03 -0.55925480136E+03  0.11272296495E+04  0.13355703155E+04  0.00000000000E+00 0. -1.
<mgrwt>
<rscale>  2 0.11224457E+04</rscale>
<asrwt>0</asrwt>
<pdfrwt beam="1">  1        2 0.56149771E+00 0.11224457E+04</pdfrwt>
<pdfrwt beam="2">  1       -2 0.53954043E-01 0.11224457E+04</pdfrwt>
<totfact> 0.30680015E+00</totfact>
</mgrwt>
</event>
<event>
 8    1  0.7046235E-006  0.1185496E+04  0.7818608E-02  0.8617565E-01
          1   -1    0    0  502    0  0.00000000000E+00  0.00000000000E+00  0.92110567296E+03  0.92110567296E+03  0.00000000000E+00 0. -1.
         -1   -1    0    0    0  501 -0.00000000000E+00 -0.00000000000E+00 -0.15658312826E+04  0.15658312826E+04  0.00000000000E+00 0.  1.
    9000010    2    1    2  502    0 -0.18541875849E+03 -0.59674256398E+03 -0.12342345148E+03  0.11916854135E+04  0.10071737549E+04 0.  0.
   -9000010    2    1    2    0  501  0.18541875849E+03  0.59674256398E+03 -0.52130215821E+03  0.12952515421E+04  0.10076898400E+04 0.  0.
        -13    1    3    3    0    0 -0.29163101130E+03  0.17790655643E+03 -0.21623738554E+03  0.40429940347E+03  0.10566000000E+00 0.  1.
          4    1    3    3  502    0  0.10621225282E+03 -0.77464912042E+03  0.92813934059E+02  0.78738601001E+03  0.00000000000E+00 0.  1.
         13    1    4    4    0    0  0.15591310386E+03  0.12521531292E+03  0.29245789018E+03  0.35428717058E+03  0.10566000000E+00 0. -1.
         -4    1    4    4    0  501  0.29505654629E+02  0.47152725107E+03 -0.81376004839E+03  0.94096437154E+03  0.00000000000E+00 0. -1.
<mgrwt>
<rscale>  2 0.11854959E+04</rscale>
<asrwt>0</asrwt>
<pdfrwt beam="1">  1        1 0.14170857E+00 0.11854959E+04</pdfrwt>
<pdfrwt beam="2">  1       -1 0.24089712E+00 0.11854959E+04</pdfrwt>
<totfact> 0.13847720E+00</totfact>
</mgrwt>
</event>
<event>
 8    1  0.7046235E-006  0.1251044E+04  0.7818608E-02  0.8569086E-01
         -4   -1    0    0    0  501 -0.00000000000E+00  0.00000000000E+00  0.84205645301E+03  0.84205645301E+03  0.00000000000E+00 0. -1.
          4   -1    0    0  502    0  0.00000000000E+00 -0.00000000000E+00 -0.21091187931E+04  0.21091187931E+04  0.00000000000E+00 0.  1.
    9000010    2    1    2  502    0  0.75599582934E+03  0.16738621473E+02 -0.11371507570E+04  0.16828746042E+04  0.98343541411E+03 0.  0.
   -9000010    2    1    2    0  501 -0.75599582934E+03 -0.16738621473E+02 -0.12991158313E+03  0.12683006420E+04  0.10099007989E+04 0.  0.
        -13    1    3    3    0    0  0.33696545038E+03 -0.78943173248E+02 -0.11996178009E+04  0.12485433988E+04  0.10566000000E+00 0.  1.
          4    1    3    3  502    0  0.41903037896E+03  0.95681794720E+02  0.62467043912E+02  0.43433120532E+03  0.00000000000E+00 0.  1.
         13    1    4    4    0    0 -0.47373812243E+03  0.42378513381E+03  0.17947089810E+03  0.66047820759E+03  0.10566000000E+00 0. -1.
         -4    1    4    4    0  501 -0.28225770692E+03 -0.44052375528E+03 -0.30938248123E+03  0.60782243442E+03  0.00000000000E+00 0. -1.
<mgrwt>
<rscale>  2 0.12510436E+04</rscale>
<asrwt>0</asrwt>
<pdfrwt beam="2">  1        4 0.32447981E+00 0.12510436E+04</pdfrwt>
<pdfrwt beam="1">  1       -4 0.12954715E+00 0.12510436E+04</pdfrwt>
<totfact> 0.16140531E-01</totfact>
</mgrwt>
</event>
<event>
 8    1  0.7046235E-006  0.1466848E+04  0.7818608E-02  0.8428838E-01
         -2   -1    0    0    0  501 -0.00000000000E+00  0.00000000000E+00  0.10691935617E+04  0.10691935617E+04  0.00000000000E+00 0. -1.
          2   -1    0    0  502    0  0.00000000000E+00 -0.00000000000E+00 -0.25450883066E+04  0.25450883066E+04  0.00000000000E+00 0.  1.
    9000010    2    1    2  502    0 -0.41050408558E+03 -0.97576167907E+03  0.83705547038E+02  0.14817538059E+04  0.10334230809E+04 0.  0.
   -9000010    2    1    2    0  501  0.41050408558E+03  0.97576167907E+03 -0.15596002920E+04  0.21325280624E+04  0.99734568100E+03 0.  0.
        -13    1    3    3    0    0  0.18002490961E+03  0.22020438143E+02 -0.21812244250E+03  0.28367460031E+03  0.10566000000E+00 0.  1.
          4    1    3    3  502    0 -0.59052899519E+03 -0.99778211721E+03  0.30182798954E+03  0.11980792056E+04  0.00000000000E+00 0.  1.
         13    1    4    4    0    0  0.47061213403E+03  0.95959886489E+03 -0.71558833892E+03  0.12862241034E+04  0.10566000000E+00 0. -1.
         -4    1    4    4    0  501 -0.60108048448E+02  0.16162814174E+02 -0.84401195307E+03  0.84630395898E+03  0.00000000000E+00 0. -1.
<mgrwt>
<rscale>  2 0.14668481E+04</rscale>
<asrwt>0</asrwt>
<pdfrwt beam="2">  1        2 0.39155204E+00 0.14668481E+04</pdfrwt>
<pdfrwt beam="1">  1       -2 0.16449132E+00 0.14668481E+04</pdfrwt>
<totfact> 0.10184825E+00</totfact>
</mgrwt>
</event>
<event>
 8    1  0.7046235E-006  0.1312542E+04  0.7818608E-02  0.8526315E-01
         -1   -1    0    0    0  501 -0.00000000000E+00  0.00000000000E+00  0.34552907258E+03  0.34552907258E+03  0.00000000000E+00 0. -1.
          1   -1    0    0  502    0  0.00000000000E+00 -0.00000000000E+00 -0.50365123693E+04  0.50365123693E+04  0.00000000000E+00 0.  1.
    9000010    2    1    2  502    0  0.35846559396E+03 -0.79406179872E+03 -0.21112896110E+04  0.24959608541E+04  0.10066007358E+04 0.  0.
   -9000010    2    1    2    0  501 -0.35846559396E+03  0.79406179872E+03 -0.25796936857E+04  0.28860805878E+04  0.95687508320E+03 0.  0.
        -13    1    3    3    0    0  0.52037027311E+03 -0.74437642247E+03 -0.21394784789E+04  0.23242740054E+04  0.10566000000E+00 0.  1.
          4    1    3    3  502    0 -0.16190467915E+03 -0.49685376253E+02  0.28188867859E+02  0.17168684870E+03  0.00000000000E+00 0.  1.
         13    1    4    4    0    0 -0.83047033016E+02  0.82424074677E+03 -0.24379662207E+04  0.25748687195E+04  0.10566000000E+00 0. -1.
         -4    1    4    4    0  501 -0.27541856094E+03 -0.30178948049E+02 -0.14172746503E+03  0.31121186828E+03  0.00000000000E+00 0. -1.
<mgrwt>
<rscale>  2 0.13125424E+04</rscale>
<asrwt>0</asrwt>
<pdfrwt beam="2">  1        1 0.77484803E+00 0.13125424E+04</pdfrwt>
<pdfrwt beam="1">  1       -1 0.53158321E-01 0.13125424E+04</pdfrwt>
<totfact> 0.33134921E-02</totfact>
</mgrwt>
</event>
<event>
 8    1  0.7046235E-006  0.1234888E+04  0.7818608E-02  0.8580744E-01
         -2   -1    0    0    0  501 -0.00000000000E+00  0.00000000000E+00  0.93904665054E+03  0.93904665054E+03  0.00000000000E+00 0. -1.
          2   -1    0    0  502    0  0.00000000000E+00 -0.00000000000E+00 -0.16953219297E+04  0.16953219297E+04  0.00000000000E+00 0.  1.
    9000010    2    1    2  502    0  0.37105458351E+03 -0.62062872175E+03 -0.10739900175E+03  0.12380210653E+04  0.99914968771E+03 0.  0.
   -9000010    2    1    2    0  501 -0.37105458351E+03  0.62062872175E+03 -0.64887627740E+03  0.13963475149E+04  0.10029379067E+04 0.  0.
        -13    1    3    3    0    0  0.59408603150E+03 -0.46153303371E+03 -0.38748724468E+03  0.84622534232E+03  0.10566000000E+00 0.  1.
          4    1    3    3  502    0 -0.22303144799E+03 -0.15909568804E+03  0.28008824293E+03  0.39179572302E+03  0.00000000000E+00 0.  1.
         13    1    4    4    0    0  0.20453953855E+03  0.33537976245E+03  0.10428227675E+03  0.40643672607E+03  0.10566000000E+00 0. -1.
         -4    1    4    4    0  501 -0.57559412206E+03  0.28524895930E+03 -0.75315855415E+03  0.98991078882E+03  0.00000000000E+00 0. -1.
<mgrwt>
<rscale>  2 0.12348883E+04</rscale>
<asrwt>0</asrwt>
<pdfrwt beam="2">  1        2 0.26081875E+00 0.12348883E+04</pdfrwt>
<pdfrwt beam="1">  1       -2 0.14446872E+00 0.12348883E+04</pdfrwt>
<totfact> 0.45932610E+00</totfact>
</mgrwt>
</event>
<event>
 8    1  0.7046235E-006  0.1436156E+04  0.7818608E-02  0.8447217E-01
          1   -1    0    0  502    0  0.00000000000E+00  0.00000000000E+00  0.17203168377E+04  0.17203168377E+04  0.00000000000E+00 0. -1.
         -1   -1    0    0    0  501 -0.00000000000E+00 -0.00000000000E+00 -0.12027972292E+04  0.12027972292E+04  0.00000000000E+00 0.  1.
    9000010    2    1    2  502    0  0.90212359734E+03  0.39101224366E+03  0.25857483129E+03  0.15405068184E+04  0.11574034537E+04 0.  0.
   -9000010    2    1    2    0  501 -0.90212359734E+03 -0.39101224366E+03  0.25894477723E+03  0.13826072484E+04  0.93692734306E+03 0.  0.
        -13    1    3    3    0    0  0.80595605019E+02 -0.36422862622E+03 -0.64895834893E+02  0.37864181525E+03  0.10566000000E+00 0.  1.
          4    1    3    3  502    0  0.82152799232E+03  0.75524086989E+03  0.32347066618E+03  0.11618650032E+04  0.00000000000E+00 0.  1.
         13    1    4    4    0    0  0.15557068397E+03 -0.21337706734E+02  0.20852595350E+03  0.26103758329E+03  0.10566000000E+00 0. -1.
         -4    1    4    4    0  501 -0.10576942813E+04 -0.36967453693E+03  0.50418823729E+02  0.11215696651E+04  0.00000000000E+00 0. -1.
<mgrwt>
<rscale>  2 0.14361559E+04</rscale>
<asrwt>0</asrwt>
<pdfrwt beam="1">  1        1 0.26466413E+00 0.14361559E+04</pdfrwt>
<pdfrwt beam="2">  1       -1 0.18504573E+00 0.14361559E+04</pdfrwt>
<totfact> 0.10602970E+00</totfact>
</mgrwt>
</event>
<event>
 8    1  0.7046235E-006  0.1601165E+04  0.7818608E-02  0.8353545E-01
         -2   -1    0    0    0  501 -0.00000000000E+00  0.00000000000E+00  0.42285601666E+04  0.42285601666E+04  0.00000000000E+00 0. -1.
          2   -1    0    0  502    0  0.00000000000E+00 -0.00000000000E+00 -0.63262373151E+03  0.63262373151E+03  0.00000000000E+00 0.  1.
    9000010    2    1    2  502    0 -0.79100906836E+03 -0.95941891031E+03  0.22917723436E+04  0.27945866870E+04  0.10056412305E+04 0.  0.
   -9000010    2    1    2    0  501  0.79100906836E+03  0.95941891031E+03  0.13041640915E+04  0.20665972111E+04  0.10118300568E+04 0.  0.
        -13    1    3    3    0    0 -0.94615739142E+03 -0.67739775051E+03  0.21461040281E+04  0.24412791795E+04  0.10566000000E+00 0.  1.
          4    1    3    3  502    0  0.15514832306E+03 -0.28202115980E+03  0.14566831556E+03  0.35330750754E+03  0.00000000000E+00 0.  1.
         13    1    4    4    0    0  0.62755562072E+03  0.79599648567E+03  0.33090903566E+03  0.10662726027E+04  0.10566000000E+00 0. -1.
         -4    1    4    4    0  501  0.16345344764E+03  0.16342242464E+03  0.97325505584E+03  0.10003246084E+04  0.00000000000E+00 0. -1.
<mgrwt>
<rscale>  2 0.16011651E+04</rscale>
<asrwt>0</asrwt>
<pdfrwt beam="2">  1        2 0.97326730E-01 0.16011651E+04</pdfrwt>
<pdfrwt beam="1">  1       -2 0.65054770E+00 0.16011651E+04</pdfrwt>
<totfact> 0.21471404E-01</totfact>
</mgrwt>
</event>
<event>
 8    1  0.7046235E-006  0.1219109E+04  0.7818608E-02  0.8592310E-01
          2   -1    0    0  502    0  0.00000000000E+00  0.00000000000E+00  0.25545105649E+04  0.25545105649E+04  0.00000000000E+00 0.  1.
         -2   -1    0    0    0  501 -0.00000000000E+00 -0.00000000000E+00 -0.58647425243E+03  0.58647425243E+03  0.00000000000E+00 0. -1.
    9000010    2    1    2  502    0  0.70756975562E+03 -0.61860532378E+01  0.84246790989E+03  0.14804155247E+04  0.99054768695E+03 0.  0.
   -9000010    2    1    2    0  501 -0.70756975562E+03  0.61860532378E+01  0.11255684025E+04  0.16605692926E+04  0.99493362618E+03 0.  0.
        -13    1    3    3    0    0  0.90771761923E+03 -0.87212213002E+02  0.41579976112E+03  0.10022208833E+04  0.10566000000E+00 0.  1.
          4    1    3    3  502    0 -0.20014786361E+03  0.81026159764E+02  0.42666814877E+03  0.47819464138E+03  0.00000000000E+00 0.  1.
         13    1    4    4    0    0 -0.32707300188E+03 -0.29586303535E+03  0.70353942687E+01  0.44109091147E+03  0.10566000000E+00 0. -1.
         -4    1    4    4    0  501 -0.38049675374E+03  0.30204908859E+03  0.11185330083E+04  0.12194783812E+04  0.00000000000E+00 0. -1.
<mgrwt>
<rscale>  2 0.12191086E+04</rscale>
<asrwt>0</asrwt>
<pdfrwt beam="1">  1        2 0.39300162E+00 0.12191086E+04</pdfrwt>
<pdfrwt beam="2">  1       -2 0.90226809E-01 0.12191086E+04</pdfrwt>
<totfact> 0.52634926E+00</totfact>
</mgrwt>
</event>
<event>
 8    1  0.7046235E-006  0.1208479E+04  0.7818608E-02  0.8600205E-01
          1   -1    0    0  502    0  0.00000000000E+00  0.00000000000E+00  0.17523201584E+04  0.17523201584E+04  0.00000000000E+00 0.  1.
         -1   -1    0    0    0  501 -0.00000000000E+00 -0.00000000000E+00 -0.90825864014E+03  0.90825864014E+03  0.00000000000E+00 0. -1.
    9000010    2    1    2  502    0  0.54824463835E+03  0.43054688579E+03  0.80807540790E+03  0.14655161089E+04  0.10043947412E+04 0.  0.
   -9000010    2    1    2    0  501 -0.54824463835E+03 -0.43054688579E+03  0.35986110382E+02  0.11950626897E+04  0.97001908633E+03 0.  0.
        -13    1    3    3    0    0 -0.27097277300E+03  0.17946058046E+03  0.40308476883E+03  0.51779309157E+03  0.10566000000E+00 0.  1.
          4    1    3    3  502    0  0.81921741134E+03  0.25108630533E+03  0.40499063907E+03  0.94772301729E+03  0.00000000000E+00 0.  1.
         13    1    4    4    0    0  0.15710625945E+03 -0.28972294606E+03  0.28315323985E+03  0.43450837809E+03  0.10566000000E+00 0. -1.
         -4    1    4    4    0  501 -0.70535089779E+03 -0.14082393973E+03 -0.24716712947E+03  0.76055431161E+03  0.00000000000E+00 0. -1.
<mgrwt>
<rscale>  2 0.12084790E+04</rscale>
<asrwt>0</asrwt>
<pdfrwt beam="1">  1        1 0.26958772E+00 0.12084790E+04</pdfrwt>
<pdfrwt beam="2">  1       -1 0.13973210E+00 0.12084790E+04</pdfrwt>
<totfact> 0.25567375E+00</totfact>
</mgrwt>
</event>
<event>
 8    1  0.7046235E-006  0.1123356E+04  0.7818608E-02  0.8666626E-01
          2   -1    0    0  502    0  0.00000000000E+00  0.00000000000E+00  0.36418197904E+04  0.36418197904E+04  0.00000000000E+00 0. -1.
         -2   -1    0    0    0  501 -0.00000000000E+00 -0.00000000000E+00 -0.38418989480E+03  0.38418989480E+03  0.00000000000E+00 0.  1.
    9000010    2    1    2  502    0  0.18218196501E+03  0.46676706154E+03  0.10064920161E+04  0.15128665008E+04  0.10122633613E+04 0.  0.
   -9000010    2    1    2    0  501 -0.18218196501E+03 -0.46676706154E+03  0.22511378795E+04  0.25131431844E+04  0.99860159956E+03 0.  0.
        -13    1    3    3    0    0 -0.38853970163E+03  0.31491810793E+03  0.66019548240E+03  0.82824791010E+03  0.10566000000E+00 0.  1.
          4    1    3    3  502    0  0.57072166664E+03  0.15184895361E+03  0.34629653370E+03  0.68461859070E+03  0.00000000000E+00 0.  1.
         13    1    4    4    0    0 -0.20455575019E+03 -0.37775678991E+03  0.23437284585E+04  0.23827728271E+04  0.10566000000E+00 0. -1.
         -4    1    4    4    0  501  0.22373785181E+02 -0.89010271626E+02 -0.92590579048E+02  0.13037035724E+03  0.00000000000E+00 0. -1.
<mgrwt>
<rscale>  2 0.11233557E+04</rscale>
<asrwt>0</asrwt>
<pdfrwt beam="1">  1        2 0.56027994E+00 0.11233557E+04</pdfrwt>
<pdfrwt beam="2">  1       -2 0.59106140E-01 0.11233557E+04</pdfrwt>
<totfact> 0.25979725E+00</totfact>
</mgrwt>
</event>
<event>
 8    1  0.7046235E-006  0.1204747E+04  0.7818608E-02  0.8602996E-01
          2   -1    0    0  502    0  0.00000000000E+00  0.00000000000E+00  0.19663178504E+04  0.19663178504E+04  0.00000000000E+00 0.  1.
         -2   -1    0    0    0  501 -0.00000000000E+00 -0.00000000000E+00 -0.76869519633E+03  0.76869519633E+03  0.00000000000E+00 0. -1.
    9000010    2    1    2  502    0  0.63541964164E+03 -0.20546867565E+03  0.32313223916E+03  0.12410061506E+04  0.99483984858E+03 0.  0.
   -9000010    2    1    2    0  501 -0.63541964164E+03  0.20546867565E+03  0.87449041494E+03  0.14940068961E+04  0.10106174460E+04 0.  0.
        -13    1    3    3    0    0  0.22494324983E+03 -0.48620631180E+03 -0.14819435809E+03  0.55583956517E+03  0.10566000000E+00 0.  1.
          4    1    3    3  502    0  0.41047639181E+03  0.28073763615E+03  0.47132659724E+03  0.68516658548E+03  0.00000000000E+00 0.  1.
         13    1    4    4    0    0 -0.39342282353E+03 -0.39829416864E+03  0.43537809638E+03  0.70920650083E+03  0.10566000000E+00 0. -1.
         -4    1    4    4    0  501 -0.24199681810E+03  0.60376284428E+03  0.43911231856E+03  0.78480039527E+03  0.00000000000E+00 0. -1.
<mgrwt>
<rscale>  2 0.12047474E+04</rscale>
<asrwt>0</asrwt>
<pdfrwt beam="1">  1        2 0.30251044E+00 0.12047474E+04</pdfrwt>
<pdfrwt beam="2">  1       -2 0.11826080E+00 0.12047474E+04</pdfrwt>
<totfact> 0.57319772E+00</totfact>
</mgrwt>
</event>
<event>
 8    1  0.7046235E-006  0.1268068E+04  0.7818608E-02  0.8556995E-01
          4   -1    0    0  502    0  0.00000000000E+00  0.00000000000E+00  0.64274373817E+03  0.64274373817E+03  0.00000000000E+00 0.  1.
         -4   -1    0    0    0  501 -0.00000000000E+00 -0.00000000000E+00 -0.27562251782E+04  0.27562251782E+04  0.00000000000E+00 0. -1.
    9000010    2    1    2  502    0  0.76072822556E+03 -0.21261906176E+03 -0.55207728974E+03  0.13968549878E+04  0.10111875318E+04 0.  0.
   -9000010    2    1    2    0  501 -0.76072822556E+03  0.21261906176E+03 -0.15614041503E+04  0.20021139286E+04  0.97291467452E+03 0.  0.
        -13    1    3    3    0    0  0.45886759786E+03  0.36989204965E+03 -0.94371886451E+02  0.59689669531E+03  0.10566000000E+00 0.  1.
          4    1    3    3  502    0  0.30186062770E+03 -0.58251111141E+03 -0.45770540328E+03  0.79995829246E+03  0.00000000000E+00 0.  1.
         13    1    4    4    0    0 -0.50983378595E+03 -0.20064466714E+03 -0.24582831608E+03  0.60051673074E+03  0.10566000000E+00 0. -1.
         -4    1    4    4    0  501 -0.25089443961E+03  0.41326372891E+03 -0.13155758342E+04  0.14015971978E+04  0.00000000000E+00 0. -1.
<mgrwt>
<rscale>  2 0.12680685E+04</rscale>
<asrwt>0</asrwt>
<pdfrwt beam="1">  1        4 0.98883652E-01 0.12680685E+04</pdfrwt>
<pdfrwt beam="2">  1       -4 0.42403464E+00 0.12680685E+04</pdfrwt>
<totfact> 0.11249673E-01</totfact>
</mgrwt>
</event>
<event>
 8    1  0.7046235E-006  0.1161194E+04  0.7818608E-02  0.8636371E-01
         -2   -1    0    0    0  501 -0.00000000000E+00  0.00000000000E+00  0.72547265057E+03  0.72547265057E+03  0.00000000000E+00 0. -1.
          2   -1    0    0  502    0  0.00000000000E+00 -0.00000000000E+00 -0.22340405819E+04  0.22340405819E+04  0.00000000000E+00 0.  1.
    9000010    2    1    2  502    0 -0.30655622477E+03  0.49591343617E+03 -0.14256194066E+03  0.11603384479E+04  0.99305314637E+03 0.  0.
   -9000010    2    1    2    0  501  0.30655622477E+03 -0.49591343617E+03 -0.13660059907E+04  0.17991747846E+04  0.10154558995E+04 0.  0.
        -13    1    3    3    0    0  0.21456145172E+03  0.19292252778E+03 -0.40960952449E+03  0.50103462157E+03  0.10566000000E+00 0.  1.
          4    1    3    3  502    0 -0.52111767649E+03  0.30299090839E+03  0.26704758383E+03  0.65930382629E+03  0.00000000000E+00 0.  1.
         13    1    4    4    0    0  0.21028354574E+03 -0.48321818194E+03 -0.15246574278E+04  0.16131643637E+04  0.10566000000E+00 0. -1.
         -4    1    4    4    0  501  0.96272679038E+02 -0.12695254229E+02  0.15865143710E+03  0.18601042095E+03  0.00000000000E+00 0. -1.
<mgrwt>
<rscale>  2 0.11611941E+04</rscale>
<asrwt>0</asrwt>
<pdfrwt beam="2">  1        2 0.34369855E+00 0.11611941E+04</pdfrwt>
<pdfrwt beam="1">  1       -2 0.11161118E+00 0.11611941E+04</pdfrwt>
<totfact> 0.47736272E+00</totfact>
</mgrwt>
</event>
<event>
 8    1  0.7046235E-006  0.1144697E+04  0.7818608E-02  0.8649412E-01
         -2   -1    0    0    0  501 -0.00000000000E+00  0.00000000000E+00  0.50566820276E+03  0.50566820276E+03  0.00000000000E+00 0.  1.
          2   -1    0    0  502    0  0.00000000000E+00 -0.00000000000E+00 -0.25967613936E+04  0.25967613936E+04  0.00000000000E+00 0. -1.
    9000010    2    1    2  502    0  0.46050052174E+03  0.33652637996E+03 -0.96672297601E+03  0.14909403763E+04  0.98134558565E+03 0.  0.
   -9000010    2    1    2    0  501 -0.46050052174E+03 -0.33652637996E+03 -0.11243702149E+04  0.16114892201E+04  0.10036824156E+04 0.  0.
        -13    1    3    3    0    0  0.30105201341E+03  0.46873407607E+03 -0.11080364687E+04  0.12401970714E+04  0.10566000000E+00 0.  1.
          4    1    3    3  502    0  0.15944850834E+03 -0.13220769611E+03  0.14131349271E+03  0.25074330488E+03  0.00000000000E+00 0.  1.
         13    1    4    4    0    0 -0.72791058412E+03 -0.45209298525E+03 -0.90898873437E+03  0.12492007109E+04  0.10566000000E+00 0. -1.
         -4    1    4    4    0  501  0.26741006238E+03  0.11556660529E+03 -0.21538148049E+03  0.36228850914E+03  0.00000000000E+00 0. -1.
<mgrwt>
<rscale>  2 0.11446973E+04</rscale>
<asrwt>0</asrwt>
<pdfrwt beam="2">  1        2 0.39950175E+00 0.11446973E+04</pdfrwt>
<pdfrwt beam="1">  1       -2 0.77795110E-01 0.11446973E+04</pdfrwt>
<totfact> 0.69965717E+00</totfact>
</mgrwt>
</event>
<event>
 8    1  0.7046235E-006  0.1083395E+04  0.7818608E-02  0.8699955E-01
          1   -1    0    0  502    0  0.00000000000E+00  0.00000000000E+00  0.14975366147E+04  0.14975366147E+04  0.00000000000E+00 0.  1.
         -1   -1    0    0    0  501 -0.00000000000E+00 -0.00000000000E+00 -0.93692910861E+03  0.93692910861E+03  0.00000000000E+00 0. -1.
    9000010    2    1    2  502    0  0.32172682327E+03 -0.25352234920E+03 -0.21249420637E+03  0.11009178705E+04  0.99954221498E+03 0.  0.
   -9000010    2    1    2    0  501 -0.32172682327E+03  0.25352234920E+03  0.77310171249E+03  0.13335478528E+04  0.10064203334E+04 0.  0.
        -13    1    3    3    0    0  0.16876777397E+03  0.10506685714E+03  0.35826388780E+03  0.40972506693E+03  0.10566000000E+00 0.  1.
          4    1    3    3  502    0  0.15295904930E+03 -0.35858920634E+03 -0.57075809418E+03  0.69119280359E+03  0.00000000000E+00 0.  1.
         13    1    4    4    0    0 -0.79782969595E+02  0.38317126639E+03  0.93587706590E+03  0.10144217246E+04  0.10566000000E+00 0. -1.
         -4    1    4    4    0  501 -0.24194385367E+03 -0.12964891719E+03 -0.16277535341E+03  0.31912612826E+03  0.00000000000E+00 0. -1.
<mgrwt>
<rscale>  2 0.10833950E+04</rscale>
<asrwt>0</asrwt>
<pdfrwt beam="1">  1        1 0.23039025E+00 0.10833950E+04</pdfrwt>
<pdfrwt beam="2">  1       -1 0.14414294E+00 0.10833950E+04</pdfrwt>
<totfact> 0.36816241E+00</totfact>
</mgrwt>
</event>
<event>
 8    1  0.7046235E-006  0.1259006E+04  0.7818608E-02  0.8563406E-01
         -1   -1    0    0    0  501 -0.00000000000E+00  0.00000000000E+00  0.16931579895E+04  0.16931579895E+04  0.00000000000E+00 0.  1.
          1   -1    0    0  502    0  0.00000000000E+00 -0.00000000000E+00 -0.94074287627E+03  0.94074287627E+03  0.00000000000E+00 0. -1.
    9000010    2    1    2  502    0  0.58044436319E+03  0.24891964571E+03  0.31948879592E+03  0.12218932459E+04  0.99602879723E+03 0.  0.
   -9000010    2    1    2    0  501 -0.58044436319E+03 -0.24891964571E+03  0.43292631728E+03  0.14120076198E+04  0.11863657419E+04 0.  0.
        -13    1    3    3    0    0  0.37769535259E+03  0.51206204950E+03 -0.14329866228E+03  0.65222376504E+03  0.10566000000E+00 0.  1.
          4    1    3    3  502    0  0.20274901060E+03 -0.26314240379E+03  0.46278745820E+03  0.56966948088E+03  0.00000000000E+00 0.  1.
         13    1    4    4    0    0  0.83246943327E+02  0.36065836308E+03 -0.74865138454E+02  0.37763647673E+03  0.10566000000E+00 0. -1.
         -4    1    4    4    0  501 -0.66369130652E+03 -0.60957800879E+03  0.50779145573E+03  0.10343711431E+04  0.00000000000E+00 0. -1.
<mgrwt>
<rscale>  2 0.12590059E+04</rscale>
<asrwt>0</asrwt>
<pdfrwt beam="2">  1        1 0.14472967E+00 0.12590059E+04</pdfrwt>
<pdfrwt beam="1">  1       -1 0.26048585E+00 0.12590059E+04</pdfrwt>
<totfact> 0.84978876E-01</totfact>
</mgrwt>
</event>
<event>
 8    1  0.7046235E-006  0.1324208E+04  0.7818608E-02  0.8518474E-01
         -2   -1    0    0    0  501 -0.00000000000E+00  0.00000000000E+00  0.61407415247E+03  0.61407415247E+03  0.00000000000E+00 0. -1.
          2   -1    0    0  502    0  0.00000000000E+00 -0.00000000000E+00 -0.28577424420E+04  0.28577424420E+04  0.00000000000E+00 0.  1.
    9000010    2    1    2  502    0 -0.83312931026E+03 -0.36192575179E+03 -0.11330339587E+04  0.17231373286E+04  0.92754601196E+03 0.  0.
   -9000010    2    1    2    0  501  0.83312931026E+03  0.36192575179E+03 -0.11106343308E+04  0.17486792658E+04  0.99963786471E+03 0.  0.
        -13    1    3    3    0    0 -0.34698919271E+03 -0.37184793345E+03 -0.11274573730E+04  0.12368639879E+04  0.10566000000E+00 0.  1.
          4    1    3    3  502    0 -0.48614011756E+03  0.99221816618E+01 -0.55765856931E+01  0.48627334072E+03  0.00000000000E+00 0.  1.
         13    1    4    4    0    0 -0.17857861428E+03  0.59418353308E+02 -0.48748966768E+03  0.52255817805E+03  0.10566000000E+00 0. -1.
         -4    1    4    4    0  501  0.10117079245E+04  0.30250739848E+03 -0.62314466315E+03  0.12261210878E+04  0.00000000000E+00 0. -1.
<mgrwt>
<rscale>  2 0.13242084E+04</rscale>
<asrwt>0</asrwt>
<pdfrwt beam="2">  1        2 0.43965268E+00 0.13242084E+04</pdfrwt>
<pdfrwt beam="1">  1       -2 0.94472947E-01 0.13242084E+04</pdfrwt>
<totfact> 0.31083369E+00</totfact>
</mgrwt>
</event>
<event>
 8    1  0.7046235E-006  0.1085181E+04  0.7818608E-02  0.8698433E-01
          1   -1    0    0  502    0  0.00000000000E+00  0.00000000000E+00  0.19827167454E+04  0.19827167454E+04  0.00000000000E+00 0. -1.
         -1   -1    0    0    0  501 -0.00000000000E+00 -0.00000000000E+00 -0.59460050250E+03  0.59460050250E+03  0.00000000000E+00 0.  1.
    9000010    2    1    2  502    0 -0.24929773413E+03  0.33379545659E+03  0.73882692740E+03  0.13154813194E+04  0.10055133545E+04 0.  0.
   -9000010    2    1    2    0  501  0.24929773413E+03 -0.33379545659E+03  0.64928931552E+03  0.12618359285E+04  0.99854119999E+03 0.  0.
        -13    1    3    3    0    0  0.27082387435E+03  0.24725897491E+03 -0.46408177400E+02  0.36964347916E+03  0.10566000000E+00 0.  1.
          4    1    3    3  502    0 -0.52012160848E+03  0.86536481684E+02  0.78523510480E+03  0.94583784027E+03  0.00000000000E+00 0.  1.
         13    1    4    4    0    0  0.40672808786E+03  0.92749717993E+02 -0.57827288504E+02  0.42115822929E+03  0.10566000000E+00 0. -1.
         -4    1    4    4    0  501 -0.15743035373E+03 -0.42654517459E+03  0.70711660403E+03  0.84067769920E+03  0.00000000000E+00 0. -1.
<mgrwt>
<rscale>  2 0.10851815E+04</rscale>
<asrwt>0</asrwt>
<pdfrwt beam="1">  1        1 0.30503334E+00 0.10851815E+04</pdfrwt>
<pdfrwt beam="2">  1       -1 0.91477002E-01 0.10851815E+04</pdfrwt>
<totfact> 0.47726643E+00</totfact>
</mgrwt>
</event>
<event>
 8    1  0.7046235E-006  0.1039244E+04  0.7818608E-02  0.8738568E-01
          1   -1    0    0  502    0  0.00000000000E+00  0.00000000000E+00  0.26326829109E+04  0.26326829109E+04  0.00000000000E+00 0. -1.
         -1   -1    0    0    0  501 -0.00000000000E+00 -0.00000000000E+00 -0.68849630513E+03  0.68849630513E+03  0.00000000000E+00 0.  1.
    9000010    2    1    2  502    0  0.25768199969E+03 -0.14645937175E+03  0.20329372487E+04  0.22874888535E+04  0.10059428598E+04 0.  0.
   -9000010    2    1    2    0  501 -0.25768199969E+03  0.14645937175E+03 -0.88750642979E+02  0.10336903625E+04  0.98630052638E+03 0.  0.
        -13    1    3    3    0    0 -0.29386403853E+03 -0.20888638956E+03  0.13998162943E+04  0.14455017350E+04  0.10566000000E+00 0.  1.
          4    1    3    3  502    0  0.55154603823E+03  0.62427017817E+02  0.63312095440E+03  0.84198711851E+03  0.00000000000E+00 0.  1.
         13    1    4    4    0    0  0.31513819446E+03  0.18145934188E+03  0.17326771186E+03  0.40281668970E+03  0.10566000000E+00 0. -1.
         -4    1    4    4    0  501 -0.57282019416E+03 -0.34999970134E+02 -0.26201835484E+03  0.63087367279E+03  0.00000000000E+00 0. -1.
<mgrwt>
<rscale>  2 0.10392440E+04</rscale>
<asrwt>0</asrwt>
<pdfrwt beam="1">  1        1 0.40502814E+00 0.10392440E+04</pdfrwt>
<pdfrwt beam="2">  1       -1 0.10592251E+00 0.10392440E+04</pdfrwt>
<totfact> 0.99828079E-01</totfact>
</mgrwt>
</event>
<event>
 8    1  0.7046235E-006  0.1122285E+04  0.7818608E-02  0.8667500E-01
          2   -1    0    0  502    0  0.00000000000E+00  0.00000000000E+00  0.14852775018E+04  0.14852775018E+04  0.00000000000E+00 0. -1.
         -2   -1    0    0    0  501 -0.00000000000E+00 -0.00000000000E+00 -0.11046791042E+04  0.11046791042E+04  0.00000000000E+00 0.  1.
    9000010    2    1    2  502    0 -0.55660437649E+03 -0.22200285069E+03 -0.42853330311E+03  0.12325949464E+04  0.98820838513E+03 0.  0.
   -9000010    2    1    2    0  501  0.55660437649E+03  0.22200285069E+03  0.80913170071E+03  0.13573616596E+04  0.91029823035E+03 0.  0.
        -13    1    3    3    0    0 -0.47496990167E+02 -0.46938502480E+03  0.71700784061E+02  0.47719941239E+03  0.10566000000E+00 0.  1.
          4    1    3    3  502    0 -0.50910738632E+03  0.24738217412E+03 -0.50023408717E+03  0.75539553404E+03  0.00000000000E+00 0.  1.
         13    1    4    4    0    0  0.50013363750E+03 -0.28375176097E+03  0.49946295874E+03  0.76165082258E+03  0.10566000000E+00 0. -1.
         -4    1    4    4    0  501  0.56470738988E+02  0.50575461166E+03  0.30966874196E+03  0.59571083700E+03  0.00000000000E+00 0. -1.
<mgrwt>
<rscale>  2 0.11222850E+04</rscale>
<asrwt>0</asrwt>
<pdfrwt beam="1">  1        2 0.22850423E+00 0.11222850E+04</pdfrwt>
<pdfrwt beam="2">  1       -2 0.16995063E+00 0.11222850E+04</pdfrwt>
<totfact> 0.36355898E+00</totfact>
</mgrwt>
</event>
<event>
 8    1  0.7046235E-006  0.1202096E+04  0.7818608E-02  0.8604985E-01
          2   -1    0    0  502    0  0.00000000000E+00  0.00000000000E+00  0.13217216330E+04  0.13217216330E+04  0.00000000000E+00 0. -1.
         -2   -1    0    0    0  501 -0.00000000000E+00 -0.00000000000E+00 -0.11007319329E+04  0.11007319329E+04  0.00000000000E+00 0.  1.
    9000010    2    1    2  502    0  0.57999414064E+03  0.45041392216E+03  0.25226969764E+02  0.12468864212E+04  0.10073844564E+04 0.  0.
   -9000010    2    1    2    0  501 -0.57999414064E+03 -0.45041392216E+03  0.19576273040E+03  0.11755671447E+04  0.89686630026E+03 0.  0.
        -13    1    3    3    0    0  0.60862832268E+01  0.21113135067E+02 -0.40854465931E+03  0.40913513310E+03  0.10566000000E+00 0.  1.
          4    1    3    3  502    0  0.57390785741E+03  0.42930078709E+03  0.43377162908E+03  0.83775128814E+03  0.00000000000E+00 0.  1.
         13    1    4    4    0    0 -0.38393971789E+03 -0.26860607374E+03  0.55589176501E+03  0.72703135791E+03  0.10566000000E+00 0. -1.
         -4    1    4    4    0  501 -0.19605442275E+03 -0.18180784842E+03 -0.36012903460E+03  0.44853578675E+03  0.00000000000E+00 0. -1.
<mgrwt>
<rscale>  2 0.12020965E+04</rscale>
<asrwt>0</asrwt>
<pdfrwt beam="1">  1        2 0.20334179E+00 0.12020965E+04</pdfrwt>
<pdfrwt beam="2">  1       -2 0.16934337E+00 0.12020965E+04</pdfrwt>
<totfact> 0.44900033E+00</totfact>
</mgrwt>
</event>
<event>
 8    1  0.7046235E-006  0.1094710E+04  0.7818608E-02  0.8690368E-01
          1   -1    0    0  502    0  0.00000000000E+00  0.00000000000E+00  0.13036633769E+04  0.13036633769E+04  0.00000000000E+00 0.  1.
         -1   -1    0    0    0  501 -0.00000000000E+00 -0.00000000000E+00 -0.92192171398E+03  0.92192171398E+03  0.00000000000E+00 0. -1.
    9000010    2    1    2  502    0 -0.99971519835E+02  0.33300263872E+03  0.24485582971E+03  0.11570901725E+04  0.10761125535E+04 0.  0.
   -9000010    2    1    2    0  501  0.99971519835E+02 -0.33300263872E+03  0.13688583317E+03  0.10684949184E+04  0.10010287694E+04 0.  0.
        -13    1    3    3    0    0 -0.17523204425E+03  0.71581531150E+03  0.11477955074E+03  0.74583656785E+03  0.10566000000E+00 0.  1.
          4    1    3    3  502    0  0.75260524414E+02 -0.38281267277E+03  0.13007627897E+03  0.41125360463E+03  0.00000000000E+00 0.  1.
         13    1    4    4    0    0 -0.16370005183E+03  0.31408840920E+03  0.10327867998E+03  0.36893865704E+03  0.10566000000E+00 0. -1.
         -4    1    4    4    0  501  0.26367157166E+03 -0.64709104792E+03  0.33607153191E+02  0.69955626132E+03  0.00000000000E+00 0. -1.
<mgrwt>
<rscale>  2 0.10947096E+04</rscale>
<asrwt>0</asrwt>
<pdfrwt beam="1">  1        1 0.20056360E+00 0.10947096E+04</pdfrwt>
<pdfrwt beam="2">  1       -1 0.14183411E+00 0.10947096E+04</pdfrwt>
<totfact> 0.53724623E+00</totfact>
</mgrwt>
</event>
<event>
 8    1  0.7046235E-006  0.1462105E+04  0.7818608E-02  0.8431648E-01
          2   -1    0    0  502    0  0.00000000000E+00  0.00000000000E+00  0.30953216579E+04  0.30953216579E+04  0.00000000000E+00 0. -1.
         -2   -1    0    0    0  501 -0.00000000000E+00 -0.00000000000E+00 -0.74609748036E+03  0.74609748036E+03  0.00000000000E+00 0.  1.
    9000010    2    1    2  502    0  0.10606180860E+04  0.18497414567E+03  0.16918555882E+04  0.22305864182E+04  0.97673654528E+03 0.  0.
   -9000010    2    1    2    0  501 -0.10606180860E+04 -0.18497414567E+03  0.65736858934E+03  0.16108327200E+04  0.10017596671E+04 0.  0.
        -13    1    3    3    0    0  0.48906581241E+03 -0.34964411874E+03  0.10843274292E+04  0.12398396524E+04  0.10566000000E+00 0.  1.
          4    1    3    3  502    0  0.57155227362E+03  0.53461826441E+03  0.60752815896E+03  0.99074676586E+03  0.00000000000E+00 0.  1.
         13    1    4    4    0    0 -0.11636457475E+04 -0.30049508042E+03  0.76288192401E+03  0.14235018652E+04  0.10566000000E+00 0. -1.
         -4    1    4    4    0  501  0.10302766145E+03  0.11552093475E+03 -0.10551333467E+03  0.18733085486E+03  0.00000000000E+00 0. -1.
<mgrwt>
<rscale>  2 0.14621051E+04</rscale>
<asrwt>0</asrwt>
<pdfrwt beam="1">  1        2 0.47620333E+00 0.14621051E+04</pdfrwt>
<pdfrwt beam="2">  1       -2 0.11478423E+00 0.14621051E+04</pdfrwt>
<totfact> 0.13511069E+00</totfact>
</mgrwt>
</event>
<event>
 8    1  0.7046235E-006  0.1751632E+04  0.7818608E-02  0.8277777E-01
          2   -1    0    0  502    0  0.00000000000E+00  0.00000000000E+00  0.10310576759E+04  0.10310576759E+04  0.00000000000E+00 0. -1.
         -2   -1    0    0    0  501 -0.00000000000E+00 -0.00000000000E+00 -0.31821505187E+04  0.31821505187E+04  0.00000000000E+00 0.  1.
    9000010    2    1    2  502    0 -0.10669176858E+04  0.96464471500E+03 -0.53895891623E+03  0.18324492976E+04  0.99927020394E+03 0.  0.
   -9000010    2    1    2    0  501  0.10669176858E+04 -0.96464471500E+03 -0.16121339265E+04  0.23807588970E+04  0.10000921728E+04 0.  0.
        -13    1    3    3    0    0  0.53100152032E+02 -0.11631118410E+03 -0.20320093519E+03  0.24008029682E+03  0.10566000000E+00 0.  1.
          4    1    3    3  502    0 -0.11200178378E+04  0.10809558991E+04 -0.33575798104E+03  0.15923690008E+04  0.00000000000E+00 0.  1.
         13    1    4    4    0    0  0.21942181772E+03 -0.85949069180E+03 -0.68914174771E+03  0.11232927236E+04  0.10566000000E+00 0. -1.
         -4    1    4    4    0  501  0.84749586805E+03 -0.10515402320E+03 -0.92299217883E+03  0.12574661734E+04  0.00000000000E+00 0. -1.
<mgrwt>
<rscale>  2 0.17516322E+04</rscale>
<asrwt>0</asrwt>
<pdfrwt beam="1">  1        2 0.15862426E+00 0.17516322E+04</pdfrwt>
<pdfrwt beam="2">  1       -2 0.48956162E+00 0.17516322E+04</pdfrwt>
<totfact> 0.92270158E-02</totfact>
</mgrwt>
</event>
<event>
 8    1  0.7046235E-006  0.1455644E+04  0.7818608E-02  0.8435493E-01
          2   -1    0    0  502    0  0.00000000000E+00  0.00000000000E+00  0.28321415535E+04  0.28321415535E+04  0.00000000000E+00 0. -1.
         -2   -1    0    0    0  501 -0.00000000000E+00 -0.00000000000E+00 -0.89726371411E+03  0.89726371411E+03  0.00000000000E+00 0.  1.
    9000010    2    1    2  502    0  0.43126081977E+03 -0.92372253074E+03  0.19800557216E+03  0.14519650670E+04  0.10147645740E+04 0.  0.
   -9000010    2    1    2    0  501 -0.43126081977E+03  0.92372253074E+03  0.17368722672E+04  0.22774402006E+04  0.10633717066E+04 0.  0.
        -13    1    3    3    0    0 -0.25764600359E+03 -0.51336448935E+03  0.29245477124E+03  0.64455749665E+03  0.10566000000E+00 0.  1.
          4    1    3    3  502    0  0.68890682335E+03 -0.41035804138E+03 -0.94449199083E+02  0.80740757031E+03  0.00000000000E+00 0.  1.
         13    1    4    4    0    0 -0.72602583763E+03  0.80430984126E+03  0.15972978126E+04  0.19301264599E+04  0.10566000000E+00 0. -1.
         -4    1    4    4    0  501  0.29476501786E+03  0.11941268948E+03  0.13957445459E+03  0.34731374078E+03  0.00000000000E+00 0. -1.
<mgrwt>
<rscale>  2 0.14556444E+04</rscale>
<asrwt>0</asrwt>
<pdfrwt beam="1">  1        2 0.43571408E+00 0.14556444E+04</pdfrwt>
<pdfrwt beam="2">  1       -2 0.13804057E+00 0.14556444E+04</pdfrwt>
<totfact> 0.11877396E+00</totfact>
</mgrwt>
</event>
<event>
 8    1  0.7046235E-006  0.1189841E+04  0.7818608E-02  0.8614252E-01
          1   -1    0    0  502    0  0.00000000000E+00  0.00000000000E+00  0.20330277973E+04  0.20330277973E+04  0.00000000000E+00 0.  1.
         -1   -1    0    0    0  501 -0.00000000000E+00 -0.00000000000E+00 -0.69775521974E+03  0.69775521974E+03  0.00000000000E+00 0. -1.
    9000010    2    1    2  502    0 -0.42561009881E+03  0.53959707510E+03  0.59993340073E+03  0.13152276473E+04  0.94741475565E+03 0.  0.
   -9000010    2    1    2    0  501  0.42561009881E+03 -0.53959707510E+03  0.73533917682E+03  0.14155553697E+04  0.99537145839E+03 0.  0.
        -13    1    3    3    0    0 -0.30681359204E+03  0.62074456171E+03 -0.59938919635E+01  0.69245529030E+03  0.10566000000E+00 0.  1.
          4    1    3    3  502    0 -0.11879650677E+03 -0.81147486612E+02  0.60592729269E+03  0.62277235699E+03  0.00000000000E+00 0.  1.
         13    1    4    4    0    0  0.35817587106E+03 -0.22076788863E+03 -0.16966316555E+03  0.45366729678E+03  0.10566000000E+00 0. -1.
         -4    1    4    4    0  501  0.67434227757E+02 -0.31882918647E+03  0.90500234238E+03  0.96188807297E+03  0.00000000000E+00 0. -1.
<mgrwt>
<rscale>  2 0.11898413E+04</rscale>
<asrwt>0</asrwt>
<pdfrwt beam="1">  1        1 0.31277350E+00 0.11898413E+04</pdfrwt>
<pdfrwt beam="2">  1       -1 0.10734696E+00 0.11898413E+04</pdfrwt>
<totfact> 0.30533995E+00</totfact>
</mgrwt>
</event>
<event>
 8    1  0.7046235E-006  0.1220414E+04  0.7818608E-02  0.8591347E-01
          4   -1    0    0  502    0  0.00000000000E+00  0.00000000000E+00  0.13075263613E+04  0.13075263613E+04  0.00000000000E+00 0.  1.
         -4   -1    0    0    0  501 -0.00000000000E+00 -0.00000000000E+00 -0.11555846504E+04  0.11555846504E+04  0.00000000000E+00 0. -1.
    9000010    2    1    2  502    0  0.20418143223E+03 -0.71847496394E+03  0.22210960280E+03  0.12308816275E+04  0.95280668248E+03 0.  0.
   -9000010    2    1    2    0  501 -0.20418143223E+03  0.71847496394E+03 -0.70167891892E+02  0.12322293842E+04  0.97753229675E+03 0.  0.
        -13    1    3    3    0    0  0.49396006860E+03 -0.62430488970E+03  0.38619117833E+03  0.88481454670E+03  0.10566000000E+00 0.  1.
          4    1    3    3  502    0 -0.28977863637E+03 -0.94170074240E+02 -0.16408157553E+03  0.34606708080E+03  0.00000000000E+00 0.  1.
         13    1    4    4    0    0 -0.45463325032E+03  0.83557804634E+03 -0.21458483259E+02  0.95149489829E+03  0.10566000000E+00 0. -1.
         -4    1    4    4    0  501  0.25045181809E+03 -0.11710308240E+03 -0.48709408633E+02  0.28073448592E+03  0.00000000000E+00 0. -1.
<mgrwt>
<rscale>  2 0.12204139E+04</rscale>
<asrwt>0</asrwt>
<pdfrwt beam="1">  1        4 0.20115790E+00 0.12204139E+04</pdfrwt>
<pdfrwt beam="2">  1       -4 0.17778225E+00 0.12204139E+04</pdfrwt>
<totfact> 0.21054136E-01</totfact>
</mgrwt>
</event>
<event>
 8    1  0.7046235E-006  0.1217090E+04  0.7818608E-02  0.8593803E-01
         -2   -1    0    0    0  501 -0.00000000000E+00  0.00000000000E+00  0.13860303030E+04  0.13860303030E+04  0.00000000000E+00 0.  1.
          2   -1    0    0  502    0  0.00000000000E+00 -0.00000000000E+00 -0.13769232557E+04  0.13769232557E+04  0.00000000000E+00 0. -1.
    9000010    2    1    2  502    0 -0.23404263406E+03  0.62162367334E+03  0.65766731128E+03  0.14045018774E+04  0.10482877875E+04 0.  0.
   -9000010    2    1    2    0  501  0.23404263406E+03 -0.62162367334E+03 -0.64856026402E+03  0.13584516813E+04  0.99175027525E+03 0.  0.
        -13    1    3    3    0    0 -0.24018349580E+03  0.90559305517E+03  0.60599767404E+03  0.11158046806E+04  0.10566000000E+00 0.  1.
          4    1    3    3  502    0  0.61408617420E+01 -0.28396938183E+03  0.51669637242E+02  0.28869719675E+03  0.00000000000E+00 0.  1.
         13    1    4    4    0    0  0.83488868313E+02 -0.12739837089E+03  0.26687724348E+03  0.30728522628E+03  0.10566000000E+00 0. -1.
         -4    1    4    4    0  501  0.15055376575E+03 -0.49422530245E+03 -0.91543750750E+03  0.10511664550E+04  0.00000000000E+00 0. -1.
<mgrwt>
<rscale>  2 0.12170899E+04</rscale>
<asrwt>0</asrwt>
<pdfrwt beam="2">  1        2 0.21183435E+00 0.12170899E+04</pdfrwt>
<pdfrwt beam="1">  1       -2 0.21323543E+00 0.12170899E+04</pdfrwt>
<totfact> 0.18057808E+00</totfact>
</mgrwt>
</event>
<event>
 8    1  0.7046235E-006  0.1076211E+04  0.7818608E-02  0.8706105E-01
          4   -1    0    0  502    0  0.00000000000E+00  0.00000000000E+00  0.22270389257E+04  0.22270389257E+04  0.00000000000E+00 0.  1.
         -4   -1    0    0    0  501 -0.00000000000E+00 -0.00000000000E+00 -0.56586073988E+03  0.56586073988E+03  0.00000000000E+00 0. -1.
    9000010    2    1    2  502    0  0.24871521307E+02 -0.43129028853E+03  0.42442655549E+03  0.11447567207E+04  0.97144230046E+03 0.  0.
   -9000010    2    1    2    0  501 -0.24871521307E+02  0.43129028853E+03  0.12367516303E+04  0.16481429448E+04  0.10000953284E+04 0.  0.
        -13    1    3    3    0    0  0.47245846588E+03 -0.75688823355E+02  0.10483476953E+03  0.48983276741E+03  0.10566000000E+00 0.  1.
          4    1    3    3  502    0 -0.44758694457E+03 -0.35560146517E+03  0.31959178595E+03  0.65492395332E+03  0.00000000000E+00 0.  1.
         13    1    4    4    0    0  0.69848590382E+02 -0.31774768772E+03  0.47406083851E+03  0.57495748399E+03  0.10566000000E+00 0. -1.
         -4    1    4    4    0  501 -0.94720111689E+02  0.74903797625E+03  0.76269079182E+03  0.10731854608E+04  0.00000000000E+00 0. -1.
<mgrwt>
<rscale>  2 0.10762114E+04</rscale>
<asrwt>0</asrwt>
<pdfrwt beam="1">  1        4 0.34262137E+00 0.10762114E+04</pdfrwt>
<pdfrwt beam="2">  1       -4 0.87055500E-01 0.10762114E+04</pdfrwt>
<totfact> 0.29902539E-01</totfact>
</mgrwt>
</event>
<event>
 8    1  0.7046235E-006  0.1104731E+04  0.7818608E-02  0.8681977E-01
          2   -1    0    0  502    0  0.00000000000E+00  0.00000000000E+00  0.15603224531E+04  0.15603224531E+04  0.00000000000E+00 0. -1.
         -2   -1    0    0    0  501 -0.00000000000E+00 -0.00000000000E+00 -0.80577556486E+03  0.80577556486E+03  0.00000000000E+00 0.  1.
    9000010    2    1    2  502    0  0.20065965492E+03 -0.34306934299E+03  0.17021973098E+03  0.11022140876E+04  0.10138738911E+04 0.  0.
   -9000010    2    1    2    0  501 -0.20065965492E+03  0.34306934299E+03  0.58432715727E+03  0.12638839303E+04  0.10478566178E+04 0.  0.
        -13    1    3    3    0    0  0.22351096651E+03 -0.23665427388E+03 -0.40340153980E+03  0.51835818791E+03  0.10566000000E+00 0.  1.
          4    1    3    3  502    0 -0.22851311591E+02 -0.10641506910E+03  0.57362127078E+03  0.58385589974E+03  0.00000000000E+00 0.  1.
         13    1    4    4    0    0  0.36684242967E+03 -0.12120280056E+03  0.22886153390E+03  0.44904465249E+03  0.10566000000E+00 0. -1.
         -4    1    4    4    0  501 -0.56750208459E+03  0.46427214355E+03  0.35546562337E+03  0.81483927782E+03  0.00000000000E+00 0. -1.
<mgrwt>
<rscale>  2 0.11047308E+04</rscale>
<asrwt>0</asrwt>
<pdfrwt beam="1">  1        2 0.24004961E+00 0.11047308E+04</pdfrwt>
<pdfrwt beam="2">  1       -2 0.12396547E+00 0.11047308E+04</pdfrwt>
<totfact> 0.85009738E+00</totfact>
</mgrwt>
</event>
<event>
 8    1  0.7046235E-006  0.1590361E+04  0.7818608E-02  0.8359314E-01
          2   -1    0    0  502    0  0.00000000000E+00  0.00000000000E+00  0.11894196664E+04  0.11894196664E+04  0.00000000000E+00 0.  1.
         -2   -1    0    0    0  501 -0.00000000000E+00 -0.00000000000E+00 -0.21278886987E+04  0.21278886987E+04  0.00000000000E+00 0. -1.
    9000010    2    1    2  502    0  0.11555982218E+04  0.42667772269E+03 -0.51241902835E+03  0.16713755392E+04  0.10067084003E+04 0.  0.
   -9000010    2    1    2    0  501 -0.11555982218E+04 -0.42667772269E+03 -0.42605000392E+03  0.16459328258E+04  0.10050448408E+04 0.  0.
        -13    1    3    3    0    0 -0.17512658724E+03  0.15042542832E+03 -0.94747689504E+02  0.24954812537E+03  0.10566000000E+00 0.  1.
          4    1    3    3  502    0  0.13307248090E+04  0.27625229437E+03 -0.41767133885E+03  0.14218274139E+04  0.00000000000E+00 0.  1.
         13    1    4    4    0    0 -0.72366026098E+03  0.64003709101E+02  0.18653848990E+03  0.75005150989E+03  0.10566000000E+00 0. -1.
         -4    1    4    4    0  501 -0.43193796081E+03 -0.49068143179E+03 -0.61258849382E+03  0.89588131594E+03  0.00000000000E+00 0. -1.
<mgrwt>
<rscale>  2 0.15903613E+04</rscale>
<asrwt>0</asrwt>
<pdfrwt beam="1">  1        2 0.18298764E+00 0.15903613E+04</pdfrwt>
<pdfrwt beam="2">  1       -2 0.32736749E+00 0.15903613E+04</pdfrwt>
<totfact> 0.32111859E-01</totfact>
</mgrwt>
</event>
<event>
 8    1  0.7046235E-006  0.1186563E+04  0.7818608E-02  0.8616750E-01
          2   -1    0    0  502    0  0.00000000000E+00  0.00000000000E+00  0.40440209732E+03  0.40440209732E+03  0.00000000000E+00 0.  1.
         -2   -1    0    0    0  501 -0.00000000000E+00 -0.00000000000E+00 -0.41418229580E+04  0.41418229580E+04  0.00000000000E+00 0. -1.
    9000010    2    1    2  502    0  0.64803716055E+03  0.81756464054E+02 -0.27794124925E+04  0.30230192649E+04  0.99341602150E+03 0.  0.
   -9000010    2    1    2    0  501 -0.64803716055E+03 -0.81756464054E+02 -0.95800836819E+03  0.15232057904E+04  0.98779530547E+03 0.  0.
        -13    1    3    3    0    0  0.60395123347E+03 -0.19052825671E+03 -0.26381949241E+04  0.27131403535E+04  0.10566000000E+00 0.  1.
          4    1    3    3  502    0  0.44085927077E+02  0.27228472076E+03 -0.14121756839E+03  0.30987891143E+03  0.00000000000E+00 0.  1.
         13    1    4    4    0    0 -0.24901835562E+03  0.25036613255E+02 -0.10670380346E+04  0.10959959635E+04  0.10566000000E+00 0. -1.
         -4    1    4    4    0  501 -0.39901880493E+03 -0.10679307731E+03  0.10902966645E+03  0.42720982691E+03  0.00000000000E+00 0. -1.
<mgrwt>
<rscale>  2 0.11865634E+04</rscale>
<asrwt>0</asrwt>
<pdfrwt beam="1">  1        2 0.62215713E-01 0.11865634E+04</pdfrwt>
<pdfrwt beam="2">  1       -2 0.63720348E+00 0.11865634E+04</pdfrwt>
<totfact> 0.45668164E-01</totfact>
</mgrwt>
</event>
<event>
 8    1  0.7046235E-006  0.1899195E+04  0.7818608E-02  0.8210716E-01
          4   -1    0    0  502    0  0.00000000000E+00  0.00000000000E+00  0.33302843048E+04  0.33302843048E+04  0.00000000000E+00 0.  1.
         -4   -1    0    0    0  501 -0.00000000000E+00 -0.00000000000E+00 -0.11205155880E+04  0.11205155880E+04  0.00000000000E+00 0. -1.
    9000010    2    1    2  502    0 -0.16015297765E+04 -0.15996328463E+03  0.69519059723E+03  0.20175305896E+04  0.99832551600E+03 0.  0.
   -9000010    2    1    2    0  501  0.16015297765E+04  0.15996328463E+03  0.15145781196E+04  0.24332693032E+04  0.10180209940E+04 0.  0.
        -13    1    3    3    0    0 -0.56822066734E+03  0.76663914711E+02 -0.22289976094E+03  0.61517184363E+03  0.10566000000E+00 0.  1.
          4    1    3    3  502    0 -0.10333091092E+04 -0.23662719934E+03  0.91809035816E+03  0.14023587460E+04  0.00000000000E+00 0.  1.
         13    1    4    4    0    0 -0.12431483957E+03  0.77151961171E+02  0.25880999150E+03  0.29730325817E+03  0.10566000000E+00 0. -1.
         -4    1    4    4    0  501  0.17258446161E+04  0.82811323457E+02  0.12557681281E+04  0.21359660451E+04  0.00000000000E+00 0. -1.
<mgrwt>
<rscale>  2 0.18991950E+04</rscale>
<asrwt>0</asrwt>
<pdfrwt beam="1">  1        4 0.51235143E+00 0.18991950E+04</pdfrwt>
<pdfrwt beam="2">  1       -4 0.17238701E+00 0.18991950E+04</pdfrwt>
<totfact> 0.16847608E-02</totfact>
</mgrwt>
</event>
<event>
 8    1  0.7046235E-006  0.1062810E+04  0.7818608E-02  0.8717714E-01
          2   -1    0    0  502    0  0.00000000000E+00  0.00000000000E+00  0.15230981878E+04  0.15230981878E+04  0.00000000000E+00 0. -1.
         -2   -1    0    0    0  501 -0.00000000000E+00 -0.00000000000E+00 -0.81242812869E+03  0.81242812869E+03  0.00000000000E+00 0.  1.
    9000010    2    1    2  502    0  0.30818185691E+03 -0.15240969633E+03  0.69980742387E+03  0.12717862020E+04  0.10047412306E+04 0.  0.
   -9000010    2    1    2    0  501 -0.30818185691E+03  0.15240969633E+03  0.10862635224E+02  0.10637401145E+04  0.10065884273E+04 0.  0.
        -13    1    3    3    0    0  0.77029307474E+02 -0.54831236720E+03  0.18815207167E+03  0.58479156926E+03  0.10566000000E+00 0.  1.
          4    1    3    3  502    0  0.23115254943E+03  0.39590267088E+03  0.51165535220E+03  0.68699463269E+03  0.00000000000E+00 0.  1.
         13    1    4    4    0    0  0.95065016100E+02  0.51306603742E+03 -0.16363251027E+02  0.52205544072E+03  0.10566000000E+00 0. -1.
         -4    1    4    4    0  501 -0.40324687301E+03 -0.36065634109E+03  0.27225886251E+02  0.54168467381E+03  0.00000000000E+00 0. -1.
<mgrwt>
<rscale>  2 0.10628104E+04</rscale>
<asrwt>0</asrwt>
<pdfrwt beam="1">  1        2 0.23432280E+00 0.10628104E+04</pdfrwt>
<pdfrwt beam="2">  1       -2 0.12498894E+00 0.10628104E+04</pdfrwt>
<totfact> 0.87518096E+00</totfact>
</mgrwt>
</event>
<event>
 8    1  0.7046235E-006  0.1011640E+04  0.7818608E-02  0.8763731E-01
          2   -1    0    0  502    0  0.00000000000E+00  0.00000000000E+00  0.26606524291E+04  0.26606524291E+04  0.00000000000E+00 0. -1.
         -2   -1    0    0    0  501 -0.00000000000E+00 -0.00000000000E+00 -0.47470116177E+03  0.47470116177E+03  0.00000000000E+00 0.  1.
    9000010    2    1    2  502    0  0.11562837513E+03  0.16529247324E+03  0.41094449294E+03  0.10927354315E+04  0.99222166074E+03 0.  0.
   -9000010    2    1    2    0  501 -0.11562837513E+03 -0.16529247324E+03  0.17750067744E+04  0.20426181594E+04  0.99042837863E+03 0.  0.
        -13    1    3    3    0    0 -0.13243246923E+03 -0.38417451784E+03  0.20891468341E+03  0.45691768971E+03  0.10566000000E+00 0.  1.
          4    1    3    3  502    0  0.24806084437E+03  0.54946699107E+03  0.20202980953E+03  0.63581774175E+03  0.00000000000E+00 0.  1.
         13    1    4    4    0    0 -0.52147203243E+03  0.61871409497E+02  0.11436239773E+04  0.12584263843E+04  0.10566000000E+00 0. -1.
         -4    1    4    4    0  501  0.40584365730E+03 -0.22716388273E+03  0.63138279704E+03  0.78419177513E+03  0.00000000000E+00 0. -1.
<mgrwt>
<rscale>  2 0.10116403E+04</rscale>
<asrwt>0</asrwt>
<pdfrwt beam="1">  1        2 0.40933114E+00 0.10116403E+04</pdfrwt>
<pdfrwt beam="2">  1       -2 0.73030949E-01 0.10116403E+04</pdfrwt>
<totfact> 0.74830689E+00</totfact>
</mgrwt>
</event>
<event>
 8    1  0.7046235E-006  0.1301290E+04  0.7818608E-02  0.8533957E-01
          2   -1    0    0  502    0  0.00000000000E+00  0.00000000000E+00  0.18243820464E+04  0.18243820464E+04  0.00000000000E+00 0.  1.
         -2   -1    0    0    0  501 -0.00000000000E+00 -0.00000000000E+00 -0.11169461295E+04  0.11169461295E+04  0.00000000000E+00 0. -1.
    9000010    2    1    2  502    0 -0.68269452738E+03  0.46515578711E+03 -0.24839394411E+03  0.13351002642E+04  0.10189953091E+04 0.  0.
   -9000010    2    1    2    0  501  0.68269452738E+03 -0.46515578711E+03  0.95582986097E+03  0.16062279117E+04  0.99192522756E+03 0.  0.
        -13    1    3    3    0    0 -0.55530499434E+03  0.70102110424E+03  0.95133202831E+02  0.89935786135E+03  0.10566000000E+00 0.  1.
          4    1    3    3  502    0 -0.12738953303E+03 -0.23586531713E+03 -0.34352714694E+03  0.43574240284E+03  0.00000000000E+00 0.  1.
         13    1    4    4    0    0  0.28671123438E+03 -0.72196251114E+03  0.38941968312E+03  0.86895391142E+03  0.10566000000E+00 0. -1.
         -4    1    4    4    0  501  0.39598329300E+03  0.25680672404E+03  0.56641017785E+03  0.73727400023E+03  0.00000000000E+00 0. -1.
<mgrwt>
<rscale>  2 0.13012903E+04</rscale>
<asrwt>0</asrwt>
<pdfrwt beam="1">  1        2 0.28067416E+00 0.13012903E+04</pdfrwt>
<pdfrwt beam="2">  1       -2 0.17183787E+00 0.13012903E+04</pdfrwt>
<totfact> 0.22446589E+00</totfact>
</mgrwt>
</event>
<event>
 8    1  0.7046235E-006  0.1413143E+04  0.7818608E-02  0.8461308E-01
         -1   -1    0    0    0  501 -0.00000000000E+00  0.00000000000E+00  0.16938878157E+04  0.16938878157E+04  0.00000000000E+00 0.  1.
          1   -1    0    0  502    0  0.00000000000E+00 -0.00000000000E+00 -0.13153703522E+04  0.13153703522E+04  0.00000000000E+00 0. -1.
    9000010    2    1    2  502    0 -0.85692615836E+03 -0.51373235170E+03 -0.29593161296E+03  0.14386901870E+04  0.99197306652E+03 0.  0.
   -9000010    2    1    2    0  501  0.85692615836E+03  0.51373235170E+03  0.67444907651E+03  0.15705679808E+04  0.10067566020E+04 0.  0.
        -13    1    3    3    0    0 -0.10568840166E+04 -0.27708517390E+03 -0.28274989243E+03  0.11285953796E+04  0.10566000000E+00 0.  1.
          4    1    3    3  502    0  0.19995785823E+03 -0.23664717780E+03 -0.13181720528E+02  0.31009480741E+03  0.00000000000E+00 0.  1.
         13    1    4    4    0    0  0.51274590361E+03  0.70519099817E+03  0.10500961617E+03  0.87819686644E+03  0.10566000000E+00 0. -1.
         -4    1    4    4    0  501  0.34418025474E+03 -0.19145864648E+03  0.56943946034E+03  0.69237111440E+03  0.00000000000E+00 0. -1.
<mgrwt>
<rscale>  2 0.14131431E+04</rscale>
<asrwt>0</asrwt>
<pdfrwt beam="2">  1        1 0.20236467E+00 0.14131431E+04</pdfrwt>
<pdfrwt beam="1">  1       -1 0.26059812E+00 0.14131431E+04</pdfrwt>
<totfact> 0.42164382E-01</totfact>
</mgrwt>
</event>
<event>
 8    1  0.7046235E-006  0.1006940E+04  0.7818608E-02  0.8768098E-01
          2   -1    0    0  502    0  0.00000000000E+00  0.00000000000E+00  0.24657937930E+04  0.24657937930E+04  0.00000000000E+00 0.  1.
         -2   -1    0    0    0  501 -0.00000000000E+00 -0.00000000000E+00 -0.48319792912E+03  0.48319792912E+03  0.00000000000E+00 0. -1.
    9000010    2    1    2  502    0 -0.14860544339E+03 -0.15099044514E+03  0.41855940982E+03  0.10865175531E+04  0.98002383716E+03 0.  0.
   -9000010    2    1    2    0  501  0.14860544339E+03  0.15099044514E+03  0.15640364541E+04  0.18624741690E+04  0.98879639371E+03 0.  0.
        -13    1    3    3    0    0  0.28364170983E+03  0.23881052688E+03  0.20506863524E+01  0.37079280438E+03  0.10566000000E+00 0.  1.
          4    1    3    3  502    0 -0.43224715322E+03 -0.38980097202E+03  0.41650872347E+03  0.71572474875E+03  0.00000000000E+00 0.  1.
         13    1    4    4    0    0  0.30210346214E+03  0.32096402530E+03  0.15726846689E+04  0.16332854884E+04  0.10566000000E+00 0. -1.
         -4    1    4    4    0  501 -0.15349801875E+03 -0.16997358017E+03 -0.86482148768E+01  0.22918868065E+03  0.00000000000E+00 0. -1.
<mgrwt>
<rscale>  2 0.10069396E+04</rscale>
<asrwt>0</asrwt>
<pdfrwt beam="1">  1        2 0.37935288E+00 0.10069396E+04</pdfrwt>
<pdfrwt beam="2">  1       -2 0.74338144E-01 0.10069396E+04</pdfrwt>
<totfact> 0.92965887E+00</totfact>
</mgrwt>
</event>
<event>
 8    1  0.7046235E-006  0.1817705E+04  0.7818608E-02  0.8246943E-01
         -2   -1    0    0    0  501 -0.00000000000E+00  0.00000000000E+00  0.12882984065E+04  0.12882984065E+04  0.00000000000E+00 0.  1.
          2   -1    0    0  502    0  0.00000000000E+00 -0.00000000000E+00 -0.30497696540E+04  0.30497696540E+04  0.00000000000E+00 0. -1.
    9000010    2    1    2  502    0  0.59741568427E+03  0.13957123093E+04 -0.13079271995E+02  0.18113346167E+04  0.98784800244E+03 0.  0.
   -9000010    2    1    2    0  501 -0.59741568427E+03 -0.13957123093E+04 -0.17483919756E+04  0.25267334439E+04  0.10112314502E+04 0.  0.
        -13    1    3    3    0    0 -0.11353137524E+03  0.14757635118E+03  0.28872533191E+03  0.34355564475E+03  0.10566000000E+00 0.  1.
          4    1    3    3  502    0  0.71094705951E+03  0.12481359581E+04 -0.30180460390E+03  0.14677789719E+04  0.00000000000E+00 0.  1.
         13    1    4    4    0    0 -0.79930727641E+02 -0.12506935414E+04 -0.14325595666E+04  0.19033786220E+04  0.10566000000E+00 0. -1.
         -4    1    4    4    0  501 -0.51748495663E+03 -0.14501876795E+03 -0.31583240900E+03  0.62335482189E+03  0.00000000000E+00 0. -1.
<mgrwt>
<rscale>  2 0.18177052E+04</rscale>
<asrwt>0</asrwt>
<pdfrwt beam="2">  1        2 0.46919533E+00 0.18177052E+04</pdfrwt>
<pdfrwt beam="1">  1       -2 0.19819976E+00 0.18177052E+04</pdfrwt>
<totfact> 0.25489670E-01</totfact>
</mgrwt>
</event>
<event>
 8    1  0.7046235E-006  0.1144135E+04  0.7818608E-02  0.8649861E-01
          2   -1    0    0  502    0  0.00000000000E+00  0.00000000000E+00  0.18757746848E+04  0.18757746848E+04  0.00000000000E+00 0. -1.
         -2   -1    0    0    0  501 -0.00000000000E+00 -0.00000000000E+00 -0.81620599511E+03  0.81620599511E+03  0.00000000000E+00 0.  1.
    9000010    2    1    2  502    0 -0.53365557616E+03  0.53457376684E+01  0.15682421681E+02  0.11401735480E+04  0.10074387973E+04 0.  0.
   -9000010    2    1    2    0  501  0.53365557616E+03 -0.53457376684E+01  0.10438862680E+04  0.15518071320E+04  0.10166562759E+04 0.  0.
        -13    1    3    3    0    0 -0.54897304626E+03  0.40252778233E+03 -0.16973377883E+03  0.70157650182E+03  0.10566000000E+00 0.  1.
          4    1    3    3  502    0  0.15317470109E+02 -0.39718204466E+03  0.18541620051E+03  0.43859704616E+03  0.00000000000E+00 0.  1.
         13    1    4    4    0    0 -0.25329183820E+03 -0.17195167772E+03  0.48051271804E+03  0.56975136519E+03  0.10566000000E+00 0. -1.
         -4    1    4    4    0  501  0.78694741435E+03  0.16660594006E+03  0.56337354999E+03  0.98205576677E+03  0.00000000000E+00 0. -1.
<mgrwt>
<rscale>  2 0.11441351E+04</rscale>
<asrwt>0</asrwt>
<pdfrwt beam="1">  1        2 0.28858072E+00 0.11441351E+04</pdfrwt>
<pdfrwt beam="2">  1       -2 0.12557015E+00 0.11441351E+04</pdfrwt>
<totfact> 0.55103736E+00</totfact>
</mgrwt>
</event>
<event>
 8    1  0.7046235E-006  0.1250267E+04  0.7818608E-02  0.8569642E-01
          2   -1    0    0  502    0  0.00000000000E+00  0.00000000000E+00  0.22971728116E+04  0.22971728116E+04  0.00000000000E+00 0. -1.
         -2   -1    0    0    0  501 -0.00000000000E+00 -0.00000000000E+00 -0.70220026041E+03  0.70220026041E+03  0.00000000000E+00 0.  1.
    9000010    2    1    2  502    0  0.77192832703E+03 -0.17458471886E+02  0.55260511346E+03  0.13922227656E+04  0.10182011969E+04 0.  0.
   -9000010    2    1    2    0  501 -0.77192832703E+03  0.17458471886E+02  0.10423674378E+04  0.16071503064E+04  0.94880139745E+03 0.  0.
        -13    1    3    3    0    0  0.27879014096E+03 -0.34817779616E+03  0.65222306066E+03  0.79015609373E+03  0.10566000000E+00 0.  1.
          4    1    3    3  502    0  0.49313818607E+03  0.33071932428E+03 -0.99617947206E+02  0.60206667190E+03  0.00000000000E+00 0.  1.
         13    1    4    4    0    0 -0.54124948868E+03 -0.30090069050E+03  0.15765986048E+03  0.63902181286E+03  0.10566000000E+00 0. -1.
         -4    1    4    4    0  501 -0.23067883835E+03  0.31835916239E+03  0.88470757729E+03  0.96812849357E+03  0.00000000000E+00 0. -1.
<mgrwt>
<rscale>  2 0.12502670E+04</rscale>
<asrwt>0</asrwt>
<pdfrwt beam="1">  1        2 0.35341120E+00 0.12502670E+04</pdfrwt>
<pdfrwt beam="2">  1       -2 0.10803081E+00 0.12502670E+04</pdfrwt>
<totfact> 0.47350018E+00</totfact>
</mgrwt>
</event>
<event>
 8    1  0.7046235E-006  0.1314004E+04  0.7818608E-02  0.8525328E-01
          2   -1    0    0  502    0  0.00000000000E+00  0.00000000000E+00  0.14529935904E+04  0.14529935904E+04  0.00000000000E+00 0. -1.
         -2   -1    0    0    0  501 -0.00000000000E+00 -0.00000000000E+00 -0.12965889100E+04  0.12965889100E+04  0.00000000000E+00 0.  1.
    9000010    2    1    2  502    0 -0.50883924232E+03 -0.69167762141E+03 -0.31908316060E+03  0.13522913143E+04  0.99475747246E+03 0.  0.
   -9000010    2    1    2    0  501  0.50883924232E+03  0.69167762141E+03  0.47548784092E+03  0.13972911860E+04  0.99448412016E+03 0.  0.
        -13    1    3    3    0    0 -0.70941098731E+03 -0.27696991942E+03 -0.43530476338E+03  0.87719241525E+03  0.10566000000E+00 0.  1.
          4    1    3    3  502    0  0.20057174499E+03 -0.41470770199E+03  0.11622160278E+03  0.47509889910E+03  0.00000000000E+00 0.  1.
         13    1    4    4    0    0  0.20012681040E+03 -0.14081417374E+03  0.44622972746E+03  0.50892077242E+03  0.10566000000E+00 0. -1.
         -4    1    4    4    0  501  0.30871243192E+03  0.83249179514E+03  0.29258113457E+02  0.88837041362E+03  0.00000000000E+00 0. -1.
<mgrwt>
<rscale>  2 0.13140037E+04</rscale>
<asrwt>0</asrwt>
<pdfrwt beam="1">  1        2 0.22353748E+00 0.13140037E+04</pdfrwt>
<pdfrwt beam="2">  1       -2 0.19947522E+00 0.13140037E+04</pdfrwt>
<totfact> 0.21053398E+00</totfact>
</mgrwt>
</event>
<event>
 8    1  0.7046235E-006  0.2691819E+04  0.7818608E-02  0.7933490E-01
          4   -1    0    0  502    0  0.00000000000E+00  0.00000000000E+00  0.17166503459E+04  0.17166503459E+04  0.00000000000E+00 0.  1.
         -4   -1    0    0    0  501 -0.00000000000E+00 -0.00000000000E+00 -0.45356301693E+04  0.45356301693E+04  0.00000000000E+00 0. -1.
    9000010    2    1    2  502    0 -0.21229623519E+04 -0.13320912779E+04 -0.58834931962E+03  0.27599279555E+04  0.99479197690E+03 0.  0.
   -9000010    2    1    2    0  501  0.21229623519E+04  0.13320912779E+04 -0.22306305038E+04  0.34923525597E+04  0.96921495915E+03 0.  0.
        -13    1    3    3    0    0 -0.18924681303E+04 -0.94237555973E+03 -0.13379959120E+03  0.21183506937E+04  0.10566000000E+00 0.  1.
          4    1    3    3  502    0 -0.23049422155E+03 -0.38971571817E+03 -0.45454972842E+03  0.64157726172E+03  0.00000000000E+00 0.  1.
         13    1    4    4    0    0  0.14004250515E+04  0.12817138463E+04 -0.12490142133E+04  0.22724474085E+04  0.10566000000E+00 0. -1.
         -4    1    4    4    0  501  0.72253730040E+03  0.50377431615E+02 -0.98161629053E+03  0.12199051512E+04  0.00000000000E+00 0. -1.
<mgrwt>
<rscale>  2 0.26918186E+04</rscale>
<asrwt>0</asrwt>
<pdfrwt beam="1">  1        4 0.26410005E+00 0.26918186E+04</pdfrwt>
<pdfrwt beam="2">  1       -4 0.69778927E+00 0.26918186E+04</pdfrwt>
<totfact> 0.94676961E-04</totfact>
</mgrwt>
</event>
<event>
 8    1  0.7046235E-006  0.1900363E+04  0.7818608E-02  0.8210210E-01
         -2   -1    0    0    0  501 -0.00000000000E+00  0.00000000000E+00  0.11105355980E+04  0.11105355980E+04  0.00000000000E+00 0. -1.
          2   -1    0    0  502    0  0.00000000000E+00 -0.00000000000E+00 -0.33708093828E+04  0.33708093828E+04  0.00000000000E+00 0.  1.
    9000010    2    1    2  502    0 -0.15302355758E+04 -0.54462327527E+03 -0.15483038409E+04  0.24477498639E+04  0.97775210717E+03 0.  0.
   -9000010    2    1    2    0  501  0.15302355758E+04  0.54462327527E+03 -0.71196994392E+03  0.20335951170E+04  0.99517459236E+03 0.  0.
        -13    1    3    3    0    0 -0.93525587711E+03 -0.31373518993E+03 -0.15160330648E+04  0.18087259576E+04  0.10566000000E+00 0.  1.
          4    1    3    3  502    0 -0.59497969869E+03 -0.23088808534E+03 -0.32270776099E+02  0.63902390627E+03  0.00000000000E+00 0.  1.
         13    1    4    4    0    0  0.81677064210E+03  0.40880352148E+03  0.12898998932E+03  0.92242779093E+03  0.10566000000E+00 0. -1.
         -4    1    4    4    0  501  0.71346493369E+03  0.13581975379E+03 -0.84095993324E+03  0.11111673260E+04  0.00000000000E+00 0. -1.
<mgrwt>
<rscale>  2 0.19003632E+04</rscale>
<asrwt>0</asrwt>
<pdfrwt beam="2">  1        2 0.51858605E+00 0.19003632E+04</pdfrwt>
<pdfrwt beam="1">  1       -2 0.17085163E+00 0.19003632E+04</pdfrwt>
<totfact> 0.26284782E-01</totfact>
</mgrwt>
</event>
<event>
 8    1  0.7046235E-006  0.1107420E+04  0.7818608E-02  0.8679741E-01
          2   -1    0    0  502    0  0.00000000000E+00  0.00000000000E+00  0.37042237627E+04  0.37042237627E+04  0.00000000000E+00 0. -1.
         -2   -1    0    0    0  501 -0.00000000000E+00 -0.00000000000E+00 -0.34610167703E+03  0.34610167703E+03  0.00000000000E+00 0.  1.
    9000010    2    1    2  502    0 -0.46321847379E+03 -0.22209625411E+03  0.20677910858E+04  0.23356264768E+04  0.95681396510E+03 0.  0.
   -9000010    2    1    2    0  501  0.46321847379E+03  0.22209625411E+03  0.12903309999E+04  0.17146989630E+04  0.10056541870E+04 0.  0.
        -13    1    3    3    0    0 -0.15651391445E+03 -0.33676331253E+03  0.19540055355E+04  0.19889805876E+04  0.10566000000E+00 0.  1.
          4    1    3    3  502    0 -0.30670455934E+03  0.11466705842E+03  0.11378555037E+03  0.34664588918E+03  0.00000000000E+00 0.  1.
         13    1    4    4    0    0  0.67117474631E+02  0.50574748401E+03  0.25476349719E+03  0.57025408692E+03  0.10566000000E+00 0. -1.
         -4    1    4    4    0  501  0.39610099916E+03 -0.28365122990E+03  0.10355675027E+04  0.11444448761E+04  0.00000000000E+00 0. -1.
<mgrwt>
<rscale>  2 0.11074199E+04</rscale>
<asrwt>0</asrwt>
<pdfrwt beam="1">  1        2 0.56988055E+00 0.11074199E+04</pdfrwt>
<pdfrwt beam="2">  1       -2 0.53246414E-01 0.11074199E+04</pdfrwt>
<totfact> 0.28447230E+00</totfact>
</mgrwt>
</event>
<event>
 8    1  0.7046235E-006  0.1720463E+04  0.7818608E-02  0.8292812E-01
          1   -1    0    0  502    0  0.00000000000E+00  0.00000000000E+00  0.11936189306E+04  0.11936189306E+04  0.00000000000E+00 0.  1.
         -1   -1    0    0    0  501 -0.00000000000E+00 -0.00000000000E+00 -0.25442835845E+04  0.25442835845E+04  0.00000000000E+00 0. -1.
    9000010    2    1    2  502    0 -0.11947146915E+04  0.64474281584E+03 -0.39056314194E+03  0.17925411802E+04  0.11034617448E+04 0.  0.
   -9000010    2    1    2    0  501  0.11947146915E+04 -0.64474281584E+03 -0.96010151197E+03  0.19453613348E+04  0.10097521067E+04 0.  0.
        -13    1    3    3    0    0 -0.98648617959E+03 -0.70913297932E+02 -0.33864380038E+03  0.10454010298E+04  0.10566000000E+00 0.  1.
          4    1    3    3  502    0 -0.20822851192E+03  0.71565611377E+03 -0.51919341569E+02  0.74714015043E+03  0.00000000000E+00 0.  1.
         13    1    4    4    0    0  0.81002954735E+01  0.14152779386E+03  0.97458492683E+02  0.17202877719E+03  0.10566000000E+00 0. -1.
         -4    1    4    4    0  501  0.11866143960E+04 -0.78627060969E+03 -0.10575600046E+04  0.17733325576E+04  0.00000000000E+00 0. -1.
<mgrwt>
<rscale>  2 0.17204634E+04</rscale>
<asrwt>0</asrwt>
<pdfrwt beam="1">  1        1 0.18363368E+00 0.17204634E+04</pdfrwt>
<pdfrwt beam="2">  1       -1 0.39142824E+00 0.17204634E+04</pdfrwt>
<totfact> 0.15265219E-01</totfact>
</mgrwt>
</event>
<event>
 8    1  0.7046235E-006  0.1177190E+04  0.7818608E-02  0.8623940E-01
          2   -1    0    0  502    0  0.00000000000E+00  0.00000000000E+00  0.22829728536E+04  0.22829728536E+04  0.00000000000E+00 0.  1.
         -2   -1    0    0    0  501 -0.00000000000E+00 -0.00000000000E+00 -0.64448177943E+03  0.64448177943E+03  0.00000000000E+00 0. -1.
    9000010    2    1    2  502    0 -0.16455340780E+03 -0.55803835531E+03  0.47843790362E+03  0.12870770052E+04  0.10436377531E+04 0.  0.
   -9000010    2    1    2    0  501  0.16455340780E+03  0.55803835531E+03  0.11600531705E+04  0.16403776278E+04  0.10033099089E+04 0.  0.
        -13    1    3    3    0    0  0.37714520436E+02 -0.42112685099E+03  0.78709510999E+03  0.89347016347E+03  0.10566000000E+00 0.  1.
          4    1    3    3  502    0 -0.20226792823E+03 -0.13691150432E+03 -0.30865720637E+03  0.39360684173E+03  0.00000000000E+00 0.  1.
         13    1    4    4    0    0 -0.49940139840E+02 -0.11379486319E+03 -0.12390243323E+03  0.17548536287E+03  0.10566000000E+00 0. -1.
         -4    1    4    4    0  501  0.21449354764E+03  0.67183321850E+03  0.12839556038E+04  0.14648922650E+04  0.00000000000E+00 0. -1.
<mgrwt>
<rscale>  2 0.11771896E+04</rscale>
<asrwt>0</asrwt>
<pdfrwt beam="1">  1        2 0.35122659E+00 0.11771896E+04</pdfrwt>
<pdfrwt beam="2">  1       -2 0.99151044E-01 0.11771896E+04</pdfrwt>
<totfact> 0.59932448E+00</totfact>
</mgrwt>
</event>
<event>
 8    1  0.7046235E-006  0.1103643E+04  0.7818608E-02  0.8682884E-01
          2   -1    0    0  502    0  0.00000000000E+00  0.00000000000E+00  0.37905876360E+04  0.37905876360E+04  0.00000000000E+00 0.  1.
         -2   -1    0    0    0  501 -0.00000000000E+00 -0.00000000000E+00 -0.34106963326E+03  0.34106963326E+03  0.00000000000E+00 0. -1.
    9000010    2    1    2  502    0 -0.44729172913E+03 -0.54447471875E+02  0.12325525495E+04  0.16566089894E+04  0.10110060031E+04 0.  0.
   -9000010    2    1    2    0  501  0.44729172913E+03  0.54447471875E+02  0.22169654532E+04  0.24750482799E+04  0.10039391160E+04 0.  0.
        -13    1    3    3    0    0 -0.76862229698E+03  0.45918284752E+02  0.84163169100E+03  0.11407158449E+04  0.10566000000E+00 0.  1.
          4    1    3    3  502    0  0.32133056785E+03 -0.10036575663E+03  0.39092085850E+03  0.51589314451E+03  0.00000000000E+00 0.  1.
         13    1    4    4    0    0  0.17656076047E+02 -0.27618517493E+03  0.10727098410E+03  0.29681149416E+03  0.10566000000E+00 0. -1.
         -4    1    4    4    0  501  0.42963565308E+03  0.33063264681E+03  0.21096944691E+04  0.21782367857E+04  0.00000000000E+00 0. -1.
<mgrwt>
<rscale>  2 0.11036426E+04</rscale>
<asrwt>0</asrwt>
<pdfrwt beam="1">  1        2 0.58316730E+00 0.11036426E+04</pdfrwt>
<pdfrwt beam="2">  1       -2 0.52472254E-01 0.11036426E+04</pdfrwt>
<totfact> 0.24851323E+00</totfact>
</mgrwt>
</event>
<event>
 8    1  0.7046235E-006  0.1198780E+04  0.7818608E-02  0.8607482E-01
         -2   -1    0    0    0  501 -0.00000000000E+00  0.00000000000E+00  0.81096359006E+03  0.81096359006E+03  0.00000000000E+00 0. -1.
          2   -1    0    0  502    0  0.00000000000E+00 -0.00000000000E+00 -0.18966572138E+04  0.18966572138E+04  0.00000000000E+00 0.  1.
    9000010    2    1    2  502    0  0.41227421032E+03 -0.52675240801E+03 -0.19735436406E+03  0.12183762944E+04  0.99902648906E+03 0.  0.
   -9000010    2    1    2    0  501 -0.41227421032E+03  0.52675240801E+03 -0.88833925968E+03  0.14892445095E+04  0.99058792891E+03 0.  0.
        -13    1    3    3    0    0 -0.96413395404E+02 -0.52612555206E+03  0.20189432892E+03  0.57172106010E+03  0.10566000000E+00 0.  1.
          4    1    3    3  502    0  0.50868760572E+03 -0.62685595195E+00 -0.39924869299E+03  0.64665523428E+03  0.00000000000E+00 0.  1.
         13    1    4    4    0    0  0.89943276493E+02 -0.53221291991E+02  0.15942633095E+03  0.19062808049E+03  0.10566000000E+00 0. -1.
         -4    1    4    4    0  501 -0.50221748681E+03  0.57997370001E+03 -0.10477655906E+04  0.12986164290E+04  0.00000000000E+00 0. -1.
<mgrwt>
<rscale>  2 0.11987797E+04</rscale>
<asrwt>0</asrwt>
<pdfrwt beam="2">  1        2 0.29179342E+00 0.11987797E+04</pdfrwt>
<pdfrwt beam="1">  1       -2 0.12476363E+00 0.11987797E+04</pdfrwt>
<totfact> 0.54297049E+00</totfact>
</mgrwt>
</event>
<event>
 8    1  0.7046235E-006  0.1636902E+04  0.7818608E-02  0.8334794E-01
          1   -1    0    0  502    0  0.00000000000E+00  0.00000000000E+00  0.58957761947E+03  0.58957761947E+03  0.00000000000E+00 0. -1.
         -1   -1    0    0    0  501 -0.00000000000E+00 -0.00000000000E+00 -0.47315169429E+04  0.47315169429E+04  0.00000000000E+00 0.  1.
    9000010    2    1    2  502    0 -0.24676748538E+03 -0.12775401576E+04 -0.15536624107E+04  0.22635263797E+04  0.10083063715E+04 0.  0.
   -9000010    2    1    2    0  501  0.24676748538E+03  0.12775401576E+04 -0.25882769128E+04  0.30575681827E+04  0.97803004489E+03 0.  0.
        -13    1    3    3    0    0 -0.21761103706E+03 -0.92313510373E+03 -0.35412876727E+03  0.10123932922E+04  0.10566000000E+00 0.  1.
          4    1    3    3  502    0 -0.29156448315E+02 -0.35440505391E+03 -0.11995336434E+04  0.12511330874E+04  0.00000000000E+00 0.  1.
         13    1    4    4    0    0  0.24586207067E+03  0.11581990167E+03 -0.12774356066E+04  0.13060260899E+04  0.10566000000E+00 0. -1.
         -4    1    4    4    0  501  0.90541470876E+00  0.11617202560E+04 -0.13108413062E+04  0.17515420928E+04  0.00000000000E+00 0. -1.
<mgrwt>
<rscale>  2 0.16369015E+04</rscale>
<asrwt>0</asrwt>
<pdfrwt beam="1">  1        1 0.90704252E-01 0.16369015E+04</pdfrwt>
<pdfrwt beam="2">  1       -1 0.72792566E+00 0.16369015E+04</pdfrwt>
<totfact> 0.38869779E-02</totfact>
</mgrwt>
</event>
<event>
 8    1  0.7046235E-006  0.1354389E+04  0.7818608E-02  0.8498570E-01
          2   -1    0    0  502    0  0.00000000000E+00  0.00000000000E+00  0.16243207065E+04  0.16243207065E+04  0.00000000000E+00 0.  1.
         -2   -1    0    0    0  501 -0.00000000000E+00 -0.00000000000E+00 -0.11306068725E+04  0.11306068725E+04  0.00000000000E+00 0. -1.
    9000010    2    1    2  502    0  0.54981255918E+03  0.73534459393E+03  0.29412529872E+03  0.13919750498E+04  0.10040215764E+04 0.  0.
   -9000010    2    1    2    0  501 -0.54981255918E+03 -0.73534459393E+03  0.19958853524E+03  0.13629525292E+04  0.98730871125E+03 0.  0.
        -13    1    3    3    0    0 -0.19200047355E+03 -0.58844673235E+02 -0.11423690933E+03  0.23103454293E+03  0.10566000000E+00 0.  1.
          4    1    3    3  502    0  0.74181303273E+03  0.79418926716E+03  0.40836220805E+03  0.11609405069E+04  0.00000000000E+00 0.  1.
         13    1    4    4    0    0 -0.16937121906E+02  0.22470162623E+03  0.13577135093E+03  0.26308089597E+03  0.10566000000E+00 0. -1.
         -4    1    4    4    0  501 -0.53287543727E+03 -0.96004622016E+03  0.63817184310E+02  0.10998716332E+04  0.00000000000E+00 0. -1.
<mgrwt>
<rscale>  2 0.13543888E+04</rscale>
<asrwt>0</asrwt>
<pdfrwt beam="1">  1        2 0.24989549E+00 0.13543888E+04</pdfrwt>
<pdfrwt beam="2">  1       -2 0.17393952E+00 0.13543888E+04</pdfrwt>
<totfact> 0.27558627E+00</totfact>
</mgrwt>
</event>
<event>
 8    1  0.7046235E-006  0.1256979E+04  0.7818608E-02  0.8564848E-01
         -1   -1    0    0    0  501 -0.00000000000E+00  0.00000000000E+00  0.12584792333E+04  0.12584792333E+04  0.00000000000E+00 0.  1.
          1   -1    0    0  502    0  0.00000000000E+00 -0.00000000000E+00 -0.12559570407E+04  0.12559570407E+04  0.00000000000E+00 0. -1.
    9000010    2    1    2  502    0  0.63017362661E+03  0.35319038122E+03  0.19410829288E+02  0.12737193835E+04  0.10488670280E+04 0.  0.
   -9000010    2    1    2    0  501 -0.63017362661E+03 -0.35319038122E+03 -0.16888636678E+02  0.12407168906E+04  0.10085786690E+04 0.  0.
        -13    1    3    3    0    0 -0.10469416276E+03  0.41120124954E+03  0.26078646532E+03  0.49805313672E+03  0.10566000000E+00 0.  1.
          4    1    3    3  502    0  0.73486778937E+03 -0.58010868314E+02 -0.24137563603E+03  0.77566624676E+03  0.00000000000E+00 0.  1.
         13    1    4    4    0    0 -0.46879236906E+03 -0.63126753014E+03  0.24763508107E+03  0.82437135105E+03  0.10566000000E+00 0. -1.
         -4    1    4    4    0  501 -0.16138125755E+03  0.27807714891E+03 -0.26452371775E+03  0.41634553953E+03  0.00000000000E+00 0. -1.
<mgrwt>
<rscale>  2 0.12569786E+04</rscale>
<asrwt>0</asrwt>
<pdfrwt beam="2">  1        1 0.19322416E+00 0.12569786E+04</pdfrwt>
<pdfrwt beam="1">  1       -1 0.19361219E+00 0.12569786E+04</pdfrwt>
<totfact> 0.20294082E+00</totfact>
</mgrwt>
</event>
<event>
 8    1  0.7046235E-006  0.1252721E+04  0.7818608E-02  0.8567886E-01
         -4   -1    0    0    0  501 -0.00000000000E+00  0.00000000000E+00  0.60570133922E+03  0.60570133922E+03  0.00000000000E+00 0. -1.
          4   -1    0    0  502    0  0.00000000000E+00 -0.00000000000E+00 -0.25909944175E+04  0.25909944175E+04  0.00000000000E+00 0.  1.
    9000010    2    1    2  502    0 -0.71431116574E+03 -0.11802076238E+03 -0.99039040367E+03  0.15913068558E+04  0.10135161646E+04 0.  0.
   -9000010    2    1    2    0  501  0.71431116574E+03  0.11802076238E+03 -0.99490267457E+03  0.16053889009E+04  0.10311512252E+04 0.  0.
        -13    1    3    3    0    0 -0.66123677982E+03  0.24453697978E+03 -0.22052805523E+03  0.73869144287E+03  0.10566000000E+00 0.  1.
          4    1    3    3  502    0 -0.53074385919E+02 -0.36255774216E+03 -0.76986234844E+03  0.85261541294E+03  0.00000000000E+00 0.  1.
         13    1    4    4    0    0  0.25084226161E+03  0.52508812067E+03 -0.73128364868E+03  0.93456683050E+03  0.10566000000E+00 0. -1.
         -4    1    4    4    0  501  0.46346890413E+03 -0.40706735829E+03 -0.26361902589E+03  0.67082207037E+03  0.00000000000E+00 0. -1.
<mgrwt>
<rscale>  2 0.12527209E+04</rscale>
<asrwt>0</asrwt>
<pdfrwt beam="2">  1        4 0.39861452E+00 0.12527209E+04</pdfrwt>
<pdfrwt beam="1">  1       -4 0.93184823E-01 0.12527209E+04</pdfrwt>
<totfact> 0.16069341E-01</totfact>
</mgrwt>
</event>
<event>
 8    1  0.7046235E-006  0.1223668E+04  0.7818608E-02  0.8588950E-01
         -2   -1    0    0    0  501 -0.00000000000E+00  0.00000000000E+00  0.51634361836E+03  0.51634361836E+03  0.00000000000E+00 0.  1.
          2   -1    0    0  502    0  0.00000000000E+00 -0.00000000000E+00 -0.29530318907E+04  0.29530318907E+04  0.00000000000E+00 0. -1.
    9000010    2    1    2  502    0  0.65408786549E+03  0.80856487818E+02 -0.14818001859E+04  0.19465395547E+04  0.10765294886E+04 0.  0.
   -9000010    2    1    2    0  501 -0.65408786549E+03 -0.80856487818E+02 -0.95488808649E+03  0.15228359543E+04  0.98633127229E+03 0.  0.
        -13    1    3    3    0    0  0.64149011824E+03  0.51737443897E+03 -0.10120778464E+04  0.13051771758E+04  0.10566000000E+00 0.  1.
          4    1    3    3  502    0  0.12597747241E+02 -0.43651795115E+03 -0.46972233949E+03  0.64136237895E+03  0.00000000000E+00 0.  1.
         13    1    4    4    0    0 -0.84519301106E+03 -0.15705143872E+03 -0.99319529215E+03  0.13135651030E+04  0.10566000000E+00 0. -1.
         -4    1    4    4    0  501  0.19110514558E+03  0.76194950900E+02  0.38307205657E+02  0.20927085132E+03  0.00000000000E+00 0. -1.
<mgrwt>
<rscale>  2 0.12236682E+04</rscale>
<asrwt>0</asrwt>
<pdfrwt beam="2">  1        2 0.45431259E+00 0.12236682E+04</pdfrwt>
<pdfrwt beam="1">  1       -2 0.79437482E-01 0.12236682E+04</pdfrwt>
<totfact> 0.40786282E+00</totfact>
</mgrwt>
</event>
<event>
 8    1  0.7046235E-006  0.1430320E+04  0.7818608E-02  0.8450764E-01
          1   -1    0    0  502    0  0.00000000000E+00  0.00000000000E+00  0.11144097311E+04  0.11144097311E+04  0.00000000000E+00 0.  1.
         -1   -1    0    0    0  501 -0.00000000000E+00 -0.00000000000E+00 -0.20336788896E+04  0.20336788896E+04  0.00000000000E+00 0. -1.
    9000010    2    1    2  502    0  0.10193158619E+04 -0.22708063372E+03 -0.95076488851E+03  0.17178242587E+04  0.97795494266E+03 0.  0.
   -9000010    2    1    2    0  501 -0.10193158619E+04  0.22708063372E+03  0.31495730048E+02  0.14302643621E+04  0.97677721306E+03 0.  0.
        -13    1    3    3    0    0  0.20866694069E+03  0.31486388844E+03 -0.33721391101E+02  0.37923383784E+03  0.10566000000E+00 0.  1.
          4    1    3    3  502    0  0.81064892121E+03 -0.54194452216E+03 -0.91704349741E+03  0.13385904208E+04  0.00000000000E+00 0.  1.
         13    1    4    4    0    0 -0.15344047256E+02  0.23877875679E+03 -0.29003895335E+03  0.37599646289E+03  0.10566000000E+00 0. -1.
         -4    1    4    4    0  501 -0.10039718146E+04 -0.11698123071E+02  0.32153468340E+03  0.10542678992E+04  0.00000000000E+00 0. -1.
<mgrwt>
<rscale>  2 0.14303199E+04</rscale>
<asrwt>0</asrwt>
<pdfrwt beam="1">  1        1 0.17144765E+00 0.14303199E+04</pdfrwt>
<pdfrwt beam="2">  1       -1 0.31287368E+00 0.14303199E+04</pdfrwt>
<totfact> 0.20437080E-01</totfact>
</mgrwt>
</event>
<event>
 8    1  0.7046235E-006  0.1295211E+04  0.7818608E-02  0.8538120E-01
          1   -1    0    0  502    0  0.00000000000E+00  0.00000000000E+00  0.27412475212E+04  0.27412475212E+04  0.00000000000E+00 0.  1.
         -1   -1    0    0    0  501 -0.00000000000E+00 -0.00000000000E+00 -0.64870637067E+03  0.64870637067E+03  0.00000000000E+00 0. -1.
    9000010    2    1    2  502    0 -0.57857129484E+03  0.58747258020E+03  0.14490784510E+04  0.19430914691E+04  0.99795156407E+03 0.  0.
   -9000010    2    1    2    0  501  0.57857129484E+03 -0.58747258020E+03  0.64346269947E+03  0.14468624228E+04  0.99974889305E+03 0.  0.
        -13    1    3    3    0    0  0.23638832692E+03  0.49042052631E+01  0.54340092648E+03  0.59261123040E+03  0.10566000000E+00 0.  1.
          4    1    3    3  502    0 -0.81495962175E+03  0.58256837493E+03  0.90567752456E+03  0.13504802387E+04  0.00000000000E+00 0.  1.
         13    1    4    4    0    0  0.18218228387E+03 -0.54040662020E+03 -0.12234484053E+03  0.58326492341E+03  0.10566000000E+00 0. -1.
         -4    1    4    4    0  501  0.39638901097E+03 -0.47065960001E+02  0.76580754000E+03  0.86359749938E+03  0.00000000000E+00 0. -1.
<mgrwt>
<rscale>  2 0.12952106E+04</rscale>
<asrwt>0</asrwt>
<pdfrwt beam="1">  1        1 0.42173038E+00 0.12952106E+04</pdfrwt>
<pdfrwt beam="2">  1       -1 0.99800982E-01 0.12952106E+04</pdfrwt>
<totfact> 0.85966857E-01</totfact>
</mgrwt>
</event>
<event>
 8    1  0.7046235E-006  0.1289979E+04  0.7818608E-02  0.8541721E-01
         -2   -1    0    0    0  501 -0.00000000000E+00  0.00000000000E+00  0.79621223325E+03  0.79621223325E+03  0.00000000000E+00 0. -1.
          2   -1    0    0  502    0  0.00000000000E+00 -0.00000000000E+00 -0.26212265356E+04  0.26212265356E+04  0.00000000000E+00 0.  1.
    9000010    2    1    2  502    0  0.44036323632E+03  0.67064709944E+03 -0.16766053535E+04  0.21099704077E+04  0.99864022447E+03 0.  0.
   -9000010    2    1    2    0  501 -0.44036323632E+03 -0.67064709944E+03 -0.14840894887E+03  0.13074683612E+04  0.10216462145E+04 0.  0.
        -13    1    3    3    0    0  0.49357798511E+03  0.73730539896E+03 -0.17721721911E+04  0.19818760720E+04  0.10566000000E+00 0.  1.
          4    1    3    3  502    0 -0.53214748789E+02 -0.66658299524E+02  0.95566837585E+02  0.12809433567E+03  0.00000000000E+00 0.  1.
         13    1    4    4    0    0  0.22220824000E+03  0.49879738421E+02 -0.23193933495E+03  0.32505439005E+03  0.10566000000E+00 0. -1.
         -4    1    4    4    0  501 -0.66257147633E+03 -0.72052683786E+03  0.83530386076E+02  0.98241397115E+03  0.00000000000E+00 0. -1.
<mgrwt>
<rscale>  2 0.12899793E+04</rscale>
<asrwt>0</asrwt>
<pdfrwt beam="2">  1        2 0.40326562E+00 0.12899793E+04</pdfrwt>
<pdfrwt beam="1">  1       -2 0.12249419E+00 0.12899793E+04</pdfrwt>
<totfact> 0.22458645E+00</totfact>
</mgrwt>
</event>
<event>
 8    1  0.7046235E-006  0.1186683E+04  0.7818608E-02  0.8616658E-01
          2   -1    0    0  502    0  0.00000000000E+00  0.00000000000E+00  0.18575527665E+04  0.18575527665E+04  0.00000000000E+00 0. -1.
         -2   -1    0    0    0  501 -0.00000000000E+00 -0.00000000000E+00 -0.79920855642E+03  0.79920855642E+03  0.00000000000E+00 0.  1.
    9000010    2    1    2  502    0  0.12752983961E+03 -0.62741257953E+03  0.22643236741E+03  0.12045982444E+04  0.99492457420E+03 0.  0.
   -9000010    2    1    2    0  501 -0.12752983961E+03  0.62741257953E+03  0.83191184262E+03  0.14521630785E+04  0.10033892005E+04 0.  0.
        -13    1    3    3    0    0  0.45253720005E+02 -0.59615105713E+03  0.58435592702E+03  0.83601186756E+03  0.10566000000E+00 0.  1.
          4    1    3    3  502    0  0.82276119605E+02 -0.31261522407E+02 -0.35792355961E+03  0.36858637680E+03  0.00000000000E+00 0.  1.
         13    1    4    4    0    0 -0.44432355549E+03  0.67990948985E+03  0.37729200283E+03  0.89557222094E+03  0.10566000000E+00 0. -1.
         -4    1    4    4    0  501  0.31679371588E+03 -0.52496910313E+02  0.45461983979E+03  0.55659085759E+03  0.00000000000E+00 0. -1.
<mgrwt>
<rscale>  2 0.11866834E+04</rscale>
<asrwt>0</asrwt>
<pdfrwt beam="1">  1        2 0.28577735E+00 0.11866834E+04</pdfrwt>
<pdfrwt beam="2">  1       -2 0.12295516E+00 0.11866834E+04</pdfrwt>
<totfact> 0.59389838E+00</totfact>
</mgrwt>
</event>
<event>
 8    1  0.7046235E-006  0.1347959E+04  0.7818608E-02  0.8502765E-01
         -4   -1    0    0    0  501 -0.00000000000E+00  0.00000000000E+00  0.98046203333E+03  0.98046203333E+03  0.00000000000E+00 0. -1.
          4   -1    0    0  502    0  0.00000000000E+00 -0.00000000000E+00 -0.19746089083E+04  0.19746089083E+04  0.00000000000E+00 0.  1.
    9000010    2    1    2  502    0 -0.12207653904E+03 -0.91283775000E+03 -0.85780634392E+03  0.15850299187E+04  0.96348984448E+03 0.  0.
   -9000010    2    1    2    0  501  0.12207653904E+03  0.91283775000E+03 -0.13634053104E+03  0.13700410229E+04  0.10051110510E+04 0.  0.
        -13    1    3    3    0    0 -0.59075883645E+02 -0.36333650034E+03 -0.95496911487E+03  0.10234595224E+04  0.10566000000E+00 0.  1.
          4    1    3    3  502    0 -0.63000655397E+02 -0.54950124966E+03  0.97162770956E+02  0.56157039632E+03  0.00000000000E+00 0.  1.
         13    1    4    4    0    0  0.35985395487E+03  0.10351021545E+04 -0.10976428475E+03  0.11013535075E+04  0.10566000000E+00 0. -1.
         -4    1    4    4    0  501 -0.23777741583E+03 -0.12226440447E+03 -0.26576246293E+02  0.26868751543E+03  0.00000000000E+00 0. -1.
<mgrwt>
<rscale>  2 0.13479592E+04</rscale>
<asrwt>0</asrwt>
<pdfrwt beam="2">  1        4 0.30378598E+00 0.13479592E+04</pdfrwt>
<pdfrwt beam="1">  1       -4 0.15084031E+00 0.13479592E+04</pdfrwt>
<totfact> 0.14520677E-01</totfact>
</mgrwt>
</event>
<event>
 8    1  0.7046235E-006  0.1045758E+04  0.7818608E-02  0.8732747E-01
          2   -1    0    0  502    0  0.00000000000E+00  0.00000000000E+00  0.16207798720E+04  0.16207798720E+04  0.00000000000E+00 0.  1.
         -2   -1    0    0    0  501 -0.00000000000E+00 -0.00000000000E+00 -0.67477762372E+03  0.67477762372E+03  0.00000000000E+00 0. -1.
    9000010    2    1    2  502    0 -0.27525507469E+03 -0.13953846364E+03  0.46451406773E+03  0.11398515147E+04  0.99410855411E+03 0.  0.
   -9000010    2    1    2    0  501  0.27525507469E+03  0.13953846364E+03  0.48148818058E+03  0.11557059811E+04  0.10042853717E+04 0.  0.
        -13    1    3    3    0    0 -0.84286371367E+02  0.67449847861E+02 -0.30334212172E+03  0.32197845945E+03  0.10566000000E+00 0.  1.
          4    1    3    3  502    0 -0.19096870333E+03 -0.20698831150E+03  0.76785618945E+03  0.81787305521E+03  0.00000000000E+00 0.  1.
         13    1    4    4    0    0  0.12021803367E+03 -0.55154441767E+02 -0.30410928831E+03  0.33162759002E+03  0.10566000000E+00 0. -1.
         -4    1    4    4    0  501  0.15503704102E+03  0.19469290541E+03  0.78559746889E+03  0.82407839107E+03  0.00000000000E+00 0. -1.
<mgrwt>
<rscale>  2 0.10457579E+04</rscale>
<asrwt>0</asrwt>
<pdfrwt beam="1">  1        2 0.24935075E+00 0.10457579E+04</pdfrwt>
<pdfrwt beam="2">  1       -2 0.10381194E+00 0.10457579E+04</pdfrwt>
<totfact> 0.12478355E+01</totfact>
</mgrwt>
</event>
<event>
 8    1  0.7046235E-006  0.1567003E+04  0.7818608E-02  0.8371950E-01
          2   -1    0    0  502    0  0.00000000000E+00  0.00000000000E+00  0.18286490481E+04  0.18286490481E+04  0.00000000000E+00 0. -1.
         -2   -1    0    0    0  501 -0.00000000000E+00 -0.00000000000E+00 -0.13509058833E+04  0.13509058833E+04  0.00000000000E+00 0.  1.
    9000010    2    1    2  502    0 -0.11228834946E+04  0.42687205378E+03  0.11567429146E+03  0.15712877384E+04  0.10062194206E+04 0.  0.
   -9000010    2    1    2    0  501  0.11228834946E+04 -0.42687205378E+03  0.36206887338E+03  0.16082671929E+04  0.10061522758E+04 0.  0.
        -13    1    3    3    0    0 -0.84799566393E+03  0.69936475017E+03 -0.13902800040E+03  0.11079424605E+04  0.10566000000E+00 0.  1.
          4    1    3    3  502    0 -0.27488783071E+03 -0.27249269639E+03  0.25470229186E+03  0.46334527788E+03  0.00000000000E+00 0.  1.
         13    1    4    4    0    0  0.70942955257E+03 -0.32913172451E+03 -0.28654151653E+03  0.83290097491E+03  0.10566000000E+00 0. -1.
         -4    1    4    4    0  501  0.41345394206E+03 -0.97740329271E+02  0.64861038991E+03  0.77536621804E+03  0.00000000000E+00 0. -1.
<mgrwt>
<rscale>  2 0.15670026E+04</rscale>
<asrwt>0</asrwt>
<pdfrwt beam="1">  1        2 0.28133062E+00 0.15670026E+04</pdfrwt>
<pdfrwt beam="2">  1       -2 0.20783168E+00 0.15670026E+04</pdfrwt>
<totfact> 0.10902284E+00</totfact>
</mgrwt>
</event>
<event>
 8    1  0.7046235E-006  0.1509777E+04  0.7818608E-02  0.8403894E-01
         -2   -1    0    0    0  501 -0.00000000000E+00  0.00000000000E+00  0.14069532154E+04  0.14069532154E+04  0.00000000000E+00 0.  1.
          2   -1    0    0  502    0  0.00000000000E+00 -0.00000000000E+00 -0.16527512368E+04  0.16527512368E+04  0.00000000000E+00 0. -1.
    9000010    2    1    2  502    0 -0.76858155737E+03 -0.82165395079E+03  0.92327120317E+02  0.15090986120E+04  0.10015096098E+04 0.  0.
   -9000010    2    1    2    0  501  0.76858155737E+03  0.82165395079E+03 -0.33812514165E+03  0.15506058402E+04  0.10120360839E+04 0.  0.
        -13    1    3    3    0    0 -0.97223849196E+03 -0.83555916710E+03 -0.72506063422E+01  0.12819748006E+04  0.10566000000E+00 0.  1.
          4    1    3    3  502    0  0.20365693459E+03  0.13905216308E+02  0.99577726659E+02  0.22712381138E+03  0.00000000000E+00 0.  1.
         13    1    4    4    0    0  0.95823400027E+02 -0.16030713975E+03 -0.30764855433E+03  0.35990019060E+03  0.10566000000E+00 0. -1.
         -4    1    4    4    0  501  0.67275815734E+03  0.98196109054E+03 -0.30476587312E+02  0.11907056496E+04  0.00000000000E+00 0. -1.
<mgrwt>
<rscale>  2 0.15097773E+04</rscale>
<asrwt>0</asrwt>
<pdfrwt beam="2">  1        2 0.25426942E+00 0.15097773E+04</pdfrwt>
<pdfrwt beam="1">  1       -2 0.21645434E+00 0.15097773E+04</pdfrwt>
<totfact> 0.11623775E+00</totfact>
</mgrwt>
</event>
<event>
 8    1  0.7046235E-006  0.2106651E+04  0.7818608E-02  0.8126298E-01
         -1   -1    0    0    0  501 -0.00000000000E+00  0.00000000000E+00  0.25262884187E+04  0.25262884187E+04  0.00000000000E+00 0.  1.
          1   -1    0    0  502    0  0.00000000000E+00 -0.00000000000E+00 -0.22487512410E+04  0.22487512410E+04  0.00000000000E+00 0. -1.
    9000010    2    1    2  502    0 -0.12537015163E+04 -0.13052300495E+04 -0.97505147626E+03  0.23584401925E+04  0.11559073433E+04 0.  0.
   -9000010    2    1    2    0  501  0.12537015163E+04  0.13052300495E+04  0.12525886540E+04  0.24165994672E+04  0.99778839183E+03 0.  0.
        -13    1    3    3    0    0 -0.62106619504E+03 -0.34901472179E+03  0.17595282317E+03  0.73382143727E+03  0.10566000000E+00 0.  1.
          4    1    3    3  502    0 -0.63263532123E+03 -0.95621532769E+03 -0.11510042994E+04  0.16246187552E+04  0.00000000000E+00 0.  1.
         13    1    4    4    0    0  0.10567828090E+04  0.14506389303E+04  0.12188413648E+04  0.21694970605E+04  0.10566000000E+00 0. -1.
         -4    1    4    4    0  501  0.19691870724E+03 -0.14540888087E+03  0.33747289249E+02  0.24710240677E+03  0.00000000000E+00 0. -1.
<mgrwt>
<rscale>  2 0.21066513E+04</rscale>
<asrwt>0</asrwt>
<pdfrwt beam="2">  1        1 0.34596173E+00 0.21066513E+04</pdfrwt>
<pdfrwt beam="1">  1       -1 0.38865976E+00 0.21066513E+04</pdfrwt>
<totfact> 0.22990807E-02</totfact>
</mgrwt>
</event>
<event>
 8    1  0.7046235E-006  0.1139604E+04  0.7818608E-02  0.8653485E-01
         -1   -1    0    0    0  501 -0.00000000000E+00  0.00000000000E+00  0.84692081230E+03  0.84692081230E+03  0.00000000000E+00 0. -1.
          1   -1    0    0  502    0  0.00000000000E+00 -0.00000000000E+00 -0.15463337718E+04  0.15463337718E+04  0.00000000000E+00 0.  1.
    9000010    2    1    2  502    0 -0.33572914819E+03 -0.47818726866E+03 -0.24089070704E+03  0.11662934082E+04  0.98022184045E+03 0.  0.
   -9000010    2    1    2    0  501  0.33572914819E+03  0.47818726866E+03 -0.45852225245E+03  0.12269611759E+04  0.97663398785E+03 0.  0.
        -13    1    3    3    0    0  0.32299129125E+02  0.28744579085E+03 -0.28526621244E+02  0.29065803911E+03  0.10566000000E+00 0.  1.
          4    1    3    3  502    0 -0.36802827732E+03 -0.76563305951E+03 -0.21236408579E+03  0.87563536912E+03  0.00000000000E+00 0.  1.
         13    1    4    4    0    0 -0.25720653601E+03  0.23710940289E+03 -0.47108281596E+03  0.58676665018E+03  0.10566000000E+00 0. -1.
         -4    1    4    4    0  501  0.59293568420E+03  0.24107786578E+03  0.12560563508E+02  0.64019452569E+03  0.00000000000E+00 0. -1.
<mgrwt>
<rscale>  2 0.11396038E+04</rscale>
<asrwt>0</asrwt>
<pdfrwt beam="2">  1        1 0.23789750E+00 0.11396038E+04</pdfrwt>
<pdfrwt beam="1">  1       -1 0.13029551E+00 0.11396038E+04</pdfrwt>
<totfact> 0.44409285E+00</totfact>
</mgrwt>
</event>
<event>
 8    1  0.7046235E-006  0.1007388E+04  0.7818608E-02  0.8767681E-01
          1   -1    0    0  502    0  0.00000000000E+00  0.00000000000E+00  0.29136249282E+03  0.29136249282E+03  0.00000000000E+00 0.  1.
         -1   -1    0    0    0  501 -0.00000000000E+00 -0.00000000000E+00 -0.42701268653E+04  0.42701268653E+04  0.00000000000E+00 0. -1.
    9000010    2    1    2  502    0 -0.12886115035E+01 -0.16980551797E+03 -0.29693367840E+04  0.31357227307E+04  0.99345887317E+03 0.  0.
   -9000010    2    1    2    0  501  0.12886115035E+01  0.16980551797E+03 -0.10094275885E+04  0.14257666274E+04  0.99248720141E+03 0.  0.
        -13    1    3    3    0    0 -0.39861260696E+03 -0.74724536777E+02 -0.55681221225E+03  0.68885094012E+03  0.10566000000E+00 0.  1.
          4    1    3    3  502    0  0.39732399546E+03 -0.95080981197E+02 -0.24125245717E+04  0.24468717906E+04  0.00000000000E+00 0.  1.
         13    1    4    4    0    0  0.47031445745E+03  0.35302862963E+01 -0.29526125168E+03  0.55532636325E+03  0.10566000000E+00 0. -1.
         -4    1    4    4    0  501 -0.46902584595E+03  0.16627523168E+03 -0.71416633682E+03  0.87044026416E+03  0.00000000000E+00 0. -1.
<mgrwt>
<rscale>  2 0.10073881E+04</rscale>
<asrwt>0</asrwt>
<pdfrwt beam="1">  1        1 0.44825001E-01 0.10073881E+04</pdfrwt>
<pdfrwt beam="2">  1       -1 0.65694256E+00 0.10073881E+04</pdfrwt>
<totfact> 0.15328744E-01</totfact>
</mgrwt>
</event>
<event>
 8    1  0.7046235E-006  0.1762767E+04  0.7818608E-02  0.8272484E-01
          1   -1    0    0  502    0  0.00000000000E+00  0.00000000000E+00  0.14769990403E+04  0.14769990403E+04  0.00000000000E+00 0. -1.
         -1   -1    0    0    0  501 -0.00000000000E+00 -0.00000000000E+00 -0.22213102912E+04  0.22213102912E+04  0.00000000000E+00 0.  1.
    9000010    2    1    2  502    0  0.46307109129E+03 -0.12336325421E+04  0.45461334017E+02  0.17953607589E+04  0.12185932205E+04 0.  0.
   -9000010    2    1    2    0  501 -0.46307109129E+03  0.12336325421E+04 -0.78977258489E+03  0.19029485726E+04  0.11230264688E+04 0.  0.
        -13    1    3    3    0    0  0.27645407485E+03  0.18371742710E+03  0.14520421614E+03  0.36230266915E+03  0.10566000000E+00 0.  1.
          4    1    3    3  502    0  0.18661701645E+03 -0.14173499692E+04 -0.99742882126E+02  0.14330580897E+04  0.00000000000E+00 0.  1.
         13    1    4    4    0    0 -0.90680687669E+02  0.67498593432E+03  0.19741878780E+03  0.70908616372E+03  0.10566000000E+00 0. -1.
         -4    1    4    4    0  501 -0.37239040362E+03  0.55864660776E+03 -0.98719137269E+03  0.11938624089E+04  0.00000000000E+00 0. -1.
<mgrwt>
<rscale>  2 0.17627675E+04</rscale>
<asrwt>0</asrwt>
<pdfrwt beam="1">  1        1 0.22723062E+00 0.17627675E+04</pdfrwt>
<pdfrwt beam="2">  1       -1 0.34174004E+00 0.17627675E+04</pdfrwt>
<totfact> 0.81230496E-02</totfact>
</mgrwt>
</event>
<event>
 8    1  0.7046235E-006  0.1502061E+04  0.7818608E-02  0.8408314E-01
         -4   -1    0    0    0  501 -0.00000000000E+00  0.00000000000E+00  0.23283501871E+04  0.23283501871E+04  0.00000000000E+00 0. -1.
          4   -1    0    0  502    0  0.00000000000E+00 -0.00000000000E+00 -0.10520643487E+04  0.10520643487E+04  0.00000000000E+00 0.  1.
    9000010    2    1    2  502    0  0.11324969049E+04 -0.60416936066E+02  0.16194509129E+03  0.15074492184E+04  0.97978440878E+03 0.  0.
   -9000010    2    1    2    0  501 -0.11324969049E+04  0.60416936066E+02  0.11143407471E+04  0.18729653174E+04  0.98997188538E+03 0.  0.
        -13    1    3    3    0    0  0.27750025831E+03 -0.44005302707E+03  0.23139786243E+03  0.56938391433E+03  0.10566000000E+00 0.  1.
          4    1    3    3  502    0  0.85499664662E+03  0.37963609101E+03 -0.69452771143E+02  0.93806530409E+03  0.00000000000E+00 0.  1.
         13    1    4    4    0    0 -0.35530761136E+03 -0.33783303072E+03  0.81254708206E+03  0.94900338622E+03  0.10566000000E+00 0. -1.
         -4    1    4    4    0  501 -0.77718929357E+03  0.39824996678E+03  0.30179366506E+03  0.92396193123E+03  0.00000000000E+00 0. -1.
<mgrwt>
<rscale>  2 0.15020613E+04</rscale>
<asrwt>0</asrwt>
<pdfrwt beam="2">  1        4 0.16185605E+00 0.15020613E+04</pdfrwt>
<pdfrwt beam="1">  1       -4 0.35820772E+00 0.15020613E+04</pdfrwt>
<totfact> 0.88741931E-02</totfact>
</mgrwt>
</event>
<event>
 8    1  0.7046235E-006  0.1561035E+04  0.7818608E-02  0.8375215E-01
          2   -1    0    0  502    0  0.00000000000E+00  0.00000000000E+00  0.20016074549E+04  0.20016074549E+04  0.00000000000E+00 0.  1.
         -2   -1    0    0    0  501 -0.00000000000E+00 -0.00000000000E+00 -0.13118823266E+04  0.13118823266E+04  0.00000000000E+00 0. -1.
    9000010    2    1    2  502    0  0.10860411072E+04 -0.46248358289E+03  0.79304876156E+03  0.17692578117E+04  0.10526017837E+04 0.  0.
   -9000010    2    1    2    0  501 -0.10860411072E+04  0.46248358289E+03 -0.10332363326E+03  0.15442319699E+04  0.99025262074E+03 0.  0.
        -13    1    3    3    0    0  0.71371532685E+03 -0.33470319094E+03 -0.98735486913E+02  0.79445862154E+03  0.10566000000E+00 0.  1.
          4    1    3    3  502    0  0.37232578031E+03 -0.12778039195E+03  0.89178424848E+03  0.97479919013E+03  0.00000000000E+00 0.  1.
         13    1    4    4    0    0 -0.12507008031E+04  0.26018953612E+03 -0.52946640247E+02  0.12785751645E+04  0.10566000000E+00 0. -1.
         -4    1    4    4    0  501  0.16465969592E+03  0.20229404677E+03 -0.50376993017E+02  0.26565680538E+03  0.00000000000E+00 0. -1.
<mgrwt>
<rscale>  2 0.15610348E+04</rscale>
<asrwt>0</asrwt>
<pdfrwt beam="1">  1        2 0.30793961E+00 0.15610348E+04</pdfrwt>
<pdfrwt beam="2">  1       -2 0.20182805E+00 0.15610348E+04</pdfrwt>
<totfact> 0.98273521E-01</totfact>
</mgrwt>
</event>
<event>
 8    1  0.7046235E-006  0.1201285E+04  0.7818608E-02  0.8605595E-01
         -1   -1    0    0    0  501 -0.00000000000E+00  0.00000000000E+00  0.23618276358E+04  0.23618276358E+04  0.00000000000E+00 0. -1.
          1   -1    0    0  502    0  0.00000000000E+00 -0.00000000000E+00 -0.67631293353E+03  0.67631293353E+03  0.00000000000E+00 0.  1.
    9000010    2    1    2  502    0 -0.51174937608E+03  0.38138915534E+03  0.12882551730E+04  0.17361272031E+04  0.97323746474E+03 0.  0.
   -9000010    2    1    2    0  501  0.51174937608E+03 -0.38138915534E+03  0.39725952921E+03  0.13020133662E+04  0.10630515324E+04 0.  0.
        -13    1    3    3    0    0  0.24190887802E+03  0.32182736553E+03  0.52773689144E+03  0.66377631490E+03  0.10566000000E+00 0.  1.
          4    1    3    3  502    0 -0.75365825411E+03  0.59561789803E+02  0.76051828161E+03  0.10723508882E+04  0.00000000000E+00 0.  1.
         13    1    4    4    0    0 -0.19192518478E+03  0.19528139743E+03 -0.65163074014E+02  0.28145397157E+03  0.10566000000E+00 0. -1.
         -4    1    4    4    0  501  0.70367456086E+03 -0.57667055277E+03  0.46242260323E+03  0.10205593946E+04  0.00000000000E+00 0. -1.
<mgrwt>
<rscale>  2 0.12012850E+04</rscale>
<asrwt>0</asrwt>
<pdfrwt beam="2">  1        1 0.10404814E+00 0.12012850E+04</pdfrwt>
<pdfrwt beam="1">  1       -1 0.36335809E+00 0.12012850E+04</pdfrwt>
<totfact> 0.38788547E-01</totfact>
</mgrwt>
</event>
<event>
 8    1  0.7046235E-006  0.1104547E+04  0.7818608E-02  0.8682130E-01
         -2   -1    0    0    0  501 -0.00000000000E+00  0.00000000000E+00  0.95511614838E+03  0.95511614838E+03  0.00000000000E+00 0.  1.
          2   -1    0    0  502    0  0.00000000000E+00 -0.00000000000E+00 -0.13603455625E+04  0.13603455625E+04  0.00000000000E+00 0. -1.
    9000010    2    1    2  502    0  0.52339240223E+03  0.18336245365E+03  0.84606346945E+02  0.10997463857E+04  0.94589771267E+03 0.  0.
   -9000010    2    1    2    0  501 -0.52339240223E+03 -0.18336245365E+03 -0.48983576104E+03  0.12157153252E+04  0.96460524719E+03 0.  0.
        -13    1    3    3    0    0  0.78291248841E+03  0.16744242888E+03 -0.58869576345E+02  0.80277927831E+03  0.10566000000E+00 0.  1.
          4    1    3    3  502    0 -0.25952008618E+03  0.15920024762E+02  0.14347592329E+03  0.29696710741E+03  0.00000000000E+00 0.  1.
         13    1    4    4    0    0  0.18158022698E+03  0.19757080521E+03 -0.27907070844E+03  0.38715122804E+03  0.10566000000E+00 0. -1.
         -4    1    4    4    0  501 -0.70497262921E+03 -0.38093325885E+03 -0.21076505260E+03  0.82856409712E+03  0.00000000000E+00 0. -1.
<mgrwt>
<rscale>  2 0.11045467E+04</rscale>
<asrwt>0</asrwt>
<pdfrwt beam="2">  1        2 0.20928393E+00 0.11045467E+04</pdfrwt>
<pdfrwt beam="1">  1       -2 0.14694095E+00 0.11045467E+04</pdfrwt>
<totfact> 0.67531760E+00</totfact>
</mgrwt>
</event>
<event>
 8    1  0.7046235E-006  0.1335875E+04  0.7818608E-02  0.8510716E-01
         -2   -1    0    0    0  501 -0.00000000000E+00  0.00000000000E+00  0.91443879043E+03  0.91443879043E+03  0.00000000000E+00 0. -1.
          2   -1    0    0  502    0  0.00000000000E+00 -0.00000000000E+00 -0.20035303587E+04  0.20035303587E+04  0.00000000000E+00 0.  1.
    9000010    2    1    2  502    0 -0.74179435803E+03 -0.44845453767E+03 -0.31441891930E+03  0.13836306390E+04  0.10316027076E+04 0.  0.
   -9000010    2    1    2    0  501  0.74179435803E+03  0.44845453767E+03 -0.77467264895E+03  0.15343385101E+04  0.10013523898E+04 0.  0.
        -13    1    3    3    0    0 -0.95788835467E+03 -0.32354277918E+03 -0.38811375487E+02  0.10117985788E+04  0.10566000000E+00 0.  1.
          4    1    3    3  502    0  0.21609399664E+03 -0.12491175849E+03 -0.27560754381E+03  0.37183206021E+03  0.00000000000E+00 0.  1.
         13    1    4    4    0    0  0.41130215622E+03 -0.29323878651E+03 -0.21989293741E+03  0.55091865527E+03  0.10566000000E+00 0. -1.
         -4    1    4    4    0  501  0.33049220181E+03  0.74169332418E+03 -0.55477971154E+03  0.98341985486E+03  0.00000000000E+00 0. -1.
<mgrwt>
<rscale>  2 0.13358746E+04</rscale>
<asrwt>0</asrwt>
<pdfrwt beam="2">  1        2 0.30823544E+00 0.13358746E+04</pdfrwt>
<pdfrwt beam="1">  1       -2 0.14068289E+00 0.13358746E+04</pdfrwt>
<totfact> 0.33369458E+00</totfact>
</mgrwt>
</event>
<event>
 8    1  0.7046235E-006  0.1428383E+04  0.7818608E-02  0.8451946E-01
         -1   -1    0    0    0  501 -0.00000000000E+00  0.00000000000E+00  0.92949751416E+03  0.92949751416E+03  0.00000000000E+00 0. -1.
          1   -1    0    0  502    0  0.00000000000E+00 -0.00000000000E+00 -0.21967962822E+04  0.21967962822E+04  0.00000000000E+00 0.  1.
    9000010    2    1    2  502    0  0.23091119104E+03  0.98149022619E+03 -0.68095018622E+03  0.15912234307E+04  0.10255027100E+04 0.  0.
   -9000010    2    1    2    0  501 -0.23091119104E+03 -0.98149022619E+03 -0.58634858186E+03  0.15350703657E+04  0.99799465221E+03 0.  0.
        -13    1    3    3    0    0 -0.32093461031E+03  0.11456102151E+03 -0.40074240658E+03  0.52603967468E+03  0.10566000000E+00 0.  1.
          4    1    3    3  502    0  0.55184580135E+03  0.86692920468E+03 -0.28020777964E+03  0.10651837561E+04  0.00000000000E+00 0.  1.
         13    1    4    4    0    0  0.22705767561E+03 -0.92978423632E+03 -0.41807276978E+03  0.10444322698E+04  0.10566000000E+00 0. -1.
         -4    1    4    4    0  501 -0.45796886665E+03 -0.51705989875E+02 -0.16827581208E+03  0.49063809589E+03  0.00000000000E+00 0. -1.
<mgrwt>
<rscale>  2 0.14283829E+04</rscale>
<asrwt>0</asrwt>
<pdfrwt beam="2">  1        1 0.33796866E+00 0.14283829E+04</pdfrwt>
<pdfrwt beam="1">  1       -1 0.14299962E+00 0.14283829E+04</pdfrwt>
<totfact> 0.10629078E+00</totfact>
</mgrwt>
</event>
<event>
 8    1  0.7046235E-006  0.1843617E+04  0.7818608E-02  0.8235216E-01
         -2   -1    0    0    0  501 -0.00000000000E+00  0.00000000000E+00  0.13107609998E+04  0.13107609998E+04  0.00000000000E+00 0.  1.
          2   -1    0    0  502    0  0.00000000000E+00 -0.00000000000E+00 -0.42675783002E+04  0.42675783002E+04  0.00000000000E+00 0. -1.
    9000010    2    1    2  502    0  0.15222379609E+04  0.31238768645E+03 -0.32241696411E+04  0.37126663410E+04  0.98682673689E+03 0.  0.
   -9000010    2    1    2    0  501 -0.15222379609E+04 -0.31238768645E+03  0.26735234067E+03  0.18656729590E+04  0.99722807793E+03 0.  0.
        -13    1    3    3    0    0 -0.10177427327E+03  0.16307277059E+03 -0.20398098362E+03  0.28028375631E+03  0.10566000000E+00 0.  1.
          4    1    3    3  502    0  0.16240122342E+04  0.14931491585E+03 -0.30201886574E+04  0.34323825846E+04  0.00000000000E+00 0.  1.
         13    1    4    4    0    0 -0.46713964772E+03 -0.16971046492E+03 -0.37463830445E+03  0.62239453942E+03  0.10566000000E+00 0. -1.
         -4    1    4    4    0  501 -0.10550983132E+04 -0.14267722152E+03  0.64199064512E+03  0.12432784195E+04  0.00000000000E+00 0. -1.
<mgrwt>
<rscale>  2 0.18436172E+04</rscale>
<asrwt>0</asrwt>
<pdfrwt beam="2">  1        2 0.65655051E+00 0.18436172E+04</pdfrwt>
<pdfrwt beam="1">  1       -2 0.20165554E+00 0.18436172E+04</pdfrwt>
<totfact> 0.26128113E-02</totfact>
</mgrwt>
</event>
<event>
 8    1  0.7046235E-006  0.9951497E+03  0.7818608E-02  0.8779162E-01
         -2   -1    0    0    0  501 -0.00000000000E+00  0.00000000000E+00  0.84641199222E+03  0.84641199222E+03  0.00000000000E+00 0.  1.
          2   -1    0    0  502    0  0.00000000000E+00 -0.00000000000E+00 -0.12740810250E+04  0.12740810250E+04  0.00000000000E+00 0. -1.
    9000010    2    1    2  502    0  0.20273344494E+03  0.31354119150E+03 -0.52036379503E+03  0.11993055916E+04  0.10139755887E+04 0.  0.
   -9000010    2    1    2    0  501 -0.20273344494E+03 -0.31354119150E+03  0.92694762278E+02  0.92118742556E+03  0.83700957318E+03 0.  0.
        -13    1    3    3    0    0  0.45019442493E+03 -0.90852430806E+01  0.96482278006E+02  0.46050668075E+03  0.10566000000E+00 0.  1.
          4    1    3    3  502    0 -0.24746097999E+03  0.32262643458E+03 -0.61684607304E+03  0.73879891089E+03  0.00000000000E+00 0.  1.
         13    1    4    4    0    0 -0.91113360865E+02 -0.17675737735E+03  0.46686804680E+03  0.50745502191E+03  0.10566000000E+00 0. -1.
         -4    1    4    4    0  501 -0.11162008408E+03 -0.13678381415E+03 -0.37417328452E+03  0.41373240365E+03  0.00000000000E+00 0. -1.
<mgrwt>
<rscale>  2 0.99514970E+03</rscale>
<asrwt>0</asrwt>
<pdfrwt beam="2">  1        2 0.19601247E+00 0.99514970E+03</pdfrwt>
<pdfrwt beam="1">  1       -2 0.13021723E+00 0.99514970E+03</pdfrwt>
<totfact> 0.10808104E+01</totfact>
</mgrwt>
</event>
<event>
 8    1  0.7046235E-006  0.1347589E+04  0.7818608E-02  0.8503008E-01
          2   -1    0    0  502    0  0.00000000000E+00  0.00000000000E+00  0.16224764523E+04  0.16224764523E+04  0.00000000000E+00 0.  1.
         -2   -1    0    0    0  501 -0.00000000000E+00 -0.00000000000E+00 -0.11401510585E+04  0.11401510585E+04  0.00000000000E+00 0. -1.
    9000010    2    1    2  502    0 -0.14025618507E+03 -0.87324321217E+03  0.55348718797E+02  0.13544802429E+04  0.10243669961E+04 0.  0.
   -9000010    2    1    2    0  501  0.14025618507E+03  0.87324321217E+03  0.42697667502E+03  0.14081472679E+04  0.10091303890E+04 0.  0.
        -13    1    3    3    0    0 -0.63875965048E+02 -0.86285029969E+03 -0.35628038241E+03  0.93569573081E+03  0.10566000000E+00 0.  1.
          4    1    3    3  502    0 -0.76380220018E+02 -0.10392912473E+02  0.41162910121E+03  0.41878451213E+03  0.00000000000E+00 0.  1.
         13    1    4    4    0    0  0.50866063320E+03  0.63702265253E+03  0.27571297653E+02  0.81565537283E+03  0.10566000000E+00 0. -1.
         -4    1    4    4    0  501 -0.36840444814E+03  0.23622055963E+03  0.39940537737E+03  0.59249189503E+03  0.00000000000E+00 0. -1.
<mgrwt>
<rscale>  2 0.13475887E+04</rscale>
<asrwt>0</asrwt>
<pdfrwt beam="1">  1        2 0.24961176E+00 0.13475887E+04</pdfrwt>
<pdfrwt beam="2">  1       -2 0.17540786E+00 0.13475887E+04</pdfrwt>
<totfact> 0.26869158E+00</totfact>
</mgrwt>
</event>
<event>
 8    1  0.7046235E-006  0.1375318E+04  0.7818608E-02  0.8485078E-01
          2   -1    0    0  502    0  0.00000000000E+00  0.00000000000E+00  0.91546099058E+03  0.91546099058E+03  0.00000000000E+00 0.  1.
         -2   -1    0    0    0  501 -0.00000000000E+00 -0.00000000000E+00 -0.20742244190E+04  0.20742244190E+04  0.00000000000E+00 0. -1.
    9000010    2    1    2  502    0 -0.83899501616E+03 -0.43562797045E+03 -0.67296634718E+03  0.15320856619E+04  0.10003591381E+04 0.  0.
   -9000010    2    1    2    0  501  0.83899501616E+03  0.43562797045E+03 -0.48579708125E+03  0.14575997477E+04  0.99745368539E+03 0.  0.
        -13    1    3    3    0    0 -0.89150266667E+03 -0.41611984556E+03 -0.13714992214E+03  0.99334930556E+03  0.10566000000E+00 0.  1.
          4    1    3    3  502    0  0.52507650509E+02 -0.19508124894E+02 -0.53581642504E+03  0.53873635634E+03  0.00000000000E+00 0.  1.
         13    1    4    4    0    0  0.98783560192E+03  0.59740581308E+03 -0.40786351093E+03  0.12243633189E+04  0.10566000000E+00 0. -1.
         -4    1    4    4    0  501 -0.14884058576E+03 -0.16177784263E+03 -0.77933570320E+02  0.23323642879E+03  0.00000000000E+00 0. -1.
<mgrwt>
<rscale>  2 0.13753175E+04</rscale>
<asrwt>0</asrwt>
<pdfrwt beam="1">  1        2 0.14084015E+00 0.13753175E+04</pdfrwt>
<pdfrwt beam="2">  1       -2 0.31911144E+00 0.13753175E+04</pdfrwt>
<totfact> 0.53617333E-01</totfact>
</mgrwt>
</event>
<event>
 8    1  0.7046235E-006  0.1412183E+04  0.7818608E-02  0.8461902E-01
          2   -1    0    0  502    0  0.00000000000E+00  0.00000000000E+00  0.33079910238E+04  0.33079910238E+04  0.00000000000E+00 0.  1.
         -2   -1    0    0    0  501 -0.00000000000E+00 -0.00000000000E+00 -0.63741462007E+03  0.63741462007E+03  0.00000000000E+00 0. -1.
    9000010    2    1    2  502    0  0.88792393802E+03 -0.39591092777E+03  0.18004590628E+04  0.22923469535E+04  0.10334637565E+04 0.  0.
   -9000010    2    1    2    0  501 -0.88792393802E+03  0.39591092777E+03  0.87011734093E+03  0.16530586904E+04  0.10150588478E+04 0.  0.
        -13    1    3    3    0    0  0.64796334511E+03  0.25109278495E+03  0.65421310885E+03  0.95441022952E+03  0.10566000000E+00 0.  1.
          4    1    3    3  502    0  0.23996059291E+03 -0.64700371272E+03  0.11462459540E+04  0.13379367240E+04  0.00000000000E+00 0.  1.
         13    1    4    4    0    0 -0.52337511788E+03 -0.12940496603E+03 -0.40181033984E+02  0.54063082220E+03  0.10566000000E+00 0. -1.
         -4    1    4    4    0  501 -0.36454882014E+03  0.52531589381E+03  0.91029837492E+03  0.11124278682E+04  0.00000000000E+00 0. -1.
<mgrwt>
<rscale>  2 0.14121831E+04</rscale>
<asrwt>0</asrwt>
<pdfrwt beam="1">  1        2 0.50892168E+00 0.14121831E+04</pdfrwt>
<pdfrwt beam="2">  1       -2 0.98063790E-01 0.14121831E+04</pdfrwt>
<totfact> 0.14589202E+00</totfact>
</mgrwt>
</event>
<event>
 8    1  0.7046235E-006  0.1200069E+04  0.7818608E-02  0.8606510E-01
         -1   -1    0    0    0  501 -0.00000000000E+00  0.00000000000E+00  0.88436734598E+03  0.88436734598E+03  0.00000000000E+00 0. -1.
          1   -1    0    0  502    0  0.00000000000E+00 -0.00000000000E+00 -0.17372293492E+04  0.17372293492E+04  0.00000000000E+00 0.  1.
    9000010    2    1    2  502    0 -0.25610912422E+03  0.61603370364E+03 -0.99547772369E+02  0.12074005927E+04  0.10014075218E+04 0.  0.
   -9000010    2    1    2    0  501  0.25610912422E+03 -0.61603370364E+03 -0.75331423086E+03  0.14141961025E+04  0.99366940088E+03 0.  0.
        -13    1    3    3    0    0 -0.58228514302E+03  0.50559960186E+03  0.14547735615E+03  0.78476150358E+03  0.10566000000E+00 0.  1.
          4    1    3    3  502    0  0.32617601880E+03  0.11043410178E+03 -0.24502512852E+03  0.42263908916E+03  0.00000000000E+00 0.  1.
         13    1    4    4    0    0  0.38193131790E+03 -0.71944563249E+03 -0.88643774733E+03  0.12038461034E+04  0.10566000000E+00 0. -1.
         -4    1    4    4    0  501 -0.12582219368E+03  0.10341192884E+03  0.13312351647E+03  0.21034999902E+03  0.00000000000E+00 0. -1.
<mgrwt>
<rscale>  2 0.12000694E+04</rscale>
<asrwt>0</asrwt>
<pdfrwt beam="2">  1        1 0.26726605E+00 0.12000694E+04</pdfrwt>
<pdfrwt beam="1">  1       -1 0.13605652E+00 0.12000694E+04</pdfrwt>
<totfact> 0.28283688E+00</totfact>
</mgrwt>
</event>
<event>
 8    1  0.7046235E-006  0.1255823E+04  0.7818608E-02  0.8565672E-01
          2   -1    0    0  502    0  0.00000000000E+00  0.00000000000E+00  0.26808649362E+04  0.26808649362E+04  0.00000000000E+00 0.  1.
         -2   -1    0    0    0  501 -0.00000000000E+00 -0.00000000000E+00 -0.67285784997E+03  0.67285784997E+03  0.00000000000E+00 0. -1.
    9000010    2    1    2  502    0  0.77517822544E+03 -0.34429121677E+03  0.44082997649E+03  0.13705685098E+04  0.98218595419E+03 0.  0.
   -9000010    2    1    2    0  501 -0.77517822544E+03  0.34429121677E+03  0.15671771097E+04  0.19831542764E+04  0.87029826358E+03 0.  0.
        -13    1    3    3    0    0  0.68823230172E+03 -0.66757207579E+03  0.27799034977E+03  0.99829595974E+03  0.10566000000E+00 0.  1.
          4    1    3    3  502    0  0.86945923727E+02  0.32328085902E+03  0.16283962672E+03  0.37227255001E+03  0.00000000000E+00 0.  1.
         13    1    4    4    0    0 -0.52698332072E+03  0.62895184792E+03  0.91101443493E+03  0.12260665394E+04  0.10566000000E+00 0. -1.
         -4    1    4    4    0  501 -0.24819490472E+03 -0.28466063115E+03  0.65616267476E+03  0.75708773692E+03  0.00000000000E+00 0. -1.
<mgrwt>
<rscale>  2 0.12558226E+04</rscale>
<asrwt>0</asrwt>
<pdfrwt beam="1">  1        2 0.41244075E+00 0.12558226E+04</pdfrwt>
<pdfrwt beam="2">  1       -2 0.10351659E+00 0.12558226E+04</pdfrwt>
<totfact> 0.32004117E+00</totfact>
</mgrwt>
</event>
<event>
 8    1  0.7046235E-006  0.1218463E+04  0.7818608E-02  0.8592787E-01
         -2   -1    0    0    0  501 -0.00000000000E+00  0.00000000000E+00  0.61820850230E+03  0.61820850230E+03  0.00000000000E+00 0.  1.
          2   -1    0    0  502    0  0.00000000000E+00 -0.00000000000E+00 -0.24286380291E+04  0.24286380291E+04  0.00000000000E+00 0. -1.
    9000010    2    1    2  502    0  0.95121669339E+02 -0.70788742058E+03 -0.10616363629E+04  0.16116572065E+04  0.97990532799E+03 0.  0.
   -9000010    2    1    2    0  501 -0.95121669339E+02  0.70788742058E+03 -0.74879316387E+03  0.14351893249E+04  0.99444681305E+03 0.  0.
        -13    1    3    3    0    0 -0.35719370732E+03 -0.34207739526E+03 -0.12675005095E+03  0.51055839575E+03  0.10566000000E+00 0.  1.
          4    1    3    3  502    0  0.45231537666E+03 -0.36581002532E+03 -0.93488631198E+03  0.11010988107E+04  0.00000000000E+00 0.  1.
         13    1    4    4    0    0 -0.85846159507E+02 -0.24318258424E+03 -0.71670295530E+02  0.26766392138E+03  0.10566000000E+00 0. -1.
         -4    1    4    4    0  501 -0.92755098324E+01  0.95107000482E+03 -0.67712286834E+03  0.11675254036E+04  0.00000000000E+00 0. -1.
<mgrwt>
<rscale>  2 0.12184633E+04</rscale>
<asrwt>0</asrwt>
<pdfrwt beam="2">  1        2 0.37363661E+00 0.12184633E+04</pdfrwt>
<pdfrwt beam="1">  1       -2 0.95109002E-01 0.12184633E+04</pdfrwt>
<totfact> 0.54781329E+00</totfact>
</mgrwt>
</event>
<event>
 8    1  0.7046235E-006  0.1132862E+04  0.7818608E-02  0.8658909E-01
          2   -1    0    0  502    0  0.00000000000E+00  0.00000000000E+00  0.30517458000E+04  0.30517458000E+04  0.00000000000E+00 0. -1.
         -2   -1    0    0    0  501 -0.00000000000E+00 -0.00000000000E+00 -0.42700367061E+03  0.42700367061E+03  0.00000000000E+00 0.  1.
    9000010    2    1    2  502    0  0.37441892154E+03  0.26677087786E+03  0.14777495712E+04  0.18405692722E+04  0.99629073098E+03 0.  0.
   -9000010    2    1    2    0  501 -0.37441892154E+03 -0.26677087786E+03  0.11469925582E+04  0.16381801984E+04  0.10754934699E+04 0.  0.
        -13    1    3    3    0    0 -0.14029787826E+03 -0.17146204970E+03  0.97036667193E+03  0.99533623379E+03  0.10566000000E+00 0.  1.
          4    1    3    3  502    0  0.51471679980E+03  0.43823292756E+03  0.50738289922E+03  0.84523303841E+03  0.00000000000E+00 0.  1.
         13    1    4    4    0    0  0.27828440066E+03  0.21534521253E+03  0.42747049207E+03  0.55366668761E+03  0.10566000000E+00 0. -1.
         -4    1    4    4    0  501 -0.65270332220E+03 -0.48211609039E+03  0.71952206617E+03  0.10845135108E+04  0.00000000000E+00 0. -1.
<mgrwt>
<rscale>  2 0.11328623E+04</rscale>
<asrwt>0</asrwt>
<pdfrwt beam="1">  1        2 0.46949934E+00 0.11328623E+04</pdfrwt>
<pdfrwt beam="2">  1       -2 0.65692874E-01 0.11328623E+04</pdfrwt>
<totfact> 0.53570636E+00</totfact>
</mgrwt>
</event>
<event>
 8    1  0.7046235E-006  0.1329373E+04  0.7818608E-02  0.8515029E-01
          1   -1    0    0  502    0  0.00000000000E+00  0.00000000000E+00  0.21426069166E+04  0.21426069166E+04  0.00000000000E+00 0. -1.
         -1   -1    0    0    0  501 -0.00000000000E+00 -0.00000000000E+00 -0.88136190211E+03  0.88136190211E+03  0.00000000000E+00 0.  1.
    9000010    2    1    2  502    0  0.50127920354E+03  0.72272296470E+03  0.24795750096E+03  0.13530649834E+04  0.99784397748E+03 0.  0.
   -9000010    2    1    2    0  501 -0.50127920354E+03 -0.72272296470E+03  0.10132875136E+04  0.16709038354E+04  0.99577041441E+03 0.  0.
        -13    1    3    3    0    0  0.37480406064E+03  0.40361242342E+03  0.63176108576E+03  0.83815461155E+03  0.10566000000E+00 0.  1.
          4    1    3    3  502    0  0.12647514290E+03  0.31911054129E+03 -0.38380358480E+03  0.51491037185E+03  0.00000000000E+00 0.  1.
         13    1    4    4    0    0 -0.43163040522E+03 -0.67006400802E+03  0.15973839832E+03  0.81290033129E+03  0.10566000000E+00 0. -1.
         -4    1    4    4    0  501 -0.69648798319E+02 -0.52658956684E+02  0.85354911525E+03  0.85800350406E+03  0.00000000000E+00 0. -1.
<mgrwt>
<rscale>  2 0.13293735E+04</rscale>
<asrwt>0</asrwt>
<pdfrwt beam="1">  1        1 0.32963183E+00 0.13293735E+04</pdfrwt>
<pdfrwt beam="2">  1       -1 0.13559414E+00 0.13293735E+04</pdfrwt>
<totfact> 0.13812823E+00</totfact>
</mgrwt>
</event>
<event>
 8    1  0.7046235E-006  0.1066384E+04  0.7818608E-02  0.8714601E-01
         -2   -1    0    0    0  501 -0.00000000000E+00  0.00000000000E+00  0.47139744254E+03  0.47139744254E+03  0.00000000000E+00 0. -1.
          2   -1    0    0  502    0  0.00000000000E+00 -0.00000000000E+00 -0.24184209770E+04  0.24184209770E+04  0.00000000000E+00 0.  1.
    9000010    2    1    2  502    0 -0.18071461610E+03  0.36474430071E+03 -0.89392513790E+03  0.13846214102E+04  0.97589862186E+03 0.  0.
   -9000010    2    1    2    0  501  0.18071461610E+03 -0.36474430071E+03 -0.10530983966E+04  0.15051970093E+04  0.99544242757E+03 0.  0.
        -13    1    3    3    0    0 -0.66110168237E+02  0.47712735565E+03 -0.54015643844E+01  0.48171594941E+03  0.10566000000E+00 0.  1.
          4    1    3    3  502    0 -0.11460444786E+03 -0.11238305493E+03 -0.88852357351E+03  0.90290546083E+03  0.00000000000E+00 0.  1.
         13    1    4    4    0    0 -0.26253193009E+03 -0.10538930419E+03  0.51048274401E+02  0.28746453214E+03  0.10566000000E+00 0. -1.
         -4    1    4    4    0  501  0.44324654619E+03 -0.25935499652E+03 -0.11041466710E+04  0.12177324772E+04  0.00000000000E+00 0. -1.
<mgrwt>
<rscale>  2 0.10663840E+04</rscale>
<asrwt>0</asrwt>
<pdfrwt beam="2">  1        2 0.37206476E+00 0.10663840E+04</pdfrwt>
<pdfrwt beam="1">  1       -2 0.72522684E-01 0.10663840E+04</pdfrwt>
<totfact> 0.10330443E+01</totfact>
</mgrwt>
</event>
<event>
 8    1  0.7046235E-006  0.1014162E+04  0.7818608E-02  0.8761398E-01
          2   -1    0    0  502    0  0.00000000000E+00  0.00000000000E+00  0.29934217963E+03  0.29934217963E+03  0.00000000000E+00 0. -1.
         -2   -1    0    0    0  501 -0.00000000000E+00 -0.00000000000E+00 -0.37190371157E+04  0.37190371157E+04  0.00000000000E+00 0.  1.
    9000010    2    1    2  502    0 -0.57868198075E+02 -0.15633472696E+03 -0.22668740757E+04  0.24841042601E+04  0.10021310418E+04 0.  0.
   -9000010    2    1    2    0  501  0.57868198075E+02  0.15633472696E+03 -0.11528208603E+04  0.15342750352E+04  0.99860636503E+03 0.  0.
        -13    1    3    3    0    0 -0.51495509053E+03  0.44003593596E+02 -0.11487295427E+04  0.12596406769E+04  0.10566000000E+00 0.  1.
          4    1    3    3  502    0  0.45708689246E+03 -0.20033832056E+03 -0.11181445330E+04  0.12244635832E+04  0.00000000000E+00 0.  1.
         13    1    4    4    0    0 -0.33990474266E+03 -0.11534181920E+03 -0.94020156347E+02  0.37105089988E+03  0.10566000000E+00 0. -1.
         -4    1    4    4    0  501  0.39777294073E+03  0.27167654616E+03 -0.10588007040E+04  0.11632241353E+04  0.00000000000E+00 0. -1.
<mgrwt>
<rscale>  2 0.10141617E+04</rscale>
<asrwt>0</asrwt>
<pdfrwt beam="1">  1        2 0.46052643E-01 0.10141617E+04</pdfrwt>
<pdfrwt beam="2">  1       -2 0.57215956E+00 0.10141617E+04</pdfrwt>
<totfact> 0.77323470E-01</totfact>
</mgrwt>
</event>
<event>
 8    1  0.7046235E-006  0.1096364E+04  0.7818608E-02  0.8688976E-01
         -2   -1    0    0    0  501 -0.00000000000E+00  0.00000000000E+00  0.60893684879E+03  0.60893684879E+03  0.00000000000E+00 0.  1.
          2   -1    0    0  502    0  0.00000000000E+00 -0.00000000000E+00 -0.20321705314E+04  0.20321705314E+04  0.00000000000E+00 0. -1.
    9000010    2    1    2  502    0  0.31814936902E+03  0.30635765075E+03 -0.49910236529E+03  0.12194020635E+04  0.10211582591E+04 0.  0.
   -9000010    2    1    2    0  501 -0.31814936902E+03 -0.30635765075E+03 -0.92413131736E+03  0.14217053168E+04  0.98597833890E+03 0.  0.
        -13    1    3    3    0    0  0.34123982571E+01  0.50366574064E+03  0.10093030164E+03  0.51369033445E+03  0.10566000000E+00 0.  1.
          4    1    3    3  502    0  0.31473697076E+03 -0.19730808989E+03 -0.60003266693E+03  0.70571172902E+03  0.00000000000E+00 0.  1.
         13    1    4    4    0    0 -0.39685383287E+02  0.26489333730E+03 -0.69722496644E+03  0.74690432773E+03  0.10566000000E+00 0. -1.
         -4    1    4    4    0  501 -0.27846398573E+03 -0.57125098805E+03 -0.22690635092E+03  0.67480098902E+03  0.00000000000E+00 0. -1.
<mgrwt>
<rscale>  2 0.10963642E+04</rscale>
<asrwt>0</asrwt>
<pdfrwt beam="2">  1        2 0.31264161E+00 0.10963642E+04</pdfrwt>
<pdfrwt beam="1">  1       -2 0.93682594E-01 0.10963642E+04</pdfrwt>
<totfact> 0.94839290E+00</totfact>
</mgrwt>
</event>
<event>
 8    1  0.7046235E-006  0.1483876E+04  0.7818608E-02  0.8418840E-01
          2   -1    0    0  502    0  0.00000000000E+00  0.00000000000E+00  0.20759156506E+04  0.20759156506E+04  0.00000000000E+00 0.  1.
         -2   -1    0    0    0  501 -0.00000000000E+00 -0.00000000000E+00 -0.11996950078E+04  0.11996950078E+04  0.00000000000E+00 0. -1.
    9000010    2    1    2  502    0  0.77753870405E+03  0.78913257623E+03  0.99301594502E+03  0.17775414149E+04  0.97276726680E+03 0.  0.
   -9000010    2    1    2    0  501 -0.77753870405E+03 -0.78913257623E+03 -0.11679530222E+03  0.14980692435E+04  0.10016354908E+04 0.  0.
        -13    1    3    3    0    0  0.97639188680E+03  0.64158447084E+03  0.98768856858E+03  0.15298694289E+04  0.10566000000E+00 0.  1.
          4    1    3    3  502    0 -0.19885318275E+03  0.14754810539E+03  0.53273764386E+01  0.24767198597E+03  0.00000000000E+00 0.  1.
         13    1    4    4    0    0 -0.23684466615E+03 -0.69595548464E+01  0.36262896490E+03  0.43317849512E+03  0.10566000000E+00 0. -1.
         -4    1    4    4    0  501 -0.54069403790E+03 -0.78217302138E+03 -0.47942426713E+03  0.10648907483E+04  0.00000000000E+00 0. -1.
<mgrwt>
<rscale>  2 0.14838757E+04</rscale>
<asrwt>0</asrwt>
<pdfrwt beam="1">  1        2 0.31937164E+00 0.14838757E+04</pdfrwt>
<pdfrwt beam="2">  1       -2 0.18456846E+00 0.14838757E+04</pdfrwt>
<totfact> 0.12556401E+00</totfact>
</mgrwt>
</event>
<event>
 8    1  0.7046235E-006  0.1468586E+04  0.7818608E-02  0.8427811E-01
         -2   -1    0    0    0  501 -0.00000000000E+00  0.00000000000E+00  0.92862886499E+03  0.92862886499E+03  0.00000000000E+00 0.  1.
          2   -1    0    0  502    0  0.00000000000E+00 -0.00000000000E+00 -0.35407124796E+04  0.35407124796E+04  0.00000000000E+00 0. -1.
    9000010    2    1    2  502    0 -0.92772372545E+03 -0.66347448382E+03  0.25212621870E+02  0.14323605749E+04  0.86611283262E+03 0.  0.
   -9000010    2    1    2    0  501  0.92772372545E+03  0.66347448382E+03 -0.26372962364E+04  0.30369807696E+04  0.98338754053E+03 0.  0.
        -13    1    3    3    0    0 -0.38296464847E+03 -0.78095801243E+03  0.74002619091E+02  0.87294543813E+03  0.10566000000E+00 0.  1.
          4    1    3    3  502    0 -0.54475907698E+03  0.11748352860E+03 -0.48789997221E+02  0.55941513679E+03  0.00000000000E+00 0.  1.
         13    1    4    4    0    0  0.51259445470E+03  0.81261267023E+03 -0.12215985174E+04  0.15541542316E+04  0.10566000000E+00 0. -1.
         -4    1    4    4    0  501  0.41512927075E+03 -0.14913818641E+03 -0.14156977190E+04  0.14828265380E+04  0.00000000000E+00 0. -1.
<mgrwt>
<rscale>  2 0.14685864E+04</rscale>
<asrwt>0</asrwt>
<pdfrwt beam="2">  1        2 0.54472501E+00 0.14685864E+04</pdfrwt>
<pdfrwt beam="1">  1       -2 0.14286598E+00 0.14685864E+04</pdfrwt>
<totfact> 0.36546161E-01</totfact>
</mgrwt>
</event>
<event>
 8    1  0.7046235E-006  0.1331449E+04  0.7818608E-02  0.8513649E-01
         -2   -1    0    0    0  501 -0.00000000000E+00  0.00000000000E+00  0.11842636215E+04  0.11842636215E+04  0.00000000000E+00 0. -1.
          2   -1    0    0  502    0  0.00000000000E+00 -0.00000000000E+00 -0.14977427082E+04  0.14977427082E+04  0.00000000000E+00 0.  1.
    9000010    2    1    2  502    0  0.62541291605E+03 -0.57622008359E+03 -0.13277185856E+03  0.13156061990E+04  0.99499769057E+03 0.  0.
   -9000010    2    1    2    0  501 -0.62541291605E+03  0.57622008359E+03 -0.18070722808E+03  0.13664001306E+04  0.10541457748E+04 0.  0.
        -13    1    3    3    0    0  0.46214751874E+03 -0.82037173295E+03 -0.28634897380E+03  0.98416759511E+03  0.10566000000E+00 0.  1.
          4    1    3    3  502    0  0.16326539731E+03  0.24415164936E+03  0.15357711525E+03  0.33143860393E+03  0.00000000000E+00 0.  1.
         13    1    4    4    0    0 -0.28164952821E+03  0.21112283284E+03 -0.61132181745E+03  0.70541738208E+03  0.10566000000E+00 0. -1.
         -4    1    4    4    0  501 -0.34376338784E+03  0.36509725074E+03  0.43061458937E+03  0.66098274856E+03  0.00000000000E+00 0. -1.
<mgrwt>
<rscale>  2 0.13314493E+04</rscale>
<asrwt>0</asrwt>
<pdfrwt beam="2">  1        2 0.23042196E+00 0.13314493E+04</pdfrwt>
<pdfrwt beam="1">  1       -2 0.18219440E+00 0.13314493E+04</pdfrwt>
<totfact> 0.27652610E+00</totfact>
</mgrwt>
</event>
<event>
 8    1  0.7046235E-006  0.2479560E+04  0.7818608E-02  0.7997059E-01
         -1   -1    0    0    0  501 -0.00000000000E+00  0.00000000000E+00  0.36624802473E+04  0.36624802473E+04  0.00000000000E+00 0. -1.
          1   -1    0    0  502    0  0.00000000000E+00 -0.00000000000E+00 -0.16941055126E+04  0.16941055126E+04  0.00000000000E+00 0.  1.
    9000010    2    1    2  502    0 -0.13056106285E+03  0.22693846194E+04  0.12409723850E+04  0.27760480148E+04  0.99963862379E+03 0.  0.
   -9000010    2    1    2    0  501  0.13056106285E+03 -0.22693846194E+04  0.72740234968E+03  0.25805377452E+04  0.98127882583E+03 0.  0.
        -13    1    3    3    0    0 -0.15540611168E+03  0.18815256174E+04  0.14058473294E+04  0.23538683976E+04  0.10566000000E+00 0.  1.
          4    1    3    3  502    0  0.24845048826E+02  0.38785900199E+03 -0.16487494439E+03  0.42217961718E+03  0.00000000000E+00 0.  1.
         13    1    4    4    0    0 -0.42344671021E+03 -0.10415973001E+04  0.40870491622E+03  0.11963577106E+04  0.10566000000E+00 0. -1.
         -4    1    4    4    0  501  0.55400777306E+03 -0.12277873193E+04  0.31869743346E+03  0.13841800345E+04  0.00000000000E+00 0. -1.
<mgrwt>
<rscale>  2 0.24795602E+04</rscale>
<asrwt>0</asrwt>
<pdfrwt beam="2">  1        1 0.26063162E+00 0.24795602E+04</pdfrwt>
<pdfrwt beam="1">  1       -1 0.56345850E+00 0.24795602E+04</pdfrwt>
<totfact> 0.23962533E-02</totfact>
</mgrwt>
</event>
<event>
 8    1  0.7046235E-006  0.1114748E+04  0.7818608E-02  0.8673682E-01
          2   -1    0    0  502    0  0.00000000000E+00  0.00000000000E+00  0.17573877151E+04  0.17573877151E+04  0.00000000000E+00 0. -1.
         -2   -1    0    0    0  501 -0.00000000000E+00 -0.00000000000E+00 -0.70833116664E+03  0.70833116664E+03  0.00000000000E+00 0.  1.
    9000010    2    1    2  502    0  0.35524902065E+03  0.34515633623E+03  0.57691250378E+03  0.12575101166E+04  0.10015831934E+04 0.  0.
   -9000010    2    1    2    0  501 -0.35524902065E+03 -0.34515633623E+03  0.47214404466E+03  0.12082087651E+04  0.99574778835E+03 0.  0.
        -13    1    3    3    0    0  0.82362851540E+02  0.61799175517E+02 -0.28879979837E+03  0.30660742345E+03  0.10566000000E+00 0.  1.
          4    1    3    3  502    0  0.27288616911E+03  0.28335716071E+03  0.86571230215E+03  0.95090269319E+03  0.00000000000E+00 0.  1.
         13    1    4    4    0    0 -0.38544159344E+03 -0.44990374309E+03  0.72298052425E+03  0.93470821629E+03  0.10566000000E+00 0. -1.
         -4    1    4    4    0  501  0.30192572791E+02  0.10474740686E+03 -0.25083647959E+03  0.27350054879E+03  0.00000000000E+00 0. -1.
<mgrwt>
<rscale>  2 0.11147477E+04</rscale>
<asrwt>0</asrwt>
<pdfrwt beam="1">  1        2 0.27036734E+00 0.11147477E+04</pdfrwt>
<pdfrwt beam="2">  1       -2 0.10897403E+00 0.11147477E+04</pdfrwt>
<totfact> 0.92607094E+00</totfact>
</mgrwt>
</event>
<event>
 8    1  0.7046235E-006  0.1591226E+04  0.7818608E-02  0.8358850E-01
         -2   -1    0    0    0  501 -0.00000000000E+00  0.00000000000E+00  0.23942569037E+04  0.23942569037E+04  0.00000000000E+00 0.  1.
          2   -1    0    0  502    0  0.00000000000E+00 -0.00000000000E+00 -0.11160003542E+04  0.11160003542E+04  0.00000000000E+00 0. -1.
    9000010    2    1    2  502    0  0.34407495863E+03  0.12038247608E+04  0.10407178534E+04  0.19010212863E+04  0.98143091908E+03 0.  0.
   -9000010    2    1    2    0  501 -0.34407495863E+03 -0.12038247608E+04  0.23753869607E+03  0.16092359715E+04  0.98266685505E+03 0.  0.
        -13    1    3    3    0    0  0.67973972830E+03  0.95807016311E+03  0.75813811709E+03  0.13981122814E+04  0.10566000000E+00 0.  1.
          4    1    3    3  502    0 -0.33566476967E+03  0.24575459769E+03  0.28257973628E+03  0.50290900493E+03  0.00000000000E+00 0.  1.
         13    1    4    4    0    0 -0.12425934854E+03 -0.13310423587E+04  0.18080194750E+03  0.13490009272E+04  0.10566000000E+00 0. -1.
         -4    1    4    4    0  501 -0.21981561009E+03  0.12721759786E+03  0.56736748565E+02  0.26023504430E+03  0.00000000000E+00 0. -1.
<mgrwt>
<rscale>  2 0.15912265E+04</rscale>
<asrwt>0</asrwt>
<pdfrwt beam="2">  1        2 0.17169236E+00 0.15912265E+04</pdfrwt>
<pdfrwt beam="1">  1       -2 0.36834722E+00 0.15912265E+04</pdfrwt>
<totfact> 0.17605703E-01</totfact>
</mgrwt>
</event>
<event>
 8    1  0.7046235E-006  0.1684212E+04  0.7818608E-02  0.8310716E-01
         -4   -1    0    0    0  501 -0.00000000000E+00  0.00000000000E+00  0.15081873794E+04  0.15081873794E+04  0.00000000000E+00 0. -1.
          4   -1    0    0  502    0  0.00000000000E+00 -0.00000000000E+00 -0.19226569022E+04  0.19226569022E+04  0.00000000000E+00 0.  1.
    9000010    2    1    2  502    0 -0.26481787578E+03 -0.13000639628E+04 -0.46210693647E+03  0.17697218905E+04  0.10761402948E+04 0.  0.
   -9000010    2    1    2    0  501  0.26481787578E+03  0.13000639628E+04  0.47637413642E+02  0.16611223911E+04  0.99838041858E+03 0.  0.
        -13    1    3    3    0    0 -0.61499341928E+03 -0.74974483790E+03  0.10849035066E+01  0.96970893359E+03  0.10566000000E+00 0.  1.
          4    1    3    3  502    0  0.35017554350E+03 -0.55031912493E+03 -0.46319183997E+03  0.80001295686E+03  0.00000000000E+00 0.  1.
         13    1    4    4    0    0  0.53194646232E+03  0.36730471763E+03  0.20505395414E+03  0.67817912799E+03  0.10566000000E+00 0. -1.
         -4    1    4    4    0  501 -0.26712858654E+03  0.93275924519E+03 -0.15741654050E+03  0.98294326309E+03  0.00000000000E+00 0. -1.
<mgrwt>
<rscale>  2 0.16842117E+04</rscale>
<asrwt>0</asrwt>
<pdfrwt beam="2">  1        4 0.29579337E+00 0.16842117E+04</pdfrwt>
<pdfrwt beam="1">  1       -4 0.23202883E+00 0.16842117E+04</pdfrwt>
<totfact> 0.83117874E-02</totfact>
</mgrwt>
</event>
<event>
 8    1  0.7046235E-006  0.1099619E+04  0.7818608E-02  0.8686245E-01
         -2   -1    0    0    0  501 -0.00000000000E+00  0.00000000000E+00  0.65101488433E+03  0.65101488433E+03  0.00000000000E+00 0.  1.
          2   -1    0    0  502    0  0.00000000000E+00 -0.00000000000E+00 -0.24824885134E+04  0.24824885134E+04  0.00000000000E+00 0. -1.
    9000010    2    1    2  502    0 -0.15151465300E+03 -0.43289513980E+03 -0.13035002689E+03  0.11086448371E+04  0.10008732953E+04 0.  0.
   -9000010    2    1    2    0  501  0.15151465300E+03  0.43289513980E+03 -0.17011236022E+04  0.20248585607E+04  0.99793576378E+03 0.  0.
        -13    1    3    3    0    0  0.11391528344E+03 -0.66974529447E+03  0.97304553081E+02  0.68629704828E+03  0.10566000000E+00 0.  1.
          4    1    3    3  502    0 -0.26542993644E+03  0.23685015467E+03 -0.22765457997E+03  0.42234778881E+03  0.00000000000E+00 0.  1.
         13    1    4    4    0    0  0.29509698006E+03 -0.63791151019E+02 -0.13878968891E+04  0.14203553515E+04  0.10566000000E+00 0. -1.
         -4    1    4    4    0  501 -0.14358232706E+03  0.49668629082E+03 -0.31322671315E+03  0.60450320922E+03  0.00000000000E+00 0. -1.
<mgrwt>
<rscale>  2 0.10996194E+04</rscale>
<asrwt>0</asrwt>
<pdfrwt beam="2">  1        2 0.38192131E+00 0.10996194E+04</pdfrwt>
<pdfrwt beam="1">  1       -2 0.10015614E+00 0.10996194E+04</pdfrwt>
<totfact> 0.45854623E+00</totfact>
</mgrwt>
</event>
<event>
 8    1  0.7046235E-006  0.1768551E+04  0.7818608E-02  0.8269750E-01
         -2   -1    0    0    0  501 -0.00000000000E+00  0.00000000000E+00  0.13022845808E+04  0.13022845808E+04  0.00000000000E+00 0. -1.
          2   -1    0    0  502    0  0.00000000000E+00 -0.00000000000E+00 -0.24114043762E+04  0.24114043762E+04  0.00000000000E+00 0.  1.
    9000010    2    1    2  502    0 -0.14253139837E+04  0.98233605374E+02 -0.44515940826E+03  0.18430213044E+04  0.10758210057E+04 0.  0.
   -9000010    2    1    2    0  501  0.14253139837E+04 -0.98233605374E+02 -0.66396038715E+03  0.18706676526E+04  0.10086546869E+04 0.  0.
        -13    1    3    3    0    0  0.12404002521E+03 -0.13232070683E+03 -0.17774519803E+03  0.25394500171E+03  0.10566000000E+00 0.  1.
          4    1    3    3  502    0 -0.15493540089E+04  0.23055431220E+03 -0.26741421023E+03  0.15890763027E+04  0.00000000000E+00 0.  1.
         13    1    4    4    0    0  0.10708736752E+04 -0.52283607945E+03 -0.51239848936E+03  0.12971816439E+04  0.10566000000E+00 0. -1.
         -4    1    4    4    0  501  0.35444030850E+03  0.42460247408E+03 -0.15156189779E+03  0.57348600867E+03  0.00000000000E+00 0. -1.
<mgrwt>
<rscale>  2 0.17685514E+04</rscale>
<asrwt>0</asrwt>
<pdfrwt beam="2">  1        2 0.37098529E+00 0.17685514E+04</pdfrwt>
<pdfrwt beam="1">  1       -2 0.20035147E+00 0.17685514E+04</pdfrwt>
<totfact> 0.58828429E-01</totfact>
</mgrwt>
</event>
<event>
 8    1  0.7046235E-006  0.1532683E+04  0.7818608E-02  0.8390934E-01
         -1   -1    0    0    0  501 -0.00000000000E+00  0.00000000000E+00  0.12891793246E+04  0.12891793246E+04  0.00000000000E+00 0. -1.
          1   -1    0    0  502    0  0.00000000000E+00 -0.00000000000E+00 -0.18318215364E+04  0.18318215364E+04  0.00000000000E+00 0.  1.
    9000010    2    1    2  502    0 -0.98482286745E+03  0.61054456805E+03 -0.38366365582E+03  0.15757175272E+04  0.99651752362E+03 0.  0.
   -9000010    2    1    2    0  501  0.98482286745E+03 -0.61054456805E+03 -0.15897855599E+03  0.15452833339E+04  0.10099433899E+04 0.  0.
        -13    1    3    3    0    0 -0.34181134671E+03  0.74886244184E+03 -0.40549308286E+03  0.91763533331E+03  0.10566000000E+00 0.  1.
          4    1    3    3  502    0 -0.64301152075E+03 -0.13831787379E+03  0.21829427035E+02  0.65808219388E+03  0.00000000000E+00 0.  1.
         13    1    4    4    0    0  0.17006279771E+03 -0.54028144038E+03 -0.39919117578E+03  0.69294949020E+03  0.10566000000E+00 0. -1.
         -4    1    4    4    0  501  0.81476006975E+03 -0.70263127670E+02  0.24021261979E+03  0.85233384367E+03  0.00000000000E+00 0. -1.
<mgrwt>
<rscale>  2 0.15326834E+04</rscale>
<asrwt>0</asrwt>
<pdfrwt beam="2">  1        1 0.28181870E+00 0.15326834E+04</pdfrwt>
<pdfrwt beam="1">  1       -1 0.19833528E+00 0.15326834E+04</pdfrwt>
<totfact> 0.65906116E-01</totfact>
</mgrwt>
</event>
<event>
 8    1  0.7046235E-006  0.1143127E+04  0.7818608E-02  0.8650665E-01
          2   -1    0    0  502    0  0.00000000000E+00  0.00000000000E+00  0.23083708439E+04  0.23083708439E+04  0.00000000000E+00 0.  1.
         -2   -1    0    0    0  501 -0.00000000000E+00 -0.00000000000E+00 -0.57523410284E+03  0.57523410284E+03  0.00000000000E+00 0. -1.
    9000010    2    1    2  502    0  0.21312354048E+03  0.53051693710E+03  0.68212146624E+03  0.13280832801E+04  0.98572087338E+03 0.  0.
   -9000010    2    1    2    0  501 -0.21312354048E+03 -0.53051693710E+03  0.10510152748E+04  0.15555216666E+04  0.99405466816E+03 0.  0.
        -13    1    3    3    0    0  0.71862381634E+02  0.75358430218E+03  0.20743977136E+03  0.78491067790E+03  0.10566000000E+00 0.  1.
          4    1    3    3  502    0  0.14126115885E+03 -0.22306736508E+03  0.47468169488E+03  0.54317260223E+03  0.00000000000E+00 0.  1.
         13    1    4    4    0    0  0.27116381560E+03 -0.59904977308E+03  0.61084831220E+03  0.89751106801E+03  0.10566000000E+00 0. -1.
         -4    1    4    4    0  501 -0.48428735609E+03  0.68532835980E+02  0.44016696260E+03  0.65801059858E+03  0.00000000000E+00 0. -1.
<mgrwt>
<rscale>  2 0.11431268E+04</rscale>
<asrwt>0</asrwt>
<pdfrwt beam="1">  1        2 0.35513397E+00 0.11431268E+04</pdfrwt>
<pdfrwt beam="2">  1       -2 0.88497555E-01 0.11431268E+04</pdfrwt>
<totfact> 0.76028998E+00</totfact>
</mgrwt>
</event>
<event>
 8    1  0.7046235E-006  0.1104852E+04  0.7818608E-02  0.8681876E-01
         -2   -1    0    0    0  501 -0.00000000000E+00  0.00000000000E+00  0.60656290088E+03  0.60656290088E+03  0.00000000000E+00 0.  1.
          2   -1    0    0  502    0  0.00000000000E+00 -0.00000000000E+00 -0.20249492388E+04  0.20249492388E+04  0.00000000000E+00 0. -1.
    9000010    2    1    2  502    0  0.64345842842E+02 -0.53749664742E+03 -0.82528473532E+03  0.14039322037E+04  0.99844263976E+03 0.  0.
   -9000010    2    1    2    0  501 -0.64345842842E+02  0.53749664742E+03 -0.59310160260E+03  0.12275799359E+04  0.92851491890E+03 0.  0.
        -13    1    3    3    0    0  0.14044700916E+03 -0.70152517098E+03 -0.18552466832E+03  0.73910915407E+03  0.10566000000E+00 0.  1.
          4    1    3    3  502    0 -0.76101166322E+02  0.16402852356E+03 -0.63976006700E+03  0.66482304968E+03  0.00000000000E+00 0.  1.
         13    1    4    4    0    0  0.19397751768E+03  0.56798431962E+03 -0.22649024385E+02  0.60062172302E+03  0.10566000000E+00 0. -1.
         -4    1    4    4    0  501 -0.25832336052E+03 -0.30487672198E+02 -0.57045257822E+03  0.62695821291E+03  0.00000000000E+00 0. -1.
<mgrwt>
<rscale>  2 0.11048525E+04</rscale>
<asrwt>0</asrwt>
<pdfrwt beam="2">  1        2 0.31153065E+00 0.11048525E+04</pdfrwt>
<pdfrwt beam="1">  1       -2 0.93317370E-01 0.11048525E+04</pdfrwt>
<totfact> 0.96486496E+00</totfact>
</mgrwt>
</event>
<event>
 8    1  0.7046235E-006  0.1392965E+04  0.7818608E-02  0.8473892E-01
          2   -1    0    0  502    0  0.00000000000E+00  0.00000000000E+00  0.35063821292E+04  0.35063821292E+04  0.00000000000E+00 0.  1.
         -2   -1    0    0    0  501 -0.00000000000E+00 -0.00000000000E+00 -0.55478776966E+03  0.55478776966E+03  0.00000000000E+00 0. -1.
    9000010    2    1    2  502    0 -0.93983419449E+03  0.39448701851E+03  0.15001616909E+04  0.20920920624E+04  0.10428114776E+04 0.  0.
   -9000010    2    1    2    0  501  0.93983419449E+03 -0.39448701851E+03  0.14514326687E+04  0.19690778365E+04  0.85539605656E+03 0.  0.
        -13    1    3    3    0    0 -0.50498411196E+03 -0.33615943966E+03  0.58121216200E+03  0.84013076995E+03  0.10566000000E+00 0.  1.
          4    1    3    3  502    0 -0.43485008253E+03  0.73064645817E+03  0.91894952889E+03  0.12519612924E+04  0.00000000000E+00 0.  1.
         13    1    4    4    0    0  0.74509205977E+01  0.98936506473E+02  0.61462468782E+03  0.62258129314E+03  0.10566000000E+00 0. -1.
         -4    1    4    4    0  501  0.93238327389E+03 -0.49342352499E+03  0.83680798084E+03  0.13464965433E+04  0.00000000000E+00 0. -1.
<mgrwt>
<rscale>  2 0.13929649E+04</rscale>
<asrwt>0</asrwt>
<pdfrwt beam="1">  1        2 0.53944339E+00 0.13929649E+04</pdfrwt>
<pdfrwt beam="2">  1       -2 0.85351967E-01 0.13929649E+04</pdfrwt>
<totfact> 0.14637933E+00</totfact>
</mgrwt>
</event>
<event>
 8    1  0.7046235E-006  0.1128256E+04  0.7818608E-02  0.8662638E-01
          2   -1    0    0  502    0  0.00000000000E+00  0.00000000000E+00  0.39220038797E+04  0.39220038797E+04  0.00000000000E+00 0. -1.
         -2   -1    0    0    0  501 -0.00000000000E+00 -0.00000000000E+00 -0.34819279839E+03  0.34819279839E+03  0.00000000000E+00 0.  1.
    9000010    2    1    2  502    0  0.13820866053E+03 -0.48500160759E+03  0.12351228318E+04  0.16748486816E+04  0.10125519756E+04 0.  0.
   -9000010    2    1    2    0  501 -0.13820866053E+03  0.48500160759E+03  0.23386882495E+04  0.25953479965E+04  0.10060021379E+04 0.  0.
        -13    1    3    3    0    0  0.33671372416E+03 -0.13475050705E+02  0.10931444315E+04  0.11439066694E+04  0.10566000000E+00 0.  1.
          4    1    3    3  502    0 -0.19850506363E+03 -0.47152655688E+03  0.14197840032E+03  0.53094201218E+03  0.00000000000E+00 0.  1.
         13    1    4    4    0    0  0.38050325098E+03  0.46929243212E+03  0.13388361660E+04  0.14688432188E+04  0.10566000000E+00 0. -1.
         -4    1    4    4    0  501 -0.51871191151E+03  0.15709175465E+02  0.99985208352E+03  0.11265047777E+04  0.00000000000E+00 0. -1.
<mgrwt>
<rscale>  2 0.11282561E+04</rscale>
<asrwt>0</asrwt>
<pdfrwt beam="1">  1        2 0.60338518E+00 0.11282561E+04</pdfrwt>
<pdfrwt beam="2">  1       -2 0.53568125E-01 0.11282561E+04</pdfrwt>
<totfact> 0.18525513E+00</totfact>
</mgrwt>
</event>
<event>
 8    1  0.7046235E-006  0.1245892E+04  0.7818608E-02  0.8572783E-01
         -2   -1    0    0    0  501 -0.00000000000E+00  0.00000000000E+00  0.16886474665E+04  0.16886474665E+04  0.00000000000E+00 0.  1.
          2   -1    0    0  502    0  0.00000000000E+00 -0.00000000000E+00 -0.91941628599E+03  0.91941628599E+03  0.00000000000E+00 0. -1.
    9000010    2    1    2  502    0 -0.57682922289E+03 -0.49055473634E+03  0.40372672815E+03  0.13180266567E+04  0.10004114629E+04 0.  0.
   -9000010    2    1    2    0  501  0.57682922289E+03  0.49055473634E+03  0.36550445237E+03  0.12900370958E+04  0.97837942642E+03 0.  0.
        -13    1    3    3    0    0 -0.29090128150E+03  0.12743298770E+02  0.63195522745E+03  0.69581130194E+03  0.10566000000E+00 0.  1.
          4    1    3    3  502    0 -0.28592794139E+03 -0.50329803511E+03 -0.22822849931E+03  0.62221535477E+03  0.00000000000E+00 0.  1.
         13    1    4    4    0    0  0.31200438946E+03 -0.27603027998E+03  0.49098871860E+02  0.41946414017E+03  0.10566000000E+00 0. -1.
         -4    1    4    4    0  501  0.26482483344E+03  0.76658501632E+03  0.31640558051E+03  0.87057295561E+03  0.00000000000E+00 0. -1.
<mgrwt>
<rscale>  2 0.12458923E+04</rscale>
<asrwt>0</asrwt>
<pdfrwt beam="2">  1        2 0.14144866E+00 0.12458923E+04</pdfrwt>
<pdfrwt beam="1">  1       -2 0.25979192E+00 0.12458923E+04</pdfrwt>
<totfact> 0.14284132E+00</totfact>
</mgrwt>
</event>
<event>
 8    1  0.7046235E-006  0.1135599E+04  0.7818608E-02  0.8656702E-01
          1   -1    0    0  502    0  0.00000000000E+00  0.00000000000E+00  0.26630742855E+04  0.26630742855E+04  0.00000000000E+00 0. -1.
         -1   -1    0    0    0  501 -0.00000000000E+00 -0.00000000000E+00 -0.76964198894E+03  0.76964198894E+03  0.00000000000E+00 0.  1.
    9000010    2    1    2  502    0 -0.15789201513E+03 -0.50668592685E+03 -0.10178069104E+03  0.11337778422E+04  0.99671077519E+03 0.  0.
   -9000010    2    1    2    0  501  0.15789201513E+03  0.50668592685E+03  0.19952129876E+04  0.22989384323E+04  0.10112282298E+04 0.  0.
        -13    1    3    3    0    0 -0.21917517378E+03 -0.55033430202E+03 -0.47110631526E+03  0.75686641637E+03  0.10566000000E+00 0.  1.
          4    1    3    3  502    0  0.61283158644E+02  0.43648375176E+02  0.36932562421E+03  0.37691142579E+03  0.00000000000E+00 0.  1.
         13    1    4    4    0    0  0.12340492129E+03  0.74044001836E+03  0.86952034821E+03  0.11487148656E+04  0.10566000000E+00 0. -1.
         -4    1    4    4    0  501  0.34487093844E+02 -0.23375409151E+03  0.11256926394E+04  0.11502235666E+04  0.00000000000E+00 0. -1.
<mgrwt>
<rscale>  2 0.11355992E+04</rscale>
<asrwt>0</asrwt>
<pdfrwt beam="1">  1        1 0.40970373E+00 0.11355992E+04</pdfrwt>
<pdfrwt beam="2">  1       -1 0.11840646E+00 0.11355992E+04</pdfrwt>
<totfact> 0.70933340E-01</totfact>
</mgrwt>
</event>
<event>
 8    1  0.7046235E-006  0.1084072E+04  0.7818608E-02  0.8699378E-01
          1   -1    0    0  502    0  0.00000000000E+00  0.00000000000E+00  0.12566813981E+04  0.12566813981E+04  0.00000000000E+00 0. -1.
         -1   -1    0    0    0  501 -0.00000000000E+00 -0.00000000000E+00 -0.97222115028E+03  0.97222115028E+03  0.00000000000E+00 0.  1.
    9000010    2    1    2  502    0  0.45078872120E+02 -0.44339172421E+03  0.36133595358E+03  0.11734196299E+04  0.10235827425E+04 0.  0.
   -9000010    2    1    2    0  501 -0.45078872120E+02  0.44339172421E+03 -0.76875705785E+02  0.10554829185E+04  0.95368023530E+03 0.  0.
        -13    1    3    3    0    0 -0.12939148661E+03  0.26328669220E+03 -0.10197371320E+03  0.31058121071E+03  0.10566000000E+00 0.  1.
          4    1    3    3  502    0  0.17447035874E+03 -0.70667841641E+03  0.46330966678E+03  0.86283841919E+03  0.00000000000E+00 0.  1.
         13    1    4    4    0    0 -0.14267596220E+03  0.35038388166E+02 -0.46258343369E+03  0.48535302938E+03  0.10566000000E+00 0. -1.
         -4    1    4    4    0  501  0.97597090079E+02  0.40835333605E+03  0.38570772791E+03  0.57012988908E+03  0.00000000000E+00 0. -1.
<mgrwt>
<rscale>  2 0.10840719E+04</rscale>
<asrwt>0</asrwt>
<pdfrwt beam="1">  1        1 0.19333560E+00 0.10840719E+04</pdfrwt>
<pdfrwt beam="2">  1       -1 0.14957249E+00 0.10840719E+04</pdfrwt>
<totfact> 0.50047648E+00</totfact>
</mgrwt>
</event>
<event>
 8    1  0.7046235E-006  0.1140899E+04  0.7818608E-02  0.8652447E-01
          4   -1    0    0  502    0  0.00000000000E+00  0.00000000000E+00  0.18859898109E+04  0.18859898109E+04  0.00000000000E+00 0.  1.
         -4   -1    0    0    0  501 -0.00000000000E+00 -0.00000000000E+00 -0.76241281503E+03  0.76241281503E+03  0.00000000000E+00 0. -1.
    9000010    2    1    2  502    0 -0.46967343977E+03  0.24699513535E+03  0.97566420325E+03  0.15125668814E+04  0.10268097176E+04 0.  0.
   -9000010    2    1    2    0  501  0.46967343977E+03 -0.24699513535E+03  0.14791279258E+03  0.11358357445E+04  0.99330000878E+03 0.  0.
        -13    1    3    3    0    0 -0.68258739135E+03 -0.13528808301E+03  0.45035422638E+03  0.82888319601E+03  0.10566000000E+00 0.  1.
          4    1    3    3  502    0  0.21291395158E+03  0.38228321836E+03  0.52530997687E+03  0.68368368535E+03  0.00000000000E+00 0.  1.
         13    1    4    4    0    0  0.43469300438E+03 -0.58358253761E+03  0.26988994118E+03  0.77612317178E+03  0.10566000000E+00 0. -1.
         -4    1    4    4    0  501  0.34980435391E+02  0.33658740226E+03 -0.12197714860E+03  0.35971257276E+03  0.00000000000E+00 0. -1.
<mgrwt>
<rscale>  2 0.11408993E+04</rscale>
<asrwt>0</asrwt>
<pdfrwt beam="1">  1        4 0.29015228E+00 0.11408993E+04</pdfrwt>
<pdfrwt beam="2">  1       -4 0.11729428E+00 0.11408993E+04</pdfrwt>
<totfact> 0.23809262E-01</totfact>
</mgrwt>
</event>
<event>
 8    1  0.7046235E-006  0.1113485E+04  0.7818608E-02  0.8674723E-01
          2   -1    0    0  502    0  0.00000000000E+00  0.00000000000E+00  0.66082544959E+03  0.66082544959E+03  0.00000000000E+00 0. -1.
         -2   -1    0    0    0  501 -0.00000000000E+00 -0.00000000000E+00 -0.19809693642E+04  0.19809693642E+04  0.00000000000E+00 0.  1.
    9000010    2    1    2  502    0 -0.32379114862E+03  0.40058166802E+03 -0.96139731788E+03  0.14678873467E+04  0.98239609069E+03 0.  0.
   -9000010    2    1    2    0  501  0.32379114862E+03 -0.40058166802E+03 -0.35874659676E+03  0.11739074672E+04  0.99199457663E+03 0.  0.
        -13    1    3    3    0    0  0.33653475535E+03  0.14768407553E+03 -0.51134430071E+03  0.62971361170E+03  0.10566000000E+00 0.  1.
          4    1    3    3  502    0 -0.66032590397E+03  0.25289759248E+03 -0.45005301717E+03  0.83817373497E+03  0.00000000000E+00 0.  1.
         13    1    4    4    0    0  0.59468786730E+03  0.27043908311E+02 -0.94104184801E+02  0.60269448417E+03  0.10566000000E+00 0. -1.
         -4    1    4    4    0  501 -0.27089671868E+03 -0.42762557633E+03 -0.26464241196E+03  0.57121298298E+03  0.00000000000E+00 0. -1.
<mgrwt>
<rscale>  2 0.11134845E+04</rscale>
<asrwt>0</asrwt>
<pdfrwt beam="1">  1        2 0.10166545E+00 0.11134845E+04</pdfrwt>
<pdfrwt beam="2">  1       -2 0.30476452E+00 0.11134845E+04</pdfrwt>
<totfact> 0.10413754E+00</totfact>
</mgrwt>
</event>
<event>
 8    1  0.7046235E-006  0.1153541E+04  0.7818608E-02  0.8642393E-01
         -2   -1    0    0    0  501 -0.00000000000E+00  0.00000000000E+00  0.43414782954E+03  0.43414782954E+03  0.00000000000E+00 0.  1.
          2   -1    0    0  502    0  0.00000000000E+00 -0.00000000000E+00 -0.32790956006E+04  0.32790956006E+04  0.00000000000E+00 0. -1.
    9000010    2    1    2  502    0 -0.38230460400E+03  0.46872841109E+03 -0.18885489492E+04  0.22092864868E+04  0.97389245495E+03 0.  0.
   -9000010    2    1    2    0  501  0.38230460400E+03 -0.46872841109E+03 -0.95639882190E+03  0.15039569433E+04  0.99061831563E+03 0.  0.
        -13    1    3    3    0    0 -0.32355478792E+03 -0.11753249276E+03 -0.14065225080E+04  0.14480356226E+04  0.10566000000E+00 0.  1.
          4    1    3    3  502    0 -0.58749816079E+02  0.58626090385E+03 -0.48202644117E+03  0.76125086421E+03  0.00000000000E+00 0.  1.
         13    1    4    4    0    0  0.40065655899E+03 -0.76450781539E+03 -0.68159666979E+03  0.10998053962E+04  0.10566000000E+00 0. -1.
         -4    1    4    4    0  501 -0.18351954984E+02  0.29577940430E+03 -0.27480215211E+03  0.40415154715E+03  0.00000000000E+00 0. -1.
<mgrwt>
<rscale>  2 0.11535412E+04</rscale>
<asrwt>0</asrwt>
<pdfrwt beam="2">  1        2 0.50447626E+00 0.11535412E+04</pdfrwt>
<pdfrwt beam="1">  1       -2 0.66791972E-01 0.11535412E+04</pdfrwt>
<totfact> 0.36918553E+00</totfact>
</mgrwt>
</event>
<event>
 8    1  0.7046235E-006  0.1098345E+04  0.7818608E-02  0.8687313E-01
          1   -1    0    0  502    0  0.00000000000E+00  0.00000000000E+00  0.15006606301E+04  0.15006606301E+04  0.00000000000E+00 0.  1.
         -1   -1    0    0    0  501 -0.00000000000E+00 -0.00000000000E+00 -0.86558153510E+03  0.86558153510E+03  0.00000000000E+00 0. -1.
    9000010    2    1    2  502    0  0.22413381531E+03  0.34063103979E+03  0.63808637854E+03  0.12879323657E+04  0.10418013628E+04 0.  0.
   -9000010    2    1    2    0  501 -0.22413381531E+03 -0.34063103979E+03 -0.30072835007E+01  0.10783097996E+04  0.99823720012E+03 0.  0.
        -13    1    3    3    0    0 -0.12829034265E+03  0.63733516476E+03  0.44819059833E+03  0.78963874515E+03  0.10566000000E+00 0.  1.
          4    1    3    3  502    0  0.35242415796E+03 -0.29670412497E+03  0.18989578021E+03  0.49829362050E+03  0.00000000000E+00 0.  1.
         13    1    4    4    0    0  0.29635616652E+03  0.83399094255E+02  0.21150709696E+03  0.37352061467E+03  0.10566000000E+00 0. -1.
         -4    1    4    4    0  501 -0.52048998182E+03 -0.42403013405E+03 -0.21451438046E+03  0.70478918492E+03  0.00000000000E+00 0. -1.
<mgrwt>
<rscale>  2 0.10983447E+04</rscale>
<asrwt>0</asrwt>
<pdfrwt beam="1">  1        1 0.23087087E+00 0.10983447E+04</pdfrwt>
<pdfrwt beam="2">  1       -1 0.13316639E+00 0.10983447E+04</pdfrwt>
<totfact> 0.45541900E+00</totfact>
</mgrwt>
</event>
<event>
 8    1  0.7046235E-006  0.1259552E+04  0.7818608E-02  0.8563019E-01
         -2   -1    0    0    0  501 -0.00000000000E+00  0.00000000000E+00  0.86850258108E+03  0.86850258108E+03  0.00000000000E+00 0. -1.
          2   -1    0    0  502    0  0.00000000000E+00 -0.00000000000E+00 -0.20181558924E+04  0.20181558924E+04  0.00000000000E+00 0.  1.
    9000010    2    1    2  502    0  0.45650443765E+03 -0.61250256658E+03 -0.10198085560E+04  0.16213972531E+04  0.10026783461E+04 0.  0.
   -9000010    2    1    2    0  501 -0.45650443765E+03  0.61250256658E+03 -0.12984475530E+03  0.12652612204E+04  0.10002352721E+04 0.  0.
        -13    1    3    3    0    0  0.73489312895E+03 -0.49968118438E+03 -0.49640276463E+03  0.10179218599E+04  0.10566000000E+00 0.  1.
          4    1    3    3  502    0 -0.27838869130E+03 -0.11282138220E+03 -0.52340579137E+03  0.60347539317E+03  0.00000000000E+00 0.  1.
         13    1    4    4    0    0  0.59520590197E+02  0.36536446305E+03  0.35680029841E+03  0.51414040459E+03  0.10566000000E+00 0. -1.
         -4    1    4    4    0  501 -0.51602502785E+03  0.24713810353E+03 -0.48664505371E+03  0.75112081577E+03  0.00000000000E+00 0. -1.
<mgrwt>
<rscale>  2 0.12595519E+04</rscale>
<asrwt>0</asrwt>
<pdfrwt beam="2">  1        2 0.31048552E+00 0.12595519E+04</pdfrwt>
<pdfrwt beam="1">  1       -2 0.13361578E+00 0.12595519E+04</pdfrwt>
<totfact> 0.38298556E+00</totfact>
</mgrwt>
</event>
<event>
 8    1  0.7046235E-006  0.1159631E+04  0.7818608E-02  0.8637598E-01
          1   -1    0    0  502    0  0.00000000000E+00  0.00000000000E+00  0.12941300130E+04  0.12941300130E+04  0.00000000000E+00 0. -1.
         -1   -1    0    0    0  501 -0.00000000000E+00 -0.00000000000E+00 -0.10892687670E+04  0.10892687670E+04  0.00000000000E+00 0.  1.
    9000010    2    1    2  502    0  0.21436388684E+03 -0.55464677727E+03 -0.15324685019E+03  0.11702653114E+04  0.99621853949E+03 0.  0.
   -9000010    2    1    2    0  501 -0.21436388684E+03  0.55464677727E+03  0.35810809619E+03  0.12131334686E+04  0.99492033884E+03 0.  0.
        -13    1    3    3    0    0  0.24724409453E+03 -0.35034880939E+03 -0.56508633151E+03  0.70936344968E+03  0.10566000000E+00 0.  1.
          4    1    3    3  502    0 -0.32880207693E+02 -0.20429796788E+03  0.41183948133E+03  0.46090186170E+03  0.00000000000E+00 0.  1.
         13    1    4    4    0    0  0.61097652179E+02 -0.48762458046E+02 -0.28121382694E+03  0.29187656302E+03  0.10566000000E+00 0. -1.
         -4    1    4    4    0  501 -0.27546153902E+03  0.60340923531E+03  0.63932192312E+03  0.92125690560E+03  0.00000000000E+00 0. -1.
<mgrwt>
<rscale>  2 0.11596306E+04</rscale>
<asrwt>0</asrwt>
<pdfrwt beam="1">  1        1 0.19909693E+00 0.11596306E+04</pdfrwt>
<pdfrwt beam="2">  1       -1 0.16757981E+00 0.11596306E+04</pdfrwt>
<totfact> 0.32451523E+00</totfact>
</mgrwt>
</event>
<event>
 8    1  0.7046235E-006  0.1184609E+04  0.7818608E-02  0.8618243E-01
         -1   -1    0    0    0  501 -0.00000000000E+00  0.00000000000E+00  0.51700074993E+03  0.51700074993E+03  0.00000000000E+00 0. -1.
          1   -1    0    0  502    0  0.00000000000E+00 -0.00000000000E+00 -0.30437098128E+04  0.30437098128E+04  0.00000000000E+00 0.  1.
    9000010    2    1    2  502    0  0.58176941808E+03  0.29311948000E+03 -0.67566496025E+03  0.13619227052E+04  0.98688177163E+03 0.  0.
   -9000010    2    1    2    0  501 -0.58176941808E+03 -0.29311948000E+03 -0.18510441027E+04  0.21987878575E+04  0.99193199719E+03 0.  0.
        -13    1    3    3    0    0  0.50723681700E+03 -0.27210615770E+03 -0.17086360365E+03  0.60043761690E+03  0.10566000000E+00 0.  1.
          4    1    3    3  502    0  0.74532601083E+02  0.56522563770E+03 -0.50480135660E+03  0.76148508834E+03  0.00000000000E+00 0.  1.
         13    1    4    4    0    0  0.62495207314E+02  0.21306265435E+03 -0.97231828041E+03  0.99734858259E+03  0.10566000000E+00 0. -1.
         -4    1    4    4    0  501 -0.64426462539E+03 -0.50618213435E+03 -0.87872582225E+03  0.12014392749E+04  0.00000000000E+00 0. -1.
<mgrwt>
<rscale>  2 0.11846089E+04</rscale>
<asrwt>0</asrwt>
<pdfrwt beam="2">  1        1 0.46826305E+00 0.11846089E+04</pdfrwt>
<pdfrwt beam="1">  1       -1 0.79538577E-01 0.11846089E+04</pdfrwt>
<totfact> 0.67638908E-01</totfact>
</mgrwt>
</event>
<event>
 8    1  0.7046235E-006  0.1095058E+04  0.7818608E-02  0.8690075E-01
          1   -1    0    0  502    0  0.00000000000E+00  0.00000000000E+00  0.14398994788E+04  0.14398994788E+04  0.00000000000E+00 0. -1.
         -1   -1    0    0    0  501 -0.00000000000E+00 -0.00000000000E+00 -0.86638357545E+03  0.86638357545E+03  0.00000000000E+00 0.  1.
    9000010    2    1    2  502    0 -0.98311088542E+02  0.51415570115E+03  0.69895694474E+02  0.11286688942E+04  0.99749030548E+03 0.  0.
   -9000010    2    1    2    0  501  0.98311088542E+02 -0.51415570115E+03  0.50362020884E+03  0.11776141600E+04  0.92688760909E+03 0.  0.
        -13    1    3    3    0    0  0.31347993085E+03  0.58243221123E+03 -0.11634876886E+03  0.67159064534E+03  0.10566000000E+00 0.  1.
          4    1    3    3  502    0 -0.41179101940E+03 -0.68276510075E+02  0.18624446334E+03  0.45707824889E+03  0.00000000000E+00 0.  1.
         13    1    4    4    0    0  0.22400142317E+03 -0.75471230281E+03  0.31936097882E+03  0.84956385490E+03  0.10566000000E+00 0. -1.
         -4    1    4    4    0  501 -0.12569033463E+03  0.24055660166E+03  0.18425923001E+03  0.32805030508E+03  0.00000000000E+00 0. -1.
<mgrwt>
<rscale>  2 0.10950581E+04</rscale>
<asrwt>0</asrwt>
<pdfrwt beam="1">  1        1 0.22152300E+00 0.10950581E+04</pdfrwt>
<pdfrwt beam="2">  1       -1 0.13328978E+00 0.10950581E+04</pdfrwt>
<totfact> 0.50428528E+00</totfact>
</mgrwt>
</event>
<event>
 8    1  0.7046235E-006  0.1061025E+04  0.7818608E-02  0.8719274E-01
         -2   -1    0    0    0  501 -0.00000000000E+00  0.00000000000E+00  0.43598028177E+03  0.43598028177E+03  0.00000000000E+00 0.  1.
          2   -1    0    0  502    0  0.00000000000E+00 -0.00000000000E+00 -0.26552069342E+04  0.26552069342E+04  0.00000000000E+00 0. -1.
    9000010    2    1    2  502    0 -0.17684068832E+02  0.35646073217E+03 -0.13675359302E+04  0.17318304127E+04  0.10008521759E+04 0.  0.
   -9000010    2    1    2    0  501  0.17684068832E+02 -0.35646073217E+03 -0.85169072228E+03  0.13593568033E+04  0.99754541373E+03 0.  0.
        -13    1    3    3    0    0 -0.23185207108E+03 -0.28894877483E+03 -0.36219670762E+03  0.51810543668E+03  0.10566000000E+00 0.  1.
          4    1    3    3  502    0  0.21416800225E+03  0.64540950700E+03 -0.10053392226E+04  0.12137249760E+04  0.00000000000E+00 0.  1.
         13    1    4    4    0    0  0.33487531242E+03  0.16947753072E+03 -0.99529402585E+02  0.38829141303E+03  0.10566000000E+00 0. -1.
         -4    1    4    4    0  501 -0.31719124359E+03 -0.52593826289E+03 -0.75216131969E+03  0.97106539029E+03  0.00000000000E+00 0. -1.
<mgrwt>
<rscale>  2 0.10610246E+04</rscale>
<asrwt>0</asrwt>
<pdfrwt beam="2">  1        2 0.40849337E+00 0.10610246E+04</pdfrwt>
<pdfrwt beam="1">  1       -2 0.67073890E-01 0.10610246E+04</pdfrwt>
<totfact> 0.89510858E+00</totfact>
</mgrwt>
</event>
<event>
 8    1  0.7046235E-006  0.1606430E+04  0.7818608E-02  0.8350751E-01
          2   -1    0    0  502    0  0.00000000000E+00  0.00000000000E+00  0.36664551035E+04  0.36664551035E+04  0.00000000000E+00 0.  1.
         -2   -1    0    0    0  501 -0.00000000000E+00 -0.00000000000E+00 -0.83964277106E+03  0.83964277106E+03  0.00000000000E+00 0. -1.
    9000010    2    1    2  502    0 -0.53985924069E+03 -0.99609771285E+03  0.44603082924E+03  0.15774428427E+04  0.10028578005E+04 0.  0.
   -9000010    2    1    2    0  501  0.53985924069E+03  0.99609771285E+03  0.23807815032E+04  0.29286550318E+04  0.12748494328E+04 0.  0.
        -13    1    3    3    0    0 -0.23739960146E+03 -0.99642450985E+03 -0.16910346753E+02  0.10244541696E+04  0.10566000000E+00 0.  1.
          4    1    3    3  502    0 -0.30245963923E+03  0.32679699678E+00  0.46294117599E+03  0.55298867311E+03  0.00000000000E+00 0.  1.
         13    1    4    4    0    0 -0.27407958516E+03  0.71798474291E+03  0.15634111771E+04  0.17420896159E+04  0.10566000000E+00 0. -1.
         -4    1    4    4    0  501  0.81393882586E+03  0.27811296994E+03  0.81737032608E+03  0.11865654159E+04  0.00000000000E+00 0. -1.
<mgrwt>
<rscale>  2 0.16064299E+04</rscale>
<asrwt>0</asrwt>
<pdfrwt beam="1">  1        2 0.56407001E+00 0.16064299E+04</pdfrwt>
<pdfrwt beam="2">  1       -2 0.12917581E+00 0.16064299E+04</pdfrwt>
<totfact> 0.38185365E-01</totfact>
</mgrwt>
</event>
<event>
 8    1  0.7046235E-006  0.1221608E+04  0.7818608E-02  0.8590466E-01
         -2   -1    0    0    0  501 -0.00000000000E+00  0.00000000000E+00  0.89885080833E+03  0.89885080833E+03  0.00000000000E+00 0. -1.
          2   -1    0    0  502    0  0.00000000000E+00 -0.00000000000E+00 -0.19253384355E+04  0.19253384355E+04  0.00000000000E+00 0.  1.
    9000010    2    1    2  502    0 -0.17677864598E+03 -0.70346689254E+03  0.61529576132E+01  0.12337724117E+04  0.99801810924E+03 0.  0.
   -9000010    2    1    2    0  501  0.17677864598E+03  0.70346689254E+03 -0.10326405847E+04  0.15904168321E+04  0.96796836931E+03 0.  0.
        -13    1    3    3    0    0  0.57986136904E+02  0.24748504809E+03  0.64944772766E+01  0.25427038856E+03  0.10566000000E+00 0.  1.
          4    1    3    3  502    0 -0.23476478288E+03 -0.95095194063E+03 -0.34151966336E+00  0.97950202313E+03  0.00000000000E+00 0.  1.
         13    1    4    4    0    0  0.38827595657E+03  0.33523187387E+03 -0.44503899232E+02  0.51489730619E+03  0.10566000000E+00 0. -1.
         -4    1    4    4    0  501 -0.21149731059E+03  0.36823501867E+03 -0.98813668550E+03  0.10755195259E+04  0.00000000000E+00 0. -1.
<mgrwt>
<rscale>  2 0.12216078E+04</rscale>
<asrwt>0</asrwt>
<pdfrwt beam="2">  1        2 0.29620591E+00 0.12216078E+04</pdfrwt>
<pdfrwt beam="1">  1       -2 0.13828474E+00 0.12216078E+04</pdfrwt>
<totfact> 0.39172661E+00</totfact>
</mgrwt>
</event>
<event>
 8    1  0.7046235E-006  0.1354861E+04  0.7818608E-02  0.8498263E-01
         -1   -1    0    0    0  501 -0.00000000000E+00  0.00000000000E+00  0.12253847456E+04  0.12253847456E+04  0.00000000000E+00 0. -1.
          1   -1    0    0  502    0  0.00000000000E+00 -0.00000000000E+00 -0.22132618544E+04  0.22132618544E+04  0.00000000000E+00 0.  1.
    9000010    2    1    2  502    0 -0.40589794021E+03  0.80361244939E+03  0.47522974474E+03  0.14649557456E+04  0.10534258017E+04 0.  0.
   -9000010    2    1    2    0  501  0.40589794021E+03 -0.80361244939E+03 -0.14631068536E+04  0.19736908544E+04  0.97171385556E+03 0.  0.
        -13    1    3    3    0    0  0.20583481487E+03  0.37531346930E+03  0.56931969226E+03  0.71228722746E+03  0.10566000000E+00 0.  1.
          4    1    3    3  502    0 -0.61173275508E+03  0.42829898008E+03 -0.94089947519E+02  0.75266851814E+03  0.00000000000E+00 0.  1.
         13    1    4    4    0    0  0.36013401561E+03 -0.10173916790E+04 -0.13473722404E+04  0.17263239276E+04  0.10566000000E+00 0. -1.
         -4    1    4    4    0  501  0.45763924600E+02  0.21377922957E+03 -0.11573461316E+03  0.24736692679E+03  0.00000000000E+00 0. -1.
<mgrwt>
<rscale>  2 0.13548613E+04</rscale>
<asrwt>0</asrwt>
<pdfrwt beam="2">  1        1 0.34050182E+00 0.13548613E+04</pdfrwt>
<pdfrwt beam="1">  1       -1 0.18852073E+00 0.13548613E+04</pdfrwt>
<totfact> 0.41740600E-01</totfact>
</mgrwt>
</event>
<event>
 8    1  0.7046235E-006  0.1676856E+04  0.7818608E-02  0.8314406E-01
         -2   -1    0    0    0  501 -0.00000000000E+00  0.00000000000E+00  0.72291605845E+03  0.72291605845E+03  0.00000000000E+00 0. -1.
          2   -1    0    0  502    0  0.00000000000E+00 -0.00000000000E+00 -0.40616401342E+04  0.40616401342E+04  0.00000000000E+00 0.  1.
    9000010    2    1    2  502    0  0.11354800162E+04 -0.68697238412E+03 -0.11681052761E+04  0.20358209460E+04  0.10093815257E+04 0.  0.
   -9000010    2    1    2    0  501 -0.11354800162E+04  0.68697238412E+03 -0.21706187996E+04  0.27487352466E+04  0.10405352273E+04 0.  0.
        -13    1    3    3    0    0  0.62224288806E+03 -0.67426225107E+01 -0.98364618292E+03  0.11639551104E+04  0.10566000000E+00 0.  1.
          4    1    3    3  502    0  0.51323712811E+03 -0.68022976161E+03 -0.18445909322E+03  0.87186583562E+03  0.00000000000E+00 0.  1.
         13    1    4    4    0    0 -0.60598671034E+03 -0.20411734691E+03 -0.97965716569E+03  0.11698768986E+04  0.10566000000E+00 0. -1.
         -4    1    4    4    0  501 -0.52949330582E+03  0.89108973103E+03 -0.11909616339E+04  0.15788583480E+04  0.00000000000E+00 0. -1.
<mgrwt>
<rscale>  2 0.16768563E+04</rscale>
<asrwt>0</asrwt>
<pdfrwt beam="2">  1        2 0.62486771E+00 0.16768563E+04</pdfrwt>
<pdfrwt beam="1">  1       -2 0.11121786E+00 0.16768563E+04</pdfrwt>
<totfact> 0.26083561E-01</totfact>
</mgrwt>
</event>
<event>
 8    1  0.7046235E-006  0.1016840E+04  0.7818608E-02  0.8758928E-01
         -2   -1    0    0    0  501 -0.00000000000E+00  0.00000000000E+00  0.56815137629E+03  0.56815137629E+03  0.00000000000E+00 0.  1.
          2   -1    0    0  502    0  0.00000000000E+00 -0.00000000000E+00 -0.18489622036E+04  0.18489622036E+04  0.00000000000E+00 0. -1.
    9000010    2    1    2  502    0 -0.16886301194E+03  0.10283536371E+03 -0.48602469053E+03  0.11228257244E+04  0.99268715053E+03 0.  0.
   -9000010    2    1    2    0  501  0.16886301194E+03 -0.10283536371E+03 -0.79478613679E+03  0.12942878555E+04  0.10022006888E+04 0.  0.
        -13    1    3    3    0    0 -0.42209499543E+03  0.34235951689E+03 -0.23932424819E+02  0.54401010661E+03  0.10566000000E+00 0.  1.
          4    1    3    3  502    0  0.25323198349E+03 -0.23952415318E+03 -0.46209226571E+03  0.57881561783E+03  0.00000000000E+00 0.  1.
         13    1    4    4    0    0 -0.21981220306E+03  0.35019568970E+03 -0.42055544715E+03  0.58976378406E+03  0.10566000000E+00 0. -1.
         -4    1    4    4    0  501  0.38867521500E+03 -0.45303105341E+03 -0.37423068964E+03  0.70452407140E+03  0.00000000000E+00 0. -1.
<mgrwt>
<rscale>  2 0.10168399E+04</rscale>
<asrwt>0</asrwt>
<pdfrwt beam="2">  1        2 0.28445572E+00 0.10168399E+04</pdfrwt>
<pdfrwt beam="1">  1       -2 0.87407904E-01 0.10168399E+04</pdfrwt>
<totfact> 0.14120137E+01</totfact>
</mgrwt>
</event>
<event>
 8    1  0.7046235E-006  0.1173905E+04  0.7818608E-02  0.8626476E-01
          1   -1    0    0  502    0  0.00000000000E+00  0.00000000000E+00  0.18959014910E+04  0.18959014910E+04  0.00000000000E+00 0.  1.
         -1   -1    0    0    0  501 -0.00000000000E+00 -0.00000000000E+00 -0.74340270421E+03  0.74340270421E+03  0.00000000000E+00 0. -1.
    9000010    2    1    2  502    0 -0.33984388878E+03  0.32959211484E+03  0.42031191368E+03  0.13052157941E+04  0.11414032300E+04 0.  0.
   -9000010    2    1    2    0  501  0.33984388878E+03 -0.32959211484E+03  0.73218687315E+03  0.13340884012E+04  0.10097372995E+04 0.  0.
        -13    1    3    3    0    0 -0.54120163839E+03 -0.26766142176E+03  0.17212659736E+03  0.62782913820E+03  0.10566000000E+00 0.  1.
          4    1    3    3  502    0  0.20135774961E+03  0.59725353660E+03  0.24818531632E+03  0.67738665587E+03  0.00000000000E+00 0.  1.
         13    1    4    4    0    0 -0.28324889317E+03 -0.29624645922E+03  0.55480840468E+02  0.41360613500E+03  0.10566000000E+00 0. -1.
         -4    1    4    4    0  501  0.62309278196E+03 -0.33345655620E+02  0.67670603268E+03  0.92048226617E+03  0.00000000000E+00 0. -1.
<mgrwt>
<rscale>  2 0.11739049E+04</rscale>
<asrwt>0</asrwt>
<pdfrwt beam="1">  1        1 0.29167715E+00 0.11739049E+04</pdfrwt>
<pdfrwt beam="2">  1       -1 0.11436965E+00 0.11739049E+04</pdfrwt>
<totfact> 0.33567708E+00</totfact>
</mgrwt>
</event>
<event>
 8    1  0.7046235E-006  0.1336568E+04  0.7818608E-02  0.8510257E-01
         -2   -1    0    0    0  501 -0.00000000000E+00  0.00000000000E+00  0.10308531062E+04  0.10308531062E+04  0.00000000000E+00 0. -1.
          2   -1    0    0  502    0  0.00000000000E+00 -0.00000000000E+00 -0.18811779080E+04  0.18811779080E+04  0.00000000000E+00 0.  1.
    9000010    2    1    2  502    0  0.38176772071E+03  0.80275190686E+03 -0.83259419587E+03  0.15710563141E+04  0.99239489641E+03 0.  0.
   -9000010    2    1    2    0  501 -0.38176772071E+03 -0.80275190686E+03 -0.17730605937E+02  0.13409747001E+04  0.10038633150E+04 0.  0.
        -13    1    3    3    0    0 -0.29215556191E+03  0.16041761896E+03 -0.46047218102E+03  0.56843937714E+03  0.10566000000E+00 0.  1.
          4    1    3    3  502    0  0.67392328262E+03  0.64233428791E+03 -0.37212201485E+03  0.10026169369E+04  0.00000000000E+00 0.  1.
         13    1    4    4    0    0 -0.92909144752E+02 -0.21702778953E+03 -0.48401522008E+03  0.53852011573E+03  0.10566000000E+00 0. -1.
         -4    1    4    4    0  501 -0.28885857596E+03 -0.58572411734E+03  0.46628461415E+03  0.80245458434E+03  0.00000000000E+00 0. -1.
<mgrwt>
<rscale>  2 0.13365684E+04</rscale>
<asrwt>0</asrwt>
<pdfrwt beam="2">  1        2 0.28941198E+00 0.13365684E+04</pdfrwt>
<pdfrwt beam="1">  1       -2 0.15859279E+00 0.13365684E+04</pdfrwt>
<totfact> 0.27002104E+00</totfact>
</mgrwt>
</event>
<event>
 8    1  0.7046235E-006  0.2152740E+04  0.7818608E-02  0.8108889E-01
          1   -1    0    0  502    0  0.00000000000E+00  0.00000000000E+00  0.15646529793E+04  0.15646529793E+04  0.00000000000E+00 0.  1.
         -1   -1    0    0    0  501 -0.00000000000E+00 -0.00000000000E+00 -0.29619416699E+04  0.29619416699E+04  0.00000000000E+00 0. -1.
    9000010    2    1    2  502    0 -0.18906000650E+04  0.26193707532E+03 -0.71023081722E+03  0.22670011810E+04  0.99593519046E+03 0.  0.
   -9000010    2    1    2    0  501  0.18906000650E+04 -0.26193707532E+03 -0.68705787337E+03  0.22595934682E+04  0.99535646018E+03 0.  0.
        -13    1    3    3    0    0 -0.81183399864E+03  0.29828831337E+03  0.16115428511E+03  0.87978467480E+03  0.10566000000E+00 0.  1.
          4    1    3    3  502    0 -0.10787660664E+04 -0.36351238047E+02 -0.87138510233E+03  0.13872165062E+04  0.00000000000E+00 0.  1.
         13    1    4    4    0    0  0.18226648914E+04  0.58342871673E+02 -0.55079001591E+03  0.19049621649E+04  0.10566000000E+00 0. -1.
         -4    1    4    4    0  501  0.67935173596E+02 -0.32027994699E+03 -0.13626785746E+03  0.35463130323E+03  0.00000000000E+00 0. -1.
<mgrwt>
<rscale>  2 0.21527402E+04</rscale>
<asrwt>0</asrwt>
<pdfrwt beam="1">  1        1 0.24071584E+00 0.21527402E+04</pdfrwt>
<pdfrwt beam="2">  1       -1 0.45568333E+00 0.21527402E+04</pdfrwt>
<totfact> 0.74814120E-02</totfact>
</mgrwt>
</event>
<event>
 8    1  0.7046235E-006  0.1226116E+04  0.7818608E-02  0.8587151E-01
         -2   -1    0    0    0  501 -0.00000000000E+00  0.00000000000E+00  0.51202112998E+03  0.51202112998E+03  0.00000000000E+00 0. -1.
          2   -1    0    0  502    0  0.00000000000E+00 -0.00000000000E+00 -0.32310424997E+04  0.32310424997E+04  0.00000000000E+00 0.  1.
    9000010    2    1    2  502    0  0.54423696434E+03 -0.41808364826E+03 -0.78822087044E+03  0.14526749862E+04  0.10089522609E+04 0.  0.
   -9000010    2    1    2    0  501 -0.54423696434E+03  0.41808364826E+03 -0.19308004992E+04  0.22903886434E+04  0.10231821733E+04 0.  0.
        -13    1    3    3    0    0  0.75157007614E+03 -0.32257994232E+03 -0.88472179126E+03  0.12048435822E+04  0.10566000000E+00 0.  1.
          4    1    3    3  502    0 -0.20733311180E+03 -0.95503705935E+02  0.96500920818E+02  0.24783140401E+03  0.00000000000E+00 0.  1.
         13    1    4    4    0    0  0.30170181228E+03  0.16028612070E+03 -0.64391465192E+03  0.72893189952E+03  0.10566000000E+00 0. -1.
         -4    1    4    4    0  501 -0.84593877662E+03  0.25779752755E+03 -0.12868858473E+04  0.15614567439E+04  0.00000000000E+00 0. -1.
<mgrwt>
<rscale>  2 0.12261164E+04</rscale>
<asrwt>0</asrwt>
<pdfrwt beam="2">  1        2 0.49708345E+00 0.12261164E+04</pdfrwt>
<pdfrwt beam="1">  1       -2 0.78772483E-01 0.12261164E+04</pdfrwt>
<totfact> 0.27737835E+00</totfact>
</mgrwt>
</event>
<event>
 8    1  0.7046235E-006  0.1246665E+04  0.7818608E-02  0.8572228E-01
          2   -1    0    0  502    0  0.00000000000E+00  0.00000000000E+00  0.20864172627E+04  0.20864172627E+04  0.00000000000E+00 0.  1.
         -2   -1    0    0    0  501 -0.00000000000E+00 -0.00000000000E+00 -0.75971623259E+03  0.75971623259E+03  0.00000000000E+00 0. -1.
    9000010    2    1    2  502    0 -0.51281823285E+03 -0.55620460566E+03  0.47082406901E+03  0.13430609187E+04  0.10048836868E+04 0.  0.
   -9000010    2    1    2    0  501  0.51281823285E+03  0.55620460566E+03  0.85587696105E+03  0.15030725766E+04  0.97691130340E+03 0.  0.
        -13    1    3    3    0    0 -0.59402809606E+03 -0.49366141907E+03  0.73098061198E+03  0.10634395337E+04  0.10566000000E+00 0.  1.
          4    1    3    3  502    0  0.81209863219E+02 -0.62543186584E+02 -0.26015654297E+03  0.27962138495E+03  0.00000000000E+00 0.  1.
         13    1    4    4    0    0  0.22603452632E+02  0.26333882917E+03 -0.18031219393E+03  0.31995429902E+03  0.10566000000E+00 0. -1.
         -4    1    4    4    0  501  0.49021478021E+03  0.29286577649E+03  0.10361891550E+04  0.11831182776E+04  0.00000000000E+00 0. -1.
<mgrwt>
<rscale>  2 0.12466645E+04</rscale>
<asrwt>0</asrwt>
<pdfrwt beam="1">  1        2 0.32098727E+00 0.12466645E+04</pdfrwt>
<pdfrwt beam="2">  1       -2 0.11687942E+00 0.12466645E+04</pdfrwt>
<totfact> 0.50599483E+00</totfact>
</mgrwt>
</event>
<event>
 8    1  0.7046235E-006  0.1007193E+04  0.7818608E-02  0.8767862E-01
         -1   -1    0    0    0  501 -0.00000000000E+00  0.00000000000E+00  0.38661823096E+03  0.38661823096E+03  0.00000000000E+00 0.  1.
          1   -1    0    0  502    0  0.00000000000E+00 -0.00000000000E+00 -0.27534546419E+04  0.27534546419E+04  0.00000000000E+00 0. -1.
    9000010    2    1    2  502    0 -0.33333554198E+03 -0.14968270493E+03 -0.14856481514E+04  0.17778501354E+04  0.90558444040E+03 0.  0.
   -9000010    2    1    2    0  501  0.33333554198E+03  0.14968270493E+03 -0.88118825957E+03  0.13622227374E+04  0.97244050814E+03 0.  0.
        -13    1    3    3    0    0 -0.33618894828E+03 -0.46360051158E+03 -0.12808018513E+04  0.14029974471E+04  0.10566000000E+00 0.  1.
          4    1    3    3  502    0  0.28534063063E+01  0.31391780665E+03 -0.20484630008E+03  0.37485268828E+03  0.00000000000E+00 0.  1.
         13    1    4    4    0    0  0.70000099677E+02  0.36758330239E+03  0.43192897771E+02  0.37667377893E+03  0.10566000000E+00 0. -1.
         -4    1    4    4    0  501  0.26333544230E+03 -0.21790059746E+03 -0.92438115735E+03  0.98554895850E+03  0.00000000000E+00 0. -1.
<mgrwt>
<rscale>  2 0.10071935E+04</rscale>
<asrwt>0</asrwt>
<pdfrwt beam="2">  1        1 0.42360841E+00 0.10071935E+04</pdfrwt>
<pdfrwt beam="1">  1       -1 0.59479727E-01 0.10071935E+04</pdfrwt>
<totfact> 0.23942657E+00</totfact>
</mgrwt>
</event>
<event>
 8    1  0.7046235E-006  0.1256138E+04  0.7818608E-02  0.8565447E-01
          1   -1    0    0  502    0  0.00000000000E+00  0.00000000000E+00  0.18928719331E+04  0.18928719331E+04  0.00000000000E+00 0. -1.
         -1   -1    0    0    0  501 -0.00000000000E+00 -0.00000000000E+00 -0.84672675673E+03  0.84672675673E+03  0.00000000000E+00 0.  1.
    9000010    2    1    2  502    0  0.36900445750E+03  0.59571311647E+03  0.69852767924E+03  0.14490353682E+04  0.10586426086E+04 0.  0.
   -9000010    2    1    2    0  501 -0.36900445750E+03 -0.59571311647E+03  0.34761749710E+03  0.12905633216E+04  0.10264878743E+04 0.  0.
        -13    1    3    3    0    0  0.79472545102E+00 -0.23404126360E+03 -0.85877814486E+02  0.24930093229E+03  0.10566000000E+00 0.  1.
          4    1    3    3  502    0  0.36820973205E+03  0.82975438007E+03  0.78440549373E+03  0.11997344359E+04  0.00000000000E+00 0.  1.
         13    1    4    4    0    0 -0.66806324358E+03 -0.40634262536E+03  0.47437424739E+03  0.91457846266E+03  0.10566000000E+00 0. -1.
         -4    1    4    4    0  501  0.29905878609E+03 -0.18937049112E+03 -0.12675675029E+03  0.37598485898E+03  0.00000000000E+00 0. -1.
<mgrwt>
<rscale>  2 0.12561382E+04</rscale>
<asrwt>0</asrwt>
<pdfrwt beam="1">  1        1 0.29121107E+00 0.12561382E+04</pdfrwt>
<pdfrwt beam="2">  1       -1 0.13026566E+00 0.12561382E+04</pdfrwt>
<totfact> 0.24139479E+00</totfact>
</mgrwt>
</event>
<event>
 8    1  0.7046235E-006  0.1960007E+04  0.7818608E-02  0.8184872E-01
         -4   -1    0    0    0  501 -0.00000000000E+00  0.00000000000E+00  0.10996053551E+04  0.10996053551E+04  0.00000000000E+00 0. -1.
          4   -1    0    0  502    0  0.00000000000E+00 -0.00000000000E+00 -0.35440861985E+04  0.35440861985E+04  0.00000000000E+00 0.  1.
    9000010    2    1    2  502    0  0.16433054506E+04 -0.31251900732E+03 -0.15006702426E+04  0.24703968062E+04  0.10260254720E+04 0.  0.
   -9000010    2    1    2    0  501 -0.16433054506E+04  0.31251900732E+03 -0.94381060080E+03  0.21732947475E+04  0.10170106565E+04 0.  0.
        -13    1    3    3    0    0  0.16379868721E+04 -0.46552825884E+02 -0.14722176454E+04  0.22028601783E+04  0.10566000000E+00 0.  1.
          4    1    3    3  502    0  0.53185784752E+01 -0.26596618144E+03 -0.28452597200E+02  0.26753662783E+03  0.00000000000E+00 0.  1.
         13    1    4    4    0    0 -0.14601754202E+04  0.62978178730E+03 -0.73785985117E+03  0.17530472123E+04  0.10566000000E+00 0. -1.
         -4    1    4    4    0  501 -0.18313003038E+03 -0.31726277998E+03 -0.20595074963E+03  0.42024753522E+03  0.00000000000E+00 0. -1.
<mgrwt>
<rscale>  2 0.19600075E+04</rscale>
<asrwt>0</asrwt>
<pdfrwt beam="2">  1        4 0.54524404E+00 0.19600075E+04</pdfrwt>
<pdfrwt beam="1">  1       -4 0.16917005E+00 0.19600075E+04</pdfrwt>
<totfact> 0.11986896E-02</totfact>
</mgrwt>
</event>
<event>
 8    1  0.7046235E-006  0.1039941E+04  0.7818608E-02  0.8737942E-01
          2   -1    0    0  502    0  0.00000000000E+00  0.00000000000E+00  0.25810565077E+04  0.25810565077E+04  0.00000000000E+00 0. -1.
         -2   -1    0    0    0  501 -0.00000000000E+00 -0.00000000000E+00 -0.42043748757E+03  0.42043748757E+03  0.00000000000E+00 0.  1.
    9000010    2    1    2  502    0 -0.28474628388E+03 -0.88376105597E+02  0.11770026918E+04  0.15772498342E+04  0.10067228620E+04 0.  0.
   -9000010    2    1    2    0  501  0.28474628388E+03  0.88376105597E+02  0.98361632833E+03  0.14242441611E+04  0.98594095500E+03 0.  0.
        -13    1    3    3    0    0 -0.52372081625E+03 -0.39665505491E+03  0.79443746376E+03  0.10308974832E+04  0.10566000000E+00 0.  1.
          4    1    3    3  502    0  0.23897453237E+03  0.30827894931E+03  0.38256522809E+03  0.54635235100E+03  0.00000000000E+00 0.  1.
         13    1    4    4    0    0  0.17308258462E+03 -0.35475947966E+03  0.67481737291E+02  0.40045682106E+03  0.10566000000E+00 0. -1.
         -4    1    4    4    0  501  0.11166369927E+03  0.44313558526E+03  0.91613459104E+03  0.10237873400E+04  0.00000000000E+00 0. -1.
<mgrwt>
<rscale>  2 0.10399413E+04</rscale>
<asrwt>0</asrwt>
<pdfrwt beam="1">  1        2 0.39708561E+00 0.10399413E+04</pdfrwt>
<pdfrwt beam="2">  1       -2 0.64682692E-01 0.10399413E+04</pdfrwt>
<totfact> 0.10664025E+01</totfact>
</mgrwt>
</event>
<event>
 8    1  0.7046235E-006  0.1245408E+04  0.7818608E-02  0.8573131E-01
          4   -1    0    0  502    0  0.00000000000E+00  0.00000000000E+00  0.11603645478E+04  0.11603645478E+04  0.00000000000E+00 0.  1.
         -4   -1    0    0    0  501 -0.00000000000E+00 -0.00000000000E+00 -0.13671176697E+04  0.13671176697E+04  0.00000000000E+00 0. -1.
    9000010    2    1    2  502    0 -0.25801001007E+03 -0.75414352866E+03  0.83964503017E+02  0.12591574169E+04  0.97114660875E+03 0.  0.
   -9000010    2    1    2    0  501  0.25801001007E+03  0.75414352866E+03 -0.29071762494E+03  0.12683248006E+04  0.94277751101E+03 0.  0.
        -13    1    3    3    0    0 -0.21861619318E+03 -0.87605065570E+03  0.34642926138E+03  0.96709411930E+03  0.10566000000E+00 0.  1.
          4    1    3    3  502    0 -0.39393816885E+02  0.12190712704E+03 -0.26246475836E+03  0.29206329762E+03  0.00000000000E+00 0.  1.
         13    1    4    4    0    0  0.61142007759E+02 -0.66213491137E+02 -0.40685724368E+03  0.41671980925E+03  0.10566000000E+00 0. -1.
         -4    1    4    4    0  501  0.19686800231E+03  0.82035701980E+03  0.11613961874E+03  0.85160499136E+03  0.00000000000E+00 0. -1.
<mgrwt>
<rscale>  2 0.12454082E+04</rscale>
<asrwt>0</asrwt>
<pdfrwt beam="1">  1        4 0.17851762E+00 0.12454082E+04</pdfrwt>
<pdfrwt beam="2">  1       -4 0.21032579E+00 0.12454082E+04</pdfrwt>
<totfact> 0.19740857E-01</totfact>
</mgrwt>
</event>
<event>
 8    1  0.7046235E-006  0.1310833E+04  0.7818608E-02  0.8527471E-01
          2   -1    0    0  502    0  0.00000000000E+00  0.00000000000E+00  0.82579171426E+03  0.82579171426E+03  0.00000000000E+00 0. -1.
         -2   -1    0    0    0  501 -0.00000000000E+00 -0.00000000000E+00 -0.21213702966E+04  0.21213702966E+04  0.00000000000E+00 0.  1.
    9000010    2    1    2  502    0  0.85983334557E+03  0.31591065740E+02 -0.45120208750E+03  0.13994228309E+04  0.10072187241E+04 0.  0.
   -9000010    2    1    2    0  501 -0.85983334557E+03 -0.31591065740E+02 -0.84437649489E+03  0.15477391800E+04  0.97067683950E+03 0.  0.
        -13    1    3    3    0    0  0.80258630027E+03  0.42240081834E+03 -0.19219839412E+03  0.92709624882E+03  0.10566000000E+00 0.  1.
          4    1    3    3  502    0  0.57247045305E+02 -0.39080975260E+03 -0.25900369338E+03  0.47232658205E+03  0.00000000000E+00 0.  1.
         13    1    4    4    0    0 -0.87969422061E+03 -0.24391988508E+03 -0.29651075532E+03  0.95983200160E+03  0.10566000000E+00 0. -1.
         -4    1    4    4    0  501  0.19860875041E+02  0.21232881934E+03 -0.54786573956E+03  0.58790717844E+03  0.00000000000E+00 0. -1.
<mgrwt>
<rscale>  2 0.13108329E+04</rscale>
<asrwt>0</asrwt>
<pdfrwt beam="1">  1        2 0.12704488E+00 0.13108329E+04</pdfrwt>
<pdfrwt beam="2">  1       -2 0.32636466E+00 0.13108329E+04</pdfrwt>
<totfact> 0.55884353E-01</totfact>
</mgrwt>
</event>
<event>
 8    1  0.7046235E-006  0.1416179E+04  0.7818608E-02  0.8459434E-01
         -1   -1    0    0    0  501 -0.00000000000E+00  0.00000000000E+00  0.31699388826E+04  0.31699388826E+04  0.00000000000E+00 0.  1.
          1   -1    0    0  502    0  0.00000000000E+00 -0.00000000000E+00 -0.81765305940E+03  0.81765305940E+03  0.00000000000E+00 0. -1.
    9000010    2    1    2  502    0  0.29034264822E+03  0.97540953197E+03  0.22635331399E+03  0.14318685174E+04  0.98147288292E+03 0.  0.
   -9000010    2    1    2    0  501 -0.29034264822E+03 -0.97540953197E+03  0.21259325092E+04  0.25557234246E+04  0.98813490013E+03 0.  0.
        -13    1    3    3    0    0 -0.82196816737E+02  0.91119065474E+03 -0.11554578040E+03  0.92215810168E+03  0.10566000000E+00 0.  1.
          4    1    3    3  502    0  0.37253946496E+03  0.64218877234E+02  0.34189909439E+03  0.50971041571E+03  0.00000000000E+00 0.  1.
         13    1    4    4    0    0 -0.37992071022E+03 -0.11487497055E+04  0.19388229619E+04  0.22853883961E+04  0.10566000000E+00 0. -1.
         -4    1    4    4    0  501  0.89578062002E+02  0.17334017356E+03  0.18710954725E+03  0.27033502850E+03  0.00000000000E+00 0. -1.
<mgrwt>
<rscale>  2 0.14161785E+04</rscale>
<asrwt>0</asrwt>
<pdfrwt beam="2">  1        1 0.12579278E+00 0.14161785E+04</pdfrwt>
<pdfrwt beam="1">  1       -1 0.48768290E+00 0.14161785E+04</pdfrwt>
<totfact> 0.28124076E-01</totfact>
</mgrwt>
</event>
<event>
 8    1  0.7046235E-006  0.1206698E+04  0.7818608E-02  0.8601536E-01
          2   -1    0    0  502    0  0.00000000000E+00  0.00000000000E+00  0.83406835567E+03  0.83406835567E+03  0.00000000000E+00 0. -1.
         -2   -1    0    0    0  501 -0.00000000000E+00 -0.00000000000E+00 -0.19361390620E+04  0.19361390620E+04  0.00000000000E+00 0.  1.
    9000010    2    1    2  502    0  0.24584158566E+03 -0.64394242210E+03 -0.11730645939E+03  0.12137226138E+04  0.99209971763E+03 0.  0.
   -9000010    2    1    2    0  501 -0.24584158566E+03  0.64394242210E+03 -0.98476424692E+03  0.15564848038E+04  0.98882981053E+03 0.  0.
        -13    1    3    3    0    0  0.33856297808E+03 -0.49442674863E+02 -0.41874008172E+03  0.54075200918E+03  0.10566000000E+00 0.  1.
          4    1    3    3  502    0 -0.92721392424E+02 -0.59449974724E+03  0.30143362233E+03  0.67297060467E+03  0.00000000000E+00 0.  1.
         13    1    4    4    0    0 -0.35806571878E+03  0.85774316854E+03 -0.61381208329E+03  0.11138669969E+04  0.10566000000E+00 0. -1.
         -4    1    4    4    0  501  0.11222413312E+03 -0.21380074643E+03 -0.37095216363E+03  0.44261780684E+03  0.00000000000E+00 0. -1.
<mgrwt>
<rscale>  2 0.12066977E+04</rscale>
<asrwt>0</asrwt>
<pdfrwt beam="1">  1        2 0.12831821E+00 0.12066977E+04</pdfrwt>
<pdfrwt beam="2">  1       -2 0.29786754E+00 0.12066977E+04</pdfrwt>
<totfact> 0.85319702E-01</totfact>
</mgrwt>
</event>
<event>
 8    1  0.7046235E-006  0.1102192E+04  0.7818608E-02  0.8684094E-01
          2   -1    0    0  502    0  0.00000000000E+00  0.00000000000E+00  0.81671910253E+03  0.81671910253E+03  0.00000000000E+00 0.  1.
         -2   -1    0    0    0  501 -0.00000000000E+00 -0.00000000000E+00 -0.26749512851E+04  0.26749512851E+04  0.00000000000E+00 0. -1.
    9000010    2    1    2  502    0 -0.42333989125E+03  0.22985621604E+03 -0.20907589451E+04  0.23619362173E+04  0.98763312239E+03 0.  0.
   -9000010    2    1    2    0  501  0.42333989125E+03 -0.22985621604E+03  0.23252676256E+03  0.11297341703E+04  0.99507791488E+03 0.  0.
        -13    1    3    3    0    0 -0.40370044534E+02  0.32679854266E+02  0.10881835372E+03  0.12057843357E+03  0.10566000000E+00 0.  1.
          4    1    3    3  502    0 -0.38296984672E+03  0.19717636177E+03 -0.21995772988E+04  0.22413577837E+04  0.00000000000E+00 0.  1.
         13    1    4    4    0    0  0.71091203729E+03 -0.17892986564E+03  0.35320623260E+03  0.81373612153E+03  0.10566000000E+00 0. -1.
         -4    1    4    4    0  501 -0.28757214604E+03 -0.50926350399E+02 -0.12067947004E+03  0.31599804878E+03  0.00000000000E+00 0. -1.
<mgrwt>
<rscale>  2 0.11021922E+04</rscale>
<asrwt>0</asrwt>
<pdfrwt beam="1">  1        2 0.12564909E+00 0.11021922E+04</pdfrwt>
<pdfrwt beam="2">  1       -2 0.41153097E+00 0.11021922E+04</pdfrwt>
<totfact> 0.16579653E-01</totfact>
</mgrwt>
</event>
<event>
 8    1  0.7046235E-006  0.1649708E+04  0.7818608E-02  0.8328194E-01
          2   -1    0    0  502    0  0.00000000000E+00  0.00000000000E+00  0.23142568698E+04  0.23142568698E+04  0.00000000000E+00 0. -1.
         -2   -1    0    0    0  501 -0.00000000000E+00 -0.00000000000E+00 -0.11765684634E+04  0.11765684634E+04  0.00000000000E+00 0.  1.
    9000010    2    1    2  502    0 -0.62119751096E+03 -0.11540424008E+04  0.53127853253E+03  0.17361910504E+04  0.10071753938E+04 0.  0.
   -9000010    2    1    2    0  501  0.62119751096E+03  0.11540424008E+04  0.60640987387E+03  0.17546342829E+04  0.99664854444E+03 0.  0.
        -13    1    3    3    0    0 -0.75721590194E+03 -0.46224561808E+03  0.62141912388E+02  0.88933040094E+03  0.10566000000E+00 0.  1.
          4    1    3    3  502    0  0.13601839098E+03 -0.69179678268E+03  0.46913662014E+03  0.84686064944E+03  0.00000000000E+00 0.  1.
         13    1    4    4    0    0  0.31192041481E+03  0.12666245425E+04  0.56976749708E+03  0.14234700870E+04  0.10566000000E+00 0. -1.
         -4    1    4    4    0  501  0.30927709615E+03 -0.11258214171E+03  0.36642376792E+02  0.33116419585E+03  0.00000000000E+00 0. -1.
<mgrwt>
<rscale>  2 0.16497076E+04</rscale>
<asrwt>0</asrwt>
<pdfrwt beam="1">  1        2 0.35603952E+00 0.16497076E+04</pdfrwt>
<pdfrwt beam="2">  1       -2 0.18101053E+00 0.16497076E+04</pdfrwt>
<totfact> 0.97670107E-01</totfact>
</mgrwt>
</event>
<event>
 8    1  0.7046235E-006  0.1471280E+04  0.7818608E-02  0.8426222E-01
         -2   -1    0    0    0  501 -0.00000000000E+00  0.00000000000E+00  0.76376097459E+03  0.76376097459E+03  0.00000000000E+00 0.  1.
          2   -1    0    0  502    0  0.00000000000E+00 -0.00000000000E+00 -0.32451163294E+04  0.32451163294E+04  0.00000000000E+00 0. -1.
    9000010    2    1    2  502    0  0.73457466893E+03  0.79109551899E+03 -0.53038928058E+03  0.15677306282E+04  0.10055020980E+04 0.  0.
   -9000010    2    1    2    0  501 -0.73457466893E+03 -0.79109551899E+03 -0.19509660743E+04  0.24411466759E+04  0.99372853730E+03 0.  0.
        -13    1    3    3    0    0  0.54553679904E+03 -0.10754093143E+03 -0.17291591805E+03  0.58230179196E+03  0.10566000000E+00 0.  1.
          4    1    3    3  502    0  0.18903786989E+03  0.89863645042E+03 -0.35747336253E+03  0.98542883619E+03  0.00000000000E+00 0.  1.
         13    1    4    4    0    0  0.82942079397E+02  0.16636960647E+03 -0.12808094147E+03  0.22574980227E+03  0.10566000000E+00 0. -1.
         -4    1    4    4    0  501 -0.81751674833E+03 -0.95746512546E+03 -0.18228851328E+04  0.22153968736E+04  0.00000000000E+00 0. -1.
<mgrwt>
<rscale>  2 0.14712802E+04</rscale>
<asrwt>0</asrwt>
<pdfrwt beam="2">  1        2 0.49924866E+00 0.14712802E+04</pdfrwt>
<pdfrwt beam="1">  1       -2 0.11750169E+00 0.14712802E+04</pdfrwt>
<totfact> 0.10170465E+00</totfact>
</mgrwt>
</event>
<event>
 8    1  0.7046235E-006  0.1124011E+04  0.7818608E-02  0.8666092E-01
         -2   -1    0    0    0  501 -0.00000000000E+00  0.00000000000E+00  0.61004394247E+03  0.61004394247E+03  0.00000000000E+00 0.  1.
          2   -1    0    0  502    0  0.00000000000E+00 -0.00000000000E+00 -0.21184047355E+04  0.21184047355E+04  0.00000000000E+00 0. -1.
    9000010    2    1    2  502    0 -0.93853338398E+02  0.49451533953E+03 -0.55618152947E+03  0.12620488839E+04  0.10149264119E+04 0.  0.
   -9000010    2    1    2    0  501  0.93853338398E+02 -0.49451533953E+03 -0.95217926360E+03  0.14663997941E+04  0.99515282040E+03 0.  0.
        -13    1    3    3    0    0  0.35302280312E+03 -0.94548758294E+02 -0.32026333044E+03  0.48593536526E+03  0.10566000000E+00 0.  1.
          4    1    3    3  502    0 -0.44687614152E+03  0.58906409782E+03 -0.23591819903E+03  0.77611351865E+03  0.00000000000E+00 0.  1.
         13    1    4    4    0    0  0.51795691013E+03 -0.11848817161E+03 -0.58891242202E+03  0.79318135350E+03  0.10566000000E+00 0. -1.
         -4    1    4    4    0  501 -0.42410357174E+03 -0.37602716792E+03 -0.36326684158E+03  0.67321844060E+03  0.00000000000E+00 0. -1.
<mgrwt>
<rscale>  2 0.11240107E+04</rscale>
<asrwt>0</asrwt>
<pdfrwt beam="2">  1        2 0.32590841E+00 0.11240107E+04</pdfrwt>
<pdfrwt beam="1">  1       -2 0.93852916E-01 0.11240107E+04</pdfrwt>
<totfact> 0.84485785E+00</totfact>
</mgrwt>
</event>
<event>
 8    1  0.7046235E-006  0.1113417E+04  0.7818608E-02  0.8674779E-01
          1   -1    0    0  502    0  0.00000000000E+00  0.00000000000E+00  0.12399919778E+04  0.12399919778E+04  0.00000000000E+00 0.  1.
         -1   -1    0    0    0  501 -0.00000000000E+00 -0.00000000000E+00 -0.10048736910E+04  0.10048736910E+04  0.00000000000E+00 0. -1.
    9000010    2    1    2  502    0 -0.36191835387E+03  0.33679065337E+03  0.37156516044E+02  0.11021997324E+04  0.98440378114E+03 0.  0.
   -9000010    2    1    2    0  501  0.36191835387E+03 -0.33679065337E+03  0.19796177083E+03  0.11426659364E+04  0.10109815728E+04 0.  0.
        -13    1    3    3    0    0 -0.57307829500E+03  0.36644140684E+03 -0.26700040648E+03  0.73074432264E+03  0.10566000000E+00 0.  1.
          4    1    3    3  502    0  0.21115994112E+03 -0.29650753471E+02  0.30415692252E+03  0.37145540975E+03  0.00000000000E+00 0.  1.
         13    1    4    4    0    0  0.46132594847E+03 -0.11331837994E+03 -0.31801076789E+03  0.57165859184E+03  0.10566000000E+00 0. -1.
         -4    1    4    4    0  501 -0.99407594593E+02 -0.22347227342E+03  0.51597253872E+03  0.57100734458E+03  0.00000000000E+00 0. -1.
<mgrwt>
<rscale>  2 0.11134166E+04</rscale>
<asrwt>0</asrwt>
<pdfrwt beam="1">  1        1 0.19076800E+00 0.11134166E+04</pdfrwt>
<pdfrwt beam="2">  1       -1 0.15459595E+00 0.11134166E+04</pdfrwt>
<totfact> 0.46480476E+00</totfact>
</mgrwt>
</event>
<event>
 8    1  0.7046235E-006  0.1046587E+04  0.7818608E-02  0.8732009E-01
         -1   -1    0    0    0  501 -0.00000000000E+00  0.00000000000E+00  0.12926054627E+04  0.12926054627E+04  0.00000000000E+00 0. -1.
          1   -1    0    0  502    0  0.00000000000E+00 -0.00000000000E+00 -0.86865315649E+03  0.86865315649E+03  0.00000000000E+00 0.  1.
    9000010    2    1    2  502    0 -0.27817286452E+03 -0.17637766802E+03  0.42423045067E+02  0.10448554215E+04  0.99067346426E+03 0.  0.
   -9000010    2    1    2    0  501  0.27817286452E+03  0.17637766802E+03  0.38152926113E+03  0.11164031977E+04  0.99614371368E+03 0.  0.
        -13    1    3    3    0    0 -0.24249962675E+03  0.31495605034E+02  0.49135797438E+03  0.54884488907E+03  0.10566000000E+00 0.  1.
          4    1    3    3  502    0 -0.35673237769E+02 -0.20787327305E+03 -0.44893492931E+03  0.49601053245E+03  0.00000000000E+00 0.  1.
         13    1    4    4    0    0  0.27828162987E+03 -0.95255585040E+02  0.66295209459E+03  0.72527221296E+03  0.10566000000E+00 0. -1.
         -4    1    4    4    0  501 -0.10876535636E+00  0.27163325306E+03 -0.28142283346E+03  0.39113098470E+03  0.00000000000E+00 0. -1.
<mgrwt>
<rscale>  2 0.10465868E+04</rscale>
<asrwt>0</asrwt>
<pdfrwt beam="2">  1        1 0.13363895E+00 0.10465868E+04</pdfrwt>
<pdfrwt beam="1">  1       -1 0.19886238E+00 0.10465868E+04</pdfrwt>
<totfact> 0.38294085E+00</totfact>
</mgrwt>
</event>
<event>
 8    1  0.7046235E-006  0.1315282E+04  0.7818608E-02  0.8524466E-01
         -2   -1    0    0    0  501 -0.00000000000E+00  0.00000000000E+00  0.11775905982E+04  0.11775905982E+04  0.00000000000E+00 0. -1.
          2   -1    0    0  502    0  0.00000000000E+00 -0.00000000000E+00 -0.21085714273E+04  0.21085714273E+04  0.00000000000E+00 0.  1.
    9000010    2    1    2  502    0 -0.72671787300E+03  0.43550115459E+03 -0.13716318539E+04  0.19040037928E+04  0.10129542822E+04 0.  0.
   -9000010    2    1    2    0  501  0.72671787300E+03 -0.43550115459E+03  0.44065102476E+03  0.13821582327E+04  0.99920364890E+03 0.  0.
        -13    1    3    3    0    0 -0.88630927211E+03  0.24293959336E+03 -0.13750494438E+04  0.16538817237E+04  0.10566000000E+00 0.  1.
          4    1    3    3  502    0  0.15959139911E+03  0.19256156123E+03  0.34175899624E+01  0.25012206910E+03  0.00000000000E+00 0.  1.
         13    1    4    4    0    0  0.31624294983E+03 -0.37349094245E+03  0.72805175670E+03  0.87724823112E+03  0.10566000000E+00 0. -1.
         -4    1    4    4    0  501  0.41047492317E+03 -0.62010212140E+02 -0.28740073194E+03  0.50491000157E+03  0.00000000000E+00 0. -1.
<mgrwt>
<rscale>  2 0.13152821E+04</rscale>
<asrwt>0</asrwt>
<pdfrwt beam="2">  1        2 0.32439560E+00 0.13152821E+04</pdfrwt>
<pdfrwt beam="1">  1       -2 0.18116779E+00 0.13152821E+04</pdfrwt>
<totfact> 0.13099993E+00</totfact>
</mgrwt>
</event>
<event>
 8    1  0.7046235E-006  0.1979714E+04  0.7818608E-02  0.8176702E-01
         -2   -1    0    0    0  501 -0.00000000000E+00  0.00000000000E+00  0.41012775993E+04  0.41012775993E+04  0.00000000000E+00 0.  1.
          2   -1    0    0  502    0  0.00000000000E+00 -0.00000000000E+00 -0.11149199592E+04  0.11149199592E+04  0.00000000000E+00 0. -1.
    9000010    2    1    2  502    0  0.15842449102E+04 -0.66678890402E+03  0.24690097749E+04  0.31552550188E+04  0.95141241675E+03 0.  0.
   -9000010    2    1    2    0  501 -0.15842449102E+04  0.66678890402E+03  0.51734786518E+03  0.20609425398E+04  0.10126183688E+04 0.  0.
        -13    1    3    3    0    0  0.11332861213E+04 -0.69652422028E+03  0.11412688392E+04  0.17527059071E+04  0.10566000000E+00 0.  1.
          4    1    3    3  502    0  0.45095878884E+03  0.29735316255E+02  0.13277409357E+04  0.14025491117E+04  0.00000000000E+00 0.  1.
         13    1    4    4    0    0 -0.11618434341E+04 -0.34888106758E+02  0.42112198750E+03  0.12363013730E+04  0.10566000000E+00 0. -1.
         -4    1    4    4    0  501 -0.42240147601E+03  0.70167701078E+03  0.96225877676E+02  0.82464116677E+03  0.00000000000E+00 0. -1.
<mgrwt>
<rscale>  2 0.19797144E+04</rscale>
<asrwt>0</asrwt>
<pdfrwt beam="2">  1        2 0.17152615E+00 0.19797144E+04</pdfrwt>
<pdfrwt beam="1">  1       -2 0.63096578E+00 0.19797144E+04</pdfrwt>
<totfact> 0.11913168E-01</totfact>
</mgrwt>
</event>
<event>
 8    1  0.7046235E-006  0.1419785E+04  0.7818608E-02  0.8457213E-01
          2   -1    0    0  502    0  0.00000000000E+00  0.00000000000E+00  0.15447003275E+04  0.15447003275E+04  0.00000000000E+00 0. -1.
         -2   -1    0    0    0  501 -0.00000000000E+00 -0.00000000000E+00 -0.14074064122E+04  0.14074064122E+04  0.00000000000E+00 0.  1.
    9000010    2    1    2  502    0 -0.62411143859E+03 -0.78979203960E+03  0.46690894335E+03  0.14956714037E+04  0.10028671063E+04 0.  0.
   -9000010    2    1    2    0  501  0.62411143859E+03  0.78979203960E+03 -0.32961502804E+03  0.14564353360E+04  0.99963556743E+03 0.  0.
        -13    1    3    3    0    0  0.23071284140E+03  0.10968031811E+02  0.17153594985E+03  0.28770350391E+03  0.10566000000E+00 0.  1.
          4    1    3    3  502    0 -0.85482427999E+03 -0.80076007141E+03  0.29537299350E+03  0.12079678998E+04  0.00000000000E+00 0.  1.
         13    1    4    4    0    0  0.11435337021E+03  0.40980223793E+03 -0.62443711250E+03  0.75560325973E+03  0.10566000000E+00 0. -1.
         -4    1    4    4    0  501  0.50975806838E+03  0.37998980167E+03  0.29482208446E+03  0.70083207628E+03  0.00000000000E+00 0. -1.
<mgrwt>
<rscale>  2 0.14197855E+04</rscale>
<asrwt>0</asrwt>
<pdfrwt beam="1">  1        2 0.23764621E+00 0.14197855E+04</pdfrwt>
<pdfrwt beam="2">  1       -2 0.21652406E+00 0.14197855E+04</pdfrwt>
<totfact> 0.13421407E+00</totfact>
</mgrwt>
</event>
<event>
 8    1  0.7046235E-006  0.1256946E+04  0.7818608E-02  0.8564872E-01
          1   -1    0    0  502    0  0.00000000000E+00  0.00000000000E+00  0.17940689160E+04  0.17940689160E+04  0.00000000000E+00 0.  1.
         -1   -1    0    0    0  501 -0.00000000000E+00 -0.00000000000E+00 -0.99439734089E+03  0.99439734089E+03  0.00000000000E+00 0. -1.
    9000010    2    1    2  502    0 -0.23648593609E+03 -0.72704503365E+03  0.87007519478E+03  0.15248630934E+04  0.99179460078E+03 0.  0.
   -9000010    2    1    2    0  501  0.23648593609E+03  0.72704503365E+03 -0.70403619689E+02  0.12636031635E+04  0.10036016173E+04 0.  0.
        -13    1    3    3    0    0 -0.15043777105E+03  0.21247990926E+03  0.30854470857E+02  0.26216644396E+03  0.10566000000E+00 0.  1.
          4    1    3    3  502    0 -0.86048165036E+02 -0.93952494291E+03  0.83922072392E+03  0.12626966494E+04  0.00000000000E+00 0.  1.
         13    1    4    4    0    0 -0.26449566337E+03  0.18125260612E+03  0.29663391645E+03  0.43680905980E+03  0.10566000000E+00 0. -1.
         -4    1    4    4    0  501  0.50098159946E+03  0.54579242753E+03 -0.36703753614E+03  0.82679410368E+03  0.00000000000E+00 0. -1.
<mgrwt>
<rscale>  2 0.12569457E+04</rscale>
<asrwt>0</asrwt>
<pdfrwt beam="1">  1        1 0.27601060E+00 0.12569457E+04</pdfrwt>
<pdfrwt beam="2">  1       -1 0.15298421E+00 0.12569457E+04</pdfrwt>
<totfact> 0.18152519E+00</totfact>
</mgrwt>
</event>
<event>
 8    1  0.7046235E-006  0.1864182E+04  0.7818608E-02  0.8226048E-01
          2   -1    0    0  502    0  0.00000000000E+00  0.00000000000E+00  0.21558627997E+04  0.21558627997E+04  0.00000000000E+00 0. -1.
         -2   -1    0    0    0  501 -0.00000000000E+00 -0.00000000000E+00 -0.16615780825E+04  0.16615780825E+04  0.00000000000E+00 0.  1.
    9000010    2    1    2  502    0  0.15870807415E+04  0.17716006327E+03 -0.83229890219E+02  0.18615298516E+04  0.95297177590E+03 0.  0.
   -9000010    2    1    2    0  501 -0.15870807415E+04 -0.17716006327E+03  0.57751460740E+03  0.19559110307E+04  0.97049156107E+03 0.  0.
        -13    1    3    3    0    0  0.15621617522E+04  0.25395247173E+03 -0.31709434653E+03  0.16141220628E+04  0.10566000000E+00 0.  1.
          4    1    3    3  502    0  0.24918989325E+02 -0.76792408467E+02  0.23386445631E+03  0.24740778879E+03  0.00000000000E+00 0.  1.
         13    1    4    4    0    0 -0.65026025069E+03  0.38222078028E+03  0.85885172777E+02  0.75914912407E+03  0.10566000000E+00 0. -1.
         -4    1    4    4    0  501 -0.93682049078E+03 -0.55938084355E+03  0.49162943462E+03  0.11967619066E+04  0.00000000000E+00 0. -1.
<mgrwt>
<rscale>  2 0.18641820E+04</rscale>
<asrwt>0</asrwt>
<pdfrwt beam="1">  1        2 0.33167120E+00 0.18641820E+04</pdfrwt>
<pdfrwt beam="2">  1       -2 0.25562740E+00 0.18641820E+04</pdfrwt>
<totfact> 0.29135410E-01</totfact>
</mgrwt>
</event>
<event>
 8    1  0.7046235E-006  0.1049497E+04  0.7818608E-02  0.8729425E-01
         -4   -1    0    0    0  501 -0.00000000000E+00  0.00000000000E+00  0.50916880953E+03  0.50916880953E+03  0.00000000000E+00 0. -1.
          4   -1    0    0  502    0  0.00000000000E+00 -0.00000000000E+00 -0.25426768789E+04  0.25426768789E+04  0.00000000000E+00 0.  1.
    9000010    2    1    2  502    0 -0.26731564922E+03 -0.20220586473E+03 -0.42896805586E+03  0.11356749417E+04  0.99669409159E+03 0.  0.
   -9000010    2    1    2    0  501  0.26731564922E+03  0.20220586473E+03 -0.16045400135E+04  0.19161707467E+04  0.99237936677E+03 0.  0.
        -13    1    3    3    0    0  0.35764006691E+03  0.62501215182E+02 -0.77002581663E+02  0.37113640094E+03  0.10566000000E+00 0.  1.
          4    1    3    3  502    0 -0.62495571613E+03 -0.26470707992E+03 -0.35196547420E+03  0.76453854076E+03  0.00000000000E+00 0.  1.
         13    1    4    4    0    0 -0.13280081663E+03  0.51983116186E+03 -0.81105529112E+03  0.97245626645E+03  0.10566000000E+00 0. -1.
         -4    1    4    4    0  501  0.40011646585E+03 -0.31762529712E+03 -0.79348472239E+03  0.94371448028E+03  0.00000000000E+00 0. -1.
<mgrwt>
<rscale>  2 0.10494972E+04</rscale>
<asrwt>0</asrwt>
<pdfrwt beam="2">  1        4 0.39118105E+00 0.10494972E+04</pdfrwt>
<pdfrwt beam="1">  1       -4 0.78333665E-01 0.10494972E+04</pdfrwt>
<totfact> 0.24826202E-01</totfact>
</mgrwt>
</event>
<event>
 8    1  0.7046235E-006  0.1654277E+04  0.7818608E-02  0.8325855E-01
          2   -1    0    0  502    0  0.00000000000E+00  0.00000000000E+00  0.52583050972E+04  0.52583050972E+04  0.00000000000E+00 0.  1.
         -2   -1    0    0    0  501 -0.00000000000E+00 -0.00000000000E+00 -0.56958366599E+03  0.56958366599E+03  0.00000000000E+00 0. -1.
    9000010    2    1    2  502    0 -0.11849722837E+04 -0.63365688565E+03  0.15148703271E+04  0.22578720224E+04  0.99873600109E+03 0.  0.
   -9000010    2    1    2    0  501  0.11849722837E+04  0.63365688565E+03  0.31738511041E+04  0.35700167407E+04  0.93059568911E+03 0.  0.
        -13    1    3    3    0    0 -0.15996130958E+03 -0.22083215582E+03 -0.10902276011E+03  0.29366721811E+03  0.10566000000E+00 0.  1.
          4    1    3    3  502    0 -0.10250109741E+04 -0.41282472984E+03  0.16238930872E+04  0.19642048043E+04  0.00000000000E+00 0.  1.
         13    1    4    4    0    0  0.26272639505E+03  0.64208765874E+03  0.16326402532E+04  0.17739266974E+04  0.10566000000E+00 0. -1.
         -4    1    4    4    0  501  0.92224588862E+03 -0.84307730820E+01  0.15412108508E+04  0.17960900433E+04  0.00000000000E+00 0. -1.
<mgrwt>
<rscale>  2 0.16542769E+04</rscale>
<asrwt>0</asrwt>
<pdfrwt beam="1">  1        2 0.80896998E+00 0.16542769E+04</pdfrwt>
<pdfrwt beam="2">  1       -2 0.87628260E-01 0.16542769E+04</pdfrwt>
<totfact> 0.39163498E-02</totfact>
</mgrwt>
</event>
<event>
 8    1  0.7046235E-006  0.1104290E+04  0.7818608E-02  0.8682344E-01
         -2   -1    0    0    0  501 -0.00000000000E+00  0.00000000000E+00  0.65139779318E+03  0.65139779318E+03  0.00000000000E+00 0. -1.
          2   -1    0    0  502    0  0.00000000000E+00 -0.00000000000E+00 -0.20193702476E+04  0.20193702476E+04  0.00000000000E+00 0.  1.
    9000010    2    1    2  502    0  0.47386936354E+03  0.85048914189E+02 -0.31989853061E+03  0.11438728707E+04  0.98707881298E+03 0.  0.
   -9000010    2    1    2    0  501 -0.47386936354E+03 -0.85048914189E+02 -0.10480739239E+04  0.15268951701E+04  0.10005820402E+04 0.  0.
        -13    1    3    3    0    0  0.45324491295E+03 -0.18250897298E+03 -0.58801853898E+03  0.76453011038E+03  0.10566000000E+00 0.  1.
          4    1    3    3  502    0  0.20624450590E+02  0.26755788717E+03  0.26812000837E+03  0.37934276036E+03  0.00000000000E+00 0.  1.
         13    1    4    4    0    0  0.31600009344E+03 -0.46683928586E+02 -0.29016093176E+03  0.43154237999E+03  0.10566000000E+00 0. -1.
         -4    1    4    4    0  501 -0.78986945698E+03 -0.38364985603E+02 -0.75791299209E+03  0.10953527901E+04  0.00000000000E+00 0. -1.
<mgrwt>
<rscale>  2 0.11042899E+04</rscale>
<asrwt>0</asrwt>
<pdfrwt beam="2">  1        2 0.31067233E+00 0.11042899E+04</pdfrwt>
<pdfrwt beam="1">  1       -2 0.10021505E+00 0.11042899E+04</pdfrwt>
<totfact> 0.82073361E+00</totfact>
</mgrwt>
</event>
<event>
 8    1  0.7046235E-006  0.1397128E+04  0.7818608E-02  0.8471278E-01
         -2   -1    0    0    0  501 -0.00000000000E+00  0.00000000000E+00  0.14864408482E+04  0.14864408482E+04  0.00000000000E+00 0. -1.
          2   -1    0    0  502    0  0.00000000000E+00 -0.00000000000E+00 -0.13652438854E+04  0.13652438854E+04  0.00000000000E+00 0.  1.
    9000010    2    1    2  502    0 -0.89741054176E+03  0.53261233195E+03  0.33663217775E+03  0.14851699999E+04  0.10016921328E+04 0.  0.
   -9000010    2    1    2    0  501  0.89741054176E+03 -0.53261233195E+03 -0.21543521486E+03  0.13665147337E+04  0.85552826307E+03 0.  0.
        -13    1    3    3    0    0  0.55784953870E+02  0.46251530142E+03  0.24132076309E+03  0.52465997273E+03  0.10566000000E+00 0.  1.
          4    1    3    3  502    0 -0.95319549563E+03  0.70097030537E+02  0.95311414655E+02  0.96051002720E+03  0.00000000000E+00 0.  1.
         13    1    4    4    0    0  0.34536633803E+02 -0.37047810544E+03  0.16825920018E+03  0.40836010493E+03  0.10566000000E+00 0. -1.
         -4    1    4    4    0  501  0.86287390796E+03 -0.16213422651E+03 -0.38369441504E+03  0.95815462874E+03  0.00000000000E+00 0. -1.
<mgrwt>
<rscale>  2 0.13971278E+04</rscale>
<asrwt>0</asrwt>
<pdfrwt beam="2">  1        2 0.21003752E+00 0.13971278E+04</pdfrwt>
<pdfrwt beam="1">  1       -2 0.22868321E+00 0.13971278E+04</pdfrwt>
<totfact> 0.13477863E+00</totfact>
</mgrwt>
</event>
<event>
 8    1  0.7046235E-006  0.1522754E+04  0.7818608E-02  0.8396523E-01
          1   -1    0    0  502    0  0.00000000000E+00  0.00000000000E+00  0.30110180595E+04  0.30110180595E+04  0.00000000000E+00 0.  1.
         -1   -1    0    0    0  501 -0.00000000000E+00 -0.00000000000E+00 -0.79388987646E+03  0.79388987646E+03  0.00000000000E+00 0. -1.
    9000010    2    1    2  502    0  0.11113137266E+04  0.35928307455E+03  0.77591088481E+03  0.17048028511E+04  0.96964557100E+03 0.  0.
   -9000010    2    1    2    0  501 -0.11113137266E+04 -0.35928307455E+03  0.14412172983E+04  0.21001050849E+04  0.98449557660E+03 0.  0.
        -13    1    3    3    0    0  0.10504886888E+04  0.48005838883E+03  0.94214719963E+03  0.14905112877E+04  0.10566000000E+00 0.  1.
          4    1    3    3  502    0  0.60825037830E+02 -0.12077531428E+03 -0.16623631482E+03  0.21429156337E+03  0.00000000000E+00 0.  1.
         13    1    4    4    0    0 -0.11514974144E+04  0.80845863858E+01  0.11706929986E+04  0.16421125917E+04  0.10566000000E+00 0. -1.
         -4    1    4    4    0  501  0.40183687835E+02 -0.36736766093E+03  0.27052429971E+03  0.45799249317E+03  0.00000000000E+00 0. -1.
<mgrwt>
<rscale>  2 0.15227538E+04</rscale>
<asrwt>0</asrwt>
<pdfrwt beam="1">  1        1 0.46323354E+00 0.15227538E+04</pdfrwt>
<pdfrwt beam="2">  1       -1 0.12213691E+00 0.15227538E+04</pdfrwt>
<totfact> 0.27530554E-01</totfact>
</mgrwt>
</event>
<event>
 8    1  0.7046235E-006  0.1244581E+04  0.7818608E-02  0.8573727E-01
         -1   -1    0    0    0  501 -0.00000000000E+00  0.00000000000E+00  0.24137412137E+04  0.24137412137E+04  0.00000000000E+00 0.  1.
          1   -1    0    0  502    0  0.00000000000E+00 -0.00000000000E+00 -0.64179063718E+03  0.64179063718E+03  0.00000000000E+00 0. -1.
    9000010    2    1    2  502    0 -0.52105128386E+03  0.53786092727E+03  0.90240336168E+03  0.15421461450E+04  0.10015458491E+04 0.  0.
   -9000010    2    1    2    0  501  0.52105128386E+03 -0.53786092727E+03  0.86954721489E+03  0.15133857060E+04  0.98662815621E+03 0.  0.
        -13    1    3    3    0    0 -0.63891686177E+03 -0.42186604861E+02  0.33692597685E+03  0.72354239055E+03  0.10566000000E+00 0.  1.
          4    1    3    3  502    0  0.11786557791E+03  0.58004753213E+03  0.56547738483E+03  0.81860375441E+03  0.00000000000E+00 0.  1.
         13    1    4    4    0    0  0.65681566472E+03 -0.74352934125E+03  0.68841730964E+03  0.12075434162E+04  0.10566000000E+00 0. -1.
         -4    1    4    4    0  501 -0.13576438086E+03  0.20566841397E+03  0.18112990524E+03  0.30584228973E+03  0.00000000000E+00 0. -1.
<mgrwt>
<rscale>  2 0.12445812E+04</rscale>
<asrwt>0</asrwt>
<pdfrwt beam="2">  1        1 0.98737022E-01 0.12445812E+04</pdfrwt>
<pdfrwt beam="1">  1       -1 0.37134480E+00 0.12445812E+04</pdfrwt>
<totfact> 0.44068863E-01</totfact>
</mgrwt>
</event>
<event>
 8    1  0.7046235E-006  0.1179799E+04  0.7818608E-02  0.8621931E-01
         -1   -1    0    0    0  501 -0.00000000000E+00  0.00000000000E+00  0.36459305948E+04  0.36459305948E+04  0.00000000000E+00 0. -1.
          1   -1    0    0  502    0  0.00000000000E+00 -0.00000000000E+00 -0.42449726633E+03  0.42449726633E+03  0.00000000000E+00 0.  1.
    9000010    2    1    2  502    0  0.20308883529E+03  0.60880214314E+03  0.22445483888E+04  0.25313591484E+04  0.97872189304E+03 0.  0.
   -9000010    2    1    2    0  501 -0.20308883529E+03 -0.60880214314E+03  0.97688493966E+03  0.15390687127E+04  0.10012707889E+04 0.  0.
        -13    1    3    3    0    0  0.20455803119E+03  0.80337948297E+03  0.21700353787E+04  0.23229972316E+04  0.10566000000E+00 0.  1.
          4    1    3    3  502    0 -0.14691958983E+01 -0.19457733983E+03  0.74513010090E+02  0.20836191683E+03  0.00000000000E+00 0.  1.
         13    1    4    4    0    0  0.17982448421E+03 -0.68371294614E+03  0.89475720928E+03  0.11403467510E+04  0.10566000000E+00 0. -1.
         -4    1    4    4    0  501 -0.38291331950E+03  0.74910803001E+02  0.82127730375E+02  0.39872196171E+03  0.00000000000E+00 0. -1.
<mgrwt>
<rscale>  2 0.11797991E+04</rscale>
<asrwt>0</asrwt>
<pdfrwt beam="2">  1        1 0.65307274E-01 0.11797991E+04</pdfrwt>
<pdfrwt beam="1">  1       -1 0.56091238E+00 0.11797991E+04</pdfrwt>
<totfact> 0.38087565E-01</totfact>
</mgrwt>
</event>
<event>
 8    1  0.7046235E-006  0.1127291E+04  0.7818608E-02  0.8663422E-01
          2   -1    0    0  502    0  0.00000000000E+00  0.00000000000E+00  0.22302147136E+04  0.22302147136E+04  0.00000000000E+00 0. -1.
         -2   -1    0    0    0  501 -0.00000000000E+00 -0.00000000000E+00 -0.57016695247E+03  0.57016695247E+03  0.00000000000E+00 0.  1.
    9000010    2    1    2  502    0 -0.49543534782E+03 -0.55933247408E+02  0.86241874560E+03  0.14164964712E+04  0.10070310065E+04 0.  0.
   -9000010    2    1    2    0  501  0.49543534782E+03  0.55933247408E+02  0.79762901556E+03  0.13838851949E+04  0.10150573748E+04 0.  0.
        -13    1    3    3    0    0  0.20982501634E+03 -0.78111978908E+02 -0.81263198407E+02  0.23818425076E+03  0.10566000000E+00 0.  1.
          4    1    3    3  502    0 -0.70526036416E+03  0.22178731500E+02  0.94368194401E+03  0.11783122204E+04  0.00000000000E+00 0.  1.
         13    1    4    4    0    0  0.72704097742E+03  0.13625971727E+03  0.85657502813E+03  0.11317579615E+04  0.10566000000E+00 0. -1.
         -4    1    4    4    0  501 -0.23160562961E+03 -0.80326469865E+02 -0.58946012572E+02  0.25212723341E+03  0.00000000000E+00 0. -1.
<mgrwt>
<rscale>  2 0.11272911E+04</rscale>
<asrwt>0</asrwt>
<pdfrwt beam="1">  1        2 0.34310995E+00 0.11272911E+04</pdfrwt>
<pdfrwt beam="2">  1       -2 0.87717993E-01 0.11272911E+04</pdfrwt>
<totfact> 0.85808342E+00</totfact>
</mgrwt>
</event>
<event>
 8    1  0.7046235E-006  0.1428724E+04  0.7818608E-02  0.8451737E-01
          2   -1    0    0  502    0  0.00000000000E+00  0.00000000000E+00  0.16506212604E+04  0.16506212604E+04  0.00000000000E+00 0.  1.
         -2   -1    0    0    0  501 -0.00000000000E+00 -0.00000000000E+00 -0.13626954657E+04  0.13626954657E+04  0.00000000000E+00 0. -1.
    9000010    2    1    2  502    0  0.10152004022E+04  0.13420839958E+03  0.60212898606E+03  0.15499706297E+04  0.99559323314E+03 0.  0.
   -9000010    2    1    2    0  501 -0.10152004022E+04 -0.13420839958E+03 -0.31420319128E+03  0.14633460964E+04  0.99700270886E+03 0.  0.
        -13    1    3    3    0    0  0.66379205918E+03 -0.24513999950E+03  0.73065339361E+03  0.10171371146E+04  0.10566000000E+00 0.  1.
          4    1    3    3  502    0  0.35140834300E+03  0.37934839908E+03 -0.12852440755E+03  0.53283351504E+03  0.00000000000E+00 0.  1.
         13    1    4    4    0    0 -0.57346685954E+03 -0.25823528948E+03 -0.64256784406E+03  0.89913466684E+03  0.10566000000E+00 0. -1.
         -4    1    4    4    0  501 -0.44173354264E+03  0.12402688990E+03  0.32836465277E+03  0.56421142961E+03  0.00000000000E+00 0. -1.
<mgrwt>
<rscale>  2 0.14287244E+04</rscale>
<asrwt>0</asrwt>
<pdfrwt beam="1">  1        2 0.25394173E+00 0.14287244E+04</pdfrwt>
<pdfrwt beam="2">  1       -2 0.20964546E+00 0.14287244E+04</pdfrwt>
<totfact> 0.13365528E+00</totfact>
</mgrwt>
</event>
<event>
 8    1  0.7046235E-006  0.2655141E+04  0.7818608E-02  0.7944038E-01
          2   -1    0    0  502    0  0.00000000000E+00  0.00000000000E+00  0.37113350216E+04  0.37113350216E+04  0.00000000000E+00 0. -1.
         -2   -1    0    0    0  501 -0.00000000000E+00 -0.00000000000E+00 -0.19951486966E+04  0.19951486966E+04  0.00000000000E+00 0.  1.
    9000010    2    1    2  502    0  0.23893647883E+04 -0.61837097236E+03  0.14800339823E+04  0.30323125553E+04  0.95549573163E+03 0.  0.
   -9000010    2    1    2    0  501 -0.23893647883E+04  0.61837097236E+03  0.23615234264E+03  0.26741711629E+04  0.10019863914E+04 0.  0.
        -13    1    3    3    0    0  0.11929168806E+04 -0.47898636993E+03  0.24782201809E+03  0.13091578936E+04  0.10566000000E+00 0.  1.
          4    1    3    3  502    0  0.11964479077E+04 -0.13938460243E+03  0.12322119643E+04  0.17231546617E+04  0.00000000000E+00 0.  1.
         13    1    4    4    0    0 -0.86048857509E+03  0.73313112024E+03  0.89100749977E+02  0.11339580160E+04  0.10566000000E+00 0. -1.
         -4    1    4    4    0  501 -0.15288762132E+04 -0.11476014788E+03  0.14705159267E+03  0.15402131468E+04  0.00000000000E+00 0. -1.
<mgrwt>
<rscale>  2 0.26551411E+04</rscale>
<asrwt>0</asrwt>
<pdfrwt beam="1">  1        2 0.57097462E+00 0.26551411E+04</pdfrwt>
<pdfrwt beam="2">  1       -2 0.30694596E+00 0.26551411E+04</pdfrwt>
<totfact> 0.11636922E-02</totfact>
</mgrwt>
</event>
<event>
 8    1  0.7046235E-006  0.1427993E+04  0.7818608E-02  0.8452184E-01
         -2   -1    0    0    0  501 -0.00000000000E+00  0.00000000000E+00  0.83739707471E+03  0.83739707471E+03  0.00000000000E+00 0.  1.
          2   -1    0    0  502    0  0.00000000000E+00 -0.00000000000E+00 -0.24432976052E+04  0.24432976052E+04  0.00000000000E+00 0. -1.
    9000010    2    1    2  502    0 -0.69571838133E+01 -0.10174462472E+04 -0.70510988568E+03  0.15875187506E+04  0.99387653380E+03 0.  0.
   -9000010    2    1    2    0  501  0.69571838133E+01  0.10174462472E+04 -0.90079064477E+03  0.16931759292E+04  0.10100374614E+04 0.  0.
        -13    1    3    3    0    0 -0.36080447442E+03 -0.13314777174E+03  0.27970600390E+02  0.38560415393E+03  0.10566000000E+00 0.  1.
          4    1    3    3  502    0  0.35384729060E+03 -0.88429847542E+03 -0.73308048607E+03  0.12019145967E+04  0.00000000000E+00 0.  1.
         13    1    4    4    0    0  0.28842485164E+03  0.49258484075E+03 -0.93626599190E+03  0.10965503815E+04  0.10566000000E+00 0. -1.
         -4    1    4    4    0  501 -0.28146766783E+03  0.52486140642E+03  0.35475347136E+02  0.59662554776E+03  0.00000000000E+00 0. -1.
<mgrwt>
<rscale>  2 0.14279930E+04</rscale>
<asrwt>0</asrwt>
<pdfrwt beam="2">  1        2 0.37589193E+00 0.14279930E+04</pdfrwt>
<pdfrwt beam="1">  1       -2 0.12883032E+00 0.14279930E+04</pdfrwt>
<totfact> 0.24325937E+00</totfact>
</mgrwt>
</event>
<event>
 8    1  0.7046235E-006  0.1456914E+04  0.7818608E-02  0.8434736E-01
          2   -1    0    0  502    0  0.00000000000E+00  0.00000000000E+00  0.53805366424E+03  0.53805366424E+03  0.00000000000E+00 0. -1.
         -2   -1    0    0    0  501 -0.00000000000E+00 -0.00000000000E+00 -0.40475531723E+04  0.40475531723E+04  0.00000000000E+00 0.  1.
    9000010    2    1    2  502    0 -0.81804920871E+03 -0.66069975289E+03 -0.13976552322E+04  0.20237262829E+04  0.10179878430E+04 0.  0.
   -9000010    2    1    2    0  501  0.81804920871E+03  0.66069975289E+03 -0.21118442759E+04  0.25618805537E+04  0.99880781653E+03 0.  0.
        -13    1    3    3    0    0  0.10681951682E+03 -0.49981755472E+02  0.10408073509E+03  0.15729397838E+03  0.10566000000E+00 0.  1.
          4    1    3    3  502    0 -0.92486872553E+03 -0.61071799742E+03 -0.15017359673E+04  0.18664323045E+04  0.00000000000E+00 0.  1.
         13    1    4    4    0    0  0.24850593981E+02  0.62536451024E+03 -0.67674374057E+03  0.92178111515E+03  0.10566000000E+00 0. -1.
         -4    1    4    4    0  501  0.79319861473E+03  0.35335242655E+02 -0.14351005353E+04  0.16400994385E+04  0.00000000000E+00 0. -1.
<mgrwt>
<rscale>  2 0.14569141E+04</rscale>
<asrwt>0</asrwt>
<pdfrwt beam="1">  1        2 0.82777489E-01 0.14569141E+04</pdfrwt>
<pdfrwt beam="2">  1       -2 0.62270047E+00 0.14569141E+04</pdfrwt>
<totfact> 0.32973198E-01</totfact>
</mgrwt>
</event>
<event>
 8    1  0.7046235E-006  0.1299399E+04  0.7818608E-02  0.8535250E-01
         -2   -1    0    0    0  501 -0.00000000000E+00  0.00000000000E+00  0.10539988957E+04  0.10539988957E+04  0.00000000000E+00 0. -1.
          2   -1    0    0  502    0  0.00000000000E+00 -0.00000000000E+00 -0.16548802351E+04  0.16548802351E+04  0.00000000000E+00 0.  1.
    9000010    2    1    2  502    0  0.73641057241E+03  0.41180674050E+03 -0.57288449599E+02  0.12965399404E+04  0.98277592970E+03 0.  0.
   -9000010    2    1    2    0  501 -0.73641057241E+03 -0.41180674050E+03 -0.54359288977E+03  0.14123391903E+04  0.99364150281E+03 0.  0.
        -13    1    3    3    0    0  0.12725213065E+03 -0.23851096436E+03 -0.26825908671E+03  0.38084581347E+03  0.10566000000E+00 0.  1.
          4    1    3    3  502    0  0.60915844176E+03  0.65031770486E+03  0.21097063711E+03  0.91569412696E+03  0.00000000000E+00 0.  1.
         13    1    4    4    0    0 -0.25760165066E+03 -0.68267635533E+03 -0.44148247260E+03  0.85282612608E+03  0.10566000000E+00 0. -1.
         -4    1    4    4    0  501 -0.47880892175E+03  0.27086961483E+03 -0.10211041717E+03  0.55951306426E+03  0.00000000000E+00 0. -1.
<mgrwt>
<rscale>  2 0.12993988E+04</rscale>
<asrwt>0</asrwt>
<pdfrwt beam="2">  1        2 0.25459696E+00 0.12993988E+04</pdfrwt>
<pdfrwt beam="1">  1       -2 0.16215368E+00 0.12993988E+04</pdfrwt>
<totfact> 0.33550198E+00</totfact>
</mgrwt>
</event>
<event>
 8    1  0.7046235E-006  0.1570321E+04  0.7818608E-02  0.8370141E-01
          1   -1    0    0  502    0  0.00000000000E+00  0.00000000000E+00  0.10798430151E+04  0.10798430151E+04  0.00000000000E+00 0.  1.
         -1   -1    0    0    0  501 -0.00000000000E+00 -0.00000000000E+00 -0.23191164921E+04  0.23191164921E+04  0.00000000000E+00 0. -1.
    9000010    2    1    2  502    0  0.11581438552E+04 -0.36191643195E+03 -0.82545644185E+03  0.17644685364E+04  0.97963778278E+03 0.  0.
   -9000010    2    1    2    0  501 -0.11581438552E+04  0.36191643195E+03 -0.41381703510E+03  0.16344909709E+04  0.10139208561E+04 0.  0.
        -13    1    3    3    0    0  0.57130391604E+03 -0.19735943170E+03 -0.96551810840E+03  0.11391067284E+04  0.10566000000E+00 0.  1.
          4    1    3    3  502    0  0.58683993911E+03 -0.16455700025E+03  0.14006166655E+03  0.62536180800E+03  0.00000000000E+00 0.  1.
         13    1    4    4    0    0 -0.10990766616E+04 -0.43052422387E+02 -0.73753399265E+02  0.11023894930E+04  0.10566000000E+00 0. -1.
         -4    1    4    4    0  501 -0.59067193505E+02  0.40496885434E+03 -0.34006363584E+03  0.53210147787E+03  0.00000000000E+00 0. -1.
<mgrwt>
<rscale>  2 0.15703206E+04</rscale>
<asrwt>0</asrwt>
<pdfrwt beam="1">  1        1 0.16612969E+00 0.15703206E+04</pdfrwt>
<pdfrwt beam="2">  1       -1 0.35678715E+00 0.15703206E+04</pdfrwt>
<totfact> 0.16326195E-01</totfact>
</mgrwt>
</event>
<event>
 8    1  0.7046235E-006  0.1178391E+04  0.7818608E-02  0.8623014E-01
          2   -1    0    0  502    0  0.00000000000E+00  0.00000000000E+00  0.21694444105E+04  0.21694444105E+04  0.00000000000E+00 0.  1.
         -2   -1    0    0    0  501 -0.00000000000E+00 -0.00000000000E+00 -0.68685335608E+03  0.68685335608E+03  0.00000000000E+00 0. -1.
    9000010    2    1    2  502    0  0.33092171303E+03 -0.54980396407E+03  0.37275314826E+03  0.12425806681E+04  0.99662843033E+03 0.  0.
   -9000010    2    1    2    0  501 -0.33092171303E+03  0.54980396407E+03  0.11098379062E+04  0.16137170985E+04  0.98007607710E+03 0.  0.
        -13    1    3    3    0    0 -0.76095953357E+02 -0.53583535270E+03  0.57348616669E+03  0.78854074966E+03  0.10566000000E+00 0.  1.
          4    1    3    3  502    0  0.40701766639E+03 -0.13968611373E+02 -0.20073301843E+03  0.45403991845E+03  0.00000000000E+00 0.  1.
         13    1    4    4    0    0  0.25802746604E+03  0.26257959991E+03  0.55424249842E+02  0.37228762826E+03  0.10566000000E+00 0. -1.
         -4    1    4    4    0  501 -0.58894917907E+03  0.28722436416E+03  0.10544136563E+04  0.12414294702E+04  0.00000000000E+00 0. -1.
<mgrwt>
<rscale>  2 0.11783912E+04</rscale>
<asrwt>0</asrwt>
<pdfrwt beam="1">  1        2 0.33376068E+00 0.11783912E+04</pdfrwt>
<pdfrwt beam="2">  1       -2 0.10566975E+00 0.11783912E+04</pdfrwt>
<totfact> 0.59243104E+00</totfact>
</mgrwt>
</event>
<event>
 8    1  0.7046235E-006  0.9938807E+03  0.7818608E-02  0.8780362E-01
         -2   -1    0    0    0  501 -0.00000000000E+00  0.00000000000E+00  0.85067004947E+03  0.85067004947E+03  0.00000000000E+00 0.  1.
          2   -1    0    0  502    0  0.00000000000E+00 -0.00000000000E+00 -0.12706078706E+04  0.12706078706E+04  0.00000000000E+00 0. -1.
    9000010    2    1    2  502    0  0.28711569815E+03  0.25544075653E+03  0.10627856080E+03  0.94162084933E+03  0.85303533760E+03 0.  0.
   -9000010    2    1    2    0  501 -0.28711569815E+03 -0.25544075653E+03 -0.52621638190E+03  0.11796570707E+04  0.98336245589E+03 0.  0.
        -13    1    3    3    0    0  0.76713594598E+02  0.44352073144E+03 -0.22765939435E+03  0.50440502159E+03  0.10566000000E+00 0.  1.
          4    1    3    3  502    0  0.21040210355E+03 -0.18807997490E+03  0.33393795514E+03  0.43721582774E+03  0.00000000000E+00 0.  1.
         13    1    4    4    0    0 -0.30203064929E+03 -0.61026703425E+03 -0.23481814134E+03  0.72026935023E+03  0.10566000000E+00 0. -1.
         -4    1    4    4    0  501  0.14914951137E+02  0.35482627772E+03 -0.29139824056E+03  0.45938772048E+03  0.00000000000E+00 0. -1.
<mgrwt>
<rscale>  2 0.99388071E+03</rscale>
<asrwt>0</asrwt>
<pdfrwt beam="2">  1        2 0.19547813E+00 0.99388071E+03</pdfrwt>
<pdfrwt beam="1">  1       -2 0.13087232E+00 0.99388071E+03</pdfrwt>
<totfact> 0.10707633E+01</totfact>
</mgrwt>
</event>
<event>
 8    1  0.7046235E-006  0.1169064E+04  0.7818608E-02  0.8630229E-01
         -2   -1    0    0    0  501 -0.00000000000E+00  0.00000000000E+00  0.60750567904E+03  0.60750567904E+03  0.00000000000E+00 0.  1.
          2   -1    0    0  502    0  0.00000000000E+00 -0.00000000000E+00 -0.23109625907E+04  0.23109625907E+04  0.00000000000E+00 0. -1.
    9000010    2    1    2  502    0  0.51059374710E+03 -0.28543735771E+03 -0.10887732880E+04  0.15969963106E+04  0.10113305511E+04 0.  0.
   -9000010    2    1    2    0  501 -0.51059374710E+03  0.28543735771E+03 -0.61468362360E+03  0.13214719591E+04  0.10130507005E+04 0.  0.
        -13    1    3    3    0    0  0.21512222988E+02 -0.55176551733E+03 -0.29126723806E+03  0.62429526426E+03  0.10566000000E+00 0.  1.
          4    1    3    3  502    0  0.48908152412E+03  0.26632815961E+03 -0.79750604996E+03  0.97270104634E+03  0.00000000000E+00 0.  1.
         13    1    4    4    0    0 -0.47919250395E+03 -0.24875720226E+03 -0.47969111201E+02  0.54203934204E+03  0.10566000000E+00 0. -1.
         -4    1    4    4    0  501 -0.31401243150E+02  0.53419455997E+03 -0.56671451240E+03  0.77943261706E+03  0.00000000000E+00 0. -1.
<mgrwt>
<rscale>  2 0.11690637E+04</rscale>
<asrwt>0</asrwt>
<pdfrwt beam="2">  1        2 0.35553271E+00 0.11690637E+04</pdfrwt>
<pdfrwt beam="1">  1       -2 0.93462411E-01 0.11690637E+04</pdfrwt>
<totfact> 0.66581359E+00</totfact>
</mgrwt>
</event>
<event>
 8    1  0.7046235E-006  0.1381226E+04  0.7818608E-02  0.8481314E-01
          2   -1    0    0  502    0  0.00000000000E+00  0.00000000000E+00  0.47121241578E+03  0.47121241578E+03  0.00000000000E+00 0.  1.
         -2   -1    0    0    0  501 -0.00000000000E+00 -0.00000000000E+00 -0.40555081810E+04  0.40555081810E+04  0.00000000000E+00 0. -1.
    9000010    2    1    2  502    0 -0.10730966470E+03  0.93665542563E+03 -0.18799222215E+04  0.23305301457E+04  0.10042033910E+04 0.  0.
   -9000010    2    1    2    0  501  0.10730966470E+03 -0.93665542563E+03 -0.17043735438E+04  0.21961904512E+04  0.10146549022E+04 0.  0.
        -13    1    3    3    0    0  0.35239783515E+03  0.73808627500E+03 -0.14748047156E+04  0.16864176659E+04  0.10566000000E+00 0.  1.
          4    1    3    3  502    0 -0.45970749985E+03  0.19856915063E+03 -0.40511750590E+03  0.64411247977E+03  0.00000000000E+00 0.  1.
         13    1    4    4    0    0 -0.36306624333E+03 -0.54980938180E+03 -0.13219889604E+04  0.14770789674E+04  0.10566000000E+00 0. -1.
         -4    1    4    4    0  501  0.47037590803E+03 -0.38684604384E+03 -0.38238458342E+03  0.71911148379E+03  0.00000000000E+00 0. -1.
<mgrwt>
<rscale>  2 0.13812256E+04</rscale>
<asrwt>0</asrwt>
<pdfrwt beam="1">  1        2 0.72494216E-01 0.13812256E+04</pdfrwt>
<pdfrwt beam="2">  1       -2 0.62392435E+00 0.13812256E+04</pdfrwt>
<totfact> 0.38727404E-01</totfact>
</mgrwt>
</event>
<event>
 8    1  0.7046235E-006  0.1094463E+04  0.7818608E-02  0.8690575E-01
          1   -1    0    0  502    0  0.00000000000E+00  0.00000000000E+00  0.25268098467E+04  0.25268098467E+04  0.00000000000E+00 0. -1.
         -1   -1    0    0    0  501 -0.00000000000E+00 -0.00000000000E+00 -0.51301727378E+03  0.51301727378E+03  0.00000000000E+00 0.  1.
    9000010    2    1    2  502    0  0.31332551712E+03  0.24298593502E+03  0.14178264320E+04  0.17855860893E+04  0.10103815353E+04 0.  0.
   -9000010    2    1    2    0  501 -0.31332551712E+03 -0.24298593502E+03  0.59596614091E+03  0.12542410312E+04  0.10299174136E+04 0.  0.
        -13    1    3    3    0    0  0.41934305037E+02  0.55836563188E+03  0.11805518092E+04  0.13066113616E+04  0.10566000000E+00 0.  1.
          4    1    3    3  502    0  0.27139121208E+03 -0.31537969687E+03  0.23727462278E+03  0.47897472773E+03  0.00000000000E+00 0.  1.
         13    1    4    4    0    0 -0.30136695761E+03 -0.23246152758E+03  0.88572846410E+03  0.96404114447E+03  0.10566000000E+00 0. -1.
         -4    1    4    4    0  501 -0.11958559509E+02 -0.10524407443E+02 -0.28976232319E+03  0.29019988669E+03  0.00000000000E+00 0. -1.
<mgrwt>
<rscale>  2 0.10944632E+04</rscale>
<asrwt>0</asrwt>
<pdfrwt beam="1">  1        1 0.38873997E+00 0.10944632E+04</pdfrwt>
<pdfrwt beam="2">  1       -1 0.78925736E-01 0.10944632E+04</pdfrwt>
<totfact> 0.22752524E+00</totfact>
</mgrwt>
</event>
<event>
 8    1  0.7046235E-006  0.1384376E+04  0.7818608E-02  0.8479315E-01
          2   -1    0    0  502    0  0.00000000000E+00  0.00000000000E+00  0.24300918389E+04  0.24300918389E+04  0.00000000000E+00 0. -1.
         -2   -1    0    0    0  501 -0.00000000000E+00 -0.00000000000E+00 -0.88113096298E+03  0.88113096298E+03  0.00000000000E+00 0.  1.
    9000010    2    1    2  502    0  0.64436425251E+02 -0.10299966545E+04  0.21253229071E+03  0.13418475695E+04  0.83086687498E+03 0.  0.
   -9000010    2    1    2    0  501 -0.64436425251E+02  0.10299966545E+04  0.13364285852E+04  0.19693752324E+04  0.10135838797E+04 0.  0.
        -13    1    3    3    0    0 -0.16799891937E+03 -0.10672941210E+04  0.11323293510E+03  0.10863526528E+04  0.10566000000E+00 0.  1.
          4    1    3    3  502    0  0.23243534462E+03  0.37297466416E+02  0.99299355610E+02  0.25549491669E+03  0.00000000000E+00 0.  1.
         13    1    4    4    0    0 -0.47599896151E+03  0.61114569512E+03  0.42061332925E+03  0.88147016735E+03  0.10566000000E+00 0. -1.
         -4    1    4    4    0  501  0.41156253626E+03  0.41885095941E+03  0.91581525597E+03  0.10879050650E+04  0.00000000000E+00 0. -1.
<mgrwt>
<rscale>  2 0.13843762E+04</rscale>
<asrwt>0</asrwt>
<pdfrwt beam="1">  1        2 0.37386028E+00 0.13843762E+04</pdfrwt>
<pdfrwt beam="2">  1       -2 0.13555861E+00 0.13843762E+04</pdfrwt>
<totfact> 0.21533990E+00</totfact>
</mgrwt>
</event>
<event>
 8    1  0.7046235E-006  0.1049748E+04  0.7818608E-02  0.8729203E-01
         -2   -1    0    0    0  501 -0.00000000000E+00  0.00000000000E+00  0.51919716418E+03  0.51919716418E+03  0.00000000000E+00 0. -1.
          2   -1    0    0  502    0  0.00000000000E+00 -0.00000000000E+00 -0.21430338539E+04  0.21430338539E+04  0.00000000000E+00 0.  1.
    9000010    2    1    2  502    0  0.32008888500E+03  0.13956155188E+03 -0.95697611401E+03  0.14382017325E+04  0.10152273733E+04 0.  0.
   -9000010    2    1    2    0  501 -0.32008888500E+03 -0.13956155188E+03 -0.66686057571E+03  0.12240292856E+04  0.96519963917E+03 0.  0.
        -13    1    3    3    0    0  0.35841798115E+03 -0.37996889944E+03 -0.64878129150E+03  0.83292075801E+03  0.10566000000E+00 0.  1.
          4    1    3    3  502    0 -0.38329096148E+02  0.51953045132E+03 -0.30819482251E+03  0.60528097449E+03  0.00000000000E+00 0.  1.
         13    1    4    4    0    0 -0.58004667247E+02  0.38349687809E+03 -0.81304379493E+02  0.39628879648E+03  0.10566000000E+00 0. -1.
         -4    1    4    4    0  501 -0.26208421775E+03 -0.52305842997E+03 -0.58555619622E+03  0.82774048909E+03  0.00000000000E+00 0. -1.
<mgrwt>
<rscale>  2 0.10497475E+04</rscale>
<asrwt>0</asrwt>
<pdfrwt beam="2">  1        2 0.32969751E+00 0.10497475E+04</pdfrwt>
<pdfrwt beam="1">  1       -2 0.79876489E-01 0.10497475E+04</pdfrwt>
<totfact> 0.11900246E+01</totfact>
</mgrwt>
</event>
<event>
 8    1  0.7046235E-006  0.1022104E+04  0.7818608E-02  0.8754096E-01
          2   -1    0    0  502    0  0.00000000000E+00  0.00000000000E+00  0.97345936952E+03  0.97345936952E+03  0.00000000000E+00 0. -1.
         -2   -1    0    0    0  501 -0.00000000000E+00 -0.00000000000E+00 -0.10786079793E+04  0.10786079793E+04  0.00000000000E+00 0.  1.
    9000010    2    1    2  502    0  0.20230969107E+03  0.31042458159E+03 -0.11692087376E+03  0.10664986887E+04  0.99320507965E+03 0.  0.
   -9000010    2    1    2    0  501 -0.20230969107E+03 -0.31042458159E+03  0.11772264023E+02  0.98556866012E+03  0.91318911823E+03 0.  0.
        -13    1    3    3    0    0  0.19223945115E+03 -0.22458007185E+03 -0.37080538578E+03  0.47422448327E+03  0.10566000000E+00 0.  1.
          4    1    3    3  502    0  0.10070239927E+02  0.53500465343E+03  0.25388451201E+03  0.59227420539E+03  0.00000000000E+00 0.  1.
         13    1    4    4    0    0 -0.34582622118E+03 -0.43373414921E+03  0.30767728855E+03  0.63433935122E+03  0.10566000000E+00 0. -1.
         -4    1    4    4    0  501  0.14351653011E+03  0.12330956763E+03 -0.29590502453E+03  0.35122930889E+03  0.00000000000E+00 0. -1.
<mgrwt>
<rscale>  2 0.10221044E+04</rscale>
<asrwt>0</asrwt>
<pdfrwt beam="1">  1        2 0.14976298E+00 0.10221044E+04</pdfrwt>
<pdfrwt beam="2">  1       -2 0.16593969E+00 0.10221044E+04</pdfrwt>
<totfact> 0.77780124E+00</totfact>
</mgrwt>
</event>
<event>
 8    1  0.7046235E-006  0.2022658E+04  0.7818608E-02  0.8159229E-01
         -2   -1    0    0    0  501 -0.00000000000E+00  0.00000000000E+00  0.21880146694E+04  0.21880146694E+04  0.00000000000E+00 0.  1.
          2   -1    0    0  502    0  0.00000000000E+00 -0.00000000000E+00 -0.19545430358E+04  0.19545430358E+04  0.00000000000E+00 0. -1.
    9000010    2    1    2  502    0 -0.16267470668E+04 -0.58406892724E+03  0.54865326291E+03  0.21155835452E+04  0.10896012127E+04 0.  0.
   -9000010    2    1    2    0  501  0.16267470668E+04  0.58406892724E+03 -0.31518162931E+03  0.20269741599E+04  0.10108621342E+04 0.  0.
        -13    1    3    3    0    0 -0.14592758816E+04 -0.86526150714E+03  0.56435744126E+03  0.17879213929E+04  0.10566000000E+00 0.  1.
          4    1    3    3  502    0 -0.16747118521E+03  0.28119257990E+03 -0.15704178349E+02  0.32766215236E+03  0.00000000000E+00 0.  1.
         13    1    4    4    0    0  0.42927149227E+03  0.44222275167E+02  0.34905459214E+03  0.55503940685E+03  0.10566000000E+00 0. -1.
         -4    1    4    4    0  501  0.11974755746E+04  0.53984665207E+03 -0.66423622145E+03  0.14719347531E+04  0.00000000000E+00 0. -1.
<mgrwt>
<rscale>  2 0.20226575E+04</rscale>
<asrwt>0</asrwt>
<pdfrwt beam="2">  1        2 0.30069893E+00 0.20226575E+04</pdfrwt>
<pdfrwt beam="1">  1       -2 0.33661764E+00 0.20226575E+04</pdfrwt>
<totfact> 0.10065562E-01</totfact>
</mgrwt>
</event>
<event>
 8    1  0.7046235E-006  0.1230073E+04  0.7818608E-02  0.8584255E-01
          2   -1    0    0  502    0  0.00000000000E+00  0.00000000000E+00  0.82498843742E+03  0.82498843742E+03  0.00000000000E+00 0. -1.
         -2   -1    0    0    0  501 -0.00000000000E+00 -0.00000000000E+00 -0.19022017017E+04  0.19022017017E+04  0.00000000000E+00 0.  1.
    9000010    2    1    2  502    0 -0.60224558693E+03 -0.38012405271E+03 -0.28235268720E+03  0.12661968298E+04  0.10081355709E+04 0.  0.
   -9000010    2    1    2    0  501  0.60224558693E+03  0.38012405271E+03 -0.79486057710E+03  0.14609933094E+04  0.99774950294E+03 0.  0.
        -13    1    3    3    0    0  0.22288879501E+03 -0.75111637782E+02 -0.30627466560E+03  0.38616752197E+03  0.10566000000E+00 0.  1.
          4    1    3    3  502    0 -0.82513438194E+03 -0.30501241493E+03  0.23921978403E+02  0.88002930779E+03  0.00000000000E+00 0.  1.
         13    1    4    4    0    0  0.72514241827E+03  0.57336146997E+03 -0.40588924190E+03  0.10096142778E+04  0.10566000000E+00 0. -1.
         -4    1    4    4    0  501 -0.12289683134E+03 -0.19323741725E+03 -0.38897133520E+03  0.45137903162E+03  0.00000000000E+00 0. -1.
<mgrwt>
<rscale>  2 0.12300727E+04</rscale>
<asrwt>0</asrwt>
<pdfrwt beam="1">  1        2 0.12692130E+00 0.12300727E+04</pdfrwt>
<pdfrwt beam="2">  1       -2 0.29264641E+00 0.12300727E+04</pdfrwt>
<totfact> 0.93628034E-01</totfact>
</mgrwt>
</event>
<event>
 8    1  0.7046235E-006  0.1375782E+04  0.7818608E-02  0.8484782E-01
         -4   -1    0    0    0  501 -0.00000000000E+00  0.00000000000E+00  0.26089021714E+04  0.26089021714E+04  0.00000000000E+00 0.  1.
          4   -1    0    0  502    0  0.00000000000E+00 -0.00000000000E+00 -0.76225745571E+03  0.76225745571E+03  0.00000000000E+00 0. -1.
    9000010    2    1    2  502    0  0.94807720356E+03  0.98087838122E+01  0.55677319655E+03  0.14892671249E+04  0.10044767697E+04 0.  0.
   -9000010    2    1    2    0  501 -0.94807720356E+03 -0.98087838122E+01  0.12898715191E+04  0.18818925021E+04  0.98934536825E+03 0.  0.
        -13    1    3    3    0    0  0.19497925312E+03  0.12865756405E+03  0.67814194116E+03  0.71724903727E+03  0.10566000000E+00 0.  1.
          4    1    3    3  502    0  0.75309795043E+03 -0.11884878023E+03 -0.12136874461E+03  0.77201808766E+03  0.00000000000E+00 0.  1.
         13    1    4    4    0    0  0.11945037452E+03 -0.13129931789E+03 -0.29977347809E+02  0.18001820851E+03  0.10566000000E+00 0. -1.
         -4    1    4    4    0  501 -0.10675275781E+04  0.12149053408E+03  0.13198488669E+04  0.17018742936E+04  0.00000000000E+00 0. -1.
<mgrwt>
<rscale>  2 0.13757817E+04</rscale>
<asrwt>0</asrwt>
<pdfrwt beam="2">  1        4 0.11727038E+00 0.13757817E+04</pdfrwt>
<pdfrwt beam="1">  1       -4 0.40136956E+00 0.13757817E+04</pdfrwt>
<totfact> 0.10146267E-01</totfact>
</mgrwt>
</event>
<event>
 8    1  0.7046235E-006  0.1190980E+04  0.7818608E-02  0.8613386E-01
         -1   -1    0    0    0  501 -0.00000000000E+00  0.00000000000E+00  0.12428793941E+04  0.12428793941E+04  0.00000000000E+00 0. -1.
          1   -1    0    0  502    0  0.00000000000E+00 -0.00000000000E+00 -0.18858314668E+04  0.18858314668E+04  0.00000000000E+00 0.  1.
    9000010    2    1    2  502    0  0.57914778981E+03  0.33502434515E+03 -0.13031449353E+04  0.17602250318E+04  0.97598768730E+03 0.  0.
   -9000010    2    1    2    0  501 -0.57914778981E+03 -0.33502434515E+03  0.66019286262E+03  0.13684858291E+04  0.99460815114E+03 0.  0.
        -13    1    3    3    0    0  0.82065347643E+03  0.75643726303E+02 -0.98160059423E+03  0.12816917880E+04  0.10566000000E+00 0.  1.
          4    1    3    3  502    0 -0.24150568662E+03  0.25938061885E+03 -0.32154434111E+03  0.47853324378E+03  0.00000000000E+00 0.  1.
         13    1    4    4    0    0 -0.59062754872E+03  0.41344785670E+01 -0.38340034953E+02  0.59188509413E+03  0.10566000000E+00 0. -1.
         -4    1    4    4    0  501  0.11479758902E+02 -0.33915882372E+03  0.69853289757E+03  0.77660073497E+03  0.00000000000E+00 0. -1.
<mgrwt>
<rscale>  2 0.11909801E+04</rscale>
<asrwt>0</asrwt>
<pdfrwt beam="2">  1        1 0.29012792E+00 0.11909801E+04</pdfrwt>
<pdfrwt beam="1">  1       -1 0.19121222E+00 0.11909801E+04</pdfrwt>
<totfact> 0.72642428E-01</totfact>
</mgrwt>
</event>
<event>
 8    1  0.7046235E-006  0.1252828E+04  0.7818608E-02  0.8567809E-01
          2   -1    0    0  502    0  0.00000000000E+00  0.00000000000E+00  0.24712494723E+04  0.24712494723E+04  0.00000000000E+00 0.  1.
         -2   -1    0    0    0  501 -0.00000000000E+00 -0.00000000000E+00 -0.66964100199E+03  0.66964100199E+03  0.00000000000E+00 0. -1.
    9000010    2    1    2  502    0 -0.30176453501E+03 -0.71490971784E+03  0.56511586611E+03  0.14002109877E+04  0.10193513275E+04 0.  0.
   -9000010    2    1    2    0  501  0.30176453501E+03  0.71490971784E+03  0.12364926042E+04  0.17406794865E+04  0.94809987629E+03 0.  0.
        -13    1    3    3    0    0 -0.18414011307E+03 -0.47820242287E+03 -0.23046447627E+03  0.56187100341E+03  0.10566000000E+00 0.  1.
          4    1    3    3  502    0 -0.11762442193E+03 -0.23670729497E+03  0.79558034239E+03  0.83833998432E+03  0.00000000000E+00 0.  1.
         13    1    4    4    0    0 -0.15822893322E+03  0.74743878270E+03  0.77680889845E+03  0.10895564258E+04  0.10566000000E+00 0. -1.
         -4    1    4    4    0  501  0.45999346823E+03 -0.32529064865E+02  0.45968370571E+03  0.65112306069E+03  0.00000000000E+00 0. -1.
<mgrwt>
<rscale>  2 0.12528283E+04</rscale>
<asrwt>0</asrwt>
<pdfrwt beam="1">  1        2 0.38019222E+00 0.12528283E+04</pdfrwt>
<pdfrwt beam="2">  1       -2 0.10302169E+00 0.12528283E+04</pdfrwt>
<totfact> 0.42664156E+00</totfact>
</mgrwt>
</event>
<event>
 8    1  0.7046235E-006  0.1509039E+04  0.7818608E-02  0.8404316E-01
         -2   -1    0    0    0  501 -0.00000000000E+00  0.00000000000E+00  0.67691224764E+03  0.67691224764E+03  0.00000000000E+00 0.  1.
          2   -1    0    0  502    0  0.00000000000E+00 -0.00000000000E+00 -0.35184581250E+04  0.35184581250E+04  0.00000000000E+00 0. -1.
    9000010    2    1    2  502    0  0.87816324870E+03 -0.84935990837E+03 -0.10965666366E+04  0.19515242554E+04  0.10551803569E+04 0.  0.
   -9000010    2    1    2    0  501 -0.87816324870E+03  0.84935990837E+03 -0.17449792407E+04  0.22438461172E+04  0.70520202919E+03 0.  0.
        -13    1    3    3    0    0 -0.10101888010E+03 -0.55518581313E+03 -0.22310580295E+03  0.60680500304E+03  0.10566000000E+00 0.  1.
          4    1    3    3  502    0  0.97918212880E+03 -0.29417409524E+03 -0.87346083368E+03  0.13447192524E+04  0.00000000000E+00 0.  1.
         13    1    4    4    0    0 -0.47907273068E+03  0.73268402023E+02 -0.34784462522E+03  0.59655245744E+03  0.10566000000E+00 0. -1.
         -4    1    4    4    0  501 -0.39909051803E+03  0.77609150635E+03 -0.13971346155E+04  0.16472936598E+04  0.00000000000E+00 0. -1.
<mgrwt>
<rscale>  2 0.15090393E+04</rscale>
<asrwt>0</asrwt>
<pdfrwt beam="2">  1        2 0.54130125E+00 0.15090393E+04</pdfrwt>
<pdfrwt beam="1">  1       -2 0.10414034E+00 0.15090393E+04</pdfrwt>
<totfact> 0.88402120E-01</totfact>
</mgrwt>
</event>
<event>
 8    1  0.7046235E-006  0.1647495E+04  0.7818608E-02  0.8329330E-01
         -2   -1    0    0    0  501 -0.00000000000E+00  0.00000000000E+00  0.69610139750E+03  0.69610139750E+03  0.00000000000E+00 0. -1.
          2   -1    0    0  502    0  0.00000000000E+00 -0.00000000000E+00 -0.39018450870E+04  0.39018450870E+04  0.00000000000E+00 0.  1.
    9000010    2    1    2  502    0  0.94689050985E+03  0.90028339906E+03 -0.16686711190E+04  0.23498259721E+04  0.10149418503E+04 0.  0.
   -9000010    2    1    2    0  501 -0.94689050985E+03 -0.90028339906E+03 -0.15370725705E+04  0.22481205124E+04  0.99214006821E+03 0.  0.
        -13    1    3    3    0    0  0.68845927283E+03  0.10198971942E+04 -0.88414704529E+03  0.15152169699E+04  0.10566000000E+00 0.  1.
          4    1    3    3  502    0  0.25843123702E+03 -0.11961379517E+03 -0.78452407374E+03  0.83460900220E+03  0.00000000000E+00 0.  1.
         13    1    4    4    0    0 -0.49288192609E+03  0.28181694129E+00 -0.97754387812E+03  0.10947715366E+04  0.10566000000E+00 0. -1.
         -4    1    4    4    0  501 -0.45400858377E+03 -0.90056521600E+03 -0.55952869238E+03  0.11533489758E+04  0.00000000000E+00 0. -1.
<mgrwt>
<rscale>  2 0.16474950E+04</rscale>
<asrwt>0</asrwt>
<pdfrwt beam="2">  1        2 0.60028385E+00 0.16474950E+04</pdfrwt>
<pdfrwt beam="1">  1       -2 0.10709252E+00 0.16474950E+04</pdfrwt>
<totfact> 0.39664342E-01</totfact>
</mgrwt>
</event>
<event>
 8    1  0.7046235E-006  0.1440720E+04  0.7818608E-02  0.8444454E-01
          4   -1    0    0  502    0  0.00000000000E+00  0.00000000000E+00  0.17394853246E+04  0.17394853246E+04  0.00000000000E+00 0.  1.
         -4   -1    0    0    0  501 -0.00000000000E+00 -0.00000000000E+00 -0.27598923764E+04  0.27598923764E+04  0.00000000000E+00 0. -1.
    9000010    2    1    2  502    0  0.45169534612E+03 -0.74540153550E+03  0.11949287981E+04  0.18020343622E+04  0.10294760197E+04 0.  0.
   -9000010    2    1    2    0  501 -0.45169534612E+03  0.74540153550E+03 -0.22153358498E+04  0.26973433388E+04  0.12681861160E+04 0.  0.
        -13    1    3    3    0    0  0.36281485501E+03 -0.86589529411E+03  0.44800088732E+03  0.10402471272E+04  0.10566000000E+00 0.  1.
          4    1    3    3  502    0  0.88880491113E+02  0.12049375861E+03  0.74692791077E+03  0.76178723503E+03  0.00000000000E+00 0.  1.
         13    1    4    4    0    0 -0.73342805524E+03  0.34977679691E+03 -0.59865102179E+03  0.10092787409E+04  0.10566000000E+00 0. -1.
         -4    1    4    4    0  501  0.28173270912E+03  0.39562473859E+03 -0.16166848280E+04  0.16880645978E+04  0.00000000000E+00 0. -1.
<mgrwt>
<rscale>  2 0.14407196E+04</rscale>
<asrwt>0</asrwt>
<pdfrwt beam="1">  1        4 0.26761313E+00 0.14407196E+04</pdfrwt>
<pdfrwt beam="2">  1       -4 0.42459883E+00 0.14407196E+04</pdfrwt>
<totfact> 0.24696557E-02</totfact>
</mgrwt>
</event>
<event>
 8    1  0.7046235E-006  0.1278942E+04  0.7818608E-02  0.8549376E-01
         -2   -1    0    0    0  501 -0.00000000000E+00  0.00000000000E+00  0.13412404202E+04  0.13412404202E+04  0.00000000000E+00 0. -1.
          2   -1    0    0  502    0  0.00000000000E+00 -0.00000000000E+00 -0.15780252615E+04  0.15780252615E+04  0.00000000000E+00 0.  1.
    9000010    2    1    2  502    0  0.38748228805E+03  0.67883150075E+03 -0.81437667940E+03  0.15197138282E+04  0.10175293675E+04 0.  0.
   -9000010    2    1    2    0  501 -0.38748228805E+03 -0.67883150075E+03  0.57759183802E+03  0.13995518535E+04  0.10070642131E+04 0.  0.
        -13    1    3    3    0    0  0.25909058035E+03 -0.71207887562E+02 -0.70053215120E+03  0.75029580707E+03  0.10566000000E+00 0.  1.
          4    1    3    3  502    0  0.12839170770E+03  0.75003938831E+03 -0.11384452819E+03  0.76941802112E+03  0.00000000000E+00 0.  1.
         13    1    4    4    0    0  0.33065916370E+03 -0.34157837429E+03  0.28283041317E+03  0.55317657407E+03  0.10566000000E+00 0. -1.
         -4    1    4    4    0  501 -0.71814145175E+03 -0.33725312646E+03  0.29476142485E+03  0.84637527941E+03  0.00000000000E+00 0. -1.
<mgrwt>
<rscale>  2 0.12789420E+04</rscale>
<asrwt>0</asrwt>
<pdfrwt beam="2">  1        2 0.24277312E+00 0.12789420E+04</pdfrwt>
<pdfrwt beam="1">  1       -2 0.20634468E+00 0.12789420E+04</pdfrwt>
<totfact> 0.15837090E+00</totfact>
</mgrwt>
</event>
<event>
 8    1  0.7046235E-006  0.1516189E+04  0.7818608E-02  0.8400243E-01
          2   -1    0    0  502    0  0.00000000000E+00  0.00000000000E+00  0.98306552822E+03  0.98306552822E+03  0.00000000000E+00 0.  1.
         -2   -1    0    0    0  501 -0.00000000000E+00 -0.00000000000E+00 -0.41189363906E+04  0.41189363906E+04  0.00000000000E+00 0. -1.
    9000010    2    1    2  502    0 -0.80526154069E+03  0.80812296072E+03 -0.32374920865E+04  0.35695264987E+04  0.97910956822E+03 0.  0.
   -9000010    2    1    2    0  501  0.80526154069E+03 -0.80812296072E+03  0.10162122410E+03  0.15324754201E+04  0.10181577340E+04 0.  0.
        -13    1    3    3    0    0 -0.23580645758E+02  0.45381273642E+03 -0.20771788466E+04  0.21263052506E+04  0.10566000000E+00 0.  1.
          4    1    3    3  502    0 -0.78168089494E+03  0.35431022430E+03 -0.11603132398E+04  0.14432212482E+04  0.00000000000E+00 0.  1.
         13    1    4    4    0    0  0.26507553785E+03  0.18033076142E+03 -0.18500725550E+03  0.37015121239E+03  0.10566000000E+00 0. -1.
         -4    1    4    4    0  501  0.54018600285E+03 -0.98845372214E+03  0.28662847960E+03  0.11623242077E+04  0.00000000000E+00 0. -1.
<mgrwt>
<rscale>  2 0.15161888E+04</rscale>
<asrwt>0</asrwt>
<pdfrwt beam="1">  1        2 0.15124085E+00 0.15161888E+04</pdfrwt>
<pdfrwt beam="2">  1       -2 0.63368252E+00 0.15161888E+04</pdfrwt>
<totfact> 0.14924850E-01</totfact>
</mgrwt>
</event>
<event>
 8    1  0.7046235E-006  0.1432270E+04  0.7818608E-02  0.8449577E-01
          1   -1    0    0  502    0  0.00000000000E+00  0.00000000000E+00  0.26269992055E+04  0.26269992055E+04  0.00000000000E+00 0.  1.
         -1   -1    0    0    0  501 -0.00000000000E+00 -0.00000000000E+00 -0.10825527237E+04  0.10825527237E+04  0.00000000000E+00 0. -1.
    9000010    2    1    2  502    0 -0.94881674646E+03  0.36678356951E+03  0.17501376002E+04  0.22595824877E+04  0.10039661320E+04 0.  0.
   -9000010    2    1    2    0  501  0.94881674646E+03 -0.36678356951E+03 -0.20569111837E+03  0.14499694414E+04  0.10125804362E+04 0.  0.
        -13    1    3    3    0    0 -0.89792695044E+03  0.15999585301E+03  0.60424042160E+03  0.10940648882E+04  0.10566000000E+00 0.  1.
          4    1    3    3  502    0 -0.50889796021E+02  0.20678771650E+03  0.11458971786E+04  0.11655175996E+04  0.00000000000E+00 0.  1.
         13    1    4    4    0    0  0.10083055484E+04 -0.18214004037E+03  0.15900557206E+03  0.10368885457E+04  0.10566000000E+00 0. -1.
         -4    1    4    4    0  501 -0.59488801893E+02 -0.18464352914E+03 -0.36469669043E+03  0.41308089573E+03  0.00000000000E+00 0. -1.
<mgrwt>
<rscale>  2 0.14322704E+04</rscale>
<asrwt>0</asrwt>
<pdfrwt beam="1">  1        1 0.40415372E+00 0.14322704E+04</pdfrwt>
<pdfrwt beam="2">  1       -1 0.16654657E+00 0.14322704E+04</pdfrwt>
<totfact> 0.27840730E-01</totfact>
</mgrwt>
</event>
<event>
 8    1  0.7046235E-006  0.1070190E+04  0.7818608E-02  0.8711299E-01
         -2   -1    0    0    0  501 -0.00000000000E+00  0.00000000000E+00  0.39041643839E+04  0.39041643839E+04  0.00000000000E+00 0. -1.
          2   -1    0    0  502    0  0.00000000000E+00 -0.00000000000E+00 -0.39826066683E+03  0.39826066683E+03  0.00000000000E+00 0.  1.
    9000010    2    1    2  502    0 -0.88471707511E+02 -0.39072232841E+03  0.28670958474E+04  0.30632934562E+04  0.10015173587E+04 0.  0.
   -9000010    2    1    2    0  501  0.88471707511E+02  0.39072232841E+03  0.63880786974E+03  0.12391315946E+04  0.98330078478E+03 0.  0.
        -13    1    3    3    0    0  0.34582456711E+03  0.14797585688E+03  0.81356329959E+03  0.89631285779E+03  0.10566000000E+00 0.  1.
          4    1    3    3  502    0 -0.43429627462E+03 -0.53869818529E+03  0.20535325478E+04  0.21669805984E+04  0.00000000000E+00 0.  1.
         13    1    4    4    0    0  0.51381824306E+03  0.36039777365E+03  0.45280477032E+03  0.77390433087E+03  0.10566000000E+00 0. -1.
         -4    1    4    4    0  501 -0.42534653555E+03  0.30324554765E+02  0.18600309941E+03  0.46522726373E+03  0.00000000000E+00 0. -1.
<mgrwt>
<rscale>  2 0.10701903E+04</rscale>
<asrwt>0</asrwt>
<pdfrwt beam="2">  1        2 0.61270874E-01 0.10701903E+04</pdfrwt>
<pdfrwt beam="1">  1       -2 0.60064065E+00 0.10701903E+04</pdfrwt>
<totfact> 0.54668719E-01</totfact>
</mgrwt>
</event>
<event>
 8    1  0.7046235E-006  0.1401782E+04  0.7818608E-02  0.8468367E-01
         -4   -1    0    0    0  501 -0.00000000000E+00  0.00000000000E+00  0.22327296481E+04  0.22327296481E+04  0.00000000000E+00 0. -1.
          4   -1    0    0  502    0  0.00000000000E+00 -0.00000000000E+00 -0.12851142378E+04  0.12851142378E+04  0.00000000000E+00 0.  1.
    9000010    2    1    2  502    0 -0.28894888960E+03 -0.93047702579E+03 -0.51397882165E+03  0.14917041319E+04  0.10058469226E+04 0.  0.
   -9000010    2    1    2    0  501  0.28894888960E+03  0.93047702579E+03  0.14615942320E+04  0.20261397540E+04  0.10098047570E+04 0.  0.
        -13    1    3    3    0    0 -0.55672489530E+03 -0.97781699973E+03 -0.45338651136E+03  0.12131067694E+04  0.10566000000E+00 0.  1.
          4    1    3    3  502    0  0.26777600570E+03  0.47339973940E+02 -0.60592310292E+02  0.27859736256E+03  0.00000000000E+00 0.  1.
         13    1    4    4    0    0  0.29249143298E+03  0.50659443766E+03  0.91642112472E+02  0.59210425651E+03  0.10566000000E+00 0. -1.
         -4    1    4    4    0  501 -0.35425433835E+01  0.42388258813E+03  0.13699521196E+04  0.14340354975E+04  0.00000000000E+00 0. -1.
<mgrwt>
<rscale>  2 0.14017816E+04</rscale>
<asrwt>0</asrwt>
<pdfrwt beam="2">  1        4 0.19770988E+00 0.14017816E+04</pdfrwt>
<pdfrwt beam="1">  1       -4 0.34349687E+00 0.14017816E+04</pdfrwt>
<totfact> 0.76200996E-02</totfact>
</mgrwt>
</event>
<event>
 8    1  0.7046235E-006  0.1318610E+04  0.7818608E-02  0.8522227E-01
         -2   -1    0    0    0  501 -0.00000000000E+00  0.00000000000E+00  0.31639024798E+04  0.31639024798E+04  0.00000000000E+00 0. -1.
          2   -1    0    0  502    0  0.00000000000E+00 -0.00000000000E+00 -0.55020756294E+03  0.55020756294E+03  0.00000000000E+00 0.  1.
    9000010    2    1    2  502    0 -0.43717248752E+03  0.74514511113E+03  0.13752024731E+04  0.19084885619E+04  0.10023900081E+04 0.  0.
   -9000010    2    1    2    0  501  0.43717248752E+03 -0.74514511113E+03  0.12384924438E+04  0.18056214809E+04  0.98997190793E+03 0.  0.
        -13    1    3    3    0    0 -0.41592465325E+02  0.45865591945E+03  0.12291435729E+02  0.46070193854E+03  0.10566000000E+00 0.  1.
          4    1    3    3  502    0 -0.39558002219E+03  0.28648919167E+03  0.13629110373E+04  0.14477866233E+04  0.00000000000E+00 0.  1.
         13    1    4    4    0    0  0.29755305060E+03 -0.98860894390E+03  0.94663393455E+03  0.14007145602E+04  0.10566000000E+00 0. -1.
         -4    1    4    4    0  501  0.13961943691E+03  0.24346383278E+03  0.29185850922E+03  0.40490692071E+03  0.00000000000E+00 0. -1.
<mgrwt>
<rscale>  2 0.13186099E+04</rscale>
<asrwt>0</asrwt>
<pdfrwt beam="2">  1        2 0.84647319E-01 0.13186099E+04</pdfrwt>
<pdfrwt beam="1">  1       -2 0.48675422E+00 0.13186099E+04</pdfrwt>
<totfact> 0.20840707E-01</totfact>
</mgrwt>
</event>
<event>
 8    1  0.7046235E-006  0.1464536E+04  0.7818608E-02  0.8430207E-01
         -2   -1    0    0    0  501 -0.00000000000E+00  0.00000000000E+00  0.87911201307E+03  0.87911201307E+03  0.00000000000E+00 0.  1.
          2   -1    0    0  502    0  0.00000000000E+00 -0.00000000000E+00 -0.26868884089E+04  0.26868884089E+04  0.00000000000E+00 0. -1.
    9000010    2    1    2  502    0  0.96411830672E+03 -0.45954011612E+03 -0.36519845852E+03  0.15128145332E+04  0.10072421110E+04 0.  0.
   -9000010    2    1    2    0  501 -0.96411830672E+03  0.45954011612E+03 -0.14425779373E+04  0.20531858888E+04  0.99691522253E+03 0.  0.
        -13    1    3    3    0    0  0.52165988169E+03 -0.23536790955E+02  0.30035908964E+03  0.60241066274E+03  0.10566000000E+00 0.  1.
          4    1    3    3  502    0  0.44245842503E+03 -0.43600332517E+03 -0.66555754816E+03  0.91040387047E+03  0.00000000000E+00 0.  1.
         13    1    4    4    0    0 -0.66750963015E+03 -0.23005519410E+03 -0.62076866514E+03  0.94013203619E+03  0.10566000000E+00 0. -1.
         -4    1    4    4    0  501 -0.29660867657E+03  0.68959531023E+03 -0.82180927216E+03  0.11130538526E+04  0.00000000000E+00 0. -1.
<mgrwt>
<rscale>  2 0.14645356E+04</rscale>
<asrwt>0</asrwt>
<pdfrwt beam="2">  1        2 0.41336745E+00 0.14645356E+04</pdfrwt>
<pdfrwt beam="1">  1       -2 0.13524800E+00 0.14645356E+04</pdfrwt>
<totfact> 0.15333848E+00</totfact>
</mgrwt>
</event>
<event>
 8    1  0.7046235E-006  0.1284232E+04  0.7818608E-02  0.8545697E-01
          1   -1    0    0  502    0  0.00000000000E+00  0.00000000000E+00  0.14284562628E+04  0.14284562628E+04  0.00000000000E+00 0. -1.
         -1   -1    0    0    0  501 -0.00000000000E+00 -0.00000000000E+00 -0.11573617819E+04  0.11573617819E+04  0.00000000000E+00 0.  1.
    9000010    2    1    2  502    0  0.15280212141E+03 -0.79159439515E+03  0.73399074182E+02  0.12943707021E+04  0.10099692647E+04 0.  0.
   -9000010    2    1    2    0  501 -0.15280212141E+03  0.79159439515E+03  0.19769540672E+03  0.12914473425E+04  0.98933441766E+03 0.  0.
        -13    1    3    3    0    0  0.52191696748E+03 -0.66882681663E+03  0.22367314876E+03  0.87735757831E+03  0.10566000000E+00 0.  1.
          4    1    3    3  502    0 -0.36911484608E+03 -0.12276757853E+03 -0.15027407458E+03  0.41701312380E+03  0.00000000000E+00 0.  1.
         13    1    4    4    0    0  0.26613991474E+03 -0.10216973490E+03  0.87674598214E+02  0.29825484956E+03  0.10566000000E+00 0. -1.
         -4    1    4    4    0  501 -0.41894203615E+03  0.89376413005E+03  0.11002080850E+03  0.99319249298E+03  0.00000000000E+00 0. -1.
<mgrwt>
<rscale>  2 0.12842318E+04</rscale>
<asrwt>0</asrwt>
<pdfrwt beam="1">  1        1 0.21976250E+00 0.12842318E+04</pdfrwt>
<pdfrwt beam="2">  1       -1 0.17805566E+00 0.12842318E+04</pdfrwt>
<totfact> 0.20526734E+00</totfact>
</mgrwt>
</event>
<event>
 8    1  0.7046235E-006  0.1121671E+04  0.7818608E-02  0.8668002E-01
         -2   -1    0    0    0  501 -0.00000000000E+00  0.00000000000E+00  0.82346566227E+03  0.82346566227E+03  0.00000000000E+00 0.  1.
          2   -1    0    0  502    0  0.00000000000E+00 -0.00000000000E+00 -0.15800166844E+04  0.15800166844E+04  0.00000000000E+00 0. -1.
    9000010    2    1    2  502    0  0.13278388802E+03  0.49018487288E+03 -0.16091003293E+03  0.11360161290E+04  0.10033582791E+04 0.  0.
   -9000010    2    1    2    0  501 -0.13278388802E+03 -0.49018487288E+03 -0.59564098923E+03  0.12674662177E+04  0.99687995986E+03 0.  0.
        -13    1    3    3    0    0 -0.41309724431E+03  0.50644896181E+02 -0.12370563851E+03  0.43418582995E+03  0.10566000000E+00 0.  1.
          4    1    3    3  502    0  0.54588113233E+03  0.43953997670E+03 -0.37204394416E+02  0.70183029908E+03  0.00000000000E+00 0.  1.
         13    1    4    4    0    0 -0.39043212109E+03 -0.56980405470E+03 -0.92883224592E+02  0.69695136596E+03  0.10566000000E+00 0. -1.
         -4    1    4    4    0  501  0.25764823307E+03  0.79619181827E+02 -0.50275776464E+03  0.57051485171E+03  0.00000000000E+00 0. -1.
<mgrwt>
<rscale>  2 0.11216706E+04</rscale>
<asrwt>0</asrwt>
<pdfrwt beam="2">  1        2 0.24307949E+00 0.11216706E+04</pdfrwt>
<pdfrwt beam="1">  1       -2 0.12668703E+00 0.11216706E+04</pdfrwt>
<totfact> 0.78052449E+00</totfact>
</mgrwt>
</event>
<event>
 8    1  0.7046235E-006  0.1798963E+04  0.7818608E-02  0.8255551E-01
          2   -1    0    0  502    0  0.00000000000E+00  0.00000000000E+00  0.15028694152E+04  0.15028694152E+04  0.00000000000E+00 0.  1.
         -2   -1    0    0    0  501 -0.00000000000E+00 -0.00000000000E+00 -0.21595381098E+04  0.21595381098E+04  0.00000000000E+00 0. -1.
    9000010    2    1    2  502    0 -0.11998582811E+04  0.72590936378E+03 -0.29302503398E+03  0.19058585983E+04  0.12569124977E+04 0.  0.
   -9000010    2    1    2    0  501  0.11998582811E+04 -0.72590936378E+03 -0.36364366056E+03  0.17565489267E+04  0.99328904188E+03 0.  0.
        -13    1    3    3    0    0 -0.12087576208E+04  0.83892752966E+02 -0.35014868954E+03  0.12612442649E+04  0.10566000000E+00 0.  1.
          4    1    3    3  502    0  0.88993396407E+01  0.64201661081E+03  0.57123655565E+02  0.64461433340E+03  0.00000000000E+00 0.  1.
         13    1    4    4    0    0 -0.75298191090E+02  0.29945900293E+01  0.17624778420E+03  0.19168223118E+03  0.10566000000E+00 0. -1.
         -4    1    4    4    0  501  0.12751564722E+04 -0.72890395381E+03 -0.53989144476E+03  0.15648666955E+04  0.00000000000E+00 0. -1.
<mgrwt>
<rscale>  2 0.17989628E+04</rscale>
<asrwt>0</asrwt>
<pdfrwt beam="1">  1        2 0.23121068E+00 0.17989628E+04</pdfrwt>
<pdfrwt beam="2">  1       -2 0.33223663E+00 0.17989628E+04</pdfrwt>
<totfact> 0.19565455E-01</totfact>
</mgrwt>
</event>
<event>
 8    1  0.7046235E-006  0.1157842E+04  0.7818608E-02  0.8639003E-01
         -2   -1    0    0    0  501 -0.00000000000E+00  0.00000000000E+00  0.68249881253E+03  0.68249881253E+03  0.00000000000E+00 0. -1.
          2   -1    0    0  502    0  0.00000000000E+00 -0.00000000000E+00 -0.29631172001E+04  0.29631172001E+04  0.00000000000E+00 0.  1.
    9000010    2    1    2  502    0  0.42965778509E+03  0.36303212260E+03 -0.87705234553E+02  0.11698164012E+04  0.10219491523E+04 0.  0.
   -9000010    2    1    2    0  501 -0.42965778509E+03 -0.36303212260E+03 -0.21929131530E+04  0.24757996115E+04  0.10021564175E+04 0.  0.
        -13    1    3    3    0    0  0.34811591113E+03  0.72031200586E+03 -0.64403294591E+02  0.80260941241E+03  0.10566000000E+00 0.  1.
          4    1    3    3  502    0  0.81541873956E+02 -0.35727988326E+03 -0.23301939962E+02  0.36720698876E+03  0.00000000000E+00 0.  1.
         13    1    4    4    0    0 -0.56501813956E+03  0.17290543195E+03 -0.10109319075E+04  0.11709505196E+04  0.10566000000E+00 0. -1.
         -4    1    4    4    0  501  0.13536035447E+03 -0.53593755455E+03 -0.11819812455E+04  0.13048490919E+04  0.00000000000E+00 0. -1.
<mgrwt>
<rscale>  2 0.11578416E+04</rscale>
<asrwt>0</asrwt>
<pdfrwt beam="2">  1        2 0.45586418E+00 0.11578416E+04</pdfrwt>
<pdfrwt beam="1">  1       -2 0.10499982E+00 0.11578416E+04</pdfrwt>
<totfact> 0.21229531E+00</totfact>
</mgrwt>
</event>
<event>
 8    1  0.7046235E-006  0.1358582E+04  0.7818608E-02  0.8495847E-01
         -2   -1    0    0    0  501 -0.00000000000E+00  0.00000000000E+00  0.22331385775E+04  0.22331385775E+04  0.00000000000E+00 0. -1.
          2   -1    0    0  502    0  0.00000000000E+00 -0.00000000000E+00 -0.83337619648E+03  0.83337619648E+03  0.00000000000E+00 0.  1.
    9000010    2    1    2  502    0  0.62726740632E+03 -0.62444566134E+03  0.83011559629E+03  0.15792961301E+04  0.10107856253E+04 0.  0.
   -9000010    2    1    2    0  501 -0.62726740632E+03  0.62444566134E+03  0.56964678476E+03  0.14872186439E+04  0.10506783772E+04 0.  0.
        -13    1    3    3    0    0  0.75265862483E+03 -0.10553599709E+03  0.27266217340E+03  0.80745125189E+03  0.10566000000E+00 0.  1.
          4    1    3    3  502    0 -0.12539121851E+03 -0.51890966425E+03  0.55745342288E+03  0.77184487821E+03  0.00000000000E+00 0.  1.
         13    1    4    4    0    0 -0.86693743606E+03  0.65573529729E+03  0.60327692017E+03  0.12431863705E+04  0.10566000000E+00 0. -1.
         -4    1    4    4    0  501  0.23967002974E+03 -0.31289635950E+02 -0.33630135414E+02  0.24403227344E+03  0.00000000000E+00 0. -1.
<mgrwt>
<rscale>  2 0.13585820E+04</rscale>
<asrwt>0</asrwt>
<pdfrwt beam="2">  1        2 0.12821172E+00 0.13585820E+04</pdfrwt>
<pdfrwt beam="1">  1       -2 0.34355978E+00 0.13585820E+04</pdfrwt>
<totfact> 0.41731671E-01</totfact>
</mgrwt>
</event>
<event>
 8    1  0.7046235E-006  0.1438376E+04  0.7818608E-02  0.8445871E-01
          2   -1    0    0  502    0  0.00000000000E+00  0.00000000000E+00  0.14328941847E+04  0.14328941847E+04  0.00000000000E+00 0. -1.
         -2   -1    0    0    0  501 -0.00000000000E+00 -0.00000000000E+00 -0.14507526459E+04  0.14507526459E+04  0.00000000000E+00 0.  1.
    9000010    2    1    2  502    0 -0.58472944495E+03  0.82846944235E+03  0.89707344359E+02  0.14297161046E+04  0.10038777771E+04 0.  0.
   -9000010    2    1    2    0  501  0.58472944495E+03 -0.82846944235E+03 -0.10756580558E+03  0.14539307260E+04  0.10363754208E+04 0.  0.
        -13    1    3    3    0    0 -0.25596198961E+03  0.99923035297E+03  0.18319189699E+03  0.10476340586E+04  0.10566000000E+00 0.  1.
          4    1    3    3  502    0 -0.32876745534E+03 -0.17076091062E+03 -0.93484552631E+02  0.38208204599E+03  0.00000000000E+00 0.  1.
         13    1    4    4    0    0  0.61791698934E+03 -0.89822540216E+03 -0.39247491060E+03  0.11587350195E+04  0.10566000000E+00 0. -1.
         -4    1    4    4    0  501 -0.33187544387E+02  0.69755959809E+02  0.28490910502E+03  0.29519570653E+03  0.00000000000E+00 0. -1.
<mgrwt>
<rscale>  2 0.14383765E+04</rscale>
<asrwt>0</asrwt>
<pdfrwt beam="1">  1        2 0.22044526E+00 0.14383765E+04</pdfrwt>
<pdfrwt beam="2">  1       -2 0.22319271E+00 0.14383765E+04</pdfrwt>
<totfact> 0.13624683E+00</totfact>
</mgrwt>
</event>
<event>
 8    1  0.7046235E-006  0.1729708E+04  0.7818608E-02  0.8288318E-01
         -1   -1    0    0    0  501 -0.00000000000E+00  0.00000000000E+00  0.19421149206E+04  0.19421149206E+04  0.00000000000E+00 0.  1.
          1   -1    0    0  502    0  0.00000000000E+00 -0.00000000000E+00 -0.16790220274E+04  0.16790220274E+04  0.00000000000E+00 0. -1.
    9000010    2    1    2  502    0  0.62777970491E+03  0.12619081209E+04  0.65159674043E+03  0.18491810473E+04  0.10041776586E+04 0.  0.
   -9000010    2    1    2    0  501 -0.62777970491E+03 -0.12619081209E+04 -0.38850384717E+03  0.17719559007E+04  0.10011858025E+04 0.  0.
        -13    1    3    3    0    0  0.48906991103E+03  0.13618368847E+03 -0.58441665261E+02  0.51102917165E+03  0.10566000000E+00 0.  1.
          4    1    3    3  502    0  0.13870979388E+03  0.11257244325E+04  0.71003840569E+03  0.13381518757E+04  0.00000000000E+00 0.  1.
         13    1    4    4    0    0  0.23945625379E+03 -0.48601866340E+03  0.10159500866E+02  0.54190097368E+03  0.10566000000E+00 0. -1.
         -4    1    4    4    0  501 -0.86723595870E+03 -0.77588945754E+03 -0.39866334804E+03  0.12300549270E+04  0.00000000000E+00 0. -1.
<mgrwt>
<rscale>  2 0.17297083E+04</rscale>
<asrwt>0</asrwt>
<pdfrwt beam="2">  1        1 0.25831108E+00 0.17297083E+04</pdfrwt>
<pdfrwt beam="1">  1       -1 0.29878691E+00 0.17297083E+04</pdfrwt>
<totfact> 0.95576429E-02</totfact>
</mgrwt>
</event>
<event>
 8    1  0.7046235E-006  0.1060989E+04  0.7818608E-02  0.8719306E-01
          1   -1    0    0  502    0  0.00000000000E+00  0.00000000000E+00  0.15698825733E+04  0.15698825733E+04  0.00000000000E+00 0. -1.
         -1   -1    0    0    0  501 -0.00000000000E+00 -0.00000000000E+00 -0.86923878345E+03  0.86923878345E+03  0.00000000000E+00 0.  1.
    9000010    2    1    2  502    0 -0.15111322475E+03  0.36653607783E+03 -0.16401092327E+03  0.10578611690E+04  0.96694713756E+03 0.  0.
   -9000010    2    1    2    0  501  0.15111322475E+03 -0.36653607783E+03  0.86465471316E+03  0.13812601878E+04  0.10015328404E+04 0.  0.
        -13    1    3    3    0    0  0.19795788571E+03 -0.10629955793E+03  0.25213120323E+03  0.33772337102E+03  0.10566000000E+00 0.  1.
          4    1    3    3  502    0 -0.34907111045E+03  0.47283563576E+03 -0.41614212649E+03  0.72013779795E+03  0.00000000000E+00 0.  1.
         13    1    4    4    0    0  0.27750888051E+03 -0.66490859804E+03  0.74345147644E+03  0.10352945144E+04  0.10566000000E+00 0. -1.
         -4    1    4    4    0  501 -0.12639565576E+03  0.29837252021E+03  0.12120323672E+03  0.34596567344E+03  0.00000000000E+00 0. -1.
<mgrwt>
<rscale>  2 0.10609886E+04</rscale>
<asrwt>0</asrwt>
<pdfrwt beam="1">  1        1 0.24152040E+00 0.10609886E+04</pdfrwt>
<pdfrwt beam="2">  1       -1 0.13372904E+00 0.10609886E+04</pdfrwt>
<totfact> 0.40202946E+00</totfact>
</mgrwt>
</event>
<event>
 8    1  0.7046235E-006  0.1590458E+04  0.7818608E-02  0.8359262E-01
         -2   -1    0    0    0  501 -0.00000000000E+00  0.00000000000E+00  0.12808072444E+04  0.12808072444E+04  0.00000000000E+00 0.  1.
          2   -1    0    0  502    0  0.00000000000E+00 -0.00000000000E+00 -0.20196902456E+04  0.20196902456E+04  0.00000000000E+00 0. -1.
    9000010    2    1    2  502    0  0.16987922788E+03 -0.12196622888E+04 -0.61523391596E+03  0.17062841639E+04  0.10081953311E+04 0.  0.
   -9000010    2    1    2    0  501 -0.16987922788E+03  0.12196622888E+04 -0.12364908521E+03  0.15942133262E+04  0.10048840641E+04 0.  0.
        -13    1    3    3    0    0  0.40785331603E+02 -0.97720796751E+03  0.57384873062E+02  0.97974072583E+03  0.10566000000E+00 0.  1.
          4    1    3    3  502    0  0.12909389628E+03 -0.24245432133E+03 -0.67261878902E+03  0.72654343802E+03  0.00000000000E+00 0.  1.
         13    1    4    4    0    0 -0.55115681951E+03  0.42472387304E+03  0.42225038829E+02  0.69709911281E+03  0.10566000000E+00 0. -1.
         -4    1    4    4    0  501  0.38127759163E+03  0.79493841580E+03 -0.16587412404E+03  0.89711421336E+03  0.00000000000E+00 0. -1.
<mgrwt>
<rscale>  2 0.15904583E+04</rscale>
<asrwt>0</asrwt>
<pdfrwt beam="2">  1        2 0.31072158E+00 0.15904583E+04</pdfrwt>
<pdfrwt beam="1">  1       -2 0.19704727E+00 0.15904583E+04</pdfrwt>
<totfact> 0.10493183E+00</totfact>
</mgrwt>
</event>
<event>
 8    1  0.7046235E-006  0.1075289E+04  0.7818608E-02  0.8706899E-01
         -1   -1    0    0    0  501 -0.00000000000E+00  0.00000000000E+00  0.54960532212E+03  0.54960532212E+03  0.00000000000E+00 0. -1.
          1   -1    0    0  502    0  0.00000000000E+00 -0.00000000000E+00 -0.21305309054E+04  0.21305309054E+04  0.00000000000E+00 0.  1.
    9000010    2    1    2  502    0 -0.30231959980E+03  0.28497837925E+03 -0.64475198753E+03  0.12588480405E+04  0.99819008546E+03 0.  0.
   -9000010    2    1    2    0  501  0.30231959980E+03 -0.28497837925E+03 -0.93617359571E+03  0.14212881869E+04  0.98540818546E+03 0.  0.
        -13    1    3    3    0    0 -0.41214070480E+03  0.11461255883E+03  0.13861860407E+03  0.44967891629E+03  0.10566000000E+00 0.  1.
          4    1    3    3  502    0  0.10982110501E+03  0.17036582041E+03 -0.78337059160E+03  0.80916912426E+03  0.00000000000E+00 0.  1.
         13    1    4    4    0    0  0.14362656762E+03  0.34498312536E+03 -0.55187705129E+03  0.66649098915E+03  0.10566000000E+00 0. -1.
         -4    1    4    4    0  501  0.15869303217E+03 -0.62996150460E+03 -0.38429654442E+03  0.75479719779E+03  0.00000000000E+00 0. -1.
<mgrwt>
<rscale>  2 0.10752891E+04</rscale>
<asrwt>0</asrwt>
<pdfrwt beam="2">  1        1 0.32777398E+00 0.10752891E+04</pdfrwt>
<pdfrwt beam="1">  1       -1 0.84554666E-01 0.10752891E+04</pdfrwt>
<totfact> 0.43172244E+00</totfact>
</mgrwt>
</event>
<event>
 8    1  0.7046235E-006  0.1232747E+04  0.7818608E-02  0.8582303E-01
         -1   -1    0    0    0  501 -0.00000000000E+00  0.00000000000E+00  0.58651139145E+03  0.58651139145E+03  0.00000000000E+00 0. -1.
          1   -1    0    0  502    0  0.00000000000E+00 -0.00000000000E+00 -0.26128112948E+04  0.26128112948E+04  0.00000000000E+00 0.  1.
    9000010    2    1    2  502    0 -0.98788211519E+02  0.72559141938E+03 -0.11491718746E+04  0.16770211248E+04  0.97752843279E+03 0.  0.
   -9000010    2    1    2    0  501  0.98788211519E+02 -0.72559141938E+03 -0.87712802872E+03  0.15223015615E+04  0.10058859014E+04 0.  0.
        -13    1    3    3    0    0 -0.29413860924E+03  0.31823775678E+03 -0.11460426558E+04  0.12252373531E+04  0.10566000000E+00 0.  1.
          4    1    3    3  502    0  0.19535039772E+03  0.40735366260E+03 -0.31292187635E+01  0.45178377166E+03  0.00000000000E+00 0.  1.
         13    1    4    4    0    0  0.26080334931E+03 -0.19249027950E+03 -0.90814686956E+03  0.96426222708E+03  0.10566000000E+00 0. -1.
         -4    1    4    4    0  501 -0.16201513779E+03 -0.53310113988E+03  0.31018840844E+02  0.55803933437E+03  0.00000000000E+00 0. -1.
<mgrwt>
<rscale>  2 0.12327473E+04</rscale>
<asrwt>0</asrwt>
<pdfrwt beam="2">  1        1 0.40197097E+00 0.12327473E+04</pdfrwt>
<pdfrwt beam="1">  1       -1 0.90232522E-01 0.12327473E+04</pdfrwt>
<totfact> 0.14247247E+00</totfact>
</mgrwt>
</event>
<event>
 8    1  0.7046235E-006  0.1202301E+04  0.7818608E-02  0.8604832E-01
         -1   -1    0    0    0  501 -0.00000000000E+00  0.00000000000E+00  0.11225657678E+04  0.11225657678E+04  0.00000000000E+00 0. -1.
          1   -1    0    0  502    0  0.00000000000E+00 -0.00000000000E+00 -0.14143067043E+04  0.14143067043E+04  0.00000000000E+00 0.  1.
    9000010    2    1    2  502    0  0.67871238227E+03 -0.45613046004E+02  0.23508173865E+03  0.12087879185E+04  0.97117133420E+03 0.  0.
   -9000010    2    1    2    0  501 -0.67871238227E+03  0.45613046004E+02 -0.52682267515E+03  0.13280845536E+04  0.10116992649E+04 0.  0.
        -13    1    3    3    0    0  0.31210310437E+03 -0.39068909539E+03  0.43917744520E+03  0.66552472272E+03  0.10566000000E+00 0.  1.
          4    1    3    3  502    0  0.36660927790E+03  0.34507604939E+03 -0.20409570655E+03  0.54326319582E+03  0.00000000000E+00 0.  1.
         13    1    4    4    0    0  0.11362887496E+03 -0.71775050972E+02  0.20366898081E+03  0.24401689301E+03  0.10566000000E+00 0. -1.
         -4    1    4    4    0  501 -0.79234125722E+03  0.11738809698E+03 -0.73049165596E+03  0.10840676605E+04  0.00000000000E+00 0. -1.
<mgrwt>
<rscale>  2 0.12023008E+04</rscale>
<asrwt>0</asrwt>
<pdfrwt beam="2">  1        1 0.21758564E+00 0.12023008E+04</pdfrwt>
<pdfrwt beam="1">  1       -1 0.17270243E+00 0.12023008E+04</pdfrwt>
<totfact> 0.23655401E+00</totfact>
</mgrwt>
</event>
<event>
 8    1  0.7046235E-006  0.1176152E+04  0.7818608E-02  0.8624740E-01
         -2   -1    0    0    0  501 -0.00000000000E+00  0.00000000000E+00  0.10378790312E+04  0.10378790312E+04  0.00000000000E+00 0.  1.
          2   -1    0    0  502    0  0.00000000000E+00 -0.00000000000E+00 -0.14260077365E+04  0.14260077365E+04  0.00000000000E+00 0. -1.
    9000010    2    1    2  502    0 -0.12090434645E+03 -0.54330407338E+03  0.11142911195E+03  0.12234227098E+04  0.10837663506E+04 0.  0.
   -9000010    2    1    2    0  501  0.12090434645E+03  0.54330407338E+03 -0.49955781727E+03  0.12404640578E+04  0.98964432441E+03 0.  0.
        -13    1    3    3    0    0 -0.40113909548E+03 -0.76306038289E+03  0.70462939226E+02  0.86495014817E+03  0.10566000000E+00 0.  1.
          4    1    3    3  502    0  0.28023474903E+03  0.21975630951E+03  0.40966172728E+02  0.35847256163E+03  0.00000000000E+00 0.  1.
         13    1    4    4    0    0 -0.30750440097E+03  0.40902179377E+03 -0.59155628452E+03  0.78217429855E+03  0.10566000000E+00 0. -1.
         -4    1    4    4    0  501  0.42840874743E+03  0.13428227961E+03  0.91998467249E+02  0.45828975928E+03  0.00000000000E+00 0. -1.
<mgrwt>
<rscale>  2 0.11761517E+04</rscale>
<asrwt>0</asrwt>
<pdfrwt beam="2">  1        2 0.21938581E+00 0.11761517E+04</pdfrwt>
<pdfrwt beam="1">  1       -2 0.15967370E+00 0.11761517E+04</pdfrwt>
<totfact> 0.47631251E+00</totfact>
</mgrwt>
</event>
<event>
 8    1  0.7046235E-006  0.1734243E+04  0.7818608E-02  0.8286125E-01
          2   -1    0    0  502    0  0.00000000000E+00  0.00000000000E+00  0.72516757144E+03  0.72516757144E+03  0.00000000000E+00 0.  1.
         -2   -1    0    0    0  501 -0.00000000000E+00 -0.00000000000E+00 -0.41474555882E+04  0.41474555882E+04  0.00000000000E+00 0. -1.
    9000010    2    1    2  502    0 -0.13488459938E+04  0.45242911388E+03 -0.17132614445E+04  0.24386245795E+04  0.99375421724E+03 0.  0.
   -9000010    2    1    2    0  501  0.13488459938E+04 -0.45242911388E+03 -0.17090265722E+04  0.24339985801E+04  0.98969674409E+03 0.  0.
        -13    1    3    3    0    0 -0.76940435141E+02  0.27087789466E+03  0.18623826343E+02  0.28220829620E+03  0.10566000000E+00 0.  1.
          4    1    3    3  502    0 -0.12719055587E+04  0.18155121923E+03 -0.17318852708E+04  0.21564162833E+04  0.00000000000E+00 0.  1.
         13    1    4    4    0    0  0.10342822402E+04 -0.25415294641E+03 -0.17615262187E+04  0.20584722741E+04  0.10566000000E+00 0. -1.
         -4    1    4    4    0  501  0.31456375361E+03 -0.19827616747E+03  0.52499646489E+02  0.37552630607E+03  0.00000000000E+00 0. -1.
<mgrwt>
<rscale>  2 0.17342429E+04</rscale>
<asrwt>0</asrwt>
<pdfrwt beam="1">  1        2 0.11156424E+00 0.17342429E+04</pdfrwt>
<pdfrwt beam="2">  1       -2 0.63807008E+00 0.17342429E+04</pdfrwt>
<totfact> 0.21005271E-01</totfact>
</mgrwt>
</event>
<event>
 8    1  0.7046235E-006  0.1236761E+04  0.7818608E-02  0.8579383E-01
          2   -1    0    0  502    0  0.00000000000E+00  0.00000000000E+00  0.38312347057E+04  0.38312347057E+04  0.00000000000E+00 0.  1.
         -2   -1    0    0    0  501 -0.00000000000E+00 -0.00000000000E+00 -0.41858103402E+03  0.41858103402E+03  0.00000000000E+00 0. -1.
    9000010    2    1    2  502    0 -0.60306320104E+03  0.47726439905E+03  0.21455577059E+04  0.24700945918E+04  0.95209395128E+03 0.  0.
   -9000010    2    1    2    0  501  0.60306320104E+03 -0.47726439905E+03  0.12670959658E+04  0.17797211479E+04  0.98509321731E+03 0.  0.
        -13    1    3    3    0    0 -0.42933304493E+03  0.13419639053E+01  0.18151551260E+04  0.18652390750E+04  0.10566000000E+00 0.  1.
          4    1    3    3  502    0 -0.17373015611E+03  0.47592243515E+03  0.33040257996E+03  0.60485551685E+03  0.00000000000E+00 0.  1.
         13    1    4    4    0    0 -0.23601651404E+03 -0.90920880093E+02  0.56633416225E+03  0.62024575439E+03  0.10566000000E+00 0. -1.
         -4    1    4    4    0  501  0.83907971509E+03 -0.38634351896E+03  0.70076180353E+03  0.11594753935E+04  0.00000000000E+00 0. -1.
<mgrwt>
<rscale>  2 0.12367612E+04</rscale>
<asrwt>0</asrwt>
<pdfrwt beam="1">  1        2 0.58942070E+00 0.12367612E+04</pdfrwt>
<pdfrwt beam="2">  1       -2 0.64397085E-01 0.12367612E+04</pdfrwt>
<totfact> 0.14991410E+00</totfact>
</mgrwt>
</event>
<event>
 8    1  0.7046235E-006  0.1145540E+04  0.7818608E-02  0.8648740E-01
         -4   -1    0    0    0  501 -0.00000000000E+00  0.00000000000E+00  0.15264461171E+04  0.15264461171E+04  0.00000000000E+00 0. -1.
          4   -1    0    0  502    0  0.00000000000E+00 -0.00000000000E+00 -0.86069853127E+03  0.86069853127E+03  0.00000000000E+00 0.  1.
    9000010    2    1    2  502    0 -0.50730441375E+03  0.18803739617E+03  0.37059807012E+03  0.11962841597E+04  0.10005183809E+04 0.  0.
   -9000010    2    1    2    0  501  0.50730441375E+03 -0.18803739617E+03  0.29514951568E+03  0.11908604887E+04  0.10189797036E+04 0.  0.
        -13    1    3    3    0    0 -0.40630424750E+03  0.52088151093E+03 -0.35532884401E+02  0.66156124962E+03  0.10566000000E+00 0.  1.
          4    1    3    3  502    0 -0.10100016626E+03 -0.33284411476E+03  0.40613095452E+03  0.53472291005E+03  0.00000000000E+00 0.  1.
         13    1    4    4    0    0 -0.23528340892E+03  0.44105995767E+02  0.33508586126E+03  0.41180841050E+03  0.10566000000E+00 0. -1.
         -4    1    4    4    0  501  0.74258782267E+03 -0.23214339194E+03 -0.39936345583E+02  0.77905207817E+03  0.00000000000E+00 0. -1.
<mgrwt>
<rscale>  2 0.11455399E+04</rscale>
<asrwt>0</asrwt>
<pdfrwt beam="2">  1        4 0.13241516E+00 0.11455399E+04</pdfrwt>
<pdfrwt beam="1">  1       -4 0.23483786E+00 0.11455399E+04</pdfrwt>
<totfact> 0.26538507E-01</totfact>
</mgrwt>
</event>
<event>
 8    1  0.7046235E-006  0.1389599E+04  0.7818608E-02  0.8476012E-01
          2   -1    0    0  502    0  0.00000000000E+00  0.00000000000E+00  0.25014049632E+04  0.25014049632E+04  0.00000000000E+00 0. -1.
         -2   -1    0    0    0  501 -0.00000000000E+00 -0.00000000000E+00 -0.83754418560E+03  0.83754418560E+03  0.00000000000E+00 0.  1.
    9000010    2    1    2  502    0  0.94809048361E+03  0.20228179975E+03  0.12955543476E+04  0.18952516132E+04  0.98677460344E+03 0.  0.
   -9000010    2    1    2    0  501 -0.94809048361E+03 -0.20228179975E+03  0.36830642994E+03  0.14436975356E+04  0.10044000479E+04 0.  0.
        -13    1    3    3    0    0 -0.16720433238E+03  0.20929534698E+03  0.25991140410E+03  0.37325029160E+03  0.10566000000E+00 0.  1.
          4    1    3    3  502    0  0.11152948160E+04 -0.70135472328E+01  0.10356429435E+04  0.15220013216E+04  0.00000000000E+00 0.  1.
         13    1    4    4    0    0 -0.68113827248E+03  0.13944093428E+03  0.62913980832E+03  0.93766200198E+03  0.10566000000E+00 0. -1.
         -4    1    4    4    0  501 -0.26695221114E+03 -0.34172273403E+03 -0.26083337838E+03  0.50603553359E+03  0.00000000000E+00 0. -1.
<mgrwt>
<rscale>  2 0.13895991E+04</rscale>
<asrwt>0</asrwt>
<pdfrwt beam="1">  1        2 0.38483153E+00 0.13895991E+04</pdfrwt>
<pdfrwt beam="2">  1       -2 0.12885295E+00 0.13895991E+04</pdfrwt>
<totfact> 0.22644994E+00</totfact>
</mgrwt>
</event>
<event>
 8    1  0.7046235E-006  0.1224425E+04  0.7818608E-02  0.8588393E-01
         -2   -1    0    0    0  501 -0.00000000000E+00  0.00000000000E+00  0.12550196175E+04  0.12550196175E+04  0.00000000000E+00 0. -1.
          2   -1    0    0  502    0  0.00000000000E+00 -0.00000000000E+00 -0.12753893315E+04  0.12753893315E+04  0.00000000000E+00 0.  1.
    9000010    2    1    2  502    0 -0.12386822961E+03  0.77896246438E+03 -0.32860915034E+03  0.12759040034E+04  0.94753427013E+03 0.  0.
   -9000010    2    1    2    0  501  0.12386822961E+03 -0.77896246438E+03  0.30823943639E+03  0.12545049456E+04  0.92555132168E+03 0.  0.
        -13    1    3    3    0    0 -0.13684368430E+03 -0.10981250825E+03 -0.34481338692E+03  0.38688662921E+03  0.10566000000E+00 0.  1.
          4    1    3    3  502    0  0.12975454687E+02  0.88877497263E+03  0.16204236573E+02  0.88901737423E+03  0.00000000000E+00 0.  1.
         13    1    4    4    0    0  0.13279637797E+03  0.15867685126E+03 -0.10237991495E+03  0.23085683719E+03  0.10566000000E+00 0. -1.
         -4    1    4    4    0  501 -0.89281483598E+01 -0.93763931564E+03  0.41061935134E+03  0.10236481084E+04  0.00000000000E+00 0. -1.
<mgrwt>
<rscale>  2 0.12244255E+04</rscale>
<asrwt>0</asrwt>
<pdfrwt beam="2">  1        2 0.19621374E+00 0.12244255E+04</pdfrwt>
<pdfrwt beam="1">  1       -2 0.19307994E+00 0.12244255E+04</pdfrwt>
<totfact> 0.30151349E+00</totfact>
</mgrwt>
</event>
<event>
 8    1  0.7046235E-006  0.1183365E+04  0.7818608E-02  0.8619196E-01
         -1   -1    0    0    0  501 -0.00000000000E+00  0.00000000000E+00  0.96788876351E+03  0.96788876351E+03  0.00000000000E+00 0. -1.
          1   -1    0    0  502    0  0.00000000000E+00 -0.00000000000E+00 -0.18430075626E+04  0.18430075626E+04  0.00000000000E+00 0.  1.
    9000010    2    1    2  502    0  0.55680276343E+03 -0.32001729526E+03  0.21368517582E+03  0.12038331641E+04  0.99554635546E+03 0.  0.
   -9000010    2    1    2    0  501 -0.55680276343E+03  0.32001729526E+03 -0.10888039749E+04  0.16070631621E+04  0.99232934275E+03 0.  0.
        -13    1    3    3    0    0  0.25555191813E+02 -0.37706928244E+03  0.47667035150E+03  0.60831648568E+03  0.10566000000E+00 0.  1.
          4    1    3    3  502    0  0.53124757162E+03  0.57051987184E+02 -0.26298517568E+03  0.59551667837E+03  0.00000000000E+00 0.  1.
         13    1    4    4    0    0 -0.56681329874E+03  0.45448633521E+02 -0.95669471337E+02  0.57662427353E+03  0.10566000000E+00 0. -1.
         -4    1    4    4    0  501  0.10010535305E+02  0.27456866174E+03 -0.99313450360E+03  0.10304388886E+04  0.00000000000E+00 0. -1.
<mgrwt>
<rscale>  2 0.11833646E+04</rscale>
<asrwt>0</asrwt>
<pdfrwt beam="2">  1        1 0.28353962E+00 0.11833646E+04</pdfrwt>
<pdfrwt beam="1">  1       -1 0.14890597E+00 0.11833646E+04</pdfrwt>
<totfact> 0.18271857E+00</totfact>
</mgrwt>
</event>
<event>
 8    1  0.7046235E-006  0.1188836E+04  0.7818608E-02  0.8615017E-01
         -2   -1    0    0    0  501 -0.00000000000E+00  0.00000000000E+00  0.47886079040E+03  0.47886079040E+03  0.00000000000E+00 0.  1.
          2   -1    0    0  502    0  0.00000000000E+00 -0.00000000000E+00 -0.29544445279E+04  0.29544445279E+04  0.00000000000E+00 0. -1.
    9000010    2    1    2  502    0  0.36462396808E+03  0.53287064047E+03 -0.11791056392E+04  0.16714825121E+04  0.99330857364E+03 0.  0.
   -9000010    2    1    2    0  501 -0.36462396808E+03 -0.53287064047E+03 -0.12964780983E+04  0.17618228061E+04  0.10031263047E+04 0.  0.
        -13    1    3    3    0    0 -0.27452918957E+03  0.35273643854E+03 -0.20300968329E+03  0.49091976297E+03  0.10566000000E+00 0.  1.
          4    1    3    3  502    0  0.63915315765E+03  0.18013420194E+03 -0.97609595589E+03  0.11805627492E+04  0.00000000000E+00 0.  1.
         13    1    4    4    0    0  0.31035580186E+03 -0.30269298142E+03 -0.26594770563E+03  0.50859803189E+03  0.10566000000E+00 0. -1.
         -4    1    4    4    0  501 -0.67497976994E+03 -0.23017765905E+03 -0.10305303927E+04  0.12532247742E+04  0.00000000000E+00 0. -1.
<mgrwt>
<rscale>  2 0.11888355E+04</rscale>
<asrwt>0</asrwt>
<pdfrwt beam="2">  1        2 0.45452993E+00 0.11888355E+04</pdfrwt>
<pdfrwt beam="1">  1       -2 0.73670890E-01 0.11888355E+04</pdfrwt>
<totfact> 0.48069634E+00</totfact>
</mgrwt>
</event>
<event>
 8    1  0.7046235E-006  0.1219272E+04  0.7818608E-02  0.8592190E-01
          2   -1    0    0  502    0  0.00000000000E+00  0.00000000000E+00  0.11926006466E+04  0.11926006466E+04  0.00000000000E+00 0.  1.
         -2   -1    0    0    0  501 -0.00000000000E+00 -0.00000000000E+00 -0.14116594216E+04  0.14116594216E+04  0.00000000000E+00 0. -1.
    9000010    2    1    2  502    0 -0.62232619539E+03 -0.33731402458E+03  0.33524666873E+03  0.12707195061E+04  0.10006333442E+04 0.  0.
   -9000010    2    1    2    0  501  0.62232619539E+03  0.33731402458E+03 -0.55430544368E+03  0.13335405621E+04  0.98488845121E+03 0.  0.
        -13    1    3    3    0    0  0.80254400907E+02  0.11070097590E+03  0.41183382193E+03  0.43393845529E+03  0.10566000000E+00 0.  1.
          4    1    3    3  502    0 -0.70258059630E+03 -0.44801500048E+03 -0.76587153193E+02  0.83678105081E+03  0.00000000000E+00 0.  1.
         13    1    4    4    0    0  0.66004513501E+03  0.46630895174E+03 -0.47858085110E+02  0.80956409641E+03  0.10566000000E+00 0. -1.
         -4    1    4    4    0  501 -0.37718939617E+02 -0.12899492716E+03 -0.50644735857E+03  0.52397646573E+03  0.00000000000E+00 0. -1.
<mgrwt>
<rscale>  2 0.12192722E+04</rscale>
<asrwt>0</asrwt>
<pdfrwt beam="1">  1        2 0.18347702E+00 0.12192722E+04</pdfrwt>
<pdfrwt beam="2">  1       -2 0.21717837E+00 0.12192722E+04</pdfrwt>
<totfact> 0.21279833E+00</totfact>
</mgrwt>
</event>
<event>
 8    1  0.7046235E-006  0.1975857E+04  0.7818608E-02  0.8178293E-01
          2   -1    0    0  502    0  0.00000000000E+00  0.00000000000E+00  0.56832132375E+04  0.56832132375E+04  0.00000000000E+00 0.  1.
         -2   -1    0    0    0  501 -0.00000000000E+00 -0.00000000000E+00 -0.10046588052E+04  0.10046588052E+04  0.00000000000E+00 0. -1.
    9000010    2    1    2  502    0 -0.68853124580E+02 -0.16989211290E+04  0.46262806889E+03  0.20339060751E+04  0.10157142496E+04 0.  0.
   -9000010    2    1    2    0  501  0.68853124580E+02  0.16989211290E+04  0.42159263634E+04  0.46539659676E+04  0.99714109819E+03 0.  0.
        -13    1    3    3    0    0 -0.29222238672E+03 -0.16729154861E+04  0.56092304219E+03  0.17884839439E+04  0.10566000000E+00 0.  1.
          4    1    3    3  502    0  0.22336926214E+03 -0.26005642921E+02 -0.98294973299E+02  0.24542213125E+03  0.00000000000E+00 0.  1.
         13    1    4    4    0    0  0.23327344744E+03  0.11964219050E+04  0.17543876227E+04  0.21362859870E+04  0.10566000000E+00 0. -1.
         -4    1    4    4    0  501 -0.16442032286E+03  0.50249922403E+03  0.24615387407E+04  0.25176799806E+04  0.00000000000E+00 0. -1.
<mgrwt>
<rscale>  2 0.19758573E+04</rscale>
<asrwt>0</asrwt>
<pdfrwt beam="1">  1        2 0.87434048E+00 0.19758573E+04</pdfrwt>
<pdfrwt beam="2">  1       -2 0.15456290E+00 0.19758573E+04</pdfrwt>
<totfact> 0.26612798E-03</totfact>
</mgrwt>
</event>
<event>
 8    1  0.7046235E-006  0.1342741E+04  0.7818608E-02  0.8506188E-01
         -1   -1    0    0    0  501 -0.00000000000E+00  0.00000000000E+00  0.23712335528E+04  0.23712335528E+04  0.00000000000E+00 0.  1.
          1   -1    0    0  502    0  0.00000000000E+00 -0.00000000000E+00 -0.84862373155E+03  0.84862373155E+03  0.00000000000E+00 0. -1.
    9000010    2    1    2  502    0  0.55345209963E+03 -0.71416616764E+03  0.12803589615E+04  0.18550523553E+04  0.99275255186E+03 0.  0.
   -9000010    2    1    2    0  501 -0.55345209963E+03  0.71416616764E+03  0.24225085981E+03  0.13648049290E+04  0.99381309796E+03 0.  0.
        -13    1    3    3    0    0  0.24468837114E+03  0.13826462665E+03 -0.62221679174E+01  0.28111960532E+03  0.10566000000E+00 0.  1.
          4    1    3    3  502    0  0.30876372848E+03 -0.85243079429E+03  0.12865811294E+04  0.15739327500E+04  0.00000000000E+00 0.  1.
         13    1    4    4    0    0 -0.39503999987E+03  0.35987243981E+03 -0.36285812992E+03  0.64593405859E+03  0.10566000000E+00 0. -1.
         -4    1    4    4    0  501 -0.15841209975E+03  0.35429372784E+03  0.60510898973E+03  0.71887087045E+03  0.00000000000E+00 0. -1.
<mgrwt>
<rscale>  2 0.13427410E+04</rscale>
<asrwt>0</asrwt>
<pdfrwt beam="2">  1        1 0.13055750E+00 0.13427410E+04</pdfrwt>
<pdfrwt beam="1">  1       -1 0.36480516E+00 0.13427410E+04</pdfrwt>
<totfact> 0.27031925E-01</totfact>
</mgrwt>
</event>
<event>
 8    1  0.7046235E-006  0.1160726E+04  0.7818608E-02  0.8636738E-01
          2   -1    0    0  502    0  0.00000000000E+00  0.00000000000E+00  0.20394114511E+04  0.20394114511E+04  0.00000000000E+00 0. -1.
         -2   -1    0    0    0  501 -0.00000000000E+00 -0.00000000000E+00 -0.66837620539E+03  0.66837620539E+03  0.00000000000E+00 0.  1.
    9000010    2    1    2  502    0  0.55543332119E+03  0.31221214662E+03  0.52989720258E+03  0.12579160735E+04  0.94635046571E+03 0.  0.
   -9000010    2    1    2    0  501 -0.55543332119E+03 -0.31221214662E+03  0.84113804308E+03  0.14498715829E+04  0.99429965334E+03 0.  0.
        -13    1    3    3    0    0  0.54663834527E+03 -0.14757246128E+03  0.13407380908E+02  0.56636638395E+03  0.10566000000E+00 0.  1.
          4    1    3    3  502    0  0.87949759237E+01  0.45978460790E+03  0.51648982167E+03  0.69154968958E+03  0.00000000000E+00 0.  1.
         13    1    4    4    0    0  0.15626262930E+03 -0.40979529347E+03  0.46424205706E+03  0.63864770459E+03  0.10566000000E+00 0. -1.
         -4    1    4    4    0  501 -0.71169595049E+03  0.97583146845E+02  0.37689598602E+03  0.81122387833E+03  0.00000000000E+00 0. -1.
<mgrwt>
<rscale>  2 0.11607261E+04</rscale>
<asrwt>0</asrwt>
<pdfrwt beam="1">  1        2 0.31375560E+00 0.11607261E+04</pdfrwt>
<pdfrwt beam="2">  1       -2 0.10282711E+00 0.11607261E+04</pdfrwt>
<totfact> 0.74741035E+00</totfact>
</mgrwt>
</event>
<event>
 8    1  0.7046235E-006  0.1479302E+04  0.7818608E-02  0.8421511E-01
          2   -1    0    0  502    0  0.00000000000E+00  0.00000000000E+00  0.32595507986E+04  0.32595507986E+04  0.00000000000E+00 0. -1.
         -2   -1    0    0    0  501 -0.00000000000E+00 -0.00000000000E+00 -0.76129482598E+03  0.76129482598E+03  0.00000000000E+00 0.  1.
    9000010    2    1    2  502    0 -0.20899326629E+03 -0.10625637567E+04  0.19404556434E+04  0.24402956455E+04  0.10084417736E+04 0.  0.
   -9000010    2    1    2    0  501  0.20899326629E+03  0.10625637567E+04  0.55780032922E+03  0.15805499792E+04  0.10071132543E+04 0.  0.
        -13    1    3    3    0    0  0.28284759963E+03 -0.70842466375E+03  0.60448408187E+03  0.97327759926E+03  0.10566000000E+00 0.  1.
          4    1    3    3  502    0 -0.49184086592E+03 -0.35413909293E+03  0.13359715616E+04  0.14670180462E+04  0.00000000000E+00 0.  1.
         13    1    4    4    0    0  0.26321312432E+03  0.86234325295E+03 -0.84514188556E+02  0.90557147369E+03  0.10566000000E+00 0. -1.
         -4    1    4    4    0  501 -0.54219858030E+02  0.20022050372E+03  0.64231451777E+03  0.67497850548E+03  0.00000000000E+00 0. -1.
<mgrwt>
<rscale>  2 0.14793024E+04</rscale>
<asrwt>0</asrwt>
<pdfrwt beam="1">  1        2 0.50146935E+00 0.14793024E+04</pdfrwt>
<pdfrwt beam="2">  1       -2 0.11712228E+00 0.14793024E+04</pdfrwt>
<totfact> 0.10023182E+00</totfact>
</mgrwt>
</event>
<event>
 8    1  0.7046235E-006  0.1365525E+04  0.7818608E-02  0.8491360E-01
          1   -1    0    0  502    0  0.00000000000E+00  0.00000000000E+00  0.75650256280E+03  0.75650256280E+03  0.00000000000E+00 0.  1.
         -1   -1    0    0    0  501 -0.00000000000E+00 -0.00000000000E+00 -0.24898868653E+04  0.24898868653E+04  0.00000000000E+00 0. -1.
    9000010    2    1    2  502    0 -0.88124192194E+03  0.20843461059E+03 -0.71264163675E+03  0.15516938558E+04  0.10391647645E+04 0.  0.
   -9000010    2    1    2    0  501  0.88124192194E+03 -0.20843461059E+03 -0.10207426657E+04  0.16946955723E+04  0.10050100404E+04 0.  0.
        -13    1    3    3    0    0  0.71687710163E+02  0.39459012726E+03 -0.27754640939E+03  0.48772176171E+03  0.10566000000E+00 0.  1.
          4    1    3    3  502    0 -0.95292963210E+03 -0.18615551667E+03 -0.43509522737E+03  0.10639720941E+04  0.00000000000E+00 0.  1.
         13    1    4    4    0    0  0.87266120152E+03  0.23762462479E+03 -0.72870936623E+03  0.11614733688E+04  0.10566000000E+00 0. -1.
         -4    1    4    4    0  501  0.85807204209E+01 -0.44605923538E+03 -0.29203329951E+03  0.53322220345E+03  0.00000000000E+00 0. -1.
<mgrwt>
<rscale>  2 0.13655255E+04</rscale>
<asrwt>0</asrwt>
<pdfrwt beam="1">  1        1 0.11638501E+00 0.13655255E+04</pdfrwt>
<pdfrwt beam="2">  1       -1 0.38305951E+00 0.13655255E+04</pdfrwt>
<totfact> 0.35490160E-01</totfact>
</mgrwt>
</event>
<event>
 8    1  0.7046235E-006  0.1310765E+04  0.7818608E-02  0.8527517E-01
          2   -1    0    0  502    0  0.00000000000E+00  0.00000000000E+00  0.15595530268E+04  0.15595530268E+04  0.00000000000E+00 0.  1.
         -2   -1    0    0    0  501 -0.00000000000E+00 -0.00000000000E+00 -0.11251409976E+04  0.11251409976E+04  0.00000000000E+00 0. -1.
    9000010    2    1    2  502    0 -0.55433202049E+03  0.61638069968E+03  0.22132865075E+02  0.13025747454E+04  0.10044908899E+04 0.  0.
   -9000010    2    1    2    0  501  0.55433202049E+03 -0.61638069968E+03  0.41227916408E+03  0.13821192790E+04  0.10261922025E+04 0.  0.
        -13    1    3    3    0    0 -0.77674110920E+03  0.61169941765E+03  0.21077025617E+03  0.10109040708E+04  0.10566000000E+00 0.  1.
          4    1    3    3  502    0  0.22240908871E+03  0.46812820233E+01 -0.18863739109E+03  0.29167067466E+03  0.00000000000E+00 0.  1.
         13    1    4    4    0    0 -0.28892567600E+03 -0.41405146520E+02  0.34894639729E+02  0.29395591414E+03  0.10566000000E+00 0. -1.
         -4    1    4    4    0  501  0.84325769650E+03 -0.57497555316E+03  0.37738452435E+03  0.10881633649E+04  0.00000000000E+00 0. -1.
<mgrwt>
<rscale>  2 0.13107647E+04</rscale>
<asrwt>0</asrwt>
<pdfrwt beam="1">  1        2 0.23993123E+00 0.13107647E+04</pdfrwt>
<pdfrwt beam="2">  1       -2 0.17309862E+00 0.13107647E+04</pdfrwt>
<totfact> 0.30521834E+00</totfact>
</mgrwt>
</event>
<event>
 8    1  0.7046235E-006  0.1267938E+04  0.7818608E-02  0.8557087E-01
         -2   -1    0    0    0  501 -0.00000000000E+00  0.00000000000E+00  0.32754768160E+04  0.32754768160E+04  0.00000000000E+00 0. -1.
          2   -1    0    0  502    0  0.00000000000E+00 -0.00000000000E+00 -0.53504903472E+03  0.53504903472E+03  0.00000000000E+00 0.  1.
    9000010    2    1    2  502    0  0.62072744759E+03  0.41136239520E+03  0.19044945139E+04  0.22806742006E+04  0.10098781468E+04 0.  0.
   -9000010    2    1    2    0  501 -0.62072744759E+03 -0.41136239520E+03  0.83593326741E+03  0.15298516501E+04  0.10426600882E+04 0.  0.
        -13    1    3    3    0    0 -0.77213859276E+02  0.39560057988E+03  0.22442667969E+03  0.46133409216E+03  0.10566000000E+00 0.  1.
          4    1    3    3  502    0  0.69794130687E+03  0.15761815321E+02  0.16800678342E+04  0.18193401085E+04  0.00000000000E+00 0.  1.
         13    1    4    4    0    0  0.23544919077E+03  0.12331191640E+03  0.23712007511E+03  0.35618547323E+03  0.10566000000E+00 0. -1.
         -4    1    4    4    0  501 -0.85617663836E+03 -0.53467431160E+03  0.59881319230E+03  0.11736661769E+04  0.00000000000E+00 0. -1.
<mgrwt>
<rscale>  2 0.12679379E+04</rscale>
<asrwt>0</asrwt>
<pdfrwt beam="2">  1        2 0.82315238E-01 0.12679379E+04</pdfrwt>
<pdfrwt beam="1">  1       -2 0.50391950E+00 0.12679379E+04</pdfrwt>
<totfact> 0.21346618E-01</totfact>
</mgrwt>
</event>
<event>
 8    1  0.7046235E-006  0.1358649E+04  0.7818608E-02  0.8495803E-01
          2   -1    0    0  502    0  0.00000000000E+00  0.00000000000E+00  0.22557135604E+04  0.22557135604E+04  0.00000000000E+00 0. -1.
         -2   -1    0    0    0  501 -0.00000000000E+00 -0.00000000000E+00 -0.90701368985E+03  0.90701368985E+03  0.00000000000E+00 0.  1.
    9000010    2    1    2  502    0  0.50129401713E+03 -0.79017778895E+03  0.19202605141E+03  0.13973257393E+04  0.10197885013E+04 0.  0.
   -9000010    2    1    2    0  501 -0.50129401713E+03  0.79017778895E+03  0.11566738192E+04  0.17654015110E+04  0.95030076362E+03 0.  0.
        -13    1    3    3    0    0  0.68020593290E+02  0.13445337392E+02  0.44466117059E+03  0.45003460534E+03  0.10566000000E+00 0.  1.
          4    1    3    3  502    0  0.43327342384E+03 -0.80362312634E+03 -0.25263511918E+03  0.94729113394E+03  0.00000000000E+00 0.  1.
         13    1    4    4    0    0  0.22383090006E+03  0.78829255662E+02  0.15774406262E+02  0.23783012094E+03  0.10566000000E+00 0. -1.
         -4    1    4    4    0  501 -0.72512491719E+03  0.71134853329E+03  0.11408994129E+04  0.15275713901E+04  0.00000000000E+00 0. -1.
<mgrwt>
<rscale>  2 0.13586494E+04</rscale>
<asrwt>0</asrwt>
<pdfrwt beam="1">  1        2 0.34703285E+00 0.13586494E+04</pdfrwt>
<pdfrwt beam="2">  1       -2 0.13954057E+00 0.13586494E+04</pdfrwt>
<totfact> 0.24788885E+00</totfact>
</mgrwt>
</event>
<event>
 8    1  0.7046235E-006  0.1218126E+04  0.7818608E-02  0.8593037E-01
          1   -1    0    0  502    0  0.00000000000E+00  0.00000000000E+00  0.10639252961E+04  0.10639252961E+04  0.00000000000E+00 0.  1.
         -1   -1    0    0    0  501 -0.00000000000E+00 -0.00000000000E+00 -0.15335725001E+04  0.15335725001E+04  0.00000000000E+00 0. -1.
    9000010    2    1    2  502    0  0.69035553565E+03  0.77505274160E+02  0.15585899194E+03  0.12290439301E+04  0.10018278912E+04 0.  0.
   -9000010    2    1    2    0  501 -0.69035553565E+03 -0.77505274160E+02 -0.62550619601E+03  0.13684538662E+04  0.99940489765E+03 0.  0.
        -13    1    3    3    0    0  0.76781692644E+03 -0.19295304031E+03 -0.15826500037E+03  0.80735464933E+03  0.10566000000E+00 0.  1.
          4    1    3    3  502    0 -0.77461390787E+02  0.27045831447E+03  0.31412399231E+03  0.42168928072E+03  0.00000000000E+00 0.  1.
         13    1    4    4    0    0  0.19092761467E+03 -0.60756702782E+02  0.10266857130E+03  0.22513457680E+03  0.10566000000E+00 0. -1.
         -4    1    4    4    0  501 -0.88128315032E+03 -0.16748571378E+02 -0.72817476730E+03  0.11433192894E+04  0.00000000000E+00 0. -1.
<mgrwt>
<rscale>  2 0.12181258E+04</rscale>
<asrwt>0</asrwt>
<pdfrwt beam="1">  1        1 0.16368082E+00 0.12181258E+04</pdfrwt>
<pdfrwt beam="2">  1       -1 0.23593423E+00 0.12181258E+04</pdfrwt>
<totfact> 0.11751670E+00</totfact>
</mgrwt>
</event>
<event>
 8    1  0.7046235E-006  0.1677524E+04  0.7818608E-02  0.8314070E-01
          2   -1    0    0  502    0  0.00000000000E+00  0.00000000000E+00  0.37734704435E+04  0.37734704435E+04  0.00000000000E+00 0. -1.
         -2   -1    0    0    0  501 -0.00000000000E+00 -0.00000000000E+00 -0.12584086426E+04  0.12584086426E+04  0.00000000000E+00 0.  1.
    9000010    2    1    2  502    0  0.80182806451E+03 -0.10898867941E+04 -0.34771449543E+03  0.17144816148E+04  0.99386134256E+03 0.  0.
   -9000010    2    1    2    0  501 -0.80182806451E+03  0.10898867941E+04  0.28627762963E+04  0.33173974712E+04  0.98937171500E+03 0.  0.
        -13    1    3    3    0    0  0.34137347754E+03 -0.45868469193E+03 -0.65986843290E+03  0.87312877497E+03  0.10566000000E+00 0.  1.
          4    1    3    3  502    0  0.46045458697E+03 -0.63120210218E+03  0.31215393747E+03  0.84135283986E+03  0.00000000000E+00 0.  1.
         13    1    4    4    0    0  0.97848530020E+02 -0.93745775984E+02  0.67633429954E+02  0.15144932272E+03  0.10566000000E+00 0. -1.
         -4    1    4    4    0  501 -0.89967659453E+03  0.11836325701E+04  0.27951428663E+04  0.31659481485E+04  0.00000000000E+00 0. -1.
<mgrwt>
<rscale>  2 0.16775239E+04</rscale>
<asrwt>0</asrwt>
<pdfrwt beam="1">  1        2 0.58053391E+00 0.16775239E+04</pdfrwt>
<pdfrwt beam="2">  1       -2 0.19360133E+00 0.16775239E+04</pdfrwt>
<totfact> 0.84778161E-02</totfact>
</mgrwt>
</event>
<event>
 8    1  0.7046235E-006  0.1377281E+04  0.7818608E-02  0.8483825E-01
         -2   -1    0    0    0  501 -0.00000000000E+00  0.00000000000E+00  0.84743595315E+03  0.84743595315E+03  0.00000000000E+00 0. -1.
          2   -1    0    0  502    0  0.00000000000E+00 -0.00000000000E+00 -0.29904362237E+04  0.29904362237E+04  0.00000000000E+00 0.  1.
    9000010    2    1    2  502    0 -0.94206932580E+03  0.42751051890E+02 -0.20355027079E+04  0.24593240795E+04  0.10078101940E+04 0.  0.
   -9000010    2    1    2    0  501  0.94206932580E+03 -0.42751051890E+02 -0.10749756268E+03  0.13785480974E+04  0.99975840270E+03 0.  0.
        -13    1    3    3    0    0  0.53343087443E+02  0.17573919916E+03  0.64604585361E+01  0.18377023640E+03  0.10566000000E+00 0.  1.
          4    1    3    3  502    0 -0.99541241325E+03 -0.13298814727E+03 -0.20419631664E+04  0.22755538431E+04  0.00000000000E+00 0.  1.
         13    1    4    4    0    0  0.36326974490E+03 -0.25053902645E+03  0.38892774093E+03  0.58821723042E+03  0.10566000000E+00 0. -1.
         -4    1    4    4    0  501  0.57879958090E+03  0.20778797455E+03 -0.49642530361E+03  0.79033086697E+03  0.00000000000E+00 0. -1.
<mgrwt>
<rscale>  2 0.13772814E+04</rscale>
<asrwt>0</asrwt>
<pdfrwt beam="2">  1        2 0.46006711E+00 0.13772814E+04</pdfrwt>
<pdfrwt beam="1">  1       -2 0.13037476E+00 0.13772814E+04</pdfrwt>
<totfact> 0.11280609E+00</totfact>
</mgrwt>
</event>
<event>
 8    1  0.7046235E-006  0.1649813E+04  0.7818608E-02  0.8328140E-01
          2   -1    0    0  502    0  0.00000000000E+00  0.00000000000E+00  0.23950563725E+04  0.23950563725E+04  0.00000000000E+00 0.  1.
         -2   -1    0    0    0  501 -0.00000000000E+00 -0.00000000000E+00 -0.12502047568E+04  0.12502047568E+04  0.00000000000E+00 0. -1.
    9000010    2    1    2  502    0  0.81623765537E+02  0.12980323025E+04  0.11174066811E+04  0.19807210430E+04  0.99151795835E+03 0.  0.
   -9000010    2    1    2    0  501 -0.81623765537E+02 -0.12980323025E+04  0.27444934640E+02  0.16645400863E+04  0.10384556692E+04 0.  0.
        -13    1    3    3    0    0  0.27036835005E+03  0.45121642306E+03 -0.47580366087E+02  0.52816589018E+03  0.10566000000E+00 0.  1.
          4    1    3    3  502    0 -0.18874458451E+03  0.84681587948E+03  0.11649870472E+04  0.14525551528E+04  0.00000000000E+00 0.  1.
         13    1    4    4    0    0 -0.26984286484E+03 -0.14163937507E+04  0.30076883826E+02  0.14421827412E+04  0.10566000000E+00 0. -1.
         -4    1    4    4    0  501  0.18821909930E+03  0.11836144820E+03 -0.26319491865E+01  0.22235734510E+03  0.00000000000E+00 0. -1.
<mgrwt>
<rscale>  2 0.16498128E+04</rscale>
<asrwt>0</asrwt>
<pdfrwt beam="1">  1        2 0.36847021E+00 0.16498128E+04</pdfrwt>
<pdfrwt beam="2">  1       -2 0.19233919E+00 0.16498128E+04</pdfrwt>
<totfact> 0.70865039E-01</totfact>
</mgrwt>
</event>
<event>
 8    1  0.7046235E-006  0.1105475E+04  0.7818608E-02  0.8681358E-01
          1   -1    0    0  502    0  0.00000000000E+00  0.00000000000E+00  0.99818060627E+03  0.99818060627E+03  0.00000000000E+00 0.  1.
         -1   -1    0    0    0  501 -0.00000000000E+00 -0.00000000000E+00 -0.14379677873E+04  0.14379677873E+04  0.00000000000E+00 0. -1.
    9000010    2    1    2  502    0  0.66279288660E+03  0.10404335363E+03  0.22079509150E+03  0.12277032759E+04  0.10041839629E+04 0.  0.
   -9000010    2    1    2    0  501 -0.66279288660E+03 -0.10404335363E+03 -0.66058227250E+03  0.12084451176E+04  0.75752969155E+03 0.  0.
        -13    1    3    3    0    0 -0.14727570018E+03 -0.87684344561E+02 -0.22543634981E+03  0.28319646030E+03  0.10566000000E+00 0.  1.
          4    1    3    3  502    0  0.81006858679E+03  0.19172769820E+03  0.44623144131E+03  0.94450681563E+03  0.00000000000E+00 0.  1.
         13    1    4    4    0    0 -0.69494037987E+03  0.13351784666E+03 -0.66154583287E+03  0.96871670116E+03  0.10566000000E+00 0. -1.
         -4    1    4    4    0  501  0.32147493264E+02 -0.23756120030E+03  0.96356037170E+00  0.23972841646E+03  0.00000000000E+00 0. -1.
<mgrwt>
<rscale>  2 0.11054748E+04</rscale>
<asrwt>0</asrwt>
<pdfrwt beam="1">  1        1 0.15356625E+00 0.11054748E+04</pdfrwt>
<pdfrwt beam="2">  1       -1 0.22122581E+00 0.11054748E+04</pdfrwt>
<totfact> 0.18508294E+00</totfact>
</mgrwt>
</event>
<event>
 8    1  0.7046235E-006  0.1295617E+04  0.7818608E-02  0.8537841E-01
          1   -1    0    0  502    0  0.00000000000E+00  0.00000000000E+00  0.10981941486E+04  0.10981941486E+04  0.00000000000E+00 0.  1.
         -1   -1    0    0    0  501 -0.00000000000E+00 -0.00000000000E+00 -0.15306174015E+04  0.15306174015E+04  0.00000000000E+00 0. -1.
    9000010    2    1    2  502    0  0.72054045794E+03  0.19222273988E+03 -0.23776775097E+03  0.12794422689E+04  0.10120824486E+04 0.  0.
   -9000010    2    1    2    0  501 -0.72054045794E+03 -0.19222273988E+03 -0.19465550189E+03  0.13493692811E+04  0.11076003608E+04 0.  0.
        -13    1    3    3    0    0 -0.12981320997E+03  0.36128213814E+03 -0.13230508019E+03  0.40605528962E+03  0.10566000000E+00 0.  1.
          4    1    3    3  502    0  0.85035366791E+03 -0.16905939826E+03 -0.10546267078E+03  0.87338697929E+03  0.00000000000E+00 0.  1.
         13    1    4    4    0    0 -0.80230399683E+03 -0.53737372526E+03 -0.51956365097E+02  0.96703758922E+03  0.10566000000E+00 0. -1.
         -4    1    4    4    0  501  0.81763538887E+02  0.34515098539E+03 -0.14269913679E+03  0.38233169192E+03  0.00000000000E+00 0. -1.
<mgrwt>
<rscale>  2 0.12956169E+04</rscale>
<asrwt>0</asrwt>
<pdfrwt beam="1">  1        1 0.16895295E+00 0.12956169E+04</pdfrwt>
<pdfrwt beam="2">  1       -1 0.23547960E+00 0.12956169E+04</pdfrwt>
<totfact> 0.11042589E+00</totfact>
</mgrwt>
</event>
<event>
 8    1  0.7046235E-006  0.1328372E+04  0.7818608E-02  0.8515696E-01
         -2   -1    0    0    0  501 -0.00000000000E+00  0.00000000000E+00  0.78084187184E+03  0.78084187184E+03  0.00000000000E+00 0. -1.
          2   -1    0    0  502    0  0.00000000000E+00 -0.00000000000E+00 -0.22619720873E+04  0.22619720873E+04  0.00000000000E+00 0.  1.
    9000010    2    1    2  502    0 -0.29201746966E+03 -0.81930633074E+03 -0.69583436595E+03  0.15025831070E+04  0.10084807695E+04 0.  0.
   -9000010    2    1    2    0  501  0.29201746966E+03  0.81930633074E+03 -0.78529584947E+03  0.15402308521E+04  0.99954211536E+03 0.  0.
        -13    1    3    3    0    0  0.23286132877E+03 -0.13145308181E+03  0.13803346374E+03  0.30092783094E+03  0.10566000000E+00 0.  1.
          4    1    3    3  502    0 -0.52487879843E+03 -0.68785324893E+03 -0.83386782969E+03  0.12016552761E+04  0.00000000000E+00 0.  1.
         13    1    4    4    0    0 -0.10071465550E+03  0.23054067233E+03 -0.79352596765E+03  0.83245174991E+03  0.10566000000E+00 0. -1.
         -4    1    4    4    0  501  0.39273212516E+03  0.58876565840E+03  0.82301181766E+01  0.70777910219E+03  0.00000000000E+00 0. -1.
<mgrwt>
<rscale>  2 0.13283724E+04</rscale>
<asrwt>0</asrwt>
<pdfrwt beam="2">  1        2 0.34799569E+00 0.13283724E+04</pdfrwt>
<pdfrwt beam="1">  1       -2 0.12012952E+00 0.13283724E+04</pdfrwt>
<totfact> 0.37398900E+00</totfact>
</mgrwt>
</event>
<event>
 8    1  0.7046235E-006  0.1176540E+04  0.7818608E-02  0.8624440E-01
         -1   -1    0    0    0  501 -0.00000000000E+00  0.00000000000E+00  0.60458986140E+03  0.60458986140E+03  0.00000000000E+00 0.  1.
          1   -1    0    0  502    0  0.00000000000E+00 -0.00000000000E+00 -0.23250273934E+04  0.23250273934E+04  0.00000000000E+00 0. -1.
    9000010    2    1    2  502    0  0.57766040542E+03 -0.71471862797E+02 -0.10583203476E+04  0.16043502878E+04  0.10559820626E+04 0.  0.
   -9000010    2    1    2    0  501 -0.57766040542E+03  0.71471862797E+02 -0.66211718433E+03  0.13252669670E+04  0.98951179725E+03 0.  0.
        -13    1    3    3    0    0  0.11056871831E+03 -0.73933171335E+02  0.21233840149E+03  0.25055770434E+03  0.10566000000E+00 0.  1.
          4    1    3    3  502    0  0.46709168711E+03  0.24613085376E+01 -0.12706587491E+04  0.13537925834E+04  0.00000000000E+00 0.  1.
         13    1    4    4    0    0  0.41659707923E+02  0.18107568166E+03  0.19027907185E+03  0.26595125512E+03  0.10566000000E+00 0. -1.
         -4    1    4    4    0  501 -0.61932011334E+03 -0.10960381887E+03 -0.85239625618E+03  0.10593157119E+04  0.00000000000E+00 0. -1.
<mgrwt>
<rscale>  2 0.11765404E+04</rscale>
<asrwt>0</asrwt>
<pdfrwt beam="2">  1        1 0.35769652E+00 0.11765404E+04</pdfrwt>
<pdfrwt beam="1">  1       -1 0.93013825E-01 0.11765404E+04</pdfrwt>
<totfact> 0.24358967E+00</totfact>
</mgrwt>
</event>
<event>
 8    1  0.7046235E-006  0.1364739E+04  0.7818608E-02  0.8491866E-01
         -2   -1    0    0    0  501 -0.00000000000E+00  0.00000000000E+00  0.60476889189E+03  0.60476889189E+03  0.00000000000E+00 0.  1.
          2   -1    0    0  502    0  0.00000000000E+00 -0.00000000000E+00 -0.31047869640E+04  0.31047869640E+04  0.00000000000E+00 0. -1.
    9000010    2    1    2  502    0 -0.28913899460E+03  0.89583147146E+03 -0.10911134526E+04  0.17537023341E+04  0.99941379159E+03 0.  0.
   -9000010    2    1    2    0  501  0.28913899460E+03 -0.89583147146E+03 -0.14089046195E+04  0.19558535218E+04  0.97684972655E+03 0.  0.
        -13    1    3    3    0    0 -0.69355137563E+02  0.47417910229E+03  0.83546716648E+02  0.48645248604E+03  0.10566000000E+00 0.  1.
          4    1    3    3  502    0 -0.21978385704E+03  0.42165236917E+03 -0.11746601693E+04  0.12672498481E+04  0.00000000000E+00 0.  1.
         13    1    4    4    0    0  0.63362383756E+02 -0.18738094936E+03 -0.11524663182E+04  0.11693181935E+04  0.10566000000E+00 0. -1.
         -4    1    4    4    0  501  0.22577661084E+03 -0.70845052210E+03 -0.25643830131E+03  0.78653532829E+03  0.00000000000E+00 0. -1.
<mgrwt>
<rscale>  2 0.13647394E+04</rscale>
<asrwt>0</asrwt>
<pdfrwt beam="2">  1        2 0.47765953E+00 0.13647394E+04</pdfrwt>
<pdfrwt beam="1">  1       -2 0.93041369E-01 0.13647394E+04</pdfrwt>
<totfact> 0.22551633E+00</totfact>
</mgrwt>
</event>
<event>
 8    1  0.7046235E-006  0.1452070E+04  0.7818608E-02  0.8437629E-01
         -2   -1    0    0    0  501 -0.00000000000E+00  0.00000000000E+00  0.89971344097E+03  0.89971344097E+03  0.00000000000E+00 0. -1.
          2   -1    0    0  502    0  0.00000000000E+00 -0.00000000000E+00 -0.28110593513E+04  0.28110593513E+04  0.00000000000E+00 0.  1.
    9000010    2    1    2  502    0 -0.10305773880E+04 -0.30608933412E+02 -0.17743873801E+03  0.14210218874E+04  0.96166108344E+03 0.  0.
   -9000010    2    1    2    0  501  0.10305773880E+04  0.30608933412E+02 -0.17339071723E+04  0.22897509048E+04  0.10832813413E+04 0.  0.
        -13    1    3    3    0    0 -0.60721077809E+03  0.21746266427E+03  0.32198162005E+03  0.72087940337E+03  0.10566000000E+00 0.  1.
          4    1    3    3  502    0 -0.42336660989E+03 -0.24807159768E+03 -0.49942035807E+03  0.70014248407E+03  0.00000000000E+00 0.  1.
         13    1    4    4    0    0  0.54561716522E+03  0.55662981156E+03 -0.87175625939E+03  0.11693989161E+04  0.10566000000E+00 0. -1.
         -4    1    4    4    0  501  0.48496022276E+03 -0.52602087815E+03 -0.86215091289E+03  0.11203519887E+04  0.00000000000E+00 0. -1.
<mgrwt>
<rscale>  2 0.14520703E+04</rscale>
<asrwt>0</asrwt>
<pdfrwt beam="2">  1        2 0.43247066E+00 0.14520703E+04</pdfrwt>
<pdfrwt beam="1">  1       -2 0.13841746E+00 0.14520703E+04</pdfrwt>
<totfact> 0.12137662E+00</totfact>
</mgrwt>
</event>
<event>
 8    1  0.7046235E-006  0.1349070E+04  0.7818608E-02  0.8502039E-01
          2   -1    0    0  502    0  0.00000000000E+00  0.00000000000E+00  0.24289729335E+04  0.24289729335E+04  0.00000000000E+00 0. -1.
         -2   -1    0    0    0  501 -0.00000000000E+00 -0.00000000000E+00 -0.10693071167E+04  0.10693071167E+04  0.00000000000E+00 0.  1.
    9000010    2    1    2  502    0 -0.20316786472E+03 -0.87647065026E+03  0.16342935675E+04  0.21148699017E+04  0.99613315085E+03 0.  0.
   -9000010    2    1    2    0  501  0.20316786472E+03  0.87647065026E+03 -0.27462775075E+03  0.13834101484E+04  0.10143595296E+04 0.  0.
        -13    1    3    3    0    0 -0.96840732540E+02 -0.61384181596E+03  0.19994973771E+03  0.65280916911E+03  0.10566000000E+00 0.  1.
          4    1    3    3  502    0 -0.10632713218E+03 -0.26262883430E+03  0.14343438298E+04  0.14620607326E+04  0.00000000000E+00 0.  1.
         13    1    4    4    0    0  0.57265675139E+03  0.78978722741E+03 -0.21905276284E+03  0.99984185928E+03  0.10566000000E+00 0. -1.
         -4    1    4    4    0  501 -0.36948888667E+03  0.86683422853E+02 -0.55574987907E+02  0.38356828916E+03  0.00000000000E+00 0. -1.
<mgrwt>
<rscale>  2 0.13490697E+04</rscale>
<asrwt>0</asrwt>
<pdfrwt beam="1">  1        2 0.37368814E+00 0.13490697E+04</pdfrwt>
<pdfrwt beam="2">  1       -2 0.16450879E+00 0.13490697E+04</pdfrwt>
<totfact> 0.11998087E+00</totfact>
</mgrwt>
</event>
<event>
 8    1  0.7046235E-006  0.1176477E+04  0.7818608E-02  0.8624489E-01
          1   -1    0    0  502    0  0.00000000000E+00  0.00000000000E+00  0.21754078165E+04  0.21754078165E+04  0.00000000000E+00 0.  1.
         -1   -1    0    0    0  501 -0.00000000000E+00 -0.00000000000E+00 -0.82595632216E+03  0.82595632216E+03  0.00000000000E+00 0. -1.
    9000010    2    1    2  502    0 -0.54073861986E+03  0.82655410821E+02  0.13992185963E+04  0.18360933895E+04  0.10555548695E+04 0.  0.
   -9000010    2    1    2    0  501  0.54073861986E+03 -0.82655410821E+02 -0.49767101982E+02  0.11652707492E+04  0.10276910930E+04 0.  0.
        -13    1    3    3    0    0 -0.70363314961E+03 -0.23575318958E+03  0.12389098624E+04  0.14441526353E+04  0.10566000000E+00 0.  1.
          4    1    3    3  502    0  0.16289452975E+03  0.31840860040E+03  0.16030873389E+03  0.39194075418E+03  0.00000000000E+00 0.  1.
         13    1    4    4    0    0 -0.53105782742E+02 -0.45705922001E+03 -0.53573388926E+02  0.46324234901E+03  0.10566000000E+00 0. -1.
         -4    1    4    4    0  501  0.59384440260E+03  0.37440380919E+03  0.38062869437E+01  0.70202840018E+03  0.00000000000E+00 0. -1.
<mgrwt>
<rscale>  2 0.11764771E+04</rscale>
<asrwt>0</asrwt>
<pdfrwt beam="1">  1        1 0.33467812E+00 0.11764771E+04</pdfrwt>
<pdfrwt beam="2">  1       -1 0.12707020E+00 0.11764771E+04</pdfrwt>
<totfact> 0.15783712E+00</totfact>
</mgrwt>
</event>
<event>
 8    1  0.7046235E-006  0.1646531E+04  0.7818608E-02  0.8329826E-01
         -1   -1    0    0    0  501 -0.00000000000E+00  0.00000000000E+00  0.35336076283E+04  0.35336076283E+04  0.00000000000E+00 0.  1.
          1   -1    0    0  502    0  0.00000000000E+00 -0.00000000000E+00 -0.84256634275E+03  0.84256634275E+03  0.00000000000E+00 0. -1.
    9000010    2    1    2  502    0 -0.47902885846E+03 -0.11774449660E+04  0.20186108674E+04  0.26219313984E+04  0.10880666932E+04 0.  0.
   -9000010    2    1    2    0  501  0.47902885846E+03  0.11774449660E+04  0.67243041819E+03  0.17542425727E+04  0.10046686226E+04 0.  0.
        -13    1    3    3    0    0 -0.48828201741E+02  0.15147889443E+03 -0.93922189322E+01  0.15943109384E+03  0.10566000000E+00 0.  1.
          4    1    3    3  502    0 -0.43020065672E+03 -0.13289238604E+04  0.20280030863E+04  0.24625003046E+04  0.00000000000E+00 0.  1.
         13    1    4    4    0    0  0.50416693181E+03  0.21007649395E+03  0.55629630886E+03  0.77960376016E+03  0.10566000000E+00 0. -1.
         -4    1    4    4    0  501 -0.25138073351E+02  0.96736847206E+03  0.11613410933E+03  0.97463881250E+03  0.00000000000E+00 0. -1.
<mgrwt>
<rscale>  2 0.16465313E+04</rscale>
<asrwt>0</asrwt>
<pdfrwt beam="2">  1        1 0.12962559E+00 0.16465313E+04</pdfrwt>
<pdfrwt beam="1">  1       -1 0.54363193E+00 0.16465313E+04</pdfrwt>
<totfact> 0.16511202E-01</totfact>
</mgrwt>
</event>
<event>
 8    1  0.7046235E-006  0.1081845E+04  0.7818608E-02  0.8701278E-01
          4   -1    0    0  502    0  0.00000000000E+00  0.00000000000E+00  0.36202336258E+04  0.36202336258E+04  0.00000000000E+00 0.  1.
         -4   -1    0    0    0  501 -0.00000000000E+00 -0.00000000000E+00 -0.34737963313E+03  0.34737963313E+03  0.00000000000E+00 0. -1.
    9000010    2    1    2  502    0  0.10801973929E+03  0.40659400841E+03  0.21528648576E+04  0.24075232388E+04  0.99214620842E+03 0.  0.
   -9000010    2    1    2    0  501 -0.10801973929E+03 -0.40659400841E+03  0.11199891351E+04  0.15600900201E+04  0.10012583364E+04 0.  0.
        -13    1    3    3    0    0 -0.29726030328E+03 -0.72755228172E+02  0.22445760847E+03  0.37952370189E+03  0.10566000000E+00 0.  1.
          4    1    3    3  502    0  0.40528004257E+03  0.47934923658E+03  0.19284072491E+04  0.20279995370E+04  0.00000000000E+00 0.  1.
         13    1    4    4    0    0  0.38941414684E+03 -0.28009094665E+03  0.22832141262E+03  0.53124852449E+03  0.10566000000E+00 0. -1.
         -4    1    4    4    0  501 -0.49743388613E+03 -0.12650306176E+03  0.89166772249E+03  0.10288414956E+04  0.00000000000E+00 0. -1.
<mgrwt>
<rscale>  2 0.10818447E+04</rscale>
<asrwt>0</asrwt>
<pdfrwt beam="1">  1        4 0.55695899E+00 0.10818447E+04</pdfrwt>
<pdfrwt beam="2">  1       -4 0.53443023E-01 0.10818447E+04</pdfrwt>
<totfact> 0.96484328E-02</totfact>
</mgrwt>
</event>
<event>
 8    1  0.7046235E-006  0.1381901E+04  0.7818608E-02  0.8480885E-01
          4   -1    0    0  502    0  0.00000000000E+00  0.00000000000E+00  0.96182343855E+03  0.96182343855E+03  0.00000000000E+00 0.  1.
         -4   -1    0    0    0  501 -0.00000000000E+00 -0.00000000000E+00 -0.20049096607E+04  0.20049096607E+04  0.00000000000E+00 0. -1.
    9000010    2    1    2  502    0  0.29382770618E+03  0.89173582012E+03 -0.66281846959E+03  0.15222295471E+04  0.99816179887E+03 0.  0.
   -9000010    2    1    2    0  501 -0.29382770618E+03 -0.89173582012E+03 -0.38026775260E+03  0.14445035522E+04  0.10297861209E+04 0.  0.
        -13    1    3    3    0    0 -0.15148650166E+03  0.81495862250E+01 -0.49615811845E+03  0.51883279157E+03  0.10566000000E+00 0.  1.
          4    1    3    3  502    0  0.44531420785E+03  0.88358623389E+03 -0.16666035115E+03  0.10033967556E+04  0.00000000000E+00 0.  1.
         13    1    4    4    0    0  0.34555496162E+03 -0.57353093662E+03 -0.26945416793E+03  0.72176971849E+03  0.10566000000E+00 0. -1.
         -4    1    4    4    0  501 -0.63938266780E+03 -0.31820488350E+03 -0.11081358467E+03  0.72273383366E+03  0.00000000000E+00 0. -1.
<mgrwt>
<rscale>  2 0.13819014E+04</rscale>
<asrwt>0</asrwt>
<pdfrwt beam="1">  1        4 0.14797284E+00 0.13819014E+04</pdfrwt>
<pdfrwt beam="2">  1       -4 0.30844764E+00 0.13819014E+04</pdfrwt>
<totfact> 0.14478228E-01</totfact>
</mgrwt>
</event>
<event>
 8    1  0.7046235E-006  0.1081642E+04  0.7818608E-02  0.8701451E-01
         -2   -1    0    0    0  501 -0.00000000000E+00  0.00000000000E+00  0.70246943187E+03  0.70246943187E+03  0.00000000000E+00 0.  1.
          2   -1    0    0  502    0  0.00000000000E+00 -0.00000000000E+00 -0.16962850219E+04  0.16962850219E+04  0.00000000000E+00 0. -1.
    9000010    2    1    2  502    0  0.86318750536E+02  0.53310085735E+03 -0.66941251866E+03  0.13014604524E+04  0.97674906619E+03 0.  0.
   -9000010    2    1    2    0  501 -0.86318750536E+02 -0.53310085735E+03 -0.32440307137E+03  0.10972940013E+04  0.89842602469E+03 0.  0.
        -13    1    3    3    0    0  0.10276152309E+03 -0.18766452928E+02  0.22630686605E+03  0.24925272148E+03  0.10566000000E+00 0.  1.
          4    1    3    3  502    0 -0.16442772551E+02  0.55186731028E+03 -0.89571938471E+03  0.10522077309E+04  0.00000000000E+00 0.  1.
         13    1    4    4    0    0 -0.21395948465E+03 -0.64856239895E+03  0.50461505498E+02  0.68480524320E+03  0.10566000000E+00 0. -1.
         -4    1    4    4    0  501  0.12764073412E+03  0.11546154160E+03 -0.37486457687E+03  0.41248875813E+03  0.00000000000E+00 0. -1.
<mgrwt>
<rscale>  2 0.10816419E+04</rscale>
<asrwt>0</asrwt>
<pdfrwt beam="2">  1        2 0.26096692E+00 0.10816419E+04</pdfrwt>
<pdfrwt beam="1">  1       -2 0.10807222E+00 0.10816419E+04</pdfrwt>
<totfact> 0.10245902E+01</totfact>
</mgrwt>
</event>
<event>
 8    1  0.7046235E-006  0.1240212E+04  0.7818608E-02  0.8576882E-01
         -2   -1    0    0    0  501 -0.00000000000E+00  0.00000000000E+00  0.16158222371E+04  0.16158222371E+04  0.00000000000E+00 0.  1.
          2   -1    0    0  502    0  0.00000000000E+00 -0.00000000000E+00 -0.10255740455E+04  0.10255740455E+04  0.00000000000E+00 0. -1.
    9000010    2    1    2  502    0  0.22653560398E+03 -0.69884553955E+03  0.64916832337E+03  0.14002486667E+04  0.99978665143E+03 0.  0.
   -9000010    2    1    2    0  501 -0.22653560398E+03  0.69884553955E+03 -0.58920131710E+02  0.12411476159E+04  0.99863524600E+03 0.  0.
        -13    1    3    3    0    0  0.61376894120E+03 -0.31467747702E+03  0.29691365229E+03  0.75092739716E+03  0.10566000000E+00 0.  1.
          4    1    3    3  502    0 -0.38723333721E+03 -0.38416806253E+03  0.35225467108E+03  0.64932126950E+03  0.00000000000E+00 0.  1.
         13    1    4    4    0    0 -0.83204605901E+02  0.77729044554E+03 -0.38875501522E+03  0.87306008739E+03  0.10566000000E+00 0. -1.
         -4    1    4    4    0  501 -0.14333099808E+03 -0.78444905985E+02  0.32983488351E+03  0.36808752854E+03  0.00000000000E+00 0. -1.
<mgrwt>
<rscale>  2 0.12402120E+04</rscale>
<asrwt>0</asrwt>
<pdfrwt beam="2">  1        2 0.15778062E+00 0.12402120E+04</pdfrwt>
<pdfrwt beam="1">  1       -2 0.24858804E+00 0.12402120E+04</pdfrwt>
<totfact> 0.14954643E+00</totfact>
</mgrwt>
</event>
<event>
 8    1  0.7046235E-006  0.1392561E+04  0.7818608E-02  0.8474146E-01
          2   -1    0    0  502    0  0.00000000000E+00  0.00000000000E+00  0.10194620407E+04  0.10194620407E+04  0.00000000000E+00 0.  1.
         -2   -1    0    0    0  501 -0.00000000000E+00 -0.00000000000E+00 -0.19135949443E+04  0.19135949443E+04  0.00000000000E+00 0. -1.
    9000010    2    1    2  502    0 -0.91401708949E+03 -0.32974766404E+03 -0.55554892848E+03  0.14879390558E+04  0.98039138108E+03 0.  0.
   -9000010    2    1    2    0  501  0.91401708949E+03  0.32974766404E+03 -0.33858397505E+03  0.14451179292E+04  0.10146752975E+04 0.  0.
        -13    1    3    3    0    0  0.14196331813E+03  0.15981650488E+03 -0.53645182608E+02  0.22039218613E+03  0.10566000000E+00 0.  1.
          4    1    3    3  502    0 -0.10559804076E+04 -0.48956416892E+03 -0.50190374587E+03  0.12675468697E+04  0.00000000000E+00 0.  1.
         13    1    4    4    0    0  0.10449664378E+03  0.44903571712E+03  0.15871641126E+03  0.48758951402E+03  0.10566000000E+00 0. -1.
         -4    1    4    4    0  501  0.80952044571E+03 -0.11928805308E+03 -0.49730038631E+03  0.95752841516E+03  0.00000000000E+00 0. -1.
<mgrwt>
<rscale>  2 0.13925609E+04</rscale>
<asrwt>0</asrwt>
<pdfrwt beam="1">  1        2 0.15684031E+00 0.13925609E+04</pdfrwt>
<pdfrwt beam="2">  1       -2 0.29439922E+00 0.13925609E+04</pdfrwt>
<totfact> 0.67399289E-01</totfact>
</mgrwt>
</event>
<event>
 8    1  0.7046235E-006  0.1284418E+04  0.7818608E-02  0.8545568E-01
          1   -1    0    0  502    0  0.00000000000E+00  0.00000000000E+00  0.19100113597E+04  0.19100113597E+04  0.00000000000E+00 0.  1.
         -1   -1    0    0    0  501 -0.00000000000E+00 -0.00000000000E+00 -0.86380624830E+03  0.86380624830E+03  0.00000000000E+00 0. -1.
    9000010    2    1    2  502    0  0.79135325994E+03 -0.20878643699E+03  0.52268642092E+03  0.13972517643E+04  0.10046291057E+04 0.  0.
   -9000010    2    1    2    0  501 -0.79135325994E+03  0.20878643699E+03  0.52351869044E+03  0.13765658437E+04  0.97520764167E+03 0.  0.
        -13    1    3    3    0    0  0.43955083463E+03 -0.59538718616E+03  0.14953975153E+03  0.75501853363E+03  0.10566000000E+00 0.  1.
          4    1    3    3  502    0  0.35180242531E+03  0.38660074917E+03  0.37314666939E+03  0.64223323068E+03  0.00000000000E+00 0.  1.
         13    1    4    4    0    0 -0.15899663016E+03  0.26022880685E+03  0.66049911497E+03  0.72750123874E+03  0.10566000000E+00 0. -1.
         -4    1    4    4    0  501 -0.63235662978E+03 -0.51442369861E+02 -0.13698042454E+03  0.64906460492E+03  0.00000000000E+00 0. -1.
<mgrwt>
<rscale>  2 0.12844180E+04</rscale>
<asrwt>0</asrwt>
<pdfrwt beam="1">  1        1 0.29384790E+00 0.12844180E+04</pdfrwt>
<pdfrwt beam="2">  1       -1 0.13289327E+00 0.12844180E+04</pdfrwt>
<totfact> 0.22135520E+00</totfact>
</mgrwt>
</event>
<event>
 8    1  0.7046235E-006  0.1151687E+04  0.7818608E-02  0.8643859E-01
         -2   -1    0    0    0  501 -0.00000000000E+00  0.00000000000E+00  0.52115513053E+03  0.52115513053E+03  0.00000000000E+00 0.  1.
          2   -1    0    0  502    0  0.00000000000E+00 -0.00000000000E+00 -0.26603045382E+04  0.26603045382E+04  0.00000000000E+00 0. -1.
    9000010    2    1    2  502    0 -0.66905008966E+03 -0.10163128749E+03 -0.13164050508E+04  0.17017798358E+04  0.83974723025E+03 0.  0.
   -9000010    2    1    2    0  501  0.66905008966E+03  0.10163128749E+03 -0.82274435688E+03  0.14796798329E+04  0.10269309569E+04 0.  0.
        -13    1    3    3    0    0 -0.49152753749E+03  0.32462507973E+03 -0.54366744601E+03  0.80159532528E+03  0.10566000000E+00 0.  1.
          4    1    3    3  502    0 -0.17752255218E+03 -0.42625636722E+03 -0.77273760481E+03  0.90018451054E+03  0.00000000000E+00 0.  1.
         13    1    4    4    0    0 -0.55531433286E+02  0.40519341924E+03 -0.12154231875E+03  0.42665910689E+03  0.10566000000E+00 0. -1.
         -4    1    4    4    0  501  0.72458152295E+03 -0.30356213176E+03 -0.70120203812E+03  0.10530207261E+04  0.00000000000E+00 0. -1.
<mgrwt>
<rscale>  2 0.11516866E+04</rscale>
<asrwt>0</asrwt>
<pdfrwt beam="2">  1        2 0.40927762E+00 0.11516866E+04</pdfrwt>
<pdfrwt beam="1">  1       -2 0.80177713E-01 0.11516866E+04</pdfrwt>
<totfact> 0.60198423E+00</totfact>
</mgrwt>
</event>
<event>
 8    1  0.7046235E-006  0.1316535E+04  0.7818608E-02  0.8523622E-01
         -1   -1    0    0    0  501 -0.00000000000E+00  0.00000000000E+00  0.12501311118E+04  0.12501311118E+04  0.00000000000E+00 0. -1.
          1   -1    0    0  502    0  0.00000000000E+00 -0.00000000000E+00 -0.14935071062E+04  0.14935071062E+04  0.00000000000E+00 0.  1.
    9000010    2    1    2  502    0  0.59483475331E+03  0.61449510273E+03  0.24526025046E+03  0.13425313830E+04  0.10053881385E+04 0.  0.
   -9000010    2    1    2    0  501 -0.59483475331E+03 -0.61449510273E+03 -0.48863624488E+03  0.14011068349E+04  0.99644486450E+03 0.  0.
        -13    1    3    3    0    0  0.57802209191E+03  0.19453428475E+03 -0.27893982394E+03  0.67064190387E+03  0.10566000000E+00 0.  1.
          4    1    3    3  502    0  0.16812661396E+02  0.41996081798E+03  0.52420007440E+03  0.67188947917E+03  0.00000000000E+00 0.  1.
         13    1    4    4    0    0 -0.17265482124E+03 -0.66601134450E+03 -0.64971525462E+03  0.94631428265E+03  0.10566000000E+00 0. -1.
         -4    1    4    4    0  501 -0.42217993207E+03  0.51516241767E+02  0.16107900975E+03  0.45479255225E+03  0.00000000000E+00 0. -1.
<mgrwt>
<rscale>  2 0.13165346E+04</rscale>
<asrwt>0</asrwt>
<pdfrwt beam="2">  1        1 0.22977032E+00 0.13165346E+04</pdfrwt>
<pdfrwt beam="1">  1       -1 0.19232786E+00 0.13165346E+04</pdfrwt>
<totfact> 0.13705647E+00</totfact>
</mgrwt>
</event>
<event>
 8    1  0.7046235E-006  0.1142806E+04  0.7818608E-02  0.8650922E-01
         -2   -1    0    0    0  501 -0.00000000000E+00  0.00000000000E+00  0.59578402008E+03  0.59578402008E+03  0.00000000000E+00 0. -1.
          2   -1    0    0  502    0  0.00000000000E+00 -0.00000000000E+00 -0.22537197232E+04  0.22537197232E+04  0.00000000000E+00 0.  1.
    9000010    2    1    2  502    0  0.40466446054E+03  0.17066899464E+02 -0.65596227131E+03  0.13779469838E+04  0.11421062929E+04 0.  0.
   -9000010    2    1    2    0  501 -0.40466446054E+03 -0.17066899464E+02 -0.10019734318E+04  0.14715567595E+04  0.99874117445E+03 0.  0.
        -13    1    3    3    0    0  0.34984861798E+02 -0.15991358719E+03  0.29781323551E+03  0.33983677013E+03  0.10566000000E+00 0.  1.
          4    1    3    3  502    0  0.36967959874E+03  0.17698048665E+03 -0.95377550682E+03  0.10381102137E+04  0.00000000000E+00 0.  1.
         13    1    4    4    0    0  0.18978728596E+03 -0.11080735799E+03 -0.81090247176E+03  0.84015493474E+03  0.10566000000E+00 0. -1.
         -4    1    4    4    0  501 -0.59445174650E+03  0.93740458525E+02 -0.19107096008E+03  0.63140182473E+03  0.00000000000E+00 0. -1.
<mgrwt>
<rscale>  2 0.11428056E+04</rscale>
<asrwt>0</asrwt>
<pdfrwt beam="2">  1        2 0.34672611E+00 0.11428056E+04</pdfrwt>
<pdfrwt beam="1">  1       -2 0.91659081E-01 0.11428056E+04</pdfrwt>
<totfact> 0.75132267E+00</totfact>
</mgrwt>
</event>
<event>
 8    1  0.7046235E-006  0.1136345E+04  0.7818608E-02  0.8656102E-01
         -1   -1    0    0    0  501 -0.00000000000E+00  0.00000000000E+00  0.12226947179E+04  0.12226947179E+04  0.00000000000E+00 0.  1.
          1   -1    0    0  502    0  0.00000000000E+00 -0.00000000000E+00 -0.13430682320E+04  0.13430682320E+04  0.00000000000E+00 0. -1.
    9000010    2    1    2  502    0 -0.31491781659E+03 -0.42677557088E+03 -0.65338213826E+03  0.13153080102E+04  0.10108493083E+04 0.  0.
   -9000010    2    1    2    0  501  0.31491781659E+03  0.42677557088E+03  0.53300862422E+03  0.12504549397E+04  0.99911397928E+03 0.  0.
        -13    1    3    3    0    0 -0.55166188034E+03 -0.25324697144E+03 -0.78608548492E+03  0.99317433491E+03  0.10566000000E+00 0.  1.
          4    1    3    3  502    0  0.23674406375E+03 -0.17352859944E+03  0.13270334666E+03  0.32213367530E+03  0.00000000000E+00 0.  1.
         13    1    4    4    0    0  0.18056523756E+03  0.17706584191E+02  0.74765290789E+03  0.76935181158E+03  0.10566000000E+00 0. -1.
         -4    1    4    4    0  501  0.13435257903E+03  0.40906898669E+03 -0.21464428367E+03  0.48110312811E+03  0.00000000000E+00 0. -1.
<mgrwt>
<rscale>  2 0.11363447E+04</rscale>
<asrwt>0</asrwt>
<pdfrwt beam="2">  1        1 0.20662588E+00 0.11363447E+04</pdfrwt>
<pdfrwt beam="1">  1       -1 0.18810688E+00 0.11363447E+04</pdfrwt>
<totfact> 0.19805670E+00</totfact>
</mgrwt>
</event>
<event>
 8    1  0.7046235E-006  0.1266037E+04  0.7818608E-02  0.8558428E-01
         -2   -1    0    0    0  501 -0.00000000000E+00  0.00000000000E+00  0.21052191727E+04  0.21052191727E+04  0.00000000000E+00 0.  1.
          2   -1    0    0  502    0  0.00000000000E+00 -0.00000000000E+00 -0.78883114110E+03  0.78883114110E+03  0.00000000000E+00 0. -1.
    9000010    2    1    2  502    0 -0.70704039120E+03 -0.31469578959E+03  0.93106342206E+03  0.15763062480E+04  0.10094170282E+04 0.  0.
   -9000010    2    1    2    0  501  0.70704039120E+03  0.31469578959E+03  0.38532460948E+03  0.13177440658E+04  0.99450229434E+03 0.  0.
        -13    1    3    3    0    0 -0.58044395542E+02 -0.56637326905E+03  0.49871470604E+03  0.75687793001E+03  0.10566000000E+00 0.  1.
          4    1    3    3  502    0 -0.64899599566E+03  0.25167747946E+03  0.43234871603E+03  0.81942831797E+03  0.00000000000E+00 0.  1.
         13    1    4    4    0    0  0.21043847458E+03  0.33961745591E+03 -0.27946861526E+03  0.48757264691E+03  0.10566000000E+00 0. -1.
         -4    1    4    4    0  501  0.49660191662E+03 -0.24921666313E+02  0.66479322474E+03  0.83017141887E+03  0.00000000000E+00 0. -1.
<mgrwt>
<rscale>  2 0.12660366E+04</rscale>
<asrwt>0</asrwt>
<pdfrwt beam="2">  1        2 0.12135864E+00 0.12660366E+04</pdfrwt>
<pdfrwt beam="1">  1       -2 0.32387987E+00 0.12660366E+04</pdfrwt>
<totfact> 0.61526801E-01</totfact>
</mgrwt>
</event>
<event>
 8    1  0.7046235E-006  0.1238097E+04  0.7818608E-02  0.8578413E-01
          2   -1    0    0  502    0  0.00000000000E+00  0.00000000000E+00  0.28609162703E+04  0.28609162703E+04  0.00000000000E+00 0. -1.
         -2   -1    0    0    0  501 -0.00000000000E+00 -0.00000000000E+00 -0.60499825061E+03  0.60499825061E+03  0.00000000000E+00 0.  1.
    9000010    2    1    2  502    0 -0.29879519575E+03 -0.73074972781E+03  0.57217348041E+03  0.13962302690E+04  0.99940119008E+03 0.  0.
   -9000010    2    1    2    0  501  0.29879519575E+03  0.73074972781E+03  0.16837445393E+04  0.20696842519E+04  0.90847316708E+03 0.  0.
        -13    1    3    3    0    0 -0.51103678139E+03 -0.28723825975E+02  0.93165207165E+02  0.52025322402E+03  0.10566000000E+00 0.  1.
          4    1    3    3  502    0  0.21224158564E+03 -0.70202590183E+03  0.47900827325E+03  0.87597704500E+03  0.00000000000E+00 0.  1.
         13    1    4    4    0    0  0.13746725425E+03  0.93388296021E+03  0.13040459356E+04  0.16098355328E+04  0.10566000000E+00 0. -1.
         -4    1    4    4    0  501  0.16132794150E+03 -0.20313323240E+03  0.37969860374E+03  0.45984871914E+03  0.00000000000E+00 0. -1.
<mgrwt>
<rscale>  2 0.12380972E+04</rscale>
<asrwt>0</asrwt>
<pdfrwt beam="1">  1        2 0.44014096E+00 0.12380972E+04</pdfrwt>
<pdfrwt beam="2">  1       -2 0.93076656E-01 0.12380972E+04</pdfrwt>
<totfact> 0.32369327E+00</totfact>
</mgrwt>
</event>
<event>
 8    1  0.7046235E-006  0.1409062E+04  0.7818608E-02  0.8463835E-01
         -2   -1    0    0    0  501 -0.00000000000E+00  0.00000000000E+00  0.92362502660E+03  0.92362502660E+03  0.00000000000E+00 0.  1.
          2   -1    0    0  502    0  0.00000000000E+00 -0.00000000000E+00 -0.23293233384E+04  0.23293233384E+04  0.00000000000E+00 0. -1.
    9000010    2    1    2  502    0 -0.50919259847E+02 -0.10210302968E+04 -0.11625796637E+04  0.18411069110E+04  0.99648760415E+03 0.  0.
   -9000010    2    1    2    0  501  0.50919259847E+02  0.10210302968E+04 -0.24311864812E+03  0.14118414540E+04  0.94291779926E+03 0.  0.
        -13    1    3    3    0    0  0.30575922958E+03 -0.61898561841E+03 -0.11017942186E+04  0.13002239859E+04  0.10566000000E+00 0.  1.
          4    1    3    3  502    0 -0.35667848943E+03 -0.40204467840E+03 -0.60785445041E+02  0.54088292502E+03  0.00000000000E+00 0.  1.
         13    1    4    4    0    0  0.29081838599E+03  0.10988977257E+04 -0.17103995721E+03  0.11495243465E+04  0.10566000000E+00 0. -1.
         -4    1    4    4    0  501 -0.23989912614E+03 -0.77867428854E+02 -0.72078690910E+02  0.26231710750E+03  0.00000000000E+00 0. -1.
<mgrwt>
<rscale>  2 0.14090624E+04</rscale>
<asrwt>0</asrwt>
<pdfrwt beam="2">  1        2 0.35835743E+00 0.14090624E+04</pdfrwt>
<pdfrwt beam="1">  1       -2 0.14209616E+00 0.14090624E+04</pdfrwt>
<totfact> 0.21296075E+00</totfact>
</mgrwt>
</event>
<event>
 8    1  0.7046235E-006  0.1731662E+04  0.7818608E-02  0.8287373E-01
         -2   -1    0    0    0  501 -0.00000000000E+00  0.00000000000E+00  0.10745942489E+04  0.10745942489E+04  0.00000000000E+00 0. -1.
          2   -1    0    0  502    0  0.00000000000E+00 -0.00000000000E+00 -0.30201254654E+04  0.30201254654E+04  0.00000000000E+00 0.  1.
    9000010    2    1    2  502    0 -0.70368702302E+03 -0.12318709007E+04 -0.15377847124E+04  0.23166018721E+04  0.99457582404E+03 0.  0.
   -9000010    2    1    2    0  501  0.70368702302E+03  0.12318709007E+04 -0.40774650416E+03  0.17781178422E+04  0.99134479710E+03 0.  0.
        -13    1    3    3    0    0 -0.22831235907E+03 -0.75761758383E+03 -0.14330528100E+04  0.16369945950E+04  0.10566000000E+00 0.  1.
          4    1    3    3  502    0 -0.47537466395E+03 -0.47425331686E+03 -0.10473190236E+03  0.67960727707E+03  0.00000000000E+00 0.  1.
         13    1    4    4    0    0 -0.22640643553E+03  0.38199415286E+03  0.28142655651E+02  0.44493980166E+03  0.10566000000E+00 0. -1.
         -4    1    4    4    0  501  0.93009345854E+03  0.84987674783E+03 -0.43588915982E+03  0.13331780405E+04  0.00000000000E+00 0. -1.
<mgrwt>
<rscale>  2 0.17316617E+04</rscale>
<asrwt>0</asrwt>
<pdfrwt beam="2">  1        2 0.46463468E+00 0.17316617E+04</pdfrwt>
<pdfrwt beam="1">  1       -2 0.16532220E+00 0.17316617E+04</pdfrwt>
<totfact> 0.50675508E-01</totfact>
</mgrwt>
</event>
<event>
 8    1  0.7046235E-006  0.1260830E+04  0.7818608E-02  0.8562112E-01
          1   -1    0    0  502    0  0.00000000000E+00  0.00000000000E+00  0.92858773593E+03  0.92858773593E+03  0.00000000000E+00 0. -1.
         -1   -1    0    0    0  501 -0.00000000000E+00 -0.00000000000E+00 -0.17194221272E+04  0.17194221272E+04  0.00000000000E+00 0.  1.
    9000010    2    1    2  502    0  0.44502151514E+03  0.65263543675E+03 -0.48350006197E+03  0.13528220226E+04  0.98609226377E+03 0.  0.
   -9000010    2    1    2    0  501 -0.44502151514E+03 -0.65263543675E+03 -0.30733432926E+03  0.12951878405E+04  0.97932629394E+03 0.  0.
        -13    1    3    3    0    0  0.76312993004E+03  0.45817453669E+03 -0.35845892949E+03  0.95957491187E+03  0.10566000000E+00 0.  1.
          4    1    3    3  502    0 -0.31810841490E+03  0.19446090006E+03 -0.12504113247E+03  0.39324711072E+03  0.00000000000E+00 0.  1.
         13    1    4    4    0    0  0.54032536268E+02 -0.63605963735E+03  0.10585936251E+03  0.64706846086E+03  0.10566000000E+00 0. -1.
         -4    1    4    4    0  501 -0.49905405141E+03 -0.16575799398E+02 -0.41319369177E+03  0.64811937964E+03  0.00000000000E+00 0. -1.
<mgrwt>
<rscale>  2 0.12608300E+04</rscale>
<asrwt>0</asrwt>
<pdfrwt beam="1">  1        1 0.14285965E+00 0.12608300E+04</pdfrwt>
<pdfrwt beam="2">  1       -1 0.26452648E+00 0.12608300E+04</pdfrwt>
<totfact> 0.79283375E-01</totfact>
</mgrwt>
</event>
<event>
 8    1  0.7046235E-006  0.1319092E+04  0.7818608E-02  0.8521902E-01
         -4   -1    0    0    0  501 -0.00000000000E+00  0.00000000000E+00  0.12676704757E+04  0.12676704757E+04  0.00000000000E+00 0. -1.
          4   -1    0    0  502    0  0.00000000000E+00 -0.00000000000E+00 -0.14330016841E+04  0.14330016841E+04  0.00000000000E+00 0.  1.
    9000010    2    1    2  502    0 -0.35234340199E+01  0.83973386510E+03 -0.35945582901E+03  0.13612673143E+04  0.10092942233E+04 0.  0.
   -9000010    2    1    2    0  501  0.35234340199E+01 -0.83973386510E+03  0.19412462058E+03  0.13394048454E+04  0.10252587931E+04 0.  0.
        -13    1    3    3    0    0  0.42709985213E+03  0.63370657678E+03 -0.83657885085E+00  0.76419828590E+03  0.10566000000E+00 0.  1.
          4    1    3    3  502    0 -0.43062328615E+03  0.20602728832E+03 -0.35861925016E+03  0.59706902842E+03  0.00000000000E+00 0.  1.
         13    1    4    4    0    0 -0.47486263057E+03 -0.26635637298E+03 -0.66465679768E+02  0.54850518055E+03  0.10566000000E+00 0. -1.
         -4    1    4    4    0  501  0.47838606459E+03 -0.57337749212E+03  0.26059030035E+03  0.79089966488E+03  0.00000000000E+00 0. -1.
<mgrwt>
<rscale>  2 0.13190924E+04</rscale>
<asrwt>0</asrwt>
<pdfrwt beam="2">  1        4 0.22046180E+00 0.13190924E+04</pdfrwt>
<pdfrwt beam="1">  1       -4 0.19502623E+00 0.13190924E+04</pdfrwt>
<totfact> 0.16451997E-01</totfact>
</mgrwt>
</event>
<event>
 8    1  0.7046235E-006  0.1039872E+04  0.7818608E-02  0.8738004E-01
         -1   -1    0    0    0  501 -0.00000000000E+00  0.00000000000E+00  0.80866771681E+03  0.80866771681E+03  0.00000000000E+00 0.  1.
          1   -1    0    0  502    0  0.00000000000E+00 -0.00000000000E+00 -0.13752507823E+04  0.13752507823E+04  0.00000000000E+00 0. -1.
    9000010    2    1    2  502    0  0.36447011235E+03  0.85249449836E+02 -0.47005735121E+03  0.11676742228E+04  0.10012009018E+04 0.  0.
   -9000010    2    1    2    0  501 -0.36447011235E+03 -0.85249449836E+02 -0.96525714246E+02  0.10162442763E+04  0.93985599112E+03 0.  0.
        -13    1    3    3    0    0 -0.10495640895E+03  0.37682959241E+03  0.67246489814E+02  0.39691118787E+03  0.10566000000E+00 0.  1.
          4    1    3    3  502    0  0.46942652130E+03 -0.29158014258E+03 -0.53730384102E+03  0.77076303494E+03  0.00000000000E+00 0.  1.
         13    1    4    4    0    0  0.26009241495E+03 -0.16163191930E+03  0.14933969726E+03  0.34069825065E+03  0.10566000000E+00 0. -1.
         -4    1    4    4    0  501 -0.62456252731E+03  0.76382469461E+02 -0.24586541151E+03  0.67554602562E+03  0.00000000000E+00 0. -1.
<mgrwt>
<rscale>  2 0.10398723E+04</rscale>
<asrwt>0</asrwt>
<pdfrwt beam="2">  1        1 0.21157704E+00 0.10398723E+04</pdfrwt>
<pdfrwt beam="1">  1       -1 0.12441042E+00 0.10398723E+04</pdfrwt>
<totfact> 0.67929034E+00</totfact>
</mgrwt>
</event>
<event>
 8    1  0.7046235E-006  0.1526239E+04  0.7818608E-02  0.8394557E-01
          2   -1    0    0  502    0  0.00000000000E+00  0.00000000000E+00  0.34185972951E+04  0.34185972951E+04  0.00000000000E+00 0.  1.
         -2   -1    0    0    0  501 -0.00000000000E+00 -0.00000000000E+00 -0.70296088044E+03  0.70296088044E+03  0.00000000000E+00 0. -1.
    9000010    2    1    2  502    0 -0.11000540587E+04 -0.35674711474E+03  0.99723077858E+03  0.18235267769E+04  0.99669114787E+03 0.  0.
   -9000010    2    1    2    0  501  0.11000540587E+04  0.35674711474E+03  0.17184056361E+04  0.22980313987E+04  0.99531047578E+03 0.  0.
        -13    1    3    3    0    0 -0.10950790254E+04 -0.27233939161E+03  0.11735003943E+04  0.16280264134E+04  0.10566000000E+00 0.  1.
          4    1    3    3  502    0 -0.49750333536E+01 -0.84407723129E+02 -0.17626961576E+03  0.19550036348E+03  0.00000000000E+00 0.  1.
         13    1    4    4    0    0  0.20829612045E+03 -0.33669834553E+03  0.46329093136E+03  0.60941902490E+03  0.10566000000E+00 0. -1.
         -4    1    4    4    0  501  0.89175793828E+03  0.69344546027E+03  0.12551147047E+04  0.16886123738E+04  0.00000000000E+00 0. -1.
<mgrwt>
<rscale>  2 0.15262389E+04</rscale>
<asrwt>0</asrwt>
<pdfrwt beam="1">  1        2 0.52593804E+00 0.15262389E+04</pdfrwt>
<pdfrwt beam="2">  1       -2 0.10814783E+00 0.15262389E+04</pdfrwt>
<totfact> 0.94941644E-01</totfact>
</mgrwt>
</event>
<event>
 8    1  0.7046235E-006  0.1389884E+04  0.7818608E-02  0.8475832E-01
          1   -1    0    0  502    0  0.00000000000E+00  0.00000000000E+00  0.67525628864E+03  0.67525628864E+03  0.00000000000E+00 0. -1.
         -1   -1    0    0    0  501 -0.00000000000E+00 -0.00000000000E+00 -0.36432018799E+04  0.36432018799E+04  0.00000000000E+00 0.  1.
    9000010    2    1    2  502    0  0.18868612176E+03  0.94429710167E+03 -0.24871297498E+04  0.28506229588E+04  0.10064479083E+04 0.  0.
   -9000010    2    1    2    0  501 -0.18868612176E+03 -0.94429710167E+03 -0.48081584152E+03  0.14678352098E+04  0.99802648307E+03 0.  0.
        -13    1    3    3    0    0  0.37467347113E+03  0.26654819251E+03 -0.18354714697E+04  0.18921901797E+04  0.10566000000E+00 0.  1.
          4    1    3    3  502    0 -0.18598734938E+03  0.67774890916E+03 -0.65165828003E+03  0.95843277903E+03  0.00000000000E+00 0.  1.
         13    1    4    4    0    0  0.10079171388E+03  0.33211069735E+02 -0.43454472915E+03  0.44731541169E+03  0.10566000000E+00 0. -1.
         -4    1    4    4    0  501 -0.28947783563E+03 -0.97750817141E+03 -0.46271112368E+02  0.10205197981E+04  0.00000000000E+00 0. -1.
<mgrwt>
<rscale>  2 0.13898842E+04</rscale>
<asrwt>0</asrwt>
<pdfrwt beam="1">  1        1 0.10388558E+00 0.13898842E+04</pdfrwt>
<pdfrwt beam="2">  1       -1 0.56049261E+00 0.13898842E+04</pdfrwt>
<totfact> 0.19051031E-01</totfact>
</mgrwt>
</event>
<event>
 8    1  0.7046235E-006  0.1013625E+04  0.7818608E-02  0.8761894E-01
         -2   -1    0    0    0  501 -0.00000000000E+00  0.00000000000E+00  0.16632888106E+04  0.16632888106E+04  0.00000000000E+00 0. -1.
          2   -1    0    0  502    0  0.00000000000E+00 -0.00000000000E+00 -0.63470951796E+03  0.63470951796E+03  0.00000000000E+00 0.  1.
    9000010    2    1    2  502    0 -0.40106866910E+03  0.37473316111E+03  0.32790631648E+03  0.95372186918E+03  0.70765940395E+03 0.  0.
   -9000010    2    1    2    0  501  0.40106866910E+03 -0.37473316111E+03  0.70067297618E+03  0.13442764594E+04  0.10074003972E+04 0.  0.
        -13    1    3    3    0    0 -0.32454012393E+03  0.58115107729E+03  0.18357656214E+03  0.69048043564E+03  0.10566000000E+00 0.  1.
          4    1    3    3  502    0 -0.76528545164E+02 -0.20641791618E+03  0.14432975434E+03  0.26324143354E+03  0.00000000000E+00 0.  1.
         13    1    4    4    0    0  0.35378671999E+03 -0.11922768134E+03 -0.18827922668E+03  0.41812601163E+03  0.10566000000E+00 0. -1.
         -4    1    4    4    0  501  0.47281949104E+02 -0.25550547978E+03  0.88895220286E+03  0.92615044775E+03  0.00000000000E+00 0. -1.
<mgrwt>
<rscale>  2 0.10136251E+04</rscale>
<asrwt>0</asrwt>
<pdfrwt beam="2">  1        2 0.97647619E-01 0.10136251E+04</pdfrwt>
<pdfrwt beam="1">  1       -2 0.25589058E+00 0.10136251E+04</pdfrwt>
<totfact> 0.25019220E+00</totfact>
</mgrwt>
</event>
<event>
 8    1  0.7046235E-006  0.1606925E+04  0.7818608E-02  0.8350489E-01
          2   -1    0    0  502    0  0.00000000000E+00  0.00000000000E+00  0.35165581233E+04  0.35165581233E+04  0.00000000000E+00 0. -1.
         -2   -1    0    0    0  501 -0.00000000000E+00 -0.00000000000E+00 -0.18239050321E+04  0.18239050321E+04  0.00000000000E+00 0.  1.
    9000010    2    1    2  502    0 -0.12463632539E+04 -0.42545924514E+02  0.29104212541E+04  0.33250811630E+04  0.10150770158E+04 0.  0.
   -9000010    2    1    2    0  501  0.12463632539E+04  0.42545924514E+02 -0.12177681629E+04  0.20153819924E+04  0.10117182218E+04 0.  0.
        -13    1    3    3    0    0 -0.31003117105E+03 -0.21544769536E+03  0.15207370099E+03  0.40701776148E+03  0.10566000000E+00 0.  1.
          4    1    3    3  502    0 -0.93633208283E+03  0.17290177085E+03  0.27583475531E+04  0.29180634015E+04  0.00000000000E+00 0.  1.
         13    1    4    4    0    0  0.18671084925E+03 -0.27669231167E+03  0.44402882752E+02  0.33673610398E+03  0.10566000000E+00 0. -1.
         -4    1    4    4    0  501  0.10596524046E+04  0.31923823618E+03 -0.12621710457E+04  0.16786458884E+04  0.00000000000E+00 0. -1.
<mgrwt>
<rscale>  2 0.16069246E+04</rscale>
<asrwt>0</asrwt>
<pdfrwt beam="1">  1        2 0.54100894E+00 0.16069246E+04</pdfrwt>
<pdfrwt beam="2">  1       -2 0.28060078E+00 0.16069246E+04</pdfrwt>
<totfact> 0.28112367E-02</totfact>
</mgrwt>
</event>
<event>
 8    1  0.7046235E-006  0.1394280E+04  0.7818608E-02  0.8473065E-01
          2   -1    0    0  502    0  0.00000000000E+00  0.00000000000E+00  0.11128113664E+04  0.11128113664E+04  0.00000000000E+00 0. -1.
         -2   -1    0    0    0  501 -0.00000000000E+00 -0.00000000000E+00 -0.18882466891E+04  0.18882466891E+04  0.00000000000E+00 0.  1.
    9000010    2    1    2  502    0  0.83900803092E+02 -0.97909786043E+03 -0.79745656570E+03  0.16037573540E+04  0.98510340124E+03 0.  0.
   -9000010    2    1    2    0  501 -0.83900803092E+02  0.97909786043E+03  0.22021243012E+02  0.13973007016E+04  0.99312252542E+03 0.  0.
        -13    1    3    3    0    0 -0.19053342199E+03 -0.99734869660E+03 -0.84944754467E+03  0.13238461201E+04  0.10566000000E+00 0.  1.
          4    1    3    3  502    0  0.27443422508E+03  0.18250836167E+02  0.51990978979E+02  0.27991123381E+03  0.00000000000E+00 0.  1.
         13    1    4    4    0    0  0.30785829047E+02  0.43948553751E+01  0.35846159167E+03  0.35980801254E+03  0.10566000000E+00 0. -1.
         -4    1    4    4    0  501 -0.11468663214E+03  0.97470300505E+03 -0.33644034866E+03  0.10374926891E+04  0.00000000000E+00 0. -1.
<mgrwt>
<rscale>  2 0.13942799E+04</rscale>
<asrwt>0</asrwt>
<pdfrwt beam="1">  1        2 0.17120175E+00 0.13942799E+04</pdfrwt>
<pdfrwt beam="2">  1       -2 0.29049949E+00 0.13942799E+04</pdfrwt>
<totfact> 0.63138239E-01</totfact>
</mgrwt>
</event>
<event>
 8    1  0.7046235E-006  0.1127730E+04  0.7818608E-02  0.8663066E-01
         -2   -1    0    0    0  501 -0.00000000000E+00  0.00000000000E+00  0.16249682458E+04  0.16249682458E+04  0.00000000000E+00 0.  1.
          2   -1    0    0  502    0  0.00000000000E+00 -0.00000000000E+00 -0.79793906710E+03  0.79793906710E+03  0.00000000000E+00 0. -1.
    9000010    2    1    2  502    0 -0.50718150828E+03 -0.65360969705E+02  0.57920701018E+03  0.12630283411E+04  0.99912696450E+03 0.  0.
   -9000010    2    1    2    0  501  0.50718150828E+03  0.65360969705E+02  0.24782216848E+03  0.11598789717E+04  0.10111371139E+04 0.  0.
        -13    1    3    3    0    0  0.11309792868E+02  0.35216513184E+03  0.47159188186E+03  0.58868251689E+03  0.10566000000E+00 0.  1.
          4    1    3    3  502    0 -0.51849130115E+03 -0.41752610155E+03  0.10761512832E+03  0.67434582425E+03  0.00000000000E+00 0.  1.
         13    1    4    4    0    0  0.71934914309E+03 -0.21525096348E+03  0.29134212711E+03  0.80540450280E+03  0.10566000000E+00 0. -1.
         -4    1    4    4    0  501 -0.21216763480E+03  0.28061193318E+03 -0.43519958631E+02  0.35447446890E+03  0.00000000000E+00 0. -1.
<mgrwt>
<rscale>  2 0.11277297E+04</rscale>
<asrwt>0</asrwt>
<pdfrwt beam="2">  1        2 0.12275986E+00 0.11277297E+04</pdfrwt>
<pdfrwt beam="1">  1       -2 0.24999511E+00 0.11277297E+04</pdfrwt>
<totfact> 0.20652085E+00</totfact>
</mgrwt>
</event>
<event>
 8    1  0.7046235E-006  0.1202065E+04  0.7818608E-02  0.8605009E-01
         -2   -1    0    0    0  501 -0.00000000000E+00  0.00000000000E+00  0.72073776999E+03  0.72073776999E+03  0.00000000000E+00 0.  1.
          2   -1    0    0  502    0  0.00000000000E+00 -0.00000000000E+00 -0.22105506011E+04  0.22105506011E+04  0.00000000000E+00 0. -1.
    9000010    2    1    2  502    0 -0.62017863735E+03 -0.21009940873E+03 -0.31099584767E+03  0.12631978207E+04  0.10344984356E+04 0.  0.
   -9000010    2    1    2    0  501  0.62017863735E+03  0.21009940873E+03 -0.11788169834E+04  0.16680905504E+04  0.98191308170E+03 0.  0.
        -13    1    3    3    0    0  0.17115414468E+03  0.80093667383E+02 -0.37291744801E+03  0.41806240083E+03  0.10566000000E+00 0.  1.
          4    1    3    3  502    0 -0.79133278203E+03 -0.29019307612E+03  0.61921600338E+02  0.84513541988E+03  0.00000000000E+00 0.  1.
         13    1    4    4    0    0  0.66278120342E+03 -0.24966235371E+03 -0.81867791132E+03  0.10825173200E+04  0.10566000000E+00 0. -1.
         -4    1    4    4    0  501 -0.42602566073E+02  0.45976176245E+03 -0.36013907210E+03  0.58557323035E+03  0.00000000000E+00 0. -1.
<mgrwt>
<rscale>  2 0.12020654E+04</rscale>
<asrwt>0</asrwt>
<pdfrwt beam="2">  1        2 0.34008470E+00 0.12020654E+04</pdfrwt>
<pdfrwt beam="1">  1       -2 0.11088274E+00 0.12020654E+04</pdfrwt>
<totfact> 0.49760260E+00</totfact>
</mgrwt>
</event>
<event>
 8    1  0.7046235E-006  0.1212196E+04  0.7818608E-02  0.8597435E-01
          2   -1    0    0  502    0  0.00000000000E+00  0.00000000000E+00  0.29169258030E+04  0.29169258030E+04  0.00000000000E+00 0.  1.
         -2   -1    0    0    0  501 -0.00000000000E+00 -0.00000000000E+00 -0.50751542665E+03  0.50751542665E+03  0.00000000000E+00 0. -1.
    9000010    2    1    2  502    0  0.23768811917E+03 -0.65645837125E+03  0.10674162535E+04  0.16224086385E+04  0.10026959145E+04 0.  0.
   -9000010    2    1    2    0  501 -0.23768811917E+03  0.65645837125E+03  0.13419941229E+04  0.18020325912E+04  0.97925481801E+03 0.  0.
        -13    1    3    3    0    0 -0.13277980619E+03 -0.37677220846E+03 -0.59260279403E+02  0.40385587266E+03  0.10566000000E+00 0.  1.
          4    1    3    3  502    0  0.37046792536E+03 -0.27968616278E+03  0.11266765329E+04  0.12185527658E+04  0.00000000000E+00 0.  1.
         13    1    4    4    0    0  0.31379567799E+03  0.41840532040E+03  0.95097639761E+03  0.10853049616E+04  0.10566000000E+00 0. -1.
         -4    1    4    4    0  501 -0.55148379715E+03  0.23805305085E+03  0.39101772530E+03  0.71672762961E+03  0.00000000000E+00 0. -1.
<mgrwt>
<rscale>  2 0.12121960E+04</rscale>
<asrwt>0</asrwt>
<pdfrwt beam="1">  1        2 0.44875781E+00 0.12121960E+04</pdfrwt>
<pdfrwt beam="2">  1       -2 0.78079298E-01 0.12121960E+04</pdfrwt>
<totfact> 0.44619603E+00</totfact>
</mgrwt>
</event>
<event>
 8    1  0.7046235E-006  0.1116913E+04  0.7818608E-02  0.8671901E-01
          1   -1    0    0  502    0  0.00000000000E+00  0.00000000000E+00  0.15226134038E+04  0.15226134038E+04  0.00000000000E+00 0.  1.
         -1   -1    0    0    0  501 -0.00000000000E+00 -0.00000000000E+00 -0.10247876818E+04  0.10247876818E+04  0.00000000000E+00 0. -1.
    9000010    2    1    2  502    0  0.19839466390E+02  0.50808056539E+03 -0.32294746259E+03  0.11540016256E+04  0.98431967518E+03 0.  0.
   -9000010    2    1    2    0  501 -0.19839466390E+02 -0.50808056539E+03  0.82077318468E+03  0.13933994600E+04  0.10046660983E+04 0.  0.
        -13    1    3    3    0    0 -0.24689546974E+03  0.26185908297E+02 -0.51415781582E+03  0.57096527522E+03  0.10566000000E+00 0.  1.
          4    1    3    3  502    0  0.26673493613E+03  0.48189465710E+03  0.19121035323E+03  0.58303635039E+03  0.00000000000E+00 0.  1.
         13    1    4    4    0    0  0.12257437231E+03 -0.16692694133E+03 -0.21205320470E+03  0.29640454328E+03  0.10566000000E+00 0. -1.
         -4    1    4    4    0  501 -0.14241383870E+03 -0.34115362406E+03  0.10328263894E+04  0.10969949167E+04  0.00000000000E+00 0. -1.
<mgrwt>
<rscale>  2 0.11169131E+04</rscale>
<asrwt>0</asrwt>
<pdfrwt beam="1">  1        1 0.23424821E+00 0.11169131E+04</pdfrwt>
<pdfrwt beam="2">  1       -1 0.15765964E+00 0.11169131E+04</pdfrwt>
<totfact> 0.26850891E+00</totfact>
</mgrwt>
</event>
<event>
 8    1  0.7046235E-006  0.1682714E+04  0.7818608E-02  0.8311466E-01
         -2   -1    0    0    0  501 -0.00000000000E+00  0.00000000000E+00  0.19091544910E+04  0.19091544910E+04  0.00000000000E+00 0. -1.
          2   -1    0    0  502    0  0.00000000000E+00 -0.00000000000E+00 -0.16022563192E+04  0.16022563192E+04  0.00000000000E+00 0.  1.
    9000010    2    1    2  502    0  0.84772869046E+03 -0.10776135460E+04 -0.32601162078E+03  0.17041884516E+04  0.95816481592E+03 0.  0.
   -9000010    2    1    2    0  501 -0.84772869046E+03  0.10776135460E+04  0.63290979253E+03  0.18072223586E+04  0.99276530999E+03 0.  0.
        -13    1    3    3    0    0  0.69202569228E+02  0.17637713757E+03  0.12438928920E+02  0.18987529687E+03  0.10566000000E+00 0.  1.
          4    1    3    3  502    0  0.77852612123E+03 -0.12539906836E+04 -0.33845054970E+03  0.15143131547E+04  0.00000000000E+00 0.  1.
         13    1    4    4    0    0  0.70183894679E+02  0.74111459547E+02 -0.19140221593E+03  0.21691728132E+03  0.10566000000E+00 0. -1.
         -4    1    4    4    0  501 -0.91791258514E+03  0.10035020865E+04  0.82431200846E+03  0.15903050773E+04  0.00000000000E+00 0. -1.
<mgrwt>
<rscale>  2 0.16827136E+04</rscale>
<asrwt>0</asrwt>
<pdfrwt beam="2">  1        2 0.24650097E+00 0.16827136E+04</pdfrwt>
<pdfrwt beam="1">  1       -2 0.29371607E+00 0.16827136E+04</pdfrwt>
<totfact> 0.30964846E-01</totfact>
</mgrwt>
</event>
<event>
 8    1  0.7046235E-006  0.1317963E+04  0.7818608E-02  0.8522661E-01
          1   -1    0    0  502    0  0.00000000000E+00  0.00000000000E+00  0.23067597082E+04  0.23067597082E+04  0.00000000000E+00 0.  1.
         -1   -1    0    0    0  501 -0.00000000000E+00 -0.00000000000E+00 -0.97579876655E+03  0.97579876655E+03  0.00000000000E+00 0. -1.
    9000010    2    1    2  502    0 -0.83298805552E+03  0.20196394596E+03  0.14506599742E+04  0.19616114156E+04  0.10044134852E+04 0.  0.
   -9000010    2    1    2    0  501  0.83298805552E+03 -0.20196394596E+03 -0.11969903251E+03  0.13209470591E+04  0.99795527884E+03 0.  0.
        -13    1    3    3    0    0  0.13311787523E+03  0.25149258545E+03  0.10283621566E+03  0.30256270038E+03  0.10566000000E+00 0.  1.
          4    1    3    3  502    0 -0.96610593075E+03 -0.49528639498E+02  0.13478237585E+04  0.16590487153E+04  0.00000000000E+00 0.  1.
         13    1    4    4    0    0  0.24910652397E+03 -0.14981836349E+03  0.42886848257E+03  0.51810017258E+03  0.10566000000E+00 0. -1.
         -4    1    4    4    0  501  0.58388153154E+03 -0.52145582471E+02 -0.54856751508E+03  0.80284688655E+03  0.00000000000E+00 0. -1.
<mgrwt>
<rscale>  2 0.13179632E+04</rscale>
<asrwt>0</asrwt>
<pdfrwt beam="1">  1        1 0.35488611E+00 0.13179632E+04</pdfrwt>
<pdfrwt beam="2">  1       -1 0.15012289E+00 0.13179632E+04</pdfrwt>
<totfact> 0.75964990E-01</totfact>
</mgrwt>
</event>
<event>
 8    1  0.7046235E-006  0.1294278E+04  0.7818608E-02  0.8538761E-01
         -2   -1    0    0    0  501 -0.00000000000E+00  0.00000000000E+00  0.11499859220E+04  0.11499859220E+04  0.00000000000E+00 0.  1.
          2   -1    0    0  502    0  0.00000000000E+00 -0.00000000000E+00 -0.14756946182E+04  0.14756946182E+04  0.00000000000E+00 0. -1.
    9000010    2    1    2  502    0  0.61009096950E+03  0.53962758236E+03 -0.30316965719E+03  0.12954738142E+04  0.96069331392E+03 0.  0.
   -9000010    2    1    2    0  501 -0.61009096950E+03 -0.53962758236E+03 -0.22539039069E+02  0.13302067261E+04  0.10514432971E+04 0.  0.
        -13    1    3    3    0    0  0.42141597650E+03 -0.19906092830E+03 -0.25568433536E+03  0.53159304823E+03  0.10566000000E+00 0.  1.
          4    1    3    3  502    0  0.18867499301E+03  0.73868851065E+03 -0.47485321837E+02  0.76388076592E+03  0.00000000000E+00 0.  1.
         13    1    4    4    0    0  0.26449771836E+03  0.23375810510E+02 -0.10781629925E+03  0.28658303698E+03  0.10566000000E+00 0. -1.
         -4    1    4    4    0  501 -0.87458868787E+03 -0.56300339287E+03  0.85277260178E+02  0.10436236891E+04  0.00000000000E+00 0. -1.
<mgrwt>
<rscale>  2 0.12942778E+04</rscale>
<asrwt>0</asrwt>
<pdfrwt beam="2">  1        2 0.22702994E+00 0.12942778E+04</pdfrwt>
<pdfrwt beam="1">  1       -2 0.17692091E+00 0.12942778E+04</pdfrwt>
<totfact> 0.31577515E+00</totfact>
</mgrwt>
</event>
<event>
 8    1  0.7046235E-006  0.1465269E+04  0.7818608E-02  0.8429772E-01
          2   -1    0    0  502    0  0.00000000000E+00  0.00000000000E+00  0.26852164463E+04  0.26852164463E+04  0.00000000000E+00 0. -1.
         -2   -1    0    0    0  501 -0.00000000000E+00 -0.00000000000E+00 -0.80961929611E+03  0.80961929611E+03  0.00000000000E+00 0.  1.
    9000010    2    1    2  502    0 -0.35592446612E+03 -0.10211513422E+04  0.74419141934E+03  0.16449505540E+04  0.99126644612E+03 0.  0.
   -9000010    2    1    2    0  501  0.35592446612E+03  0.10211513422E+04  0.11314057308E+04  0.18498851884E+04  0.98618659147E+03 0.  0.
        -13    1    3    3    0    0 -0.19081815261E+02 -0.75312371145E+03  0.91200885057E+03  0.11829283981E+04  0.10566000000E+00 0.  1.
          4    1    3    3  502    0 -0.33684265086E+03 -0.26802763076E+03 -0.16781743123E+03  0.46202215586E+03  0.00000000000E+00 0.  1.
         13    1    4    4    0    0 -0.32047692645E+02 -0.17258919715E+03  0.28922581167E+03  0.33832775067E+03  0.10566000000E+00 0. -1.
         -4    1    4    4    0  501  0.38797215876E+03  0.11937405394E+04  0.84217991914E+03  0.15115574377E+04  0.00000000000E+00 0. -1.
<mgrwt>
<rscale>  2 0.14652689E+04</rscale>
<asrwt>0</asrwt>
<pdfrwt beam="1">  1        2 0.41311022E+00 0.14652689E+04</pdfrwt>
<pdfrwt beam="2">  1       -2 0.12455682E+00 0.14652689E+04</pdfrwt>
<totfact> 0.19333223E+00</totfact>
</mgrwt>
</event>
<event>
 8    1  0.7046235E-006  0.1166450E+04  0.7818608E-02  0.8632264E-01
          2   -1    0    0  502    0  0.00000000000E+00  0.00000000000E+00  0.19864159982E+04  0.19864159982E+04  0.00000000000E+00 0. -1.
         -2   -1    0    0    0  501 -0.00000000000E+00 -0.00000000000E+00 -0.69256700180E+03  0.69256700180E+03  0.00000000000E+00 0.  1.
    9000010    2    1    2  502    0 -0.12195993269E+03 -0.57872848120E+03  0.78137685954E+03  0.13956839156E+04  0.99377206416E+03 0.  0.
   -9000010    2    1    2    0  501  0.12195993269E+03  0.57872848120E+03  0.51247213688E+03  0.12832990844E+04  0.10170683207E+04 0.  0.
        -13    1    3    3    0    0 -0.30335091647E+03  0.18868479264E+03  0.15865018027E+03  0.39088824536E+03  0.10566000000E+00 0.  1.
          4    1    3    3  502    0  0.18139098377E+03 -0.76741327385E+03  0.62272667927E+03  0.10047956702E+04  0.00000000000E+00 0.  1.
         13    1    4    4    0    0 -0.17498841652E+03 -0.10171962778E+03 -0.17791456729E+03  0.26948364145E+03  0.10566000000E+00 0. -1.
         -4    1    4    4    0  501  0.29694834921E+03  0.68044810898E+03  0.69038670417E+03  0.10138154430E+04  0.00000000000E+00 0. -1.
<mgrwt>
<rscale>  2 0.11664496E+04</rscale>
<asrwt>0</asrwt>
<pdfrwt beam="1">  1        2 0.30560246E+00 0.11664496E+04</pdfrwt>
<pdfrwt beam="2">  1       -2 0.10654877E+00 0.11664496E+04</pdfrwt>
<totfact> 0.73157832E+00</totfact>
</mgrwt>
</event>
<event>
 8    1  0.7046235E-006  0.1090947E+04  0.7818608E-02  0.8693543E-01
         -1   -1    0    0    0  501 -0.00000000000E+00  0.00000000000E+00  0.13022717640E+04  0.13022717640E+04  0.00000000000E+00 0. -1.
          1   -1    0    0  502    0  0.00000000000E+00 -0.00000000000E+00 -0.99981172323E+03  0.99981172323E+03  0.00000000000E+00 0.  1.
    9000010    2    1    2  502    0  0.45009652292E+03  0.10912662499E+03  0.48891736131E+03  0.11977731544E+04  0.99051746226E+03 0.  0.
   -9000010    2    1    2    0  501 -0.45009652292E+03 -0.10912662499E+03 -0.18645732049E+03  0.11043103329E+04  0.98500734955E+03 0.  0.
        -13    1    3    3    0    0  0.21338769537E+03  0.51473651988E+03  0.57688598548E+02  0.56019280520E+03  0.10566000000E+00 0.  1.
          4    1    3    3  502    0  0.23670882755E+03 -0.40560989489E+03  0.43122876276E+03  0.63758034922E+03  0.00000000000E+00 0.  1.
         13    1    4    4    0    0  0.15876242505E+01 -0.12950170958E+03 -0.52419170729E+03  0.53995385960E+03  0.10566000000E+00 0. -1.
         -4    1    4    4    0  501 -0.45168414717E+03  0.20375084596E+02  0.33773438681E+03  0.56435647326E+03  0.00000000000E+00 0. -1.
<mgrwt>
<rscale>  2 0.10909469E+04</rscale>
<asrwt>0</asrwt>
<pdfrwt beam="2">  1        1 0.15381719E+00 0.10909469E+04</pdfrwt>
<pdfrwt beam="1">  1       -1 0.20034950E+00 0.10909469E+04</pdfrwt>
<totfact> 0.28665343E+00</totfact>
</mgrwt>
</event>
<event>
 8    1  0.7046235E-006  0.1086396E+04  0.7818608E-02  0.8697400E-01
          2   -1    0    0  502    0  0.00000000000E+00  0.00000000000E+00  0.26804629845E+04  0.26804629845E+04  0.00000000000E+00 0. -1.
         -2   -1    0    0    0  501 -0.00000000000E+00 -0.00000000000E+00 -0.48924004711E+03  0.48924004711E+03  0.00000000000E+00 0.  1.
    9000010    2    1    2  502    0 -0.15998265081E+03 -0.39203088796E+03  0.57034860205E+03  0.12022526646E+04  0.96996457464E+03 0.  0.
   -9000010    2    1    2    0  501  0.15998265081E+03  0.39203088796E+03  0.16208743354E+04  0.19674503670E+04  0.10316708147E+04 0.  0.
        -13    1    3    3    0    0 -0.35847695909E+03 -0.27931399022E+03 -0.12423493905E+03  0.47112245390E+03  0.10566000000E+00 0.  1.
          4    1    3    3  502    0  0.19849430828E+03 -0.11271689774E+03  0.69458354110E+03  0.73113021072E+03  0.00000000000E+00 0.  1.
         13    1    4    4    0    0  0.57482541819E+03  0.28003229915E+03  0.68168726071E+03  0.93463355522E+03  0.10566000000E+00 0. -1.
         -4    1    4    4    0  501 -0.41484276738E+03  0.11199858880E+03  0.93918707467E+03  0.10328168118E+04  0.00000000000E+00 0. -1.
<mgrwt>
<rscale>  2 0.10863959E+04</rscale>
<asrwt>0</asrwt>
<pdfrwt beam="1">  1        2 0.41237891E+00 0.10863959E+04</pdfrwt>
<pdfrwt beam="2">  1       -2 0.75267701E-01 0.10863959E+04</pdfrwt>
<totfact> 0.67711360E+00</totfact>
</mgrwt>
</event>
<event>
 8    1  0.7046235E-006  0.1942107E+04  0.7818608E-02  0.8192378E-01
         -2   -1    0    0    0  501 -0.00000000000E+00  0.00000000000E+00  0.11990262154E+04  0.11990262154E+04  0.00000000000E+00 0. -1.
          2   -1    0    0  502    0  0.00000000000E+00 -0.00000000000E+00 -0.31783904859E+04  0.31783904859E+04  0.00000000000E+00 0.  1.
    9000010    2    1    2  502    0 -0.13186907054E+04 -0.10109569011E+04 -0.76915482838E+03  0.20914752261E+04  0.10107870393E+04 0.  0.
   -9000010    2    1    2    0  501  0.13186907054E+04  0.10109569011E+04 -0.12102094421E+04  0.22859414752E+04  0.99997125053E+03 0.  0.
        -13    1    3    3    0    0 -0.44346841470E+03 -0.35166218145E+03  0.22775700945E+03  0.61008506884E+03  0.10566000000E+00 0.  1.
          4    1    3    3  502    0 -0.87522229068E+03 -0.65929471970E+03 -0.99691183783E+03  0.14813901572E+04  0.00000000000E+00 0.  1.
         13    1    4    4    0    0  0.85823821029E+03  0.22218779543E+03 -0.17180738454E+03  0.90302714831E+03  0.10566000000E+00 0. -1.
         -4    1    4    4    0  501  0.46045249509E+03  0.78876910572E+03 -0.10384020576E+04  0.13829143269E+04  0.00000000000E+00 0. -1.
<mgrwt>
<rscale>  2 0.19421071E+04</rscale>
<asrwt>0</asrwt>
<pdfrwt beam="2">  1        2 0.48898315E+00 0.19421071E+04</pdfrwt>
<pdfrwt beam="1">  1       -2 0.18446557E+00 0.19421071E+04</pdfrwt>
<totfact> 0.27149444E-01</totfact>
</mgrwt>
</event>
<event>
 8    1  0.7046235E-006  0.1067831E+04  0.7818608E-02  0.8713344E-01
          1   -1    0    0  502    0  0.00000000000E+00  0.00000000000E+00  0.12033127506E+04  0.12033127506E+04  0.00000000000E+00 0. -1.
         -1   -1    0    0    0  501 -0.00000000000E+00 -0.00000000000E+00 -0.94930499192E+03  0.94930499192E+03  0.00000000000E+00 0.  1.
    9000010    2    1    2  502    0 -0.14548033843E+03  0.33342719967E+03  0.16816638770E+03  0.10661906406E+04  0.98800016281E+03 0.  0.
   -9000010    2    1    2    0  501  0.14548033843E+03 -0.33342719967E+03  0.85841370936E+02  0.10864271019E+04  0.10201063084E+04 0.  0.
        -13    1    3    3    0    0  0.32273841809E+03 -0.12802542241E+03  0.21289329405E+03  0.40727651676E+03  0.10566000000E+00 0.  1.
          4    1    3    3  502    0 -0.46821875651E+03  0.46145262208E+03 -0.44726906356E+02  0.65891412379E+03  0.00000000000E+00 0.  1.
         13    1    4    4    0    0  0.52407503964E+03 -0.41750031582E+03  0.16624848928E+03  0.69036202983E+03  0.10566000000E+00 0. -1.
         -4    1    4    4    0  501 -0.37859470121E+03  0.84073116148E+02 -0.80407118345E+02  0.39606507208E+03  0.00000000000E+00 0. -1.
<mgrwt>
<rscale>  2 0.10678311E+04</rscale>
<asrwt>0</asrwt>
<pdfrwt beam="1">  1        1 0.18512504E+00 0.10678311E+04</pdfrwt>
<pdfrwt beam="2">  1       -1 0.14604692E+00 0.10678311E+04</pdfrwt>
<totfact> 0.59080162E+00</totfact>
</mgrwt>
</event>
<event>
 8    1  0.7046235E-006  0.1455999E+04  0.7818608E-02  0.8435281E-01
          2   -1    0    0  502    0  0.00000000000E+00  0.00000000000E+00  0.31659374568E+04  0.31659374568E+04  0.00000000000E+00 0.  1.
         -2   -1    0    0    0  501 -0.00000000000E+00 -0.00000000000E+00 -0.69280109596E+03  0.69280109596E+03  0.00000000000E+00 0. -1.
    9000010    2    1    2  502    0  0.28850999619E+03  0.10107800265E+04  0.15953675884E+04  0.21647624644E+04  0.10178823632E+04 0.  0.
   -9000010    2    1    2    0  501 -0.28850999619E+03 -0.10107800265E+04  0.87776877243E+03  0.16939760884E+04  0.99707707338E+03 0.  0.
        -13    1    3    3    0    0 -0.29750693499E+03  0.69069562820E+03  0.58094723798E+03  0.95030023237E+03  0.10566000000E+00 0.  1.
          4    1    3    3  502    0  0.58601693117E+03  0.32008439830E+03  0.10144203505E+04  0.12144622321E+04  0.00000000000E+00 0.  1.
         13    1    4    4    0    0 -0.14875862212E+03  0.33097145780E+02 -0.15608854636E+03  0.21814718468E+03  0.10566000000E+00 0. -1.
         -4    1    4    4    0  501 -0.13975137406E+03 -0.10438771723E+04  0.10338573188E+04  0.14758289037E+04  0.00000000000E+00 0. -1.
<mgrwt>
<rscale>  2 0.14559994E+04</rscale>
<asrwt>0</asrwt>
<pdfrwt beam="1">  1        2 0.48706729E+00 0.14559994E+04</pdfrwt>
<pdfrwt beam="2">  1       -2 0.10658479E+00 0.14559994E+04</pdfrwt>
<totfact> 0.14707626E+00</totfact>
</mgrwt>
</event>
<event>
 8    1  0.7046235E-006  0.1162270E+04  0.7818608E-02  0.8635528E-01
         -1   -1    0    0    0  501 -0.00000000000E+00  0.00000000000E+00  0.27791128441E+04  0.27791128441E+04  0.00000000000E+00 0.  1.
          1   -1    0    0  502    0  0.00000000000E+00 -0.00000000000E+00 -0.48811673114E+03  0.48811673114E+03  0.00000000000E+00 0. -1.
    9000010    2    1    2  502    0  0.13317614533E+03  0.62050419282E+03  0.12185254803E+04  0.16661118410E+04  0.94253009589E+03 0.  0.
   -9000010    2    1    2    0  501 -0.13317614533E+03 -0.62050419282E+03  0.10724706326E+04  0.16011177342E+04  0.10052976683E+04 0.  0.
        -13    1    3    3    0    0 -0.10966860643E+03  0.64329506418E+03  0.12597498295E+04  0.14187407751E+04  0.10566000000E+00 0.  1.
          4    1    3    3  502    0  0.24284475176E+03 -0.22790871358E+02 -0.41224349229E+02  0.24737106590E+03  0.00000000000E+00 0.  1.
         13    1    4    4    0    0 -0.19019890933E+02  0.26995963002E+03  0.38393488557E+03  0.46972967291E+03  0.10566000000E+00 0. -1.
         -4    1    4    4    0  501 -0.11415625439E+03 -0.89046382284E+03  0.68853574705E+03  0.11313880613E+04  0.00000000000E+00 0. -1.
<mgrwt>
<rscale>  2 0.11622702E+04</rscale>
<asrwt>0</asrwt>
<pdfrwt beam="2">  1        1 0.75094884E-01 0.11622702E+04</pdfrwt>
<pdfrwt beam="1">  1       -1 0.42755581E+00 0.11622702E+04</pdfrwt>
<totfact> 0.73484142E-01</totfact>
</mgrwt>
</event>
<event>
 8    1  0.7046235E-006  0.1415628E+04  0.7818608E-02  0.8459773E-01
         -2   -1    0    0    0  501 -0.00000000000E+00  0.00000000000E+00  0.58040336699E+03  0.58040336699E+03  0.00000000000E+00 0. -1.
          2   -1    0    0  502    0  0.00000000000E+00 -0.00000000000E+00 -0.37702583446E+04  0.37702583446E+04  0.00000000000E+00 0.  1.
    9000010    2    1    2  502    0  0.90036443107E+03 -0.48550289418E+03 -0.22378811524E+04  0.26542782881E+04  0.99534517105E+03 0.  0.
   -9000010    2    1    2    0  501 -0.90036443107E+03  0.48550289418E+03 -0.95197382515E+03  0.16963834234E+04  0.96181775117E+03 0.  0.
        -13    1    3    3    0    0  0.11106565355E+02 -0.39813662825E+02 -0.12557253678E+04  0.12564054656E+04  0.10566000000E+00 0.  1.
          4    1    3    3  502    0  0.88925786571E+03 -0.44568923135E+03 -0.98215578462E+03  0.13978728225E+04  0.00000000000E+00 0.  1.
         13    1    4    4    0    0 -0.65519513320E+03  0.77132296820E+03 -0.57701505826E+03  0.11649747519E+04  0.10566000000E+00 0. -1.
         -4    1    4    4    0  501 -0.24516929787E+03 -0.28582007402E+03 -0.37495876689E+03  0.53140867155E+03  0.00000000000E+00 0. -1.
<mgrwt>
<rscale>  2 0.14156282E+04</rscale>
<asrwt>0</asrwt>
<pdfrwt beam="2">  1        2 0.58003975E+00 0.14156282E+04</pdfrwt>
<pdfrwt beam="1">  1       -2 0.89292825E-01 0.14156282E+04</pdfrwt>
<totfact> 0.81012094E-01</totfact>
</mgrwt>
</event>
<event>
 8    1  0.7046235E-006  0.1133517E+04  0.7818608E-02  0.8658381E-01
          2   -1    0    0  502    0  0.00000000000E+00  0.00000000000E+00  0.32488214914E+04  0.32488214914E+04  0.00000000000E+00 0. -1.
         -2   -1    0    0    0  501 -0.00000000000E+00 -0.00000000000E+00 -0.48107563651E+03  0.48107563651E+03  0.00000000000E+00 0.  1.
    9000010    2    1    2  502    0  0.54002091543E+03 -0.27088538829E+03  0.57683722755E+03  0.12532896809E+04  0.93434059880E+03 0.  0.
   -9000010    2    1    2    0  501 -0.54002091543E+03  0.27088538829E+03  0.21909086274E+04  0.24766074470E+04  0.98412517011E+03 0.  0.
        -13    1    3    3    0    0  0.34424213690E+03  0.31931100204E+03  0.37056940133E+03  0.59815036338E+03  0.10566000000E+00 0.  1.
          4    1    3    3  502    0  0.19577877853E+03 -0.59019639033E+03  0.20626782622E+03  0.65513931756E+03  0.00000000000E+00 0.  1.
         13    1    4    4    0    0 -0.16815173456E+02 -0.27384428275E+03  0.11983250939E+04  0.12293317221E+04  0.10566000000E+00 0. -1.
         -4    1    4    4    0  501 -0.52320574197E+03  0.54472967104E+03  0.99258353351E+03  0.12472757249E+04  0.00000000000E+00 0. -1.
<mgrwt>
<rscale>  2 0.11335174E+04</rscale>
<asrwt>0</asrwt>
<pdfrwt beam="1">  1        2 0.49981868E+00 0.11335174E+04</pdfrwt>
<pdfrwt beam="2">  1       -2 0.74011638E-01 0.11335174E+04</pdfrwt>
<totfact> 0.31255887E+00</totfact>
</mgrwt>
</event>
<event>
 8    1  0.7046235E-006  0.1890870E+04  0.7818608E-02  0.8214331E-01
          2   -1    0    0  502    0  0.00000000000E+00  0.00000000000E+00  0.26024166397E+04  0.26024166397E+04  0.00000000000E+00 0.  1.
         -2   -1    0    0    0  501 -0.00000000000E+00 -0.00000000000E+00 -0.13976462592E+04  0.13976462592E+04  0.00000000000E+00 0. -1.
    9000010    2    1    2  502    0  0.23313118703E+01 -0.15974760029E+04  0.34138858293E+03  0.19209711654E+04  0.10107665601E+04 0.  0.
   -9000010    2    1    2    0  501 -0.23313118703E+01  0.15974760029E+04  0.86338179755E+03  0.20790917335E+04  0.10125508843E+04 0.  0.
        -13    1    3    3    0    0 -0.16479178729E+03 -0.16603979521E+04  0.42789155659E+03  0.17225472092E+04  0.10566000000E+00 0.  1.
          4    1    3    3  502    0  0.16712309916E+03  0.62921949181E+02 -0.86502973659E+02  0.19842395625E+03  0.00000000000E+00 0.  1.
         13    1    4    4    0    0  0.25508552120E+03  0.14415967327E+04  0.97408593482E+03  0.17584405542E+04  0.10566000000E+00 0. -1.
         -4    1    4    4    0  501 -0.25741683307E+03  0.15587927015E+03 -0.11070413728E+03  0.32065117936E+03  0.00000000000E+00 0. -1.
<mgrwt>
<rscale>  2 0.18908698E+04</rscale>
<asrwt>0</asrwt>
<pdfrwt beam="1">  1        2 0.40037179E+00 0.18908698E+04</pdfrwt>
<pdfrwt beam="2">  1       -2 0.21502250E+00 0.18908698E+04</pdfrwt>
<totfact> 0.34251293E-01</totfact>
</mgrwt>
</event>
<event>
 8    1  0.7046235E-006  0.1504632E+04  0.7818608E-02  0.8406838E-01
         -2   -1    0    0    0  501 -0.00000000000E+00  0.00000000000E+00  0.12988588368E+04  0.12988588368E+04  0.00000000000E+00 0.  1.
          2   -1    0    0  502    0  0.00000000000E+00 -0.00000000000E+00 -0.19435582212E+04  0.19435582212E+04  0.00000000000E+00 0. -1.
    9000010    2    1    2  502    0  0.51418669016E+03 -0.99966260581E+03 -0.84361977868E+03  0.17272539428E+04  0.10039913217E+04 0.  0.
   -9000010    2    1    2    0  501 -0.51418669016E+03  0.99966260581E+03  0.19892039428E+03  0.15151631153E+04  0.99621115481E+03 0.  0.
        -13    1    3    3    0    0  0.29441611528E+03  0.60713479262E+02 -0.51371423830E+03  0.59520526316E+03  0.10566000000E+00 0.  1.
          4    1    3    3  502    0  0.21977057488E+03 -0.10603760851E+04 -0.32990554038E+03  0.11320486796E+04  0.00000000000E+00 0.  1.
         13    1    4    4    0    0  0.10070729645E+03  0.80170190641E+03  0.29886342671E+03  0.86150291078E+03  0.10566000000E+00 0. -1.
         -4    1    4    4    0  501 -0.61489398660E+03  0.19796069941E+03 -0.99943032424E+02  0.65366020454E+03  0.00000000000E+00 0. -1.
<mgrwt>
<rscale>  2 0.15046320E+04</rscale>
<asrwt>0</asrwt>
<pdfrwt beam="2">  1        2 0.29900896E+00 0.15046320E+04</pdfrwt>
<pdfrwt beam="1">  1       -2 0.19982444E+00 0.15046320E+04</pdfrwt>
<totfact> 0.11048989E+00</totfact>
</mgrwt>
</event>
<event>
 8    1  0.7046235E-006  0.1204552E+04  0.7818608E-02  0.8603143E-01
         -1   -1    0    0    0  501 -0.00000000000E+00  0.00000000000E+00  0.11596215663E+04  0.11596215663E+04  0.00000000000E+00 0. -1.
          1   -1    0    0  502    0  0.00000000000E+00 -0.00000000000E+00 -0.20992570743E+04  0.20992570743E+04  0.00000000000E+00 0.  1.
    9000010    2    1    2  502    0  0.51583105247E+03 -0.41985190523E+03  0.56544506828E+03  0.13321586781E+04  0.10062610603E+04 0.  0.
   -9000010    2    1    2    0  501 -0.51583105247E+03  0.41985190523E+03 -0.15050805762E+04  0.19267199625E+04  0.10023098203E+04 0.  0.
        -13    1    3    3    0    0  0.57799134135E+03 -0.24207650714E+03  0.80961769391E+03  0.10237948268E+04  0.10566000000E+00 0.  1.
          4    1    3    3  502    0 -0.62160288880E+02 -0.17777539809E+03 -0.24417262563E+03  0.30836385129E+03  0.00000000000E+00 0.  1.
         13    1    4    4    0    0 -0.67660298637E+03 -0.64865128183E+02 -0.99441569546E+03  0.12045171948E+04  0.10566000000E+00 0. -1.
         -4    1    4    4    0  501  0.16077193390E+03  0.48471703341E+03 -0.51066488077E+03  0.72220276769E+03  0.00000000000E+00 0. -1.
<mgrwt>
<rscale>  2 0.12045518E+04</rscale>
<asrwt>0</asrwt>
<pdfrwt beam="2">  1        1 0.32296263E+00 0.12045518E+04</pdfrwt>
<pdfrwt beam="1">  1       -1 0.17840332E+00 0.12045518E+04</pdfrwt>
<totfact> 0.64514822E-01</totfact>
</mgrwt>
</event>
<event>
 8    1  0.7046235E-006  0.1173349E+04  0.7818608E-02  0.8626906E-01
          2   -1    0    0  502    0  0.00000000000E+00  0.00000000000E+00  0.14768554711E+04  0.14768554711E+04  0.00000000000E+00 0.  1.
         -2   -1    0    0    0  501 -0.00000000000E+00 -0.00000000000E+00 -0.95911411857E+03  0.95911411857E+03  0.00000000000E+00 0. -1.
    9000010    2    1    2  502    0 -0.15081490720E+03  0.57452027705E+03  0.46136389381E+03  0.12548559480E+04  0.10044840082E+04 0.  0.
   -9000010    2    1    2    0  501  0.15081490720E+03 -0.57452027705E+03  0.56377458729E+02  0.11811136417E+04  0.10193293540E+04 0.  0.
        -13    1    3    3    0    0 -0.18561170808E+02  0.46423326156E+03 -0.24677816148E+03  0.52607652519E+03  0.10566000000E+00 0.  1.
          4    1    3    3  502    0 -0.13225373639E+03  0.11028701548E+03  0.70814205529E+03  0.72877942277E+03  0.00000000000E+00 0.  1.
         13    1    4    4    0    0  0.38484921381E+03 -0.29302663086E+03  0.43782089452E+03  0.65242675497E+03  0.10566000000E+00 0. -1.
         -4    1    4    4    0  501 -0.23403430661E+03 -0.28149364619E+03 -0.38144343579E+03  0.52868688676E+03  0.00000000000E+00 0. -1.
<mgrwt>
<rscale>  2 0.11733486E+04</rscale>
<asrwt>0</asrwt>
<pdfrwt beam="1">  1        2 0.22720853E+00 0.11733486E+04</pdfrwt>
<pdfrwt beam="2">  1       -2 0.14755602E+00 0.11733486E+04</pdfrwt>
<totfact> 0.57107828E+00</totfact>
</mgrwt>
</event>
<event>
 8    1  0.7046235E-006  0.1040616E+04  0.7818608E-02  0.8737337E-01
         -2   -1    0    0    0  501 -0.00000000000E+00  0.00000000000E+00  0.86520968469E+03  0.86520968469E+03  0.00000000000E+00 0. -1.
          2   -1    0    0  502    0  0.00000000000E+00 -0.00000000000E+00 -0.17700546908E+04  0.17700546908E+04  0.00000000000E+00 0.  1.
    9000010    2    1    2  502    0 -0.28193345876E+03  0.84913125137E+02  0.25843095580E+03  0.10792407447E+04  0.10056228479E+04 0.  0.
   -9000010    2    1    2    0  501  0.28193345876E+03 -0.84913125137E+02 -0.11632759620E+04  0.15560236308E+04  0.99060681504E+03 0.  0.
        -13    1    3    3    0    0  0.34419044486E+03 -0.35606880254E+02 -0.83170089806E+02  0.35588226600E+03  0.10566000000E+00 0.  1.
          4    1    3    3  502    0 -0.62612390361E+03  0.12052000539E+03  0.34160104561E+03  0.72335847872E+03  0.00000000000E+00 0.  1.
         13    1    4    4    0    0 -0.61411215797E+02 -0.11365918275E+03 -0.12023487132E+04  0.12092692779E+04  0.10566000000E+00 0. -1.
         -4    1    4    4    0  501  0.34334467455E+03  0.28746057610E+02  0.39072751222E+02  0.34675435291E+03  0.00000000000E+00 0. -1.
<mgrwt>
<rscale>  2 0.10406164E+04</rscale>
<asrwt>0</asrwt>
<pdfrwt beam="2">  1        2 0.27231611E+00 0.10406164E+04</pdfrwt>
<pdfrwt beam="1">  1       -2 0.13310918E+00 0.10406164E+04</pdfrwt>
<totfact> 0.54144060E+00</totfact>
</mgrwt>
</event>
<event>
 8    1  0.7046235E-006  0.1462326E+04  0.7818608E-02  0.8431517E-01
          2   -1    0    0  502    0  0.00000000000E+00  0.00000000000E+00  0.29277801013E+04  0.29277801013E+04  0.00000000000E+00 0.  1.
         -2   -1    0    0    0  501 -0.00000000000E+00 -0.00000000000E+00 -0.90609788340E+03  0.90609788340E+03  0.00000000000E+00 0. -1.
    9000010    2    1    2  502    0  0.96112443858E+03  0.46311582868E+03  0.16707186939E+03  0.14725403526E+04  0.10011121931E+04 0.  0.
   -9000010    2    1    2    0  501 -0.96112443858E+03 -0.46311582868E+03  0.18546103485E+04  0.23613376321E+04  0.99904925343E+03 0.  0.
        -13    1    3    3    0    0  0.10225729317E+04  0.61594336385E+03 -0.56211617498E+02  0.11950737991E+04  0.10566000000E+00 0.  1.
          4    1    3    3  502    0 -0.61448493108E+02 -0.15282753517E+03  0.22328348689E+03  0.27746655353E+03  0.00000000000E+00 0.  1.
         13    1    4    4    0    0 -0.11493963187E+04 -0.51789971840E+03  0.16663574847E+04  0.20895165216E+04  0.10566000000E+00 0. -1.
         -4    1    4    4    0  501  0.18827188013E+03  0.54783889720E+02  0.18825286379E+03  0.27182111056E+03  0.00000000000E+00 0. -1.
<mgrwt>
<rscale>  2 0.14623262E+04</rscale>
<asrwt>0</asrwt>
<pdfrwt beam="1">  1        2 0.45042770E+00 0.14623262E+04</pdfrwt>
<pdfrwt beam="2">  1       -2 0.13939968E+00 0.14623262E+04</pdfrwt>
<totfact> 0.10088602E+00</totfact>
</mgrwt>
</event>
<event>
 8    1  0.7046235E-006  0.1387274E+04  0.7818608E-02  0.8477481E-01
          2   -1    0    0  502    0  0.00000000000E+00  0.00000000000E+00  0.13000236739E+04  0.13000236739E+04  0.00000000000E+00 0.  1.
         -2   -1    0    0    0  501 -0.00000000000E+00 -0.00000000000E+00 -0.15342694183E+04  0.15342694183E+04  0.00000000000E+00 0. -1.
    9000010    2    1    2  502    0  0.90020045944E+03 -0.32987411500E+03 -0.38217305681E+03  0.14333426682E+04  0.99460402181E+03 0.  0.
   -9000010    2    1    2    0  501 -0.90020045944E+03  0.32987411500E+03  0.14792731238E+03  0.14009504241E+04  0.10107431929E+04 0.  0.
        -13    1    3    3    0    0  0.30128739350E+03 -0.28578077252E+03  0.30907878619E+03  0.51766248721E+03  0.10566000000E+00 0.  1.
          4    1    3    3  502    0  0.59891306593E+03 -0.44093342480E+02 -0.69125184300E+03  0.91568018098E+03  0.00000000000E+00 0.  1.
         13    1    4    4    0    0 -0.38613459171E+03 -0.21148134609E+03 -0.29775397416E+03  0.53149009676E+03  0.10566000000E+00 0. -1.
         -4    1    4    4    0  501 -0.51406586772E+03  0.54135546109E+03  0.44568128654E+03  0.86946032732E+03  0.00000000000E+00 0. -1.
<mgrwt>
<rscale>  2 0.13872740E+04</rscale>
<asrwt>0</asrwt>
<pdfrwt beam="1">  1        2 0.20000364E+00 0.13872740E+04</pdfrwt>
<pdfrwt beam="2">  1       -2 0.23604145E+00 0.13872740E+04</pdfrwt>
<totfact> 0.12820952E+00</totfact>
</mgrwt>
</event>
<event>
 8    1  0.7046235E-006  0.1058746E+04  0.7818608E-02  0.8721270E-01
         -1   -1    0    0    0  501 -0.00000000000E+00  0.00000000000E+00  0.18969469713E+04  0.18969469713E+04  0.00000000000E+00 0.  1.
          1   -1    0    0  502    0  0.00000000000E+00 -0.00000000000E+00 -0.61371473512E+03  0.61371473512E+03  0.00000000000E+00 0. -1.
    9000010    2    1    2  502    0 -0.11582081127E+03  0.36499873275E+03  0.88655184423E+03  0.13849768698E+04  0.99274781402E+03 0.  0.
   -9000010    2    1    2    0  501  0.11582081127E+03 -0.36499873275E+03  0.39668039197E+03  0.11256848366E+04  0.98141351261E+03 0.  0.
        -13    1    3    3    0    0 -0.16864287636E+02  0.61844354572E+03  0.92227632145E+03  0.11105631219E+04  0.10566000000E+00 0.  1.
          4    1    3    3  502    0 -0.98956523634E+02 -0.25344481296E+03 -0.35724477223E+02  0.27441374794E+03  0.00000000000E+00 0.  1.
         13    1    4    4    0    0  0.34358837940E+03 -0.22347913187E+03 -0.21134558172E+03  0.46115383867E+03  0.10566000000E+00 0. -1.
         -4    1    4    4    0  501 -0.22776756813E+03 -0.14151960088E+03  0.60802597369E+03  0.66453099793E+03  0.00000000000E+00 0. -1.
<mgrwt>
<rscale>  2 0.10587460E+04</rscale>
<asrwt>0</asrwt>
<pdfrwt beam="2">  1        1 0.94417652E-01 0.10587460E+04</pdfrwt>
<pdfrwt beam="1">  1       -1 0.29183799E+00 0.10587460E+04</pdfrwt>
<totfact> 0.86795634E-01</totfact>
</mgrwt>
</event>
<event>
 8    1  0.7046235E-006  0.1428048E+04  0.7818608E-02  0.8452150E-01
          4   -1    0    0  502    0  0.00000000000E+00  0.00000000000E+00  0.17760479980E+04  0.17760479980E+04  0.00000000000E+00 0. -1.
         -4   -1    0    0    0  501 -0.00000000000E+00 -0.00000000000E+00 -0.14668967141E+04  0.14668967141E+04  0.00000000000E+00 0.  1.
    9000010    2    1    2  502    0 -0.10154943882E+04  0.98720428415E+02 -0.60066824971E+03  0.15544038710E+04  0.10071715209E+04 0.  0.
   -9000010    2    1    2    0  501  0.10154943882E+04 -0.98720428415E+02  0.90981953368E+03  0.16885408411E+04  0.99117304875E+03 0.  0.
        -13    1    3    3    0    0 -0.62009560800E+03  0.31468129929E+03  0.11886543314E+03  0.70545863490E+03  0.10566000000E+00 0.  1.
          4    1    3    3  502    0 -0.39539878024E+03 -0.21596087088E+03 -0.71953368285E+03  0.84894523611E+03  0.00000000000E+00 0.  1.
         13    1    4    4    0    0  0.17273539112E+03 -0.37707257469E+03 -0.38346506948E+01  0.41477217558E+03  0.10566000000E+00 0. -1.
         -4    1    4    4    0  501  0.84275899712E+03  0.27835214627E+03  0.91365418438E+03  0.12737686655E+04  0.00000000000E+00 0. -1.
<mgrwt>
<rscale>  2 0.14280480E+04</rscale>
<asrwt>0</asrwt>
<pdfrwt beam="1">  1        4 0.27323815E+00 0.14280480E+04</pdfrwt>
<pdfrwt beam="2">  1       -4 0.22567642E+00 0.14280480E+04</pdfrwt>
<totfact> 0.10062688E-01</totfact>
</mgrwt>
</event>
<event>
 8    1  0.7046235E-006  0.1360136E+04  0.7818608E-02  0.8494840E-01
         -2   -1    0    0    0  501 -0.00000000000E+00  0.00000000000E+00  0.93963602361E+03  0.93963602361E+03  0.00000000000E+00 0.  1.
          2   -1    0    0  502    0  0.00000000000E+00 -0.00000000000E+00 -0.24949547671E+04  0.24949547671E+04  0.00000000000E+00 0. -1.
    9000010    2    1    2  502    0  0.44985135467E+03 -0.82656261095E+03 -0.15690107709E+04  0.20805235063E+04  0.99056108830E+03 0.  0.
   -9000010    2    1    2    0  501 -0.44985135467E+03  0.82656261095E+03  0.13692027466E+02  0.13540672844E+04  0.97351874561E+03 0.  0.
        -13    1    3    3    0    0 -0.89253709504E+02 -0.28630147675E+03 -0.11922128032E+04  0.12293519185E+04  0.10566000000E+00 0.  1.
          4    1    3    3  502    0  0.53910506417E+03 -0.54026113420E+03 -0.37679796778E+03  0.85117158780E+03  0.00000000000E+00 0.  1.
         13    1    4    4    0    0 -0.72161557194E+03  0.34302624544E+03 -0.65576485498E+01  0.79902381232E+03  0.10566000000E+00 0. -1.
         -4    1    4    4    0  501  0.27176421727E+03  0.48353636551E+03  0.20249676015E+02  0.55504347212E+03  0.00000000000E+00 0. -1.
<mgrwt>
<rscale>  2 0.13601365E+04</rscale>
<asrwt>0</asrwt>
<pdfrwt beam="2">  1        2 0.38383918E+00 0.13601365E+04</pdfrwt>
<pdfrwt beam="1">  1       -2 0.14455939E+00 0.13601365E+04</pdfrwt>
<totfact> 0.16470804E+00</totfact>
</mgrwt>
</event>
<event>
 8    1  0.7046235E-006  0.1554701E+04  0.7818608E-02  0.8378696E-01
         -2   -1    0    0    0  501 -0.00000000000E+00  0.00000000000E+00  0.14691045773E+04  0.14691045773E+04  0.00000000000E+00 0.  1.
          2   -1    0    0  502    0  0.00000000000E+00 -0.00000000000E+00 -0.19812627397E+04  0.19812627397E+04  0.00000000000E+00 0. -1.
    9000010    2    1    2  502    0  0.17816270857E+03 -0.11816034200E+04 -0.96731165560E+03  0.18362605675E+04  0.10041077829E+04 0.  0.
   -9000010    2    1    2    0  501 -0.17816270857E+03  0.11816034200E+04  0.45515349318E+03  0.16141067495E+04  0.98501132144E+03 0.  0.
        -13    1    3    3    0    0  0.48043376487E+03 -0.28139545753E+03 -0.13353616230E+03  0.57256608680E+03  0.10566000000E+00 0.  1.
          4    1    3    3  502    0 -0.30227105631E+03 -0.90020796252E+03 -0.83377549329E+03  0.12636944807E+04  0.00000000000E+00 0.  1.
         13    1    4    4    0    0 -0.42660464105E+02  0.10594751319E+04 -0.65566674212E+02  0.10623589178E+04  0.10566000000E+00 0. -1.
         -4    1    4    4    0  501 -0.13550224446E+03  0.12212828814E+03  0.52072016739E+03  0.55174783166E+03  0.00000000000E+00 0. -1.
<mgrwt>
<rscale>  2 0.15547006E+04</rscale>
<asrwt>0</asrwt>
<pdfrwt beam="2">  1        2 0.30480965E+00 0.15547006E+04</pdfrwt>
<pdfrwt beam="1">  1       -2 0.22601609E+00 0.15547006E+04</pdfrwt>
<totfact> 0.63923673E-01</totfact>
</mgrwt>
</event>
<event>
 8    1  0.7046235E-006  0.1063429E+04  0.7818608E-02  0.8717174E-01
          2   -1    0    0  502    0  0.00000000000E+00  0.00000000000E+00  0.38585084894E+04  0.38585084894E+04  0.00000000000E+00 0.  1.
         -2   -1    0    0    0  501 -0.00000000000E+00 -0.00000000000E+00 -0.30750437854E+03  0.30750437854E+03  0.00000000000E+00 0. -1.
    9000010    2    1    2  502    0  0.33617597981E+03  0.33645625857E+02  0.13371114702E+04  0.17133025142E+04  0.10165589524E+04 0.  0.
   -9000010    2    1    2    0  501 -0.33617597981E+03 -0.33645625857E+02  0.22138926406E+04  0.24527103538E+04  0.10001605559E+04 0.  0.
        -13    1    3    3    0    0  0.53638190904E+02  0.14520033678E+03  0.13954323903E+04  0.14039913676E+04  0.10566000000E+00 0.  1.
          4    1    3    3  502    0  0.28253778890E+03 -0.11155471093E+03 -0.58320920044E+02  0.30931114659E+03  0.00000000000E+00 0.  1.
         13    1    4    4    0    0  0.11852006880E+03 -0.41781482040E+03  0.12103068240E+04  0.12858689087E+04  0.10566000000E+00 0. -1.
         -4    1    4    4    0  501 -0.45469604860E+03  0.38416919455E+03  0.10035858166E+04  0.11668414451E+04  0.00000000000E+00 0. -1.
<mgrwt>
<rscale>  2 0.10634294E+04</rscale>
<asrwt>0</asrwt>
<pdfrwt beam="1">  1        2 0.59361665E+00 0.10634294E+04</pdfrwt>
<pdfrwt beam="2">  1       -2 0.47308369E-01 0.10634294E+04</pdfrwt>
<totfact> 0.26848924E+00</totfact>
</mgrwt>
</event>
<event>
 8    1  0.7046235E-006  0.1560702E+04  0.7818608E-02  0.8375397E-01
          2   -1    0    0  502    0  0.00000000000E+00  0.00000000000E+00  0.14229113373E+04  0.14229113373E+04  0.00000000000E+00 0. -1.
         -2   -1    0    0    0  501 -0.00000000000E+00 -0.00000000000E+00 -0.19061167838E+04  0.19061167838E+04  0.00000000000E+00 0.  1.
    9000010    2    1    2  502    0  0.76388564558E+03 -0.86050112318E+03  0.29320138056E+03  0.15564655733E+04  0.10062974554E+04 0.  0.
   -9000010    2    1    2    0  501 -0.76388564558E+03  0.86050112318E+03 -0.77640682711E+03  0.17725625478E+04  0.11023551887E+04 0.  0.
        -13    1    3    3    0    0  0.58128886792E+03 -0.64181344181E+03 -0.28522210195E+03  0.91168684353E+03  0.10566000000E+00 0.  1.
          4    1    3    3  502    0  0.18259677766E+03 -0.21868768137E+03  0.57842348251E+03  0.64477872973E+03  0.00000000000E+00 0.  1.
         13    1    4    4    0    0  0.28305503897E+03  0.10301724650E+03 -0.15070613339E+03  0.33681605955E+03  0.10566000000E+00 0. -1.
         -4    1    4    4    0  501 -0.10469406846E+04  0.75748387668E+03 -0.62570069373E+03  0.14357464883E+04  0.00000000000E+00 0. -1.
<mgrwt>
<rscale>  2 0.15607017E+04</rscale>
<asrwt>0</asrwt>
<pdfrwt beam="1">  1        2 0.21890944E+00 0.15607017E+04</pdfrwt>
<pdfrwt beam="2">  1       -2 0.29324874E+00 0.15607017E+04</pdfrwt>
<totfact> 0.39625270E-01</totfact>
</mgrwt>
</event>
<event>
 8    1  0.7046235E-006  0.1133192E+04  0.7818608E-02  0.8658643E-01
         -2   -1    0    0    0  501 -0.00000000000E+00  0.00000000000E+00  0.50397332925E+03  0.50397332925E+03  0.00000000000E+00 0.  1.
          2   -1    0    0  502    0  0.00000000000E+00 -0.00000000000E+00 -0.26275450771E+04  0.26275450771E+04  0.00000000000E+00 0. -1.
    9000010    2    1    2  502    0 -0.27776414090E+03 -0.41848739212E+03 -0.78964876103E+03  0.13814494626E+04  0.10161559115E+04 0.  0.
   -9000010    2    1    2    0  501  0.27776414090E+03  0.41848739212E+03 -0.13339229868E+04  0.17500689438E+04  0.10154339751E+04 0.  0.
        -13    1    3    3    0    0 -0.54255495727E+03 -0.27041239321E+02 -0.72276106613E+03  0.90414638204E+03  0.10566000000E+00 0.  1.
          4    1    3    3  502    0  0.26479081637E+03 -0.39144615280E+03 -0.66887694898E+02  0.47730308055E+03  0.00000000000E+00 0.  1.
         13    1    4    4    0    0  0.28922772302E+03  0.68279946113E+03 -0.12811823010E+04  0.14803026311E+04  0.10566000000E+00 0. -1.
         -4    1    4    4    0  501 -0.11463582122E+02 -0.26431206900E+03 -0.52740685807E+02  0.26976631272E+03  0.00000000000E+00 0. -1.
<mgrwt>
<rscale>  2 0.11331919E+04</rscale>
<asrwt>0</asrwt>
<pdfrwt beam="2">  1        2 0.40423771E+00 0.11331919E+04</pdfrwt>
<pdfrwt beam="1">  1       -2 0.77534358E-01 0.11331919E+04</pdfrwt>
<totfact> 0.67763556E+00</totfact>
</mgrwt>
</event>
<event>
 8    1  0.7046235E-006  0.1200674E+04  0.7818608E-02  0.8606055E-01
         -2   -1    0    0    0  501 -0.00000000000E+00  0.00000000000E+00  0.37007346161E+03  0.37007346161E+03  0.00000000000E+00 0.  1.
          2   -1    0    0  502    0  0.00000000000E+00 -0.00000000000E+00 -0.44717592234E+04  0.44717592234E+04  0.00000000000E+00 0. -1.
    9000010    2    1    2  502    0  0.75773470347E+02 -0.65446648993E+03 -0.11726039531E+04  0.16738422107E+04  0.99633313205E+03 0.  0.
   -9000010    2    1    2    0  501 -0.75773470347E+02  0.65446648993E+03 -0.29290818086E+04  0.31679904743E+04  0.10112247023E+04 0.  0.
        -13    1    3    3    0    0 -0.88374343517E+02 -0.23436868626E+03  0.13927599495E+03  0.28659469574E+03  0.10566000000E+00 0.  1.
          4    1    3    3  502    0  0.16414781386E+03 -0.42009780367E+03 -0.13118799481E+04  0.13872475149E+04  0.00000000000E+00 0.  1.
         13    1    4    4    0    0  0.10174760980E+03 -0.82622198360E+02  0.11187814271E+02  0.13154536143E+03  0.10566000000E+00 0. -1.
         -4    1    4    4    0  501 -0.17752108015E+03  0.73708868829E+03 -0.29402696229E+04  0.30364451129E+04  0.00000000000E+00 0. -1.
<mgrwt>
<rscale>  2 0.12006740E+04</rscale>
<asrwt>0</asrwt>
<pdfrwt beam="2">  1        2 0.68796291E+00 0.12006740E+04</pdfrwt>
<pdfrwt beam="1">  1       -2 0.56934383E-01 0.12006740E+04</pdfrwt>
<totfact> 0.51360490E-01</totfact>
</mgrwt>
</event>
<event>
 8    1  0.7046235E-006  0.1180026E+04  0.7818608E-02  0.8621757E-01
         -2   -1    0    0    0  501 -0.00000000000E+00  0.00000000000E+00  0.12217386927E+04  0.12217386927E+04  0.00000000000E+00 0. -1.
          2   -1    0    0  502    0  0.00000000000E+00 -0.00000000000E+00 -0.12146826925E+04  0.12146826925E+04  0.00000000000E+00 0.  1.
    9000010    2    1    2  502    0  0.13929179007E+03 -0.59732438770E+03 -0.29890641622E+03  0.12258892140E+04  0.10184599611E+04 0.  0.
   -9000010    2    1    2    0  501 -0.13929179007E+03  0.59732438770E+03  0.30596241642E+03  0.12105321711E+04  0.99778580370E+03 0.  0.
        -13    1    3    3    0    0  0.49183602553E+03 -0.24014310537E+03 -0.44256365716E+03  0.70387071886E+03  0.10566000000E+00 0.  1.
          4    1    3    3  502    0 -0.35254423546E+03 -0.35718128233E+03  0.14365724094E+03  0.52201849515E+03  0.00000000000E+00 0.  1.
         13    1    4    4    0    0 -0.30623659528E+03 -0.19298625292E+03  0.66474104053E+02  0.36802630854E+03  0.10566000000E+00 0. -1.
         -4    1    4    4    0  501  0.16694480522E+03  0.79031064062E+03  0.23948831236E+03  0.84250586255E+03  0.00000000000E+00 0. -1.
<mgrwt>
<rscale>  2 0.11800260E+04</rscale>
<asrwt>0</asrwt>
<pdfrwt beam="2">  1        2 0.18687426E+00 0.11800260E+04</pdfrwt>
<pdfrwt beam="1">  1       -2 0.18795980E+00 0.11800260E+04</pdfrwt>
<totfact> 0.36172188E+00</totfact>
</mgrwt>
</event>
<event>
 8    1  0.7046235E-006  0.1149785E+04  0.7818608E-02  0.8645366E-01
          2   -1    0    0  502    0  0.00000000000E+00  0.00000000000E+00  0.14897157006E+04  0.14897157006E+04  0.00000000000E+00 0. -1.
         -2   -1    0    0    0  501 -0.00000000000E+00 -0.00000000000E+00 -0.92471238391E+03  0.92471238391E+03  0.00000000000E+00 0.  1.
    9000010    2    1    2  502    0  0.28742056466E+03  0.49468305382E+03  0.44313418963E+02  0.11663577460E+04  0.10154333103E+04 0.  0.
   -9000010    2    1    2    0  501 -0.28742056466E+03 -0.49468305382E+03  0.52068989768E+03  0.12480703385E+04  0.97940782905E+03 0.  0.
        -13    1    3    3    0    0 -0.30851604540E+03  0.39601562218E+02 -0.20917874045E+03  0.37484155402E+03  0.10566000000E+00 0.  1.
          4    1    3    3  502    0  0.59593661007E+03  0.45508149160E+03  0.25349215941E+03  0.79151619194E+03  0.00000000000E+00 0.  1.
         13    1    4    4    0    0 -0.89910814576E+02  0.28357532864E+03  0.12334437450E+02  0.29774329733E+03  0.10566000000E+00 0. -1.
         -4    1    4    4    0  501 -0.19750975009E+03 -0.77825838247E+03  0.50835546023E+03  0.95032704118E+03  0.00000000000E+00 0. -1.
<mgrwt>
<rscale>  2 0.11497852E+04</rscale>
<asrwt>0</asrwt>
<pdfrwt beam="1">  1        2 0.22918703E+00 0.11497852E+04</pdfrwt>
<pdfrwt beam="2">  1       -2 0.14226344E+00 0.11497852E+04</pdfrwt>
<totfact> 0.62774124E+00</totfact>
</mgrwt>
</event>
<event>
 8    1  0.7046235E-006  0.2297755E+04  0.7818608E-02  0.8056914E-01
         -2   -1    0    0    0  501 -0.00000000000E+00  0.00000000000E+00  0.38710931151E+04  0.38710931151E+04  0.00000000000E+00 0. -1.
          2   -1    0    0  502    0  0.00000000000E+00 -0.00000000000E+00 -0.16320780411E+04  0.16320780411E+04  0.00000000000E+00 0.  1.
    9000010    2    1    2  502    0 -0.17347504812E+04  0.11042718837E+04  0.85368453942E+00  0.22897777456E+04  0.10071274848E+04 0.  0.
   -9000010    2    1    2    0  501  0.17347504812E+04 -0.11042718837E+04  0.22381613895E+04  0.32133934106E+04  0.10429550235E+04 0.  0.
        -13    1    3    3    0    0 -0.23135864267E+03 -0.17457978962E+03 -0.11691299407E+03  0.31252773290E+03  0.10566000000E+00 0.  1.
          4    1    3    3  502    0 -0.15033918385E+04  0.12788516733E+04  0.11776667861E+03  0.19772500127E+04  0.00000000000E+00 0.  1.
         13    1    4    4    0    0  0.13212506095E+04 -0.11249325163E+04  0.21936200907E+04  0.27969886401E+04  0.10566000000E+00 0. -1.
         -4    1    4    4    0  501  0.41349987162E+03  0.20660632668E+02  0.44541298775E+02  0.41640477047E+03  0.00000000000E+00 0. -1.
<mgrwt>
<rscale>  2 0.22977551E+04</rscale>
<asrwt>0</asrwt>
<pdfrwt beam="2">  1        2 0.25108893E+00 0.22977551E+04</pdfrwt>
<pdfrwt beam="1">  1       -2 0.59555279E+00 0.22977551E+04</pdfrwt>
<totfact> 0.69154142E-02</totfact>
</mgrwt>
</event>
<event>
 8    1  0.7046235E-006  0.1488497E+04  0.7818608E-02  0.8416150E-01
         -2   -1    0    0    0  501 -0.00000000000E+00  0.00000000000E+00  0.43869692069E+04  0.43869692069E+04  0.00000000000E+00 0.  1.
          2   -1    0    0  502    0  0.00000000000E+00 -0.00000000000E+00 -0.67919119778E+03  0.67919119778E+03  0.00000000000E+00 0. -1.
    9000010    2    1    2  502    0 -0.10765090794E+04 -0.21662073022E+03  0.31217531680E+04  0.34517768784E+04  0.98164374270E+03 0.  0.
   -9000010    2    1    2    0  501  0.10765090794E+04  0.21662073022E+03  0.58602484111E+03  0.16143835263E+04  0.10281112376E+04 0.  0.
        -13    1    3    3    0    0 -0.68468721791E+03  0.34892020588E+03  0.19017600588E+04  0.20511541212E+04  0.10566000000E+00 0.  1.
          4    1    3    3  502    0 -0.39182186145E+03 -0.56554093610E+03  0.12199931092E+04  0.14006227572E+04  0.00000000000E+00 0.  1.
         13    1    4    4    0    0  0.61445555349E+02 -0.17748393785E+03 -0.19776738337E+03  0.27274173417E+03  0.10566000000E+00 0. -1.
         -4    1    4    4    0  501  0.10150635240E+04  0.39410466807E+03  0.78379222449E+03  0.13416417921E+04  0.00000000000E+00 0. -1.
<mgrwt>
<rscale>  2 0.14884969E+04</rscale>
<asrwt>0</asrwt>
<pdfrwt beam="2">  1        2 0.10449096E+00 0.14884969E+04</pdfrwt>
<pdfrwt beam="1">  1       -2 0.67491832E+00 0.14884969E+04</pdfrwt>
<totfact> 0.12834321E-01</totfact>
</mgrwt>
</event>
<event>
 8    1  0.7046235E-006  0.1251723E+04  0.7818608E-02  0.8568599E-01
          1   -1    0    0  502    0  0.00000000000E+00  0.00000000000E+00  0.48144635138E+03  0.48144635138E+03  0.00000000000E+00 0.  1.
         -1   -1    0    0    0  501 -0.00000000000E+00 -0.00000000000E+00 -0.32582124657E+04  0.32582124657E+04  0.00000000000E+00 0. -1.
    9000010    2    1    2  502    0  0.73741103577E+03  0.28376984896E+03 -0.13582614484E+04  0.18623774670E+04  0.99963758668E+03 0.  0.
   -9000010    2    1    2    0  501 -0.73741103577E+03 -0.28376984896E+03 -0.14185046660E+04  0.18772813501E+04  0.94219393818E+03 0.  0.
        -13    1    3    3    0    0 -0.83870463879E+02  0.33672633416E+03 -0.10408364685E+03  0.36228758678E+03  0.10566000000E+00 0.  1.
          4    1    3    3  502    0  0.82128149964E+03 -0.52956485205E+02 -0.12541778015E+04  0.15000898802E+04  0.00000000000E+00 0.  1.
         13    1    4    4    0    0 -0.73695835978E+03 -0.18844912547E+03 -0.40970864990E+03  0.86399183208E+03  0.10566000000E+00 0. -1.
         -4    1    4    4    0  501 -0.45267598597E+00 -0.95320723489E+02 -0.10087960161E+04  0.10132895180E+04  0.00000000000E+00 0. -1.
<mgrwt>
<rscale>  2 0.12517230E+04</rscale>
<asrwt>0</asrwt>
<pdfrwt beam="1">  1        1 0.74068673E-01 0.12517230E+04</pdfrwt>
<pdfrwt beam="2">  1       -1 0.50126343E+00 0.12517230E+04</pdfrwt>
<totfact> 0.60038531E-01</totfact>
</mgrwt>
</event>
<event>
 8    1  0.7046235E-006  0.1181904E+04  0.7818608E-02  0.8620315E-01
          2   -1    0    0  502    0  0.00000000000E+00  0.00000000000E+00  0.21682328068E+04  0.21682328068E+04  0.00000000000E+00 0. -1.
         -2   -1    0    0    0  501 -0.00000000000E+00 -0.00000000000E+00 -0.64811838963E+03  0.64811838963E+03  0.00000000000E+00 0.  1.
    9000010    2    1    2  502    0  0.52970894436E+03 -0.28431101155E+03  0.88037461113E+03  0.14935126956E+04  0.10459906305E+04 0.  0.
   -9000010    2    1    2    0  501 -0.52970894436E+03  0.28431101155E+03  0.63973980607E+03  0.13228385008E+04  0.98955058630E+03 0.  0.
        -13    1    3    3    0    0 -0.96916374776E+02 -0.47024445796E+03  0.63333967481E+03  0.79475895012E+03  0.10566000000E+00 0.  1.
          4    1    3    3  502    0  0.62662531914E+03  0.18593344641E+03  0.24703493632E+03  0.69875374549E+03  0.00000000000E+00 0.  1.
         13    1    4    4    0    0 -0.69690156005E+03 -0.92588228780E+02  0.56912908621E+03  0.90451771262E+03  0.10566000000E+00 0. -1.
         -4    1    4    4    0  501  0.16719261569E+03  0.37689924033E+03  0.70610719859E+02  0.41832078823E+03  0.00000000000E+00 0. -1.
<mgrwt>
<rscale>  2 0.11819040E+04</rscale>
<asrwt>0</asrwt>
<pdfrwt beam="1">  1        2 0.33357427E+00 0.11819040E+04</pdfrwt>
<pdfrwt beam="2">  1       -2 0.99710523E-01 0.11819040E+04</pdfrwt>
<totfact> 0.68308960E+00</totfact>
</mgrwt>
</event>
<event>
 8    1  0.7046235E-006  0.1422852E+04  0.7818608E-02  0.8455329E-01
          2   -1    0    0  502    0  0.00000000000E+00  0.00000000000E+00  0.25469405703E+04  0.25469405703E+04  0.00000000000E+00 0.  1.
         -2   -1    0    0    0  501 -0.00000000000E+00 -0.00000000000E+00 -0.81984666014E+03  0.81984666014E+03  0.00000000000E+00 0. -1.
    9000010    2    1    2  502    0 -0.90546174499E+03  0.44877594599E+03  0.11584950970E+04  0.18363998712E+04  0.10044863244E+04 0.  0.
   -9000010    2    1    2    0  501  0.90546174499E+03 -0.44877594599E+03  0.56859881316E+03  0.15303873592E+04  0.99875924910E+03 0.  0.
        -13    1    3    3    0    0  0.11880105120E+03 -0.18537941690E+03  0.18061793793E+03  0.28478424929E+03  0.10566000000E+00 0.  1.
          4    1    3    3  502    0 -0.10242627962E+04  0.63415536289E+03  0.97787715911E+03  0.15516156219E+04  0.00000000000E+00 0.  1.
         13    1    4    4    0    0  0.19277006992E+03 -0.30992251916E+03  0.70287076142E+03  0.79198458707E+03  0.10566000000E+00 0. -1.
         -4    1    4    4    0  501  0.71269167507E+03 -0.13885342684E+03 -0.13427194826E+03  0.73840277217E+03  0.00000000000E+00 0. -1.
<mgrwt>
<rscale>  2 0.14228525E+04</rscale>
<asrwt>0</asrwt>
<pdfrwt beam="1">  1        2 0.39183701E+00 0.14228525E+04</pdfrwt>
<pdfrwt beam="2">  1       -2 0.12613026E+00 0.14228525E+04</pdfrwt>
<totfact> 0.22547987E+00</totfact>
</mgrwt>
</event>
<event>
 8    1  0.7046235E-006  0.1259953E+04  0.7818608E-02  0.8562734E-01
         -4   -1    0    0    0  501 -0.00000000000E+00  0.00000000000E+00  0.16808501399E+04  0.16808501399E+04  0.00000000000E+00 0.  1.
          4   -1    0    0  502    0  0.00000000000E+00 -0.00000000000E+00 -0.98355155025E+03  0.98355155025E+03  0.00000000000E+00 0. -1.
    9000010    2    1    2  502    0 -0.31293153165E+03 -0.78254008675E+03  0.62180779663E+03  0.14445532658E+04  0.99488394842E+03 0.  0.
   -9000010    2    1    2    0  501  0.31293153165E+03  0.78254008675E+03  0.75490793021E+02  0.12198484244E+04  0.87865589838E+03 0.  0.
        -13    1    3    3    0    0 -0.76514107661E+02  0.23922836069E+03  0.76881409229E+02  0.26266971557E+03  0.10566000000E+00 0.  1.
          4    1    3    3  502    0 -0.23641742399E+03 -0.10217684474E+04  0.54492638740E+03  0.11818835502E+04  0.00000000000E+00 0.  1.
         13    1    4    4    0    0  0.31317146134E+03  0.17190310868E+03 -0.33040596317E+03  0.48661602381E+03  0.10566000000E+00 0. -1.
         -4    1    4    4    0  501 -0.23992968984E+00  0.61063697808E+03  0.40589675619E+03  0.73323240057E+03  0.00000000000E+00 0. -1.
<mgrwt>
<rscale>  2 0.12599527E+04</rscale>
<asrwt>0</asrwt>
<pdfrwt beam="2">  1        4 0.15131562E+00 0.12599527E+04</pdfrwt>
<pdfrwt beam="1">  1       -4 0.25859233E+00 0.12599527E+04</pdfrwt>
<totfact> 0.18936836E-01</totfact>
</mgrwt>
</event>
<event>
 8    1  0.7046235E-006  0.1262646E+04  0.7818608E-02  0.8560825E-01
          2   -1    0    0  502    0  0.00000000000E+00  0.00000000000E+00  0.14656880286E+04  0.14656880286E+04  0.00000000000E+00 0.  1.
         -2   -1    0    0    0  501 -0.00000000000E+00 -0.00000000000E+00 -0.10881661951E+04  0.10881661951E+04  0.00000000000E+00 0. -1.
    9000010    2    1    2  502    0  0.69079187111E+03 -0.31251027227E+03  0.16582638084E+03  0.12816122753E+04  0.10198899726E+04 0.  0.
   -9000010    2    1    2    0  501 -0.69079187111E+03  0.31251027227E+03  0.21169545265E+03  0.12722419485E+04  0.99946412206E+03 0.  0.
        -13    1    3    3    0    0  0.71893750634E+03 -0.59191530950E+03 -0.42082763867E+02  0.93220482825E+03  0.10566000000E+00 0.  1.
          4    1    3    3  502    0 -0.28145635233E+02  0.27940503723E+03  0.20790914471E+03  0.34940744707E+03  0.00000000000E+00 0.  1.
         13    1    4    4    0    0 -0.12985750710E+03 -0.22789753350E+03  0.39302345141E+03  0.47251211884E+03  0.10566000000E+00 0. -1.
         -4    1    4    4    0  501 -0.56093436400E+03  0.54040780577E+03 -0.18132799875E+03  0.79972982962E+03  0.00000000000E+00 0. -1.
<mgrwt>
<rscale>  2 0.12626459E+04</rscale>
<asrwt>0</asrwt>
<pdfrwt beam="1">  1        2 0.22549047E+00 0.12626459E+04</pdfrwt>
<pdfrwt beam="2">  1       -2 0.16741018E+00 0.12626459E+04</pdfrwt>
<totfact> 0.38556960E+00</totfact>
</mgrwt>
</event>
<event>
 8    1  0.7046235E-006  0.1417094E+04  0.7818608E-02  0.8458869E-01
         -4   -1    0    0    0  501 -0.00000000000E+00  0.00000000000E+00  0.20521995709E+04  0.20521995709E+04  0.00000000000E+00 0. -1.
          4   -1    0    0  502    0  0.00000000000E+00 -0.00000000000E+00 -0.10056810565E+04  0.10056810565E+04  0.00000000000E+00 0.  1.
    9000010    2    1    2  502    0 -0.70578701162E+03 -0.70655822979E+03  0.77523727522E+03  0.16172672762E+04  0.10085637173E+04 0.  0.
   -9000010    2    1    2    0  501  0.70578701162E+03  0.70655822979E+03  0.27128123915E+03  0.14406133513E+04  0.10022043102E+04 0.  0.
        -13    1    3    3    0    0 -0.19803738792E+03 -0.28363574171E+03  0.88243324206E+03  0.94781669053E+03  0.10566000000E+00 0.  1.
          4    1    3    3  502    0 -0.50774962370E+03 -0.42292248808E+03 -0.10719596684E+03  0.66945058563E+03  0.00000000000E+00 0.  1.
         13    1    4    4    0    0  0.42200719746E+03  0.85933703516E+03 -0.83860650473E+02  0.96103217145E+03  0.10566000000E+00 0. -1.
         -4    1    4    4    0  501  0.28377981416E+03 -0.15277880537E+03  0.35514188962E+03  0.47958117985E+03  0.00000000000E+00 0. -1.
<mgrwt>
<rscale>  2 0.14170945E+04</rscale>
<asrwt>0</asrwt>
<pdfrwt beam="2">  1        4 0.15472016E+00 0.14170945E+04</pdfrwt>
<pdfrwt beam="1">  1       -4 0.31572301E+00 0.14170945E+04</pdfrwt>
<totfact> 0.12915590E-01</totfact>
</mgrwt>
</event>
<event>
 8    1  0.7046235E-006  0.1363313E+04  0.7818608E-02  0.8492786E-01
          1   -1    0    0  502    0  0.00000000000E+00  0.00000000000E+00  0.13513503615E+04  0.13513503615E+04  0.00000000000E+00 0.  1.
         -1   -1    0    0    0  501 -0.00000000000E+00 -0.00000000000E+00 -0.13765556284E+04  0.13765556284E+04  0.00000000000E+00 0. -1.
    9000010    2    1    2  502    0 -0.87996092967E+03  0.10783729075E+03  0.18925817953E+02  0.13390551340E+04  0.10033694963E+04 0.  0.
   -9000010    2    1    2    0  501  0.87996092967E+03 -0.10783729075E+03 -0.44131084778E+02  0.13888508559E+04  0.10681755607E+04 0.  0.
        -13    1    3    3    0    0 -0.24563869457E+03  0.49235964245E+03  0.18203715780E+03  0.57956356318E+03  0.10566000000E+00 0.  1.
          4    1    3    3  502    0 -0.63432223510E+03 -0.38452235169E+03 -0.16311133984E+03  0.75949157077E+03  0.00000000000E+00 0.  1.
         13    1    4    4    0    0  0.48660778181E+03 -0.49526043295E+03 -0.32817137550E+03  0.76796255939E+03  0.10566000000E+00 0. -1.
         -4    1    4    4    0  501  0.39335314786E+03  0.38742314220E+03  0.28404029073E+03  0.62088829655E+03  0.00000000000E+00 0. -1.
<mgrwt>
<rscale>  2 0.13633133E+04</rscale>
<asrwt>0</asrwt>
<pdfrwt beam="1">  1        1 0.20790005E+00 0.13633133E+04</pdfrwt>
<pdfrwt beam="2">  1       -1 0.21177779E+00 0.13633133E+04</pdfrwt>
<totfact> 0.11628651E+00</totfact>
</mgrwt>
</event>
<event>
 8    1  0.7046235E-006  0.1545416E+04  0.7818608E-02  0.8383831E-01
         -2   -1    0    0    0  501 -0.00000000000E+00  0.00000000000E+00  0.18982961500E+04  0.18982961500E+04  0.00000000000E+00 0.  1.
          2   -1    0    0  502    0  0.00000000000E+00 -0.00000000000E+00 -0.12623724529E+04  0.12623724529E+04  0.00000000000E+00 0. -1.
    9000010    2    1    2  502    0  0.11099462278E+04  0.17257696459E+03  0.22724100956E+03  0.15249383602E+04  0.10059995471E+04 0.  0.
   -9000010    2    1    2    0  501 -0.11099462278E+04 -0.17257696459E+03  0.40868268747E+03  0.16357302427E+04  0.11166147279E+04 0.  0.
        -13    1    3    3    0    0  0.96956880623E+03 -0.29767639074E+03  0.19744471864E+03  0.10332760191E+04  0.10566000000E+00 0.  1.
          4    1    3    3  502    0  0.14037742153E+03  0.47025335533E+03  0.29796290919E+02  0.49166234107E+03  0.00000000000E+00 0.  1.
         13    1    4    4    0    0  0.17589878990E+03  0.14123351198E+03 -0.56899512283E+02  0.23264749054E+03  0.10566000000E+00 0. -1.
         -4    1    4    4    0  501 -0.12858450177E+04 -0.31381047656E+03  0.46558219976E+03  0.14030827521E+04  0.00000000000E+00 0. -1.
<mgrwt>
<rscale>  2 0.15454163E+04</rscale>
<asrwt>0</asrwt>
<pdfrwt beam="2">  1        2 0.19421115E+00 0.15454163E+04</pdfrwt>
<pdfrwt beam="1">  1       -2 0.29204556E+00 0.15454163E+04</pdfrwt>
<totfact> 0.49790019E-01</totfact>
</mgrwt>
</event>
<event>
 8    1  0.7046235E-006  0.1101063E+04  0.7818608E-02  0.8685038E-01
         -2   -1    0    0    0  501 -0.00000000000E+00  0.00000000000E+00  0.86757637760E+03  0.86757637760E+03  0.00000000000E+00 0.  1.
          2   -1    0    0  502    0  0.00000000000E+00 -0.00000000000E+00 -0.16303468037E+04  0.16303468037E+04  0.00000000000E+00 0. -1.
    9000010    2    1    2  502    0  0.52513308812E+03 -0.31132958080E+03  0.67171207086E+02  0.11666940435E+04  0.99195370450E+03 0.  0.
   -9000010    2    1    2    0  501 -0.52513308812E+03  0.31132958080E+03 -0.82994163320E+03  0.13312291379E+04  0.84301662785E+03 0.  0.
        -13    1    3    3    0    0  0.62701163030E+03 -0.43685547507E+03 -0.25551476223E+03  0.80577546222E+03  0.10566000000E+00 0.  1.
          4    1    3    3  502    0 -0.10187854219E+03  0.12552589427E+03  0.32268596932E+03  0.36091858124E+03  0.00000000000E+00 0.  1.
         13    1    4    4    0    0  0.39824447321E+02 -0.18264302598E+03 -0.45587108472E+03  0.49270977115E+03  0.10566000000E+00 0. -1.
         -4    1    4    4    0  501 -0.56495753544E+03  0.49397260678E+03 -0.37407054848E+03  0.83851936670E+03  0.00000000000E+00 0. -1.
<mgrwt>
<rscale>  2 0.11010625E+04</rscale>
<asrwt>0</asrwt>
<pdfrwt beam="2">  1        2 0.25082258E+00 0.11010625E+04</pdfrwt>
<pdfrwt beam="1">  1       -2 0.13347329E+00 0.11010625E+04</pdfrwt>
<totfact> 0.63543564E+00</totfact>
</mgrwt>
</event>
<event>
 8    1  0.7046235E-006  0.1334975E+04  0.7818608E-02  0.8511312E-01
          1   -1    0    0  502    0  0.00000000000E+00  0.00000000000E+00  0.28844640579E+04  0.28844640579E+04  0.00000000000E+00 0.  1.
         -1   -1    0    0    0  501 -0.00000000000E+00 -0.00000000000E+00 -0.62836363783E+03  0.62836363783E+03  0.00000000000E+00 0. -1.
    9000010    2    1    2  502    0  0.59862244184E+03  0.65033150837E+03  0.89758251394E+03  0.16053751422E+04  0.99513570888E+03 0.  0.
   -9000010    2    1    2    0  501 -0.59862244184E+03 -0.65033150837E+03  0.13585179061E+04  0.19074525536E+04  0.10057457155E+04 0.  0.
        -13    1    3    3    0    0  0.11445557695E+03 -0.15809984599E+03 -0.11144250516E+03  0.22475560842E+03  0.10566000000E+00 0.  1.
          4    1    3    3  502    0  0.48416686489E+03  0.80843135436E+03  0.10090250191E+04  0.13806195337E+04  0.00000000000E+00 0.  1.
         13    1    4    4    0    0 -0.81308947765E+03 -0.60677586094E+03  0.13496273066E+04  0.16884268778E+04  0.10566000000E+00 0. -1.
         -4    1    4    4    0  501  0.21446703581E+03 -0.43555647433E+02  0.88905995884E+01  0.21902567574E+03  0.00000000000E+00 0. -1.
<mgrwt>
<rscale>  2 0.13349749E+04</rscale>
<asrwt>0</asrwt>
<pdfrwt beam="1">  1        1 0.44376369E+00 0.13349749E+04</pdfrwt>
<pdfrwt beam="2">  1       -1 0.96671330E-01 0.13349749E+04</pdfrwt>
<totfact> 0.65761655E-01</totfact>
</mgrwt>
</event>
<event>
 8    1  0.7046235E-006  0.1059337E+04  0.7818608E-02  0.8720752E-01
          1   -1    0    0  502    0  0.00000000000E+00  0.00000000000E+00  0.10585603563E+04  0.10585603563E+04  0.00000000000E+00 0.  1.
         -1   -1    0    0    0  501 -0.00000000000E+00 -0.00000000000E+00 -0.14780062487E+04  0.14780062487E+04  0.00000000000E+00 0. -1.
    9000010    2    1    2  502    0  0.30277213102E+03  0.21956993594E+03  0.46415442063E+03  0.11597850513E+04  0.99487693659E+03 0.  0.
   -9000010    2    1    2    0  501 -0.30277213102E+03 -0.21956993594E+03 -0.88360031295E+03  0.13767815537E+04  0.98736822584E+03 0.  0.
        -13    1    3    3    0    0  0.44187901437E+03  0.17966560910E+03 -0.17223336310E+03  0.50715001426E+03  0.10566000000E+00 0.  1.
          4    1    3    3  502    0 -0.13910688335E+03  0.39904326837E+02  0.63638778374E+03  0.65263503705E+03  0.00000000000E+00 0.  1.
         13    1    4    4    0    0  0.42315409602E+01 -0.15029270771E+03 -0.10219795443E+04  0.10329801566E+04  0.10566000000E+00 0. -1.
         -4    1    4    4    0  501 -0.30700367198E+03 -0.69277228234E+02  0.13837923130E+03  0.34380139706E+03  0.00000000000E+00 0. -1.
<mgrwt>
<rscale>  2 0.10593372E+04</rscale>
<asrwt>0</asrwt>
<pdfrwt beam="1">  1        1 0.16285544E+00 0.10593372E+04</pdfrwt>
<pdfrwt beam="2">  1       -1 0.22738558E+00 0.10593372E+04</pdfrwt>
<totfact> 0.14600533E+00</totfact>
</mgrwt>
</event>
<event>
 8    1  0.7046235E-006  0.1534278E+04  0.7818608E-02  0.8390041E-01
         -2   -1    0    0    0  501 -0.00000000000E+00  0.00000000000E+00  0.16712450050E+04  0.16712450050E+04  0.00000000000E+00 0. -1.
          2   -1    0    0  502    0  0.00000000000E+00 -0.00000000000E+00 -0.14270243534E+04  0.14270243534E+04  0.00000000000E+00 0.  1.
    9000010    2    1    2  502    0  0.75668795239E+03  0.88174488266E+03 -0.54095153733E+02  0.15367316700E+04  0.10042744866E+04 0.  0.
   -9000010    2    1    2    0  501 -0.75668795239E+03 -0.88174488266E+03  0.29831580540E+03  0.15615376884E+04  0.99967841691E+03 0.  0.
        -13    1    3    3    0    0  0.79502778265E+03  0.10389060946E+04  0.10168600246E+03  0.13121490399E+04  0.10566000000E+00 0.  1.
          4    1    3    3  502    0 -0.38339830259E+02 -0.15716121192E+03 -0.15578115619E+03  0.22458263010E+03  0.00000000000E+00 0.  1.
         13    1    4    4    0    0 -0.56611925811E+03 -0.17481855953E+03  0.52859236152E+03  0.79401664906E+03  0.10566000000E+00 0. -1.
         -4    1    4    4    0  501 -0.19056869428E+03 -0.70692632313E+03 -0.23027655612E+03  0.76752103937E+03  0.00000000000E+00 0. -1.
<mgrwt>
<rscale>  2 0.15342778E+04</rscale>
<asrwt>0</asrwt>
<pdfrwt beam="2">  1        2 0.21954221E+00 0.15342778E+04</pdfrwt>
<pdfrwt beam="1">  1       -2 0.25711462E+00 0.15342778E+04</pdfrwt>
<totfact> 0.73717563E-01</totfact>
</mgrwt>
</event>
<event>
 8    1  0.7046235E-006  0.1346843E+04  0.7818608E-02  0.8503496E-01
         -1   -1    0    0    0  501 -0.00000000000E+00  0.00000000000E+00  0.97934312425E+03  0.97934312425E+03  0.00000000000E+00 0. -1.
          1   -1    0    0  502    0  0.00000000000E+00 -0.00000000000E+00 -0.19748227275E+04  0.19748227275E+04  0.00000000000E+00 0.  1.
    9000010    2    1    2  502    0 -0.82752955025E+03 -0.33461929212E+03 -0.13186494626E+03  0.13592177030E+04  0.10165181617E+04 0.  0.
   -9000010    2    1    2    0  501  0.82752955025E+03  0.33461929212E+03 -0.86361465695E+03  0.15949481487E+04  0.10006268506E+04 0.  0.
        -13    1    3    3    0    0 -0.10680208795E+04 -0.30351355636E+03 -0.10890219916E+03  0.11156382828E+04  0.10566000000E+00 0.  1.
          4    1    3    3  502    0  0.24049132920E+03 -0.31105735765E+02 -0.22962747097E+02  0.24357942026E+03  0.00000000000E+00 0.  1.
         13    1    4    4    0    0  0.14196019339E+03  0.59186226218E+03 -0.39569774026E+03  0.72596855766E+03  0.10566000000E+00 0. -1.
         -4    1    4    4    0  501  0.68556935686E+03 -0.25724297005E+03 -0.46791691668E+03  0.86897959103E+03  0.00000000000E+00 0. -1.
<mgrwt>
<rscale>  2 0.13468430E+04</rscale>
<asrwt>0</asrwt>
<pdfrwt beam="2">  1        1 0.30381888E+00 0.13468430E+04</pdfrwt>
<pdfrwt beam="1">  1       -1 0.15066817E+00 0.13468430E+04</pdfrwt>
<totfact> 0.13734095E+00</totfact>
</mgrwt>
</event>
<event>
 8    1  0.7046235E-006  0.1189091E+04  0.7818608E-02  0.8614823E-01
          2   -1    0    0  502    0  0.00000000000E+00  0.00000000000E+00  0.30463637041E+04  0.30463637041E+04  0.00000000000E+00 0. -1.
         -2   -1    0    0    0  501 -0.00000000000E+00 -0.00000000000E+00 -0.54010658344E+03  0.54010658344E+03  0.00000000000E+00 0.  1.
    9000010    2    1    2  502    0 -0.10324637489E+03  0.33634170152E+03  0.74031330818E+03  0.15279138556E+04  0.12894461608E+04 0.  0.
   -9000010    2    1    2    0  501  0.10324637489E+03 -0.33634170152E+03  0.17659438125E+04  0.20585564320E+04  0.99765298605E+03 0.  0.
        -13    1    3    3    0    0 -0.18075876386E+03  0.80285982169E+03  0.28355508801E+03  0.87043731716E+03  0.10566000000E+00 0.  1.
          4    1    3    3  502    0  0.77512388971E+02 -0.46651812017E+03  0.45675822017E+03  0.65747653842E+03  0.00000000000E+00 0.  1.
         13    1    4    4    0    0 -0.85266085876E+01 -0.36862714996E+03  0.18678484990E+04  0.19038951403E+04  0.10566000000E+00 0. -1.
         -4    1    4    4    0  501  0.11177298348E+03  0.32285448438E+02 -0.10190468651E+03  0.15466129170E+03  0.00000000000E+00 0. -1.
<mgrwt>
<rscale>  2 0.11890910E+04</rscale>
<asrwt>0</asrwt>
<pdfrwt beam="1">  1        2 0.46867133E+00 0.11890910E+04</pdfrwt>
<pdfrwt beam="2">  1       -2 0.83093322E-01 0.11890910E+04</pdfrwt>
<totfact> 0.32471450E+00</totfact>
</mgrwt>
</event>
<event>
 8    1  0.7046235E-006  0.1055723E+04  0.7818608E-02  0.8723926E-01
         -2   -1    0    0    0  501 -0.00000000000E+00  0.00000000000E+00  0.34882104069E+03  0.34882104069E+03  0.00000000000E+00 0.  1.
          2   -1    0    0  502    0  0.00000000000E+00 -0.00000000000E+00 -0.32118198719E+04  0.32118198719E+04  0.00000000000E+00 0. -1.
    9000010    2    1    2  502    0 -0.36779681340E+03  0.14115596734E+02 -0.15691827487E+04  0.18955323183E+04  0.99761441682E+03 0.  0.
   -9000010    2    1    2    0  501  0.36779681340E+03 -0.14115596734E+02 -0.12938160825E+04  0.16651085943E+04  0.98140349991E+03 0.  0.
        -13    1    3    3    0    0  0.34073447923E+03 -0.75966129389E+02 -0.51955474913E+03  0.62594567389E+03  0.10566000000E+00 0.  1.
          4    1    3    3  502    0 -0.70853129263E+03  0.90081726123E+02 -0.10496279996E+04  0.12695866444E+04  0.00000000000E+00 0.  1.
         13    1    4    4    0    0  0.26889052303E+03 -0.33329898205E+03 -0.12011608914E+03  0.44476759194E+03  0.10566000000E+00 0. -1.
         -4    1    4    4    0  501  0.98906290369E+02  0.31918338532E+03 -0.11736999933E+04  0.12203410024E+04  0.00000000000E+00 0. -1.
<mgrwt>
<rscale>  2 0.10557234E+04</rscale>
<asrwt>0</asrwt>
<pdfrwt beam="2">  1        2 0.49412614E+00 0.10557234E+04</pdfrwt>
<pdfrwt beam="1">  1       -2 0.53664774E-01 0.10557234E+04</pdfrwt>
<totfact> 0.64345568E+00</totfact>
</mgrwt>
</event>
<event>
 8    1  0.7046235E-006  0.1129785E+04  0.7818608E-02  0.8661399E-01
         -4   -1    0    0    0  501 -0.00000000000E+00  0.00000000000E+00  0.51751073761E+03  0.51751073761E+03  0.00000000000E+00 0. -1.
          4   -1    0    0  502    0  0.00000000000E+00 -0.00000000000E+00 -0.25498183649E+04  0.25498183649E+04  0.00000000000E+00 0.  1.
    9000010    2    1    2  502    0  0.22689789868E+03 -0.62883868248E+03 -0.12014692804E+04  0.15972594163E+04  0.81288896298E+03 0.  0.
   -9000010    2    1    2    0  501 -0.22689789868E+03  0.62883868248E+03 -0.83083834693E+03  0.14700696863E+04  0.10118753771E+04 0.  0.
        -13    1    3    3    0    0 -0.32783864895E+02  0.14030419193E+02  0.10899667431E+03  0.11468182347E+03  0.10566000000E+00 0.  1.
          4    1    3    3  502    0  0.25968176358E+03 -0.64286910167E+03 -0.13104659547E+04  0.14825775928E+04  0.00000000000E+00 0.  1.
         13    1    4    4    0    0  0.62852404306E+02  0.84310378690E+03 -0.50855288568E+03  0.98661059639E+03  0.10566000000E+00 0. -1.
         -4    1    4    4    0  501 -0.28975030299E+03 -0.21426510443E+03 -0.32228546125E+03  0.48345908988E+03  0.00000000000E+00 0. -1.
<mgrwt>
<rscale>  2 0.11297849E+04</rscale>
<asrwt>0</asrwt>
<pdfrwt beam="2">  1        4 0.39227975E+00 0.11297849E+04</pdfrwt>
<pdfrwt beam="1">  1       -4 0.79617036E-01 0.11297849E+04</pdfrwt>
<totfact> 0.23642989E-01</totfact>
</mgrwt>
</event>
<event>
 8    1  0.7046235E-006  0.1487796E+04  0.7818608E-02  0.8416558E-01
          1   -1    0    0  502    0  0.00000000000E+00  0.00000000000E+00  0.30804165141E+04  0.30804165141E+04  0.00000000000E+00 0. -1.
         -1   -1    0    0    0  501 -0.00000000000E+00 -0.00000000000E+00 -0.77797798211E+03  0.77797798211E+03  0.00000000000E+00 0.  1.
    9000010    2    1    2  502    0  0.11122303258E+04  0.21540872007E+03  0.62483896885E+03  0.16221418529E+04  0.97850050563E+03 0.  0.
   -9000010    2    1    2    0  501 -0.11122303258E+04 -0.21540872007E+03  0.16775995631E+04  0.22362526433E+04  0.95027805210E+03 0.  0.
        -13    1    3    3    0    0  0.16040730765E+03  0.42876902779E+03  0.42868472413E+03  0.62717141788E+03  0.10566000000E+00 0.  1.
          4    1    3    3  502    0  0.95182301814E+03 -0.21336030771E+03  0.19615424472E+03  0.99497043499E+03  0.00000000000E+00 0.  1.
         13    1    4    4    0    0 -0.21311073020E+03  0.15483148007E+03  0.10415279900E+04  0.10743228265E+04  0.10566000000E+00 0. -1.
         -4    1    4    4    0  501 -0.89911959559E+03 -0.37024020015E+03  0.63607157313E+03  0.11619298168E+04  0.00000000000E+00 0. -1.
<mgrwt>
<rscale>  2 0.14877956E+04</rscale>
<asrwt>0</asrwt>
<pdfrwt beam="1">  1        1 0.47391023E+00 0.14877956E+04</pdfrwt>
<pdfrwt beam="2">  1       -1 0.11968892E+00 0.14877956E+04</pdfrwt>
<totfact> 0.24291791E-01</totfact>
</mgrwt>
</event>
<event>
 8    1  0.7046235E-006  0.1140902E+04  0.7818608E-02  0.8652444E-01
         -2   -1    0    0    0  501 -0.00000000000E+00  0.00000000000E+00  0.11553210527E+04  0.11553210527E+04  0.00000000000E+00 0.  1.
          2   -1    0    0  502    0  0.00000000000E+00 -0.00000000000E+00 -0.17325204376E+04  0.17325204376E+04  0.00000000000E+00 0. -1.
    9000010    2    1    2  502    0  0.75015599322E+02  0.47897128256E+03  0.56630747042E+03  0.12678721618E+04  0.10255509924E+04 0.  0.
   -9000010    2    1    2    0  501 -0.75015599322E+02 -0.47897128256E+03 -0.11435068553E+04  0.16199693285E+04  0.10400249359E+04 0.  0.
        -13    1    3    3    0    0  0.51448343703E+03  0.39827786427E+03  0.49019208395E+03  0.81462061996E+03  0.10566000000E+00 0.  1.
          4    1    3    3  502    0 -0.43946783770E+03  0.80693418295E+02  0.76115386471E+02  0.45325154185E+03  0.00000000000E+00 0.  1.
         13    1    4    4    0    0  0.14060737405E+03  0.27177339506E+03 -0.11145608249E+03  0.32565884203E+03  0.10566000000E+00 0. -1.
         -4    1    4    4    0  501 -0.21562297337E+03 -0.75074467762E+03 -0.10320507728E+04  0.12943104864E+04  0.00000000000E+00 0. -1.
<mgrwt>
<rscale>  2 0.11409024E+04</rscale>
<asrwt>0</asrwt>
<pdfrwt beam="2">  1        2 0.26654160E+00 0.11409024E+04</pdfrwt>
<pdfrwt beam="1">  1       -2 0.17774170E+00 0.11409024E+04</pdfrwt>
<totfact> 0.22894307E+00</totfact>
</mgrwt>
</event>
<event>
 8    1  0.7046235E-006  0.1231622E+04  0.7818608E-02  0.8583123E-01
         -2   -1    0    0    0  501 -0.00000000000E+00  0.00000000000E+00  0.12973152707E+04  0.12973152707E+04  0.00000000000E+00 0.  1.
          2   -1    0    0  502    0  0.00000000000E+00 -0.00000000000E+00 -0.12576635110E+04  0.12576635110E+04  0.00000000000E+00 0. -1.
    9000010    2    1    2  502    0  0.30868037650E+03 -0.64307983872E+03  0.35829987827E+03  0.12748211960E+04  0.99395926743E+03 0.  0.
   -9000010    2    1    2    0  501 -0.30868037650E+03  0.64307983872E+03 -0.31864811857E+03  0.12801575857E+04  0.10141161507E+04 0.  0.
        -13    1    3    3    0    0  0.29644182005E+03 -0.79581681523E+03 -0.37841084562E+02  0.85007888747E+03  0.10566000000E+00 0.  1.
          4    1    3    3  502    0  0.12238556447E+02  0.15273697651E+03  0.39614096284E+03  0.42474230858E+03  0.00000000000E+00 0.  1.
         13    1    4    4    0    0 -0.51695752888E+03  0.32206765088E+03 -0.56029238093E+03  0.82758698740E+03  0.10566000000E+00 0. -1.
         -4    1    4    4    0  501  0.20827715238E+03  0.32101218784E+03  0.24164426236E+03  0.45257059833E+03  0.00000000000E+00 0. -1.
<mgrwt>
<rscale>  2 0.12316223E+04</rscale>
<asrwt>0</asrwt>
<pdfrwt beam="2">  1        2 0.19348669E+00 0.12316223E+04</pdfrwt>
<pdfrwt beam="1">  1       -2 0.19958696E+00 0.12316223E+04</pdfrwt>
<totfact> 0.27227194E+00</totfact>
</mgrwt>
</event>
<event>
 8    1  0.7046235E-006  0.1174419E+04  0.7818608E-02  0.8626079E-01
          4   -1    0    0  502    0  0.00000000000E+00  0.00000000000E+00  0.24271812334E+04  0.24271812334E+04  0.00000000000E+00 0.  1.
         -4   -1    0    0    0  501 -0.00000000000E+00 -0.00000000000E+00 -0.63168810893E+03  0.63168810893E+03  0.00000000000E+00 0. -1.
    9000010    2    1    2  502    0  0.52646784105E+03  0.34267356238E+03  0.13869711812E+04  0.18217863038E+04  0.10003113121E+04 0.  0.
   -9000010    2    1    2    0  501 -0.52646784105E+03 -0.34267356238E+03  0.40852194320E+03  0.12370830385E+04  0.98432246138E+03 0.  0.
        -13    1    3    3    0    0 -0.65006032017E+02  0.54717589117E+03  0.57187666547E+03  0.79414744963E+03  0.10566000000E+00 0.  1.
          4    1    3    3  502    0  0.59147387307E+03 -0.20450232879E+03  0.81509451577E+03  0.10276388542E+04  0.00000000000E+00 0.  1.
         13    1    4    4    0    0 -0.20142130492E+03  0.17037176030E+02  0.66046852125E+03  0.69070940791E+03  0.10566000000E+00 0. -1.
         -4    1    4    4    0  501 -0.32504653614E+03 -0.35971073841E+03 -0.25194657805E+03  0.54637363056E+03  0.00000000000E+00 0. -1.
<mgrwt>
<rscale>  2 0.11744186E+04</rscale>
<asrwt>0</asrwt>
<pdfrwt beam="1">  1        4 0.37341249E+00 0.11744186E+04</pdfrwt>
<pdfrwt beam="2">  1       -4 0.97182787E-01 0.11744186E+04</pdfrwt>
<totfact> 0.18596970E-01</totfact>
</mgrwt>
</event>
<event>
 8    1  0.7046235E-006  0.1201005E+04  0.7818608E-02  0.8605806E-01
          2   -1    0    0  502    0  0.00000000000E+00  0.00000000000E+00  0.24709404022E+04  0.24709404022E+04  0.00000000000E+00 0.  1.
         -2   -1    0    0    0  501 -0.00000000000E+00 -0.00000000000E+00 -0.58592464706E+03  0.58592464706E+03  0.00000000000E+00 0. -1.
    9000010    2    1    2  502    0  0.22294214339E+03  0.65072761938E+03  0.10404076333E+04  0.15940196412E+04  0.99262326137E+03 0.  0.
   -9000010    2    1    2    0  501 -0.22294214339E+03 -0.65072761938E+03  0.84460812184E+03  0.14628454081E+04  0.97642417763E+03 0.  0.
        -13    1    3    3    0    0 -0.36855862025E+03  0.24804927989E+03  0.62441737922E+03  0.76632954820E+03  0.10566000000E+00 0.  1.
          4    1    3    3  502    0  0.59150076364E+03  0.40267833949E+03  0.41599025412E+03  0.82769009297E+03  0.00000000000E+00 0.  1.
         13    1    4    4    0    0 -0.45906848779E+03 -0.63321159981E+03  0.24723587461E+03  0.82025995604E+03  0.10566000000E+00 0. -1.
         -4    1    4    4    0  501  0.23612634440E+03 -0.17516019563E+02  0.59737224723E+03  0.64258545208E+03  0.00000000000E+00 0. -1.
<mgrwt>
<rscale>  2 0.12010054E+04</rscale>
<asrwt>0</asrwt>
<pdfrwt beam="1">  1        2 0.38014467E+00 0.12010054E+04</pdfrwt>
<pdfrwt beam="2">  1       -2 0.90142255E-01 0.12010054E+04</pdfrwt>
<totfact> 0.58920567E+00</totfact>
</mgrwt>
</event>
<event>
 8    1  0.7046235E-006  0.1083935E+04  0.7818608E-02  0.8699495E-01
         -2   -1    0    0    0  501 -0.00000000000E+00  0.00000000000E+00  0.80662987581E+03  0.80662987581E+03  0.00000000000E+00 0. -1.
          2   -1    0    0  502    0  0.00000000000E+00 -0.00000000000E+00 -0.14692601336E+04  0.14692601336E+04  0.00000000000E+00 0.  1.
    9000010    2    1    2  502    0 -0.23188037665E+03 -0.33771203594E+03 -0.43569261884E+03  0.11643138420E+04  0.99898985794E+03 0.  0.
   -9000010    2    1    2    0  501  0.23188037665E+03  0.33771203594E+03 -0.22693763898E+03  0.11115761674E+04  0.10081086031E+04 0.  0.
        -13    1    3    3    0    0 -0.48904266227E+03 -0.32407025047E+02  0.96024047190E+02  0.49943324839E+03  0.10566000000E+00 0.  1.
          4    1    3    3  502    0  0.25716228562E+03 -0.30530501090E+03 -0.53171666603E+03  0.66488059361E+03  0.00000000000E+00 0.  1.
         13    1    4    4    0    0  0.31552554723E+03  0.51429022741E+03 -0.49460446886E+03  0.78018228687E+03  0.10566000000E+00 0. -1.
         -4    1    4    4    0  501 -0.83645170577E+02 -0.17657819147E+03  0.26766682988E+03  0.33139388057E+03  0.00000000000E+00 0. -1.
<mgrwt>
<rscale>  2 0.10839346E+04</rscale>
<asrwt>0</asrwt>
<pdfrwt beam="2">  1        2 0.22604002E+00 0.10839346E+04</pdfrwt>
<pdfrwt beam="1">  1       -2 0.12409690E+00 0.10839346E+04</pdfrwt>
<totfact> 0.95262321E+00</totfact>
</mgrwt>
</event>
<event>
 8    1  0.7046235E-006  0.1694954E+04  0.7818608E-02  0.8305363E-01
          1   -1    0    0  502    0  0.00000000000E+00  0.00000000000E+00  0.36056667269E+04  0.36056667269E+04  0.00000000000E+00 0. -1.
         -1   -1    0    0    0  501 -0.00000000000E+00 -0.00000000000E+00 -0.79713065633E+03  0.79713065633E+03  0.00000000000E+00 0.  1.
    9000010    2    1    2  502    0  0.12817871579E+04 -0.48584082426E+03  0.13618319488E+04  0.21782645462E+04  0.10055995981E+04 0.  0.
   -9000010    2    1    2    0  501 -0.12817871579E+04  0.48584082426E+03  0.14467041217E+04  0.22245328370E+04  0.98821753789E+03 0.  0.
        -13    1    3    3    0    0  0.14119750630E+04 -0.42223340902E+03  0.97995077438E+03  0.17698186804E+04  0.10566000000E+00 0.  1.
          4    1    3    3  502    0 -0.13018790506E+03 -0.63607415241E+02  0.38188117441E+03  0.40844586577E+03  0.00000000000E+00 0.  1.
         13    1    4    4    0    0 -0.31095863713E+03  0.43722103453E+03  0.72662007194E+02  0.54142154140E+03  0.10566000000E+00 0. -1.
         -4    1    4    4    0  501 -0.97082852081E+03  0.48619789730E+02  0.13740421146E+04  0.16831112956E+04  0.00000000000E+00 0. -1.
<mgrwt>
<rscale>  2 0.16949542E+04</rscale>
<asrwt>0</asrwt>
<pdfrwt beam="1">  1        1 0.55471795E+00 0.16949542E+04</pdfrwt>
<pdfrwt beam="2">  1       -1 0.12263549E+00 0.16949542E+04</pdfrwt>
<totfact> 0.57254804E-02</totfact>
</mgrwt>
</event>
<event>
 8    1  0.7046235E-006  0.1273140E+04  0.7818608E-02  0.8553432E-01
          2   -1    0    0  502    0  0.00000000000E+00  0.00000000000E+00  0.27625896083E+04  0.27625896083E+04  0.00000000000E+00 0.  1.
         -2   -1    0    0    0  501 -0.00000000000E+00 -0.00000000000E+00 -0.59139182386E+03  0.59139182386E+03  0.00000000000E+00 0. -1.
    9000010    2    1    2  502    0 -0.68446166969E+03  0.10541238599E+03  0.12614371274E+04  0.18283966330E+04  0.11279233453E+04 0.  0.
   -9000010    2    1    2    0  501  0.68446166969E+03 -0.10541238599E+03  0.90976065705E+03  0.15255847992E+04  0.10100222660E+04 0.  0.
        -13    1    3    3    0    0 -0.43843236193E+02  0.45151180624E+03  0.11120059177E+03  0.46706608023E+03  0.10566000000E+00 0.  1.
          4    1    3    3  502    0 -0.64061843350E+03 -0.34609942024E+03  0.11502365357E+04  0.13613305528E+04  0.00000000000E+00 0.  1.
         13    1    4    4    0    0  0.84282711394E+03 -0.59129154345E+02  0.30426873253E+03  0.89801629921E+03  0.10566000000E+00 0. -1.
         -4    1    4    4    0  501 -0.15836544425E+03 -0.46283231648E+02  0.60549192452E+03  0.62756849995E+03  0.00000000000E+00 0. -1.
<mgrwt>
<rscale>  2 0.12731398E+04</rscale>
<asrwt>0</asrwt>
<pdfrwt beam="1">  1        2 0.42501378E+00 0.12731398E+04</pdfrwt>
<pdfrwt beam="2">  1       -2 0.90983359E-01 0.12731398E+04</pdfrwt>
<totfact> 0.38902779E+00</totfact>
</mgrwt>
</event>
<event>
 8    1  0.7046235E-006  0.1168276E+04  0.7818608E-02  0.8630842E-01
          2   -1    0    0  502    0  0.00000000000E+00  0.00000000000E+00  0.30893936166E+04  0.30893936166E+04  0.00000000000E+00 0.  1.
         -2   -1    0    0    0  501 -0.00000000000E+00 -0.00000000000E+00 -0.44523208750E+03  0.44523208750E+03  0.00000000000E+00 0. -1.
    9000010    2    1    2  502    0  0.69612393472E+03  0.12775625051E+02  0.15131991286E+04  0.19416664525E+04  0.99777014445E+03 0.  0.
   -9000010    2    1    2    0  501 -0.69612393472E+03 -0.12775625051E+02  0.11309624005E+04  0.15929592515E+04  0.87959733776E+03 0.  0.
        -13    1    3    3    0    0 -0.11231711989E+03 -0.24336212862E+03  0.85941823073E+02  0.28147161346E+03  0.10566000000E+00 0.  1.
          4    1    3    3  502    0  0.80844105461E+03  0.25613775367E+03  0.14272573055E+04  0.16601948391E+04  0.00000000000E+00 0.  1.
         13    1    4    4    0    0 -0.22916463431E+03 -0.13929993659E+03 -0.87394464983E+02  0.28206152809E+03  0.10566000000E+00 0. -1.
         -4    1    4    4    0  501 -0.46695930040E+03  0.12652431154E+03  0.12183568655E+04  0.13108977234E+04  0.00000000000E+00 0. -1.
<mgrwt>
<rscale>  2 0.11682764E+04</rscale>
<asrwt>0</asrwt>
<pdfrwt beam="1">  1        2 0.47529131E+00 0.11682764E+04</pdfrwt>
<pdfrwt beam="2">  1       -2 0.68497246E-01 0.11682764E+04</pdfrwt>
<totfact> 0.46321162E+00</totfact>
</mgrwt>
</event>
<event>
 8    1  0.7046235E-006  0.1241333E+04  0.7818608E-02  0.8576071E-01
         -2   -1    0    0    0  501 -0.00000000000E+00  0.00000000000E+00  0.67981016066E+03  0.67981016066E+03  0.00000000000E+00 0.  1.
          2   -1    0    0  502    0  0.00000000000E+00 -0.00000000000E+00 -0.27530103963E+04  0.27530103963E+04  0.00000000000E+00 0. -1.
    9000010    2    1    2  502    0  0.10964841979E+03  0.73883137011E+03 -0.31202836732E+03  0.12754687507E+04  0.98567959432E+03 0.  0.
   -9000010    2    1    2    0  501 -0.10964841979E+03 -0.73883137011E+03 -0.17611718683E+04  0.21573518062E+04  0.99726921974E+03 0.  0.
        -13    1    3    3    0    0  0.26167814473E+03  0.93874679495E+03 -0.17755583651E+03  0.99057916529E+03  0.10566000000E+00 0.  1.
          4    1    3    3  502    0 -0.15202972494E+03 -0.19991542484E+03 -0.13447253081E+03  0.28488958545E+03  0.00000000000E+00 0.  1.
         13    1    4    4    0    0  0.12254080451E+03 -0.89282702106E+02 -0.13412404457E+04  0.13497827951E+04  0.10566000000E+00 0. -1.
         -4    1    4    4    0  501 -0.23218922430E+03 -0.64954866801E+03 -0.41993142262E+03  0.80756901110E+03  0.00000000000E+00 0. -1.
<mgrwt>
<rscale>  2 0.12413327E+04</rscale>
<asrwt>0</asrwt>
<pdfrwt beam="2">  1        2 0.42354007E+00 0.12413327E+04</pdfrwt>
<pdfrwt beam="1">  1       -2 0.10458618E+00 0.12413327E+04</pdfrwt>
<totfact> 0.28377965E+00</totfact>
</mgrwt>
</event>
<event>
 8    1  0.7046235E-006  0.1163624E+04  0.7818608E-02  0.8634470E-01
          4   -1    0    0  502    0  0.00000000000E+00  0.00000000000E+00  0.18297320163E+04  0.18297320163E+04  0.00000000000E+00 0.  1.
         -4   -1    0    0    0  501 -0.00000000000E+00 -0.00000000000E+00 -0.11223928526E+04  0.11223928526E+04  0.00000000000E+00 0. -1.
    9000010    2    1    2  502    0 -0.30977495961E+03  0.45452027974E+03  0.12119233397E+04  0.16695064928E+04  0.10079407413E+04 0.  0.
   -9000010    2    1    2    0  501  0.30977495961E+03 -0.45452027974E+03 -0.50458417597E+03  0.12826183760E+04  0.10430510523E+04 0.  0.
        -13    1    3    3    0    0  0.33054676110E+03 -0.44059908450E+02  0.41143650996E+03  0.52960593813E+03  0.10566000000E+00 0.  1.
          4    1    3    3  502    0 -0.64032172071E+03  0.49858018819E+03  0.80048682971E+03  0.11399005547E+04  0.00000000000E+00 0.  1.
         13    1    4    4    0    0 -0.14030403606E+03  0.27477047608E+03 -0.22254738052E+03  0.38040949620E+03  0.10566000000E+00 0. -1.
         -4    1    4    4    0  501  0.45007899566E+03 -0.72929075582E+03 -0.28203679545E+03  0.90220887984E+03  0.00000000000E+00 0. -1.
<mgrwt>
<rscale>  2 0.11636239E+04</rscale>
<asrwt>0</asrwt>
<pdfrwt beam="1">  1        4 0.28149723E+00 0.11636239E+04</pdfrwt>
<pdfrwt beam="2">  1       -4 0.17267582E+00 0.11636239E+04</pdfrwt>
<totfact> 0.13900985E-01</totfact>
</mgrwt>
</event>
<event>
 8    1  0.7046235E-006  0.1080309E+04  0.7818608E-02  0.8702591E-01
          1   -1    0    0  502    0  0.00000000000E+00  0.00000000000E+00  0.24658101809E+04  0.24658101809E+04  0.00000000000E+00 0. -1.
         -1   -1    0    0    0  501 -0.00000000000E+00 -0.00000000000E+00 -0.49497613745E+03  0.49497613745E+03  0.00000000000E+00 0.  1.
    9000010    2    1    2  502    0  0.48776586402E+03 -0.28933068825E+03  0.13387131958E+04  0.17626343425E+04  0.99654353609E+03 0.  0.
   -9000010    2    1    2    0  501 -0.48776586402E+03  0.28933068825E+03  0.63212084764E+03  0.11981519759E+04  0.84520033485E+03 0.  0.
        -13    1    3    3    0    0  0.38432748973E+03 -0.59588076996E+03  0.12328622407E+04  0.14222274175E+04  0.10566000000E+00 0.  1.
          4    1    3    3  502    0  0.10343837430E+03  0.30655008172E+03  0.10585095514E+03  0.34040692499E+03  0.00000000000E+00 0.  1.
         13    1    4    4    0    0 -0.65751833279E+03  0.18667169708E+03  0.18362288835E+03  0.70773869241E+03  0.10566000000E+00 0. -1.
         -4    1    4    4    0  501  0.16975246877E+03  0.10265899117E+03  0.44849795929E+03  0.49041328347E+03  0.00000000000E+00 0. -1.
<mgrwt>
<rscale>  2 0.10803088E+04</rscale>
<asrwt>0</asrwt>
<pdfrwt beam="1">  1        1 0.37935540E+00 0.10803088E+04</pdfrwt>
<pdfrwt beam="2">  1       -1 0.76150177E-01 0.10803088E+04</pdfrwt>
<totfact> 0.27689277E+00</totfact>
</mgrwt>
</event>
<event>
 8    1  0.7046235E-006  0.1308203E+04  0.7818608E-02  0.8529253E-01
         -2   -1    0    0    0  501 -0.00000000000E+00  0.00000000000E+00  0.54576103799E+03  0.54576103799E+03  0.00000000000E+00 0. -1.
          2   -1    0    0  502    0  0.00000000000E+00 -0.00000000000E+00 -0.32118211823E+04  0.32118211823E+04  0.00000000000E+00 0.  1.
    9000010    2    1    2  502    0  0.52966007080E+03 -0.66342507095E+03 -0.10579806014E+04  0.16929908787E+04  0.10130264296E+04 0.  0.
   -9000010    2    1    2    0  501 -0.52966007080E+03  0.66342507095E+03 -0.16080795429E+04  0.20645913416E+04  0.97772438654E+03 0.  0.
        -13    1    3    3    0    0  0.34250698592E+03  0.20960203749E+03 -0.17755261532E+03  0.43905465707E+03  0.10566000000E+00 0.  1.
          4    1    3    3  502    0  0.18715308488E+03 -0.87302710845E+03 -0.88042798609E+03  0.12539362216E+04  0.00000000000E+00 0.  1.
         13    1    4    4    0    0 -0.77459540052E+03  0.34918183626E+03 -0.81645470461E+03  0.11783566035E+04  0.10566000000E+00 0. -1.
         -4    1    4    4    0  501  0.24493532971E+03  0.31424323469E+03 -0.79162483827E+03  0.88623473801E+03  0.00000000000E+00 0. -1.
<mgrwt>
<rscale>  2 0.13082032E+04</rscale>
<asrwt>0</asrwt>
<pdfrwt beam="2">  1        2 0.49412634E+00 0.13082032E+04</pdfrwt>
<pdfrwt beam="1">  1       -2 0.83963237E-01 0.13082032E+04</pdfrwt>
<totfact> 0.24549996E+00</totfact>
</mgrwt>
</event>
<event>
 8    1  0.7046235E-006  0.1354180E+04  0.7818608E-02  0.8498706E-01
          1   -1    0    0  502    0  0.00000000000E+00  0.00000000000E+00  0.23875464402E+04  0.23875464402E+04  0.00000000000E+00 0. -1.
         -1   -1    0    0    0  501 -0.00000000000E+00 -0.00000000000E+00 -0.77325579244E+03  0.77325579244E+03  0.00000000000E+00 0.  1.
    9000010    2    1    2  502    0 -0.74274396871E+03  0.54253673519E+03  0.67507214010E+03  0.15089467445E+04  0.98751363098E+03 0.  0.
   -9000010    2    1    2    0  501  0.74274396871E+03 -0.54253673519E+03  0.93921850768E+03  0.16518554881E+04  0.10002401894E+04 0.  0.
        -13    1    3    3    0    0 -0.75740384938E+03  0.63614366542E+03  0.85381015771E+03  0.13066488245E+04  0.10566000000E+00 0.  1.
          4    1    3    3  502    0  0.14659880664E+02 -0.93606930230E+02 -0.17873801761E+03  0.20229791998E+03  0.00000000000E+00 0.  1.
         13    1    4    4    0    0  0.60476608918E+03 -0.42298268457E+03  0.45205474747E+02  0.73939158785E+03  0.10566000000E+00 0. -1.
         -4    1    4    4    0  501  0.13797787953E+03 -0.11955405063E+03  0.89401303294E+03  0.91246390028E+03  0.00000000000E+00 0. -1.
<mgrwt>
<rscale>  2 0.13541798E+04</rscale>
<asrwt>0</asrwt>
<pdfrwt beam="1">  1        1 0.36731483E+00 0.13541798E+04</pdfrwt>
<pdfrwt beam="2">  1       -1 0.11896243E+00 0.13541798E+04</pdfrwt>
<totfact> 0.12078141E+00</totfact>
</mgrwt>
</event>
<event>
 8    1  0.7046235E-006  0.1240621E+04  0.7818608E-02  0.8576586E-01
          1   -1    0    0  502    0  0.00000000000E+00  0.00000000000E+00  0.74589001006E+03  0.74589001006E+03  0.00000000000E+00 0. -1.
         -1   -1    0    0    0  501 -0.00000000000E+00 -0.00000000000E+00 -0.28622026560E+04  0.28622026560E+04  0.00000000000E+00 0.  1.
    9000010    2    1    2  502    0 -0.59301685975E+03  0.43903978032E+03 -0.10478471364E+03  0.12444295773E+04  0.99659430665E+03 0.  0.
   -9000010    2    1    2    0  501  0.59301685975E+03 -0.43903978032E+03 -0.20115279323E+04  0.23636630887E+04  0.99811504845E+03 0.  0.
        -13    1    3    3    0    0 -0.15067371262E+02  0.18652165303E+03 -0.47678296130E+03  0.51219074189E+03  0.10566000000E+00 0.  1.
          4    1    3    3  502    0 -0.57794948848E+03  0.25251812729E+03  0.37199824767E+03  0.73223883543E+03  0.00000000000E+00 0.  1.
         13    1    4    4    0    0 -0.64767693651E+02  0.67463608365E+02  0.73813961888E+02  0.11914153234E+03  0.10566000000E+00 0. -1.
         -4    1    4    4    0  501  0.65778455340E+03 -0.50650338869E+03 -0.20853418942E+04  0.22445215564E+04  0.00000000000E+00 0. -1.
<mgrwt>
<rscale>  2 0.12406213E+04</rscale>
<asrwt>0</asrwt>
<pdfrwt beam="1">  1        1 0.11475231E+00 0.12406213E+04</pdfrwt>
<pdfrwt beam="2">  1       -1 0.44033887E+00 0.12406213E+04</pdfrwt>
<totfact> 0.38139600E-01</totfact>
</mgrwt>
</event>
<event>
 8    1  0.7046235E-006  0.1456626E+04  0.7818608E-02  0.8434907E-01
          2   -1    0    0  502    0  0.00000000000E+00  0.00000000000E+00  0.27783280590E+04  0.27783280590E+04  0.00000000000E+00 0.  1.
         -2   -1    0    0    0  501 -0.00000000000E+00 -0.00000000000E+00 -0.83839425398E+03  0.83839425398E+03  0.00000000000E+00 0. -1.
    9000010    2    1    2  502    0 -0.89873203455E+03 -0.54491586479E+03  0.43016365981E+03  0.15188552083E+04  0.10085771165E+04 0.  0.
   -9000010    2    1    2    0  501  0.89873203455E+03  0.54491586479E+03  0.15097701452E+04  0.20978671047E+04  0.10084581934E+04 0.  0.
        -13    1    3    3    0    0 -0.24383422551E+03  0.88271259282E+02 -0.26665588532E+03  0.37195741300E+03  0.10566000000E+00 0.  1.
          4    1    3    3  502    0 -0.65489780904E+03 -0.63318712407E+03  0.69681954513E+03  0.11468977953E+04  0.00000000000E+00 0.  1.
         13    1    4    4    0    0  0.80186652357E+03  0.65663186742E+02  0.13709593630E+04  0.15896009442E+04  0.10566000000E+00 0. -1.
         -4    1    4    4    0  501  0.96865510980E+02  0.47925267804E+03  0.13881078225E+03  0.50826616049E+03  0.00000000000E+00 0. -1.
<mgrwt>
<rscale>  2 0.14566264E+04</rscale>
<asrwt>0</asrwt>
<pdfrwt beam="1">  1        2 0.42743508E+00 0.14566264E+04</pdfrwt>
<pdfrwt beam="2">  1       -2 0.12898373E+00 0.14566264E+04</pdfrwt>
<totfact> 0.15502961E+00</totfact>
</mgrwt>
</event>
<event>
 8    1  0.7046235E-006  0.1223257E+04  0.7818608E-02  0.8589252E-01
         -2   -1    0    0    0  501 -0.00000000000E+00  0.00000000000E+00  0.85547003096E+03  0.85547003096E+03  0.00000000000E+00 0.  1.
          2   -1    0    0  502    0  0.00000000000E+00 -0.00000000000E+00 -0.17511029282E+04  0.17511029282E+04  0.00000000000E+00 0. -1.
    9000010    2    1    2  502    0  0.25260807474E+03 -0.65160101373E+03 -0.40330914196E+03  0.12845882509E+04  0.99955689682E+03 0.  0.
   -9000010    2    1    2    0  501 -0.25260807474E+03  0.65160101373E+03 -0.49232375532E+03  0.13219847082E+04  0.10083978224E+04 0.  0.
        -13    1    3    3    0    0 -0.11936234339E+03 -0.61708941276E+03  0.12173628536E+03  0.64020812764E+03  0.10566000000E+00 0.  1.
          4    1    3    3  502    0  0.37197041812E+03 -0.34511600970E+02 -0.52504542732E+03  0.64438012331E+03  0.00000000000E+00 0.  1.
         13    1    4    4    0    0  0.14637640483E+03  0.22836958298E+02  0.23710599649E+03  0.27958333872E+03  0.10566000000E+00 0. -1.
         -4    1    4    4    0  501 -0.39898447957E+03  0.62876405543E+03 -0.72942975180E+03  0.10424013695E+04  0.00000000000E+00 0. -1.
<mgrwt>
<rscale>  2 0.12232573E+04</rscale>
<asrwt>0</asrwt>
<pdfrwt beam="2">  1        2 0.26940044E+00 0.12232573E+04</pdfrwt>
<pdfrwt beam="1">  1       -2 0.13161078E+00 0.12232573E+04</pdfrwt>
<totfact> 0.56062129E+00</totfact>
</mgrwt>
</event>
<event>
 8    1  0.7046235E-006  0.1076302E+04  0.7818608E-02  0.8706027E-01
          2   -1    0    0  502    0  0.00000000000E+00  0.00000000000E+00  0.29320684337E+04  0.29320684337E+04  0.00000000000E+00 0. -1.
         -2   -1    0    0    0  501 -0.00000000000E+00 -0.00000000000E+00 -0.40503706356E+03  0.40503706356E+03  0.00000000000E+00 0.  1.
    9000010    2    1    2  502    0  0.30740036962E+03  0.61801873726E+01  0.15274818790E+04  0.18698439604E+04  0.10337225758E+04 0.  0.
   -9000010    2    1    2    0  501 -0.30740036962E+03 -0.61801873726E+01  0.99954949113E+03  0.14672615368E+04  0.10291861106E+04 0.  0.
        -13    1    3    3    0    0  0.22997415392E+03 -0.26797167893E+03  0.40062207078E+02  0.35538981947E+03  0.10566000000E+00 0.  1.
          4    1    3    3  502    0  0.77426215697E+02  0.27415186631E+03  0.14874196719E+04  0.15144541410E+04  0.00000000000E+00 0.  1.
         13    1    4    4    0    0  0.21475889315E+03 -0.36804724161E+03  0.29321078176E+03  0.51725499316E+03  0.10566000000E+00 0. -1.
         -4    1    4    4    0  501 -0.52215926277E+03  0.36186705424E+03  0.70633870937E+03  0.95000654366E+03  0.00000000000E+00 0. -1.
<mgrwt>
<rscale>  2 0.10763024E+04</rscale>
<asrwt>0</asrwt>
<pdfrwt beam="1">  1        2 0.45108744E+00 0.10763024E+04</pdfrwt>
<pdfrwt beam="2">  1       -2 0.62313396E-01 0.10763024E+04</pdfrwt>
<totfact> 0.71278861E+00</totfact>
</mgrwt>
</event>
<event>
 8    1  0.7046235E-006  0.1345451E+04  0.7818608E-02  0.8504409E-01
          4   -1    0    0  502    0  0.00000000000E+00  0.00000000000E+00  0.22209878959E+04  0.22209878959E+04  0.00000000000E+00 0.  1.
         -4   -1    0    0    0  501 -0.00000000000E+00 -0.00000000000E+00 -0.16912985103E+04  0.16912985103E+04  0.00000000000E+00 0. -1.
    9000010    2    1    2  502    0  0.81134165415E+03 -0.36090094483E+03  0.16718543339E+04  0.21398659020E+04  0.99769955060E+03 0.  0.
   -9000010    2    1    2    0  501 -0.81134165415E+03  0.36090094483E+03 -0.11421649484E+04  0.17724205042E+04  0.10239184063E+04 0.  0.
        -13    1    3    3    0    0  0.82213301572E+03 -0.40420686787E+03  0.17915080171E+04  0.20121597536E+04  0.10566000000E+00 0.  1.
          4    1    3    3  502    0 -0.10791361567E+02  0.43305923041E+02 -0.11965368318E+03  0.12770614846E+03  0.00000000000E+00 0.  1.
         13    1    4    4    0    0 -0.76450062172E+03  0.57738488912E+03 -0.12075931629E+04  0.15414654615E+04  0.10566000000E+00 0. -1.
         -4    1    4    4    0  501 -0.46841032439E+02 -0.21648394430E+03  0.65428214586E+02  0.23095504264E+03  0.00000000000E+00 0. -1.
<mgrwt>
<rscale>  2 0.13454506E+04</rscale>
<asrwt>0</asrwt>
<pdfrwt beam="1">  1        4 0.34169045E+00 0.13454506E+04</pdfrwt>
<pdfrwt beam="2">  1       -4 0.26019977E+00 0.13454506E+04</pdfrwt>
<totfact> 0.53758439E-02</totfact>
</mgrwt>
</event>
<event>
 8    1  0.7046235E-006  0.1014161E+04  0.7818608E-02  0.8761399E-01
          1   -1    0    0  502    0  0.00000000000E+00  0.00000000000E+00  0.65407077211E+03  0.65407077211E+03  0.00000000000E+00 0. -1.
         -1   -1    0    0    0  501 -0.00000000000E+00 -0.00000000000E+00 -0.15775259716E+04  0.15775259716E+04  0.00000000000E+00 0.  1.
    9000010    2    1    2  502    0 -0.13044606546E+03  0.89665565020E+02 -0.52690344413E+03  0.11476365323E+04  0.10071674544E+04 0.  0.
   -9000010    2    1    2    0  501  0.13044606546E+03 -0.89665565020E+02 -0.39655175540E+03  0.10839602115E+04  0.99632341928E+03 0.  0.
        -13    1    3    3    0    0  0.29187509387E+03  0.23306804426E+03 -0.58888116878E+03  0.69734699095E+03  0.10566000000E+00 0.  1.
          4    1    3    3  502    0 -0.42232115934E+03 -0.14340247924E+03  0.61977724650E+02  0.45028954133E+03  0.00000000000E+00 0.  1.
         13    1    4    4    0    0  0.33739685796E+03 -0.30352340872E+03 -0.57840606913E+03  0.73519840272E+03  0.10566000000E+00 0. -1.
         -4    1    4    4    0  501 -0.20695079249E+03  0.21385784370E+03  0.18185431372E+03  0.34876180875E+03  0.00000000000E+00 0. -1.
<mgrwt>
<rscale>  2 0.10141608E+04</rscale>
<asrwt>0</asrwt>
<pdfrwt beam="1">  1        1 0.10062627E+00 0.10141608E+04</pdfrwt>
<pdfrwt beam="2">  1       -1 0.24269630E+00 0.10141608E+04</pdfrwt>
<totfact> 0.23863491E+00</totfact>
</mgrwt>
</event>
<event>
 8    1  0.7046235E-006  0.1208064E+04  0.7818608E-02  0.8600514E-01
          2   -1    0    0  502    0  0.00000000000E+00  0.00000000000E+00  0.17914003654E+04  0.17914003654E+04  0.00000000000E+00 0. -1.
         -2   -1    0    0    0  501 -0.00000000000E+00 -0.00000000000E+00 -0.84171224567E+03  0.84171224567E+03  0.00000000000E+00 0.  1.
    9000010    2    1    2  502    0 -0.39970907633E+03  0.54570160636E+03  0.24297451122E+03  0.12421230148E+04  0.10130525070E+04 0.  0.
   -9000010    2    1    2    0  501  0.39970907633E+03 -0.54570160636E+03  0.70671360851E+03  0.13909895963E+04  0.98886315719E+03 0.  0.
        -13    1    3    3    0    0 -0.73255482179E+03  0.46201396795E+03  0.24072011799E+03  0.89891026242E+03  0.10566000000E+00 0.  1.
          4    1    3    3  502    0  0.33284574546E+03  0.83687638405E+02  0.22543932302E+01  0.34321275236E+03  0.00000000000E+00 0.  1.
         13    1    4    4    0    0  0.25602477380E+03 -0.70282886274E+03  0.85159029743E+03  0.11334562810E+04  0.10566000000E+00 0. -1.
         -4    1    4    4    0  501  0.14368430253E+03  0.15712725638E+03 -0.14487668892E+03  0.25753331529E+03  0.00000000000E+00 0. -1.
<mgrwt>
<rscale>  2 0.12080644E+04</rscale>
<asrwt>0</asrwt>
<pdfrwt beam="1">  1        2 0.27560006E+00 0.12080644E+04</pdfrwt>
<pdfrwt beam="2">  1       -2 0.12949419E+00 0.12080644E+04</pdfrwt>
<totfact> 0.55867288E+00</totfact>
</mgrwt>
</event>
<event>
 8    1  0.7046235E-006  0.1410950E+04  0.7818608E-02  0.8462665E-01
          1   -1    0    0  502    0  0.00000000000E+00  0.00000000000E+00  0.68160093605E+03  0.68160093605E+03  0.00000000000E+00 0.  1.
         -1   -1    0    0    0  501 -0.00000000000E+00 -0.00000000000E+00 -0.29209900426E+04  0.29209900426E+04  0.00000000000E+00 0. -1.
    9000010    2    1    2  502    0  0.97813797775E+03 -0.51291695527E+02 -0.11391685468E+04  0.18178690112E+04  0.10235028198E+04 0.  0.
   -9000010    2    1    2    0  501 -0.97813797775E+03  0.51291695527E+02 -0.11002205598E+04  0.17847219675E+04  0.10076519635E+04 0.  0.
        -13    1    3    3    0    0  0.22803724712E+02  0.25314505075E+03 -0.65867783317E+03  0.70601623611E+03  0.10566000000E+00 0.  1.
          4    1    3    3  502    0  0.95533425304E+03 -0.30443674627E+03 -0.48049071363E+03  0.11118527751E+04  0.00000000000E+00 0.  1.
         13    1    4    4    0    0 -0.33094852998E+03  0.31115264370E+03 -0.97573142139E+03  0.10762874686E+04  0.10566000000E+00 0. -1.
         -4    1    4    4    0  501 -0.64718944777E+03 -0.25986094817E+03 -0.12448913837E+03  0.70843449892E+03  0.00000000000E+00 0. -1.
<mgrwt>
<rscale>  2 0.14109500E+04</rscale>
<asrwt>0</asrwt>
<pdfrwt beam="1">  1        1 0.10486168E+00 0.14109500E+04</pdfrwt>
<pdfrwt beam="2">  1       -1 0.44938308E+00 0.14109500E+04</pdfrwt>
<totfact> 0.42414570E-01</totfact>
</mgrwt>
</event>
<event>
 8    1  0.7046235E-006  0.1098362E+04  0.7818608E-02  0.8687299E-01
         -2   -1    0    0    0  501 -0.00000000000E+00  0.00000000000E+00  0.57814743544E+03  0.57814743544E+03  0.00000000000E+00 0.  1.
          2   -1    0    0  502    0  0.00000000000E+00 -0.00000000000E+00 -0.22111063249E+04  0.22111063249E+04  0.00000000000E+00 0. -1.
    9000010    2    1    2  502    0 -0.34552133665E+03  0.33464405556E+03 -0.11556325817E+04  0.16029124697E+04  0.10012342800E+04 0.  0.
   -9000010    2    1    2    0  501  0.34552133665E+03 -0.33464405556E+03 -0.47732630774E+03  0.11863412907E+04  0.97375233805E+03 0.  0.
        -13    1    3    3    0    0 -0.62135640127E+03  0.46350093864E+03 -0.98652393824E+03  0.12546499071E+04  0.10566000000E+00 0.  1.
          4    1    3    3  502    0  0.27583506462E+03 -0.12885688308E+03 -0.16910864346E+03  0.34826256256E+03  0.00000000000E+00 0.  1.
         13    1    4    4    0    0  0.58806051203E+03 -0.47516599433E+03 -0.49792764607E+03  0.90527887409E+03  0.10566000000E+00 0. -1.
         -4    1    4    4    0  501 -0.24253917538E+03  0.14052193877E+03  0.20601338331E+02  0.28106241657E+03  0.00000000000E+00 0. -1.
<mgrwt>
<rscale>  2 0.10983616E+04</rscale>
<asrwt>0</asrwt>
<pdfrwt beam="2">  1        2 0.34017020E+00 0.10983616E+04</pdfrwt>
<pdfrwt beam="1">  1       -2 0.88945761E-01 0.10983616E+04</pdfrwt>
<totfact> 0.85410557E+00</totfact>
</mgrwt>
</event>
<event>
 8    1  0.7046235E-006  0.1083672E+04  0.7818608E-02  0.8699719E-01
         -1   -1    0    0    0  501 -0.00000000000E+00  0.00000000000E+00  0.10230176330E+04  0.10230176330E+04  0.00000000000E+00 0. -1.
          1   -1    0    0  502    0  0.00000000000E+00 -0.00000000000E+00 -0.11645138035E+04  0.11645138035E+04  0.00000000000E+00 0.  1.
    9000010    2    1    2  502    0 -0.87053688002E+02  0.41034179479E+03 -0.20115219201E+03  0.11001464567E+04  0.99694598082E+03 0.  0.
   -9000010    2    1    2    0  501  0.87053688002E+02 -0.41034179479E+03  0.59656021542E+02  0.10873849798E+04  0.10014432187E+04 0.  0.
        -13    1    3    3    0    0 -0.86414003802E+02  0.59298043333E+03 -0.47933279835E+03  0.76736765445E+03  0.10566000000E+00 0.  1.
          4    1    3    3  502    0 -0.63968420003E+00 -0.18263863853E+03  0.27818060634E+03  0.33277880225E+03  0.00000000000E+00 0.  1.
         13    1    4    4    0    0  0.30868141446E+03 -0.22321306934E+03  0.45730987246E+03  0.59518116618E+03  0.10566000000E+00 0. -1.
         -4    1    4    4    0  501 -0.22162772646E+03 -0.18712872546E+03 -0.39765385092E+03  0.49220381366E+03  0.00000000000E+00 0. -1.
<mgrwt>
<rscale>  2 0.10836720E+04</rscale>
<asrwt>0</asrwt>
<pdfrwt beam="2">  1        1 0.17915597E+00 0.10836720E+04</pdfrwt>
<pdfrwt beam="1">  1       -1 0.15738733E+00 0.10836720E+04</pdfrwt>
<totfact> 0.50445789E+00</totfact>
</mgrwt>
</event>
<event>
 8    1  0.7046235E-006  0.1244912E+04  0.7818608E-02  0.8573488E-01
         -1   -1    0    0    0  501 -0.00000000000E+00  0.00000000000E+00  0.10579139906E+04  0.10579139906E+04  0.00000000000E+00 0.  1.
          1   -1    0    0  502    0  0.00000000000E+00 -0.00000000000E+00 -0.22571386707E+04  0.22571386707E+04  0.00000000000E+00 0. -1.
    9000010    2    1    2  502    0 -0.49413912678E+03 -0.62282045204E+03  0.38670350875E+03  0.12898488516E+04  0.93919735100E+03 0.  0.
   -9000010    2    1    2    0  501  0.49413912678E+03  0.62282045204E+03 -0.15859281889E+04  0.20252038097E+04  0.97683338317E+03 0.  0.
        -13    1    3    3    0    0 -0.86655452858E+02 -0.76517831012E+03  0.11189336827E+03  0.77815625090E+03  0.10566000000E+00 0.  1.
          4    1    3    3  502    0 -0.40748367392E+03  0.14235785808E+03  0.27481014048E+03  0.51169260067E+03  0.00000000000E+00 0.  1.
         13    1    4    4    0    0  0.12365741976E+01  0.61792065354E+03 -0.13372209187E+04  0.14730876620E+04  0.10566000000E+00 0. -1.
         -4    1    4    4    0  501  0.49290255258E+03  0.48997984998E+01 -0.24870727016E+03  0.55211614774E+03  0.00000000000E+00 0. -1.
<mgrwt>
<rscale>  2 0.12449124E+04</rscale>
<asrwt>0</asrwt>
<pdfrwt beam="2">  1        1 0.34725210E+00 0.12449124E+04</pdfrwt>
<pdfrwt beam="1">  1       -1 0.16275600E+00 0.12449124E+04</pdfrwt>
<totfact> 0.65598510E-01</totfact>
</mgrwt>
</event>
<event>
 8    1  0.7046235E-006  0.1618130E+04  0.7818608E-02  0.8344581E-01
          1   -1    0    0  502    0  0.00000000000E+00  0.00000000000E+00  0.23702015607E+04  0.23702015607E+04  0.00000000000E+00 0.  1.
         -1   -1    0    0    0  501 -0.00000000000E+00 -0.00000000000E+00 -0.11192626737E+04  0.11192626737E+04  0.00000000000E+00 0. -1.
    9000010    2    1    2  502    0  0.12704816353E+04 -0.34052583734E+02  0.83150793868E+03  0.18389841673E+04  0.10369060475E+04 0.  0.
   -9000010    2    1    2    0  501 -0.12704816353E+04  0.34052583734E+02  0.41943094825E+03  0.16504800671E+04  0.96585659782E+03 0.  0.
        -13    1    3    3    0    0  0.72501237749E+03 -0.53000635230E+03  0.38535739246E+03  0.97726660235E+03  0.10566000000E+00 0.  1.
          4    1    3    3  502    0  0.54546925781E+03  0.49595376857E+03  0.44615054622E+03  0.86171756491E+03  0.00000000000E+00 0.  1.
         13    1    4    4    0    0 -0.63975011472E+03  0.13150159974E+03  0.69640711075E+03  0.95475429043E+03  0.10566000000E+00 0. -1.
         -4    1    4    4    0  501 -0.63073152058E+03 -0.97449016006E+02 -0.27697616250E+03  0.69572577670E+03  0.00000000000E+00 0. -1.
<mgrwt>
<rscale>  2 0.16181296E+04</rscale>
<asrwt>0</asrwt>
<pdfrwt beam="1">  1        1 0.36464639E+00 0.16181296E+04</pdfrwt>
<pdfrwt beam="2">  1       -1 0.17219426E+00 0.16181296E+04</pdfrwt>
<totfact> 0.41358283E-01</totfact>
</mgrwt>
</event>
<event>
 8    1  0.7046235E-006  0.1687939E+04  0.7818608E-02  0.8308854E-01
          2   -1    0    0  502    0  0.00000000000E+00  0.00000000000E+00  0.25863050572E+04  0.25863050572E+04  0.00000000000E+00 0. -1.
         -2   -1    0    0    0  501 -0.00000000000E+00 -0.00000000000E+00 -0.12186038349E+04  0.12186038349E+04  0.00000000000E+00 0.  1.
    9000010    2    1    2  502    0 -0.63060608227E+02 -0.13415779264E+04  0.12794721845E+04  0.21323617903E+04  0.10517175290E+04 0.  0.
   -9000010    2    1    2    0  501  0.63060608227E+02  0.13415779264E+04  0.88229037759E+02  0.16725471018E+04  0.99288542739E+03 0.  0.
        -13    1    3    3    0    0 -0.74843846509E+02  0.11762768608E+02 -0.14740045628E+03  0.16573131799E+03  0.10566000000E+00 0.  1.
          4    1    3    3  502    0  0.11783238282E+02 -0.13533406950E+04  0.14268726408E+04  0.19666304723E+04  0.00000000000E+00 0.  1.
         13    1    4    4    0    0 -0.39547219615E+03  0.32810449944E+03 -0.14926877713E+03  0.53509999016E+03  0.10566000000E+00 0. -1.
         -4    1    4    4    0  501  0.45853280437E+03  0.10134734269E+04  0.23749781489E+03  0.11374471117E+04  0.00000000000E+00 0. -1.
<mgrwt>
<rscale>  2 0.16879392E+04</rscale>
<asrwt>0</asrwt>
<pdfrwt beam="1">  1        2 0.39789309E+00 0.16879392E+04</pdfrwt>
<pdfrwt beam="2">  1       -2 0.18747751E+00 0.16879392E+04</pdfrwt>
<totfact> 0.60414209E-01</totfact>
</mgrwt>
</event>
<event>
 8    1  0.7046235E-006  0.1364734E+04  0.7818608E-02  0.8491870E-01
         -4   -1    0    0    0  501 -0.00000000000E+00  0.00000000000E+00  0.56610251190E+03  0.56610251190E+03  0.00000000000E+00 0. -1.
          4   -1    0    0  502    0  0.00000000000E+00 -0.00000000000E+00 -0.34934780156E+04  0.34934780156E+04  0.00000000000E+00 0.  1.
    9000010    2    1    2  502    0  0.61460439323E+03 -0.70615761088E+03 -0.96925730330E+03  0.16701576544E+04  0.98669637636E+03 0.  0.
   -9000010    2    1    2    0  501 -0.61460439323E+03  0.70615761088E+03 -0.19581182004E+04  0.23894228731E+04  0.99935861832E+03 0.  0.
        -13    1    3    3    0    0 -0.16649212505E+03 -0.13746022046E+03  0.92238369268E+02  0.23478259697E+03  0.10566000000E+00 0.  1.
          4    1    3    3  502    0  0.78109651827E+03 -0.56869739041E+03 -0.10614956726E+04  0.14353750575E+04  0.00000000000E+00 0.  1.
         13    1    4    4    0    0 -0.81941954823E+03  0.23152423271E+03 -0.11758912999E+04  0.14518168709E+04  0.10566000000E+00 0. -1.
         -4    1    4    4    0  501  0.20481515500E+03  0.47463337817E+03 -0.78222690052E+03  0.93760600216E+03  0.00000000000E+00 0. -1.
<mgrwt>
<rscale>  2 0.13647338E+04</rscale>
<asrwt>0</asrwt>
<pdfrwt beam="2">  1        4 0.53745817E+00 0.13647338E+04</pdfrwt>
<pdfrwt beam="1">  1       -4 0.87092691E-01 0.13647338E+04</pdfrwt>
<totfact> 0.42618602E-02</totfact>
</mgrwt>
</event>
<event>
 8    1  0.7046235E-006  0.1199260E+04  0.7818608E-02  0.8607120E-01
         -2   -1    0    0    0  501 -0.00000000000E+00  0.00000000000E+00  0.44620867833E+04  0.44620867833E+04  0.00000000000E+00 0. -1.
          2   -1    0    0  502    0  0.00000000000E+00 -0.00000000000E+00 -0.32305291978E+03  0.32305291978E+03  0.00000000000E+00 0.  1.
    9000010    2    1    2  502    0 -0.68162118458E+03 -0.29070355617E+03  0.22173447865E+04  0.25429050392E+04  0.10003160196E+04 0.  0.
   -9000010    2    1    2    0  501  0.68162118458E+03  0.29070355617E+03  0.19216890770E+04  0.22422346639E+04  0.88634721330E+03 0.  0.
        -13    1    3    3    0    0 -0.45959555419E+03 -0.42239486984E+03  0.48249064322E+03  0.78895039861E+03  0.10566000000E+00 0.  1.
          4    1    3    3  502    0 -0.22202563039E+03  0.13169131368E+03  0.17348541433E+04  0.17539546406E+04  0.00000000000E+00 0.  1.
         13    1    4    4    0    0  0.19150554287E+03  0.53777506097E+03  0.12546025016E+04  0.13783699929E+04  0.10566000000E+00 0. -1.
         -4    1    4    4    0  501  0.49011564171E+03 -0.24707150480E+03  0.66708657541E+03  0.86386467101E+03  0.00000000000E+00 0. -1.
<mgrwt>
<rscale>  2 0.11992602E+04</rscale>
<asrwt>0</asrwt>
<pdfrwt beam="2">  1        2 0.49700452E-01 0.11992602E+04</pdfrwt>
<pdfrwt beam="1">  1       -2 0.68647484E+00 0.11992602E+04</pdfrwt>
<totfact> 0.25183173E-01</totfact>
</mgrwt>
</event>
<event>
 8    1  0.7046235E-006  0.1082072E+04  0.7818608E-02  0.8701084E-01
         -2   -1    0    0    0  501 -0.00000000000E+00  0.00000000000E+00  0.51390980581E+03  0.51390980581E+03  0.00000000000E+00 0.  1.
          2   -1    0    0  502    0  0.00000000000E+00 -0.00000000000E+00 -0.23122219744E+04  0.23122219744E+04  0.00000000000E+00 0. -1.
    9000010    2    1    2  502    0  0.24693861646E+03 -0.34666152991E+03 -0.72582337309E+03  0.13005162334E+04  0.99165014390E+03 0.  0.
   -9000010    2    1    2    0  501 -0.24693861646E+03  0.34666152991E+03 -0.10724887955E+04  0.15256155467E+04  0.99805695398E+03 0.  0.
        -13    1    3    3    0    0 -0.21844999507E+02 -0.61831462859E+03 -0.19946246049E+03  0.65005804990E+03  0.10566000000E+00 0.  1.
          4    1    3    3  502    0  0.26878361597E+03  0.27165309867E+03 -0.52636091259E+03  0.65045818354E+03  0.00000000000E+00 0.  1.
         13    1    4    4    0    0 -0.30520246501E+03  0.21387773706E+03 -0.12453908876E+04  0.12999579628E+04  0.10566000000E+00 0. -1.
         -4    1    4    4    0  501  0.58263848547E+02  0.13278379285E+03  0.17290209215E+03  0.22565758388E+03  0.00000000000E+00 0. -1.
<mgrwt>
<rscale>  2 0.10820718E+04</rscale>
<asrwt>0</asrwt>
<pdfrwt beam="2">  1        2 0.35572645E+00 0.10820718E+04</pdfrwt>
<pdfrwt beam="1">  1       -2 0.79063048E-01 0.10820718E+04</pdfrwt>
<totfact> 0.97975693E+00</totfact>
</mgrwt>
</event>
<event>
 8    1  0.7046235E-006  0.1238081E+04  0.7818608E-02  0.8578425E-01
         -2   -1    0    0    0  501 -0.00000000000E+00  0.00000000000E+00  0.26607372384E+04  0.26607372384E+04  0.00000000000E+00 0.  1.
          2   -1    0    0  502    0  0.00000000000E+00 -0.00000000000E+00 -0.57757699733E+03  0.57757699733E+03  0.00000000000E+00 0. -1.
    9000010    2    1    2  502    0  0.20168990332E+02 -0.73071066059E+03  0.95258610847E+03  0.15546019075E+04  0.98743199215E+03 0.  0.
   -9000010    2    1    2    0  501 -0.20168990332E+02  0.73071066059E+03  0.11305741326E+04  0.16837123282E+04  0.10111105168E+04 0.  0.
        -13    1    3    3    0    0  0.18376340777E+03 -0.87523013258E+03  0.43837474472E+03  0.99597650725E+03  0.10566000000E+00 0.  1.
          4    1    3    3  502    0 -0.16359441744E+03  0.14451947200E+03  0.51421136376E+03  0.55862540026E+03  0.00000000000E+00 0.  1.
         13    1    4    4    0    0 -0.35389583260E+02  0.53083082959E+03  0.13104861024E+04  0.14143576733E+04  0.10566000000E+00 0. -1.
         -4    1    4    4    0  501  0.15220592927E+02  0.19987983100E+03 -0.17991196976E+03  0.26935465497E+03  0.00000000000E+00 0. -1.
<mgrwt>
<rscale>  2 0.12380814E+04</rscale>
<asrwt>0</asrwt>
<pdfrwt beam="2">  1        2 0.88858001E-01 0.12380814E+04</pdfrwt>
<pdfrwt beam="1">  1       -2 0.40934419E+00 0.12380814E+04</pdfrwt>
<totfact> 0.25674839E-01</totfact>
</mgrwt>
</event>
<event>
 8    1  0.7046235E-006  0.1080038E+04  0.7818608E-02  0.8702823E-01
         -2   -1    0    0    0  501 -0.00000000000E+00  0.00000000000E+00  0.32001378718E+04  0.32001378718E+04  0.00000000000E+00 0. -1.
          2   -1    0    0  502    0  0.00000000000E+00 -0.00000000000E+00 -0.37595059238E+03  0.37595059238E+03  0.00000000000E+00 0.  1.
    9000010    2    1    2  502    0 -0.12974244532E+03 -0.49335859132E+03  0.10879110313E+04  0.15259705274E+04  0.94063799441E+03 0.  0.
   -9000010    2    1    2    0  501  0.12974244532E+03  0.49335859132E+03  0.17362762480E+04  0.20501179368E+04  0.96337559830E+03 0.  0.
        -13    1    3    3    0    0 -0.31820334237E+03  0.14989239556E+03  0.60507469774E+03  0.69988320337E+03  0.10566000000E+00 0.  1.
          4    1    3    3  502    0  0.18846089705E+03 -0.64325098688E+03  0.48283633360E+03  0.82608732401E+03  0.00000000000E+00 0.  1.
         13    1    4    4    0    0 -0.40164981766E+03  0.36243591613E+03  0.92236199085E+03  0.10693147444E+04  0.10566000000E+00 0. -1.
         -4    1    4    4    0  501  0.53139226299E+03  0.13092267519E+03  0.81391425719E+03  0.98080319233E+03  0.00000000000E+00 0. -1.
<mgrwt>
<rscale>  2 0.10800376E+04</rscale>
<asrwt>0</asrwt>
<pdfrwt beam="2">  1        2 0.57838555E-01 0.10800376E+04</pdfrwt>
<pdfrwt beam="1">  1       -2 0.49232889E+00 0.10800376E+04</pdfrwt>
<totfact> 0.31971991E-01</totfact>
</mgrwt>
</event>
<event>
 8    1  0.7046235E-006  0.1012074E+04  0.7818608E-02  0.8763329E-01
         -2   -1    0    0    0  501 -0.00000000000E+00  0.00000000000E+00  0.71352036506E+03  0.71352036506E+03  0.00000000000E+00 0. -1.
          2   -1    0    0  502    0  0.00000000000E+00 -0.00000000000E+00 -0.17260641880E+04  0.17260641880E+04  0.00000000000E+00 0.  1.
    9000010    2    1    2  502    0 -0.83308925032E+02  0.26829579700E+03 -0.99699709150E+03  0.14054429448E+04  0.94991771167E+03 0.  0.
   -9000010    2    1    2    0  501  0.83308925032E+02 -0.26829579700E+03 -0.15546731440E+02  0.10341416083E+04  0.99513021932E+03 0.  0.
        -13    1    3    3    0    0  0.15045214914E+03 -0.11080085251E+02  0.14348499366E+03  0.20819839586E+03  0.10566000000E+00 0.  1.
          4    1    3    3  502    0 -0.23376107417E+03  0.27937588225E+03 -0.11404820852E+04  0.11972445489E+04  0.00000000000E+00 0.  1.
         13    1    4    4    0    0  0.28915738451E+03  0.48129663449E+02 -0.39962636660E+03  0.49561043327E+03  0.10566000000E+00 0. -1.
         -4    1    4    4    0  501 -0.20584845948E+03 -0.31642546045E+03  0.38407963516E+03  0.53853117499E+03  0.00000000000E+00 0. -1.
<mgrwt>
<rscale>  2 0.10120739E+04</rscale>
<asrwt>0</asrwt>
<pdfrwt beam="2">  1        2 0.26554833E+00 0.10120739E+04</pdfrwt>
<pdfrwt beam="1">  1       -2 0.10977236E+00 0.10120739E+04</pdfrwt>
<totfact> 0.95661196E+00</totfact>
</mgrwt>
</event>
<event>
 8    1  0.7046235E-006  0.1309395E+04  0.7818608E-02  0.8528445E-01
         -2   -1    0    0    0  501 -0.00000000000E+00  0.00000000000E+00  0.17416647088E+04  0.17416647088E+04  0.00000000000E+00 0.  1.
          2   -1    0    0  502    0  0.00000000000E+00 -0.00000000000E+00 -0.10050023116E+04  0.10050023116E+04  0.00000000000E+00 0. -1.
    9000010    2    1    2  502    0  0.64141132801E+03  0.55692104093E+03  0.17200510338E+03  0.13215318627E+04  0.99764280732E+03 0.  0.
   -9000010    2    1    2    0  501 -0.64141132801E+03 -0.55692104093E+03  0.56465729386E+03  0.14251351576E+04  0.99529031971E+03 0.  0.
        -13    1    3    3    0    0  0.29460967702E+03 -0.27659393583E+03  0.93416830755E+01  0.40421076846E+03  0.10566000000E+00 0.  1.
          4    1    3    3  502    0  0.34680165100E+03  0.83351497676E+03  0.16266342030E+03  0.91732109423E+03  0.00000000000E+00 0.  1.
         13    1    4    4    0    0 -0.83365666532E+03 -0.13893995688E+03  0.41334112864E+03  0.94081807330E+03  0.10566000000E+00 0. -1.
         -4    1    4    4    0  501  0.19224533730E+03 -0.41798108405E+03  0.15131616522E+03  0.48431708435E+03  0.00000000000E+00 0. -1.
<mgrwt>
<rscale>  2 0.13093949E+04</rscale>
<asrwt>0</asrwt>
<pdfrwt beam="2">  1        2 0.15461574E+00 0.13093949E+04</pdfrwt>
<pdfrwt beam="1">  1       -2 0.26794842E+00 0.13093949E+04</pdfrwt>
<totfact> 0.10841997E+00</totfact>
</mgrwt>
</event>
<event>
 8    1  0.7046235E-006  0.1039973E+04  0.7818608E-02  0.8737914E-01
          2   -1    0    0  502    0  0.00000000000E+00  0.00000000000E+00  0.28577440934E+04  0.28577440934E+04  0.00000000000E+00 0. -1.
         -2   -1    0    0    0  501 -0.00000000000E+00 -0.00000000000E+00 -0.39065654783E+03  0.39065654783E+03  0.00000000000E+00 0.  1.
    9000010    2    1    2  502    0  0.10006744989E+03  0.19440471250E+03  0.15348137991E+04  0.18613773787E+04  0.10301774901E+04 0.  0.
   -9000010    2    1    2    0  501 -0.10006744989E+03 -0.19440471250E+03  0.93227374651E+03  0.13870232626E+04  0.10034403349E+04 0.  0.
        -13    1    3    3    0    0  0.19758744383E+03 -0.18552578116E+03 -0.63200005006E+01  0.27110987994E+03  0.10566000000E+00 0.  1.
          4    1    3    3  502    0 -0.97519993942E+02  0.37993049365E+03  0.15411337996E+04  0.15902674987E+04  0.00000000000E+00 0.  1.
         13    1    4    4    0    0 -0.27750845916E+03 -0.55726700661E+03  0.54374040322E+03  0.82656584663E+03  0.10566000000E+00 0. -1.
         -4    1    4    4    0  501  0.17744100927E+03  0.36286229411E+03  0.38853334329E+03  0.56045741596E+03  0.00000000000E+00 0. -1.
<mgrwt>
<rscale>  2 0.10399731E+04</rscale>
<asrwt>0</asrwt>
<pdfrwt beam="1">  1        2 0.43965292E+00 0.10399731E+04</pdfrwt>
<pdfrwt beam="2">  1       -2 0.60101009E-01 0.10399731E+04</pdfrwt>
<totfact> 0.85466516E+00</totfact>
</mgrwt>
</event>
<event>
 8    1  0.7046235E-006  0.1478350E+04  0.7818608E-02  0.8422069E-01
         -2   -1    0    0    0  501 -0.00000000000E+00  0.00000000000E+00  0.11764180580E+04  0.11764180580E+04  0.00000000000E+00 0. -1.
          2   -1    0    0  502    0  0.00000000000E+00 -0.00000000000E+00 -0.18636243718E+04  0.18636243718E+04  0.00000000000E+00 0.  1.
    9000010    2    1    2  502    0 -0.10090313725E+04 -0.43635319824E+03 -0.25671209332E+03  0.14903802063E+04  0.97302807576E+03 0.  0.
   -9000010    2    1    2    0  501  0.10090313725E+04  0.43635319824E+03 -0.43049422039E+03  0.15496622235E+04  0.10037825008E+04 0.  0.
        -13    1    3    3    0    0 -0.78479953485E+03 -0.56171271321E+03  0.18187555168E+03  0.98209480681E+03  0.10566000000E+00 0.  1.
          4    1    3    3  502    0 -0.22423183765E+03  0.12535951498E+03 -0.43858764500E+03  0.50828539951E+03  0.00000000000E+00 0.  1.
         13    1    4    4    0    0  0.90522250883E+03 -0.11102136629E+03 -0.38737546932E+03  0.99086492504E+03  0.10566000000E+00 0. -1.
         -4    1    4    4    0  501  0.10380886367E+03  0.54737456453E+03 -0.43118751073E+02  0.55879729846E+03  0.00000000000E+00 0. -1.
<mgrwt>
<rscale>  2 0.14783499E+04</rscale>
<asrwt>0</asrwt>
<pdfrwt beam="2">  1        2 0.28671144E+00 0.14783499E+04</pdfrwt>
<pdfrwt beam="1">  1       -2 0.18098739E+00 0.14783499E+04</pdfrwt>
<totfact> 0.17591537E+00</totfact>
</mgrwt>
</event>
<event>
 8    1  0.7046235E-006  0.1187780E+04  0.7818608E-02  0.8615821E-01
         -1   -1    0    0    0  501 -0.00000000000E+00  0.00000000000E+00  0.22812527247E+04  0.22812527247E+04  0.00000000000E+00 0. -1.
          1   -1    0    0  502    0  0.00000000000E+00 -0.00000000000E+00 -0.61860162295E+03  0.61860162295E+03  0.00000000000E+00 0.  1.
    9000010    2    1    2  502    0 -0.50084085908E+02  0.60485847071E+03  0.85554232982E+03  0.14649306625E+04  0.10225981530E+04 0.  0.
   -9000010    2    1    2    0  501  0.50084085908E+02 -0.60485847071E+03  0.80710877197E+03  0.14349236852E+04  0.10194210256E+04 0.  0.
        -13    1    3    3    0    0 -0.33234426907E+03  0.12653763212E+03 -0.91360317567E+02  0.36716645314E+03  0.10566000000E+00 0.  1.
          4    1    3    3  502    0  0.28226018316E+03  0.47832083860E+03  0.94690264738E+03  0.10977642093E+04  0.00000000000E+00 0.  1.
         13    1    4    4    0    0 -0.47627114273E+03 -0.38547893068E+03  0.47260351335E+03  0.77381024766E+03  0.10566000000E+00 0. -1.
         -4    1    4    4    0  501  0.52635522864E+03 -0.21937954004E+03  0.33450525862E+03  0.66111343758E+03  0.00000000000E+00 0. -1.
<mgrwt>
<rscale>  2 0.11877801E+04</rscale>
<asrwt>0</asrwt>
<pdfrwt beam="2">  1        1 0.95169481E-01 0.11877801E+04</pdfrwt>
<pdfrwt beam="1">  1       -1 0.35096195E+00 0.11877801E+04</pdfrwt>
<totfact> 0.42019737E-01</totfact>
</mgrwt>
</event>
<event>
 8    1  0.7046235E-006  0.1543301E+04  0.7818608E-02  0.8385006E-01
         -2   -1    0    0    0  501 -0.00000000000E+00  0.00000000000E+00  0.13922844122E+04  0.13922844122E+04  0.00000000000E+00 0. -1.
          2   -1    0    0  502    0  0.00000000000E+00 -0.00000000000E+00 -0.24165093646E+04  0.24165093646E+04  0.00000000000E+00 0.  1.
    9000010    2    1    2  502    0 -0.72600418426E+03  0.93283156943E+03 -0.15413890013E+04  0.21813813900E+04  0.99261669476E+03 0.  0.
   -9000010    2    1    2    0  501  0.72600418426E+03 -0.93283156943E+03  0.51716404893E+03  0.16274123867E+04  0.99184454956E+03 0.  0.
        -13    1    3    3    0    0 -0.97724357468E+03  0.75544100846E+03 -0.12054544221E+04  0.17259248235E+04  0.10566000000E+00 0.  1.
          4    1    3    3  502    0  0.25123939042E+03  0.17739056097E+03 -0.33593457926E+03  0.45545656650E+03  0.00000000000E+00 0.  1.
         13    1    4    4    0    0  0.83252221017E+03 -0.34826836727E+03  0.50280055262E+03  0.10330500922E+04  0.10566000000E+00 0. -1.
         -4    1    4    4    0  501 -0.10651802591E+03 -0.58456320216E+03  0.14363496314E+02  0.59436229456E+03  0.00000000000E+00 0. -1.
<mgrwt>
<rscale>  2 0.15433012E+04</rscale>
<asrwt>0</asrwt>
<pdfrwt beam="2">  1        2 0.37177067E+00 0.15433012E+04</pdfrwt>
<pdfrwt beam="1">  1       -2 0.21419761E+00 0.15433012E+04</pdfrwt>
<totfact> 0.45966856E-01</totfact>
</mgrwt>
</event>
<event>
 8    1  0.7046235E-006  0.1595233E+04  0.7818608E-02  0.8356707E-01
         -2   -1    0    0    0  501 -0.00000000000E+00  0.00000000000E+00  0.36564844839E+04  0.36564844839E+04  0.00000000000E+00 0. -1.
          2   -1    0    0  502    0  0.00000000000E+00 -0.00000000000E+00 -0.69675621414E+03  0.69675621414E+03  0.00000000000E+00 0.  1.
    9000010    2    1    2  502    0  0.49938008824E+02  0.12262134306E+04  0.13973329397E+04  0.21120784640E+04  0.10011208277E+04 0.  0.
   -9000010    2    1    2    0  501 -0.49938008824E+02 -0.12262134306E+04  0.15623953300E+04  0.22411622340E+04  0.10371286370E+04 0.  0.
        -13    1    3    3    0    0 -0.14040604136E+03 -0.10901643028E+03  0.39029402818E+03  0.42886813605E+03  0.10566000000E+00 0.  1.
          4    1    3    3  502    0  0.19034405019E+03  0.13352298609E+04  0.10070389116E+04  0.16832103280E+04  0.00000000000E+00 0.  1.
         13    1    4    4    0    0  0.42226529840E+03 -0.29829126059E+03  0.27546026337E+03  0.58580203673E+03  0.10566000000E+00 0. -1.
         -4    1    4    4    0  501 -0.47220330722E+03 -0.92792217000E+03  0.12869350666E+04  0.16553601972E+04  0.00000000000E+00 0. -1.
<mgrwt>
<rscale>  2 0.15952329E+04</rscale>
<asrwt>0</asrwt>
<pdfrwt beam="2">  1        2 0.10719327E+00 0.15952329E+04</pdfrwt>
<pdfrwt beam="1">  1       -2 0.56253606E+00 0.15952329E+04</pdfrwt>
<totfact> 0.24317268E-01</totfact>
</mgrwt>
</event>
<event>
 8    1  0.7046235E-006  0.1999610E+04  0.7818608E-02  0.8168551E-01
          2   -1    0    0  502    0  0.00000000000E+00  0.00000000000E+00  0.18037742178E+04  0.18037742178E+04  0.00000000000E+00 0. -1.
         -2   -1    0    0    0  501 -0.00000000000E+00 -0.00000000000E+00 -0.22320407637E+04  0.22320407637E+04  0.00000000000E+00 0.  1.
    9000010    2    1    2  502    0 -0.17284596097E+04  0.12519952417E+03 -0.38041185671E+03  0.20281318288E+04  0.98252633087E+03 0.  0.
   -9000010    2    1    2    0  501  0.17284596097E+04 -0.12519952417E+03 -0.47854689279E+02  0.20076831527E+04  0.10125482839E+04 0.  0.
        -13    1    3    3    0    0 -0.18288666836E+04  0.15507136417E+03 -0.23719577007E+03  0.18506923890E+04  0.10566000000E+00 0.  1.
          4    1    3    3  502    0  0.10040707386E+03 -0.29871839998E+02 -0.14321608664E+03  0.17743943975E+03  0.00000000000E+00 0.  1.
         13    1    4    4    0    0  0.13626862651E+04  0.24959302082E+03 -0.31361687057E+03  0.14204105342E+04  0.10566000000E+00 0. -1.
         -4    1    4    4    0  501  0.36577334463E+03 -0.37479254499E+03  0.26576218129E+03  0.58727261848E+03  0.00000000000E+00 0. -1.
<mgrwt>
<rscale>  2 0.19996103E+04</rscale>
<asrwt>0</asrwt>
<pdfrwt beam="1">  1        2 0.27750372E+00 0.19996103E+04</pdfrwt>
<pdfrwt beam="2">  1       -2 0.34339089E+00 0.19996103E+04</pdfrwt>
<totfact> 0.10890065E-01</totfact>
</mgrwt>
</event>
<event>
 8    1  0.7046235E-006  0.1332455E+04  0.7818608E-02  0.8512982E-01
          2   -1    0    0  502    0  0.00000000000E+00  0.00000000000E+00  0.21835651580E+04  0.21835651580E+04  0.00000000000E+00 0.  1.
         -2   -1    0    0    0  501 -0.00000000000E+00 -0.00000000000E+00 -0.83519515204E+03  0.83519515204E+03  0.00000000000E+00 0. -1.
    9000010    2    1    2  502    0  0.38200315092E+03 -0.77138477477E+03  0.91243702410E+03  0.16036072275E+04  0.99902649568E+03 0.  0.
   -9000010    2    1    2    0  501 -0.38200315092E+03  0.77138477477E+03  0.43593298189E+03  0.14151530826E+04  0.10352100291E+04 0.  0.
        -13    1    3    3    0    0 -0.18579667200E+03 -0.72534026813E+03  0.50135749035E+03  0.90110945628E+03  0.10566000000E+00 0.  1.
          4    1    3    3  502    0  0.56779982292E+03 -0.46044506635E+02  0.41107953375E+03  0.70249777122E+03  0.00000000000E+00 0.  1.
         13    1    4    4    0    0 -0.24526584829E+03  0.89776124063E+03  0.64717692918E+03  0.11335645418E+04  0.10566000000E+00 0. -1.
         -4    1    4    4    0  501 -0.13673730263E+03 -0.12637646586E+03 -0.21124394728E+03  0.28158854082E+03  0.00000000000E+00 0. -1.
<mgrwt>
<rscale>  2 0.13324550E+04</rscale>
<asrwt>0</asrwt>
<pdfrwt beam="1">  1        2 0.33593310E+00 0.13324550E+04</pdfrwt>
<pdfrwt beam="2">  1       -2 0.12849156E+00 0.13324550E+04</pdfrwt>
<totfact> 0.34415562E+00</totfact>
</mgrwt>
</event>
<event>
 8    1  0.7046235E-006  0.1480707E+04  0.7818608E-02  0.8420689E-01
          2   -1    0    0  502    0  0.00000000000E+00  0.00000000000E+00  0.96691592190E+03  0.96691592190E+03  0.00000000000E+00 0. -1.
         -2   -1    0    0    0  501 -0.00000000000E+00 -0.00000000000E+00 -0.26972499641E+04  0.26972499641E+04  0.00000000000E+00 0.  1.
    9000010    2    1    2  502    0  0.56446546147E+03  0.93284546379E+03 -0.15967836005E+04  0.21781237843E+04  0.10028376919E+04 0.  0.
   -9000010    2    1    2    0  501 -0.56446546147E+03 -0.93284546379E+03 -0.13355044175E+03  0.14860421018E+04  0.10008314000E+04 0.  0.
        -13    1    3    3    0    0  0.45743407206E+03  0.18903028721E+03 -0.12617286811E+04  0.13553367315E+04  0.10566000000E+00 0.  1.
          4    1    3    3  502    0  0.10703138941E+03  0.74381517657E+03 -0.33505491932E+03  0.82278705275E+03  0.00000000000E+00 0.  1.
         13    1    4    4    0    0 -0.32593819127E+03 -0.10955725430E+04 -0.25772810128E+03  0.11717246634E+04  0.10566000000E+00 0. -1.
         -4    1    4    4    0  501 -0.23852727020E+03  0.16272707919E+03  0.12417765953E+03  0.31431743836E+03  0.00000000000E+00 0. -1.
<mgrwt>
<rscale>  2 0.14807074E+04</rscale>
<asrwt>0</asrwt>
<pdfrwt beam="1">  1        2 0.14875630E+00 0.14807074E+04</pdfrwt>
<pdfrwt beam="2">  1       -2 0.41496153E+00 0.14807074E+04</pdfrwt>
<totfact> 0.12731385E-01</totfact>
</mgrwt>
</event>
<event>
 8    1  0.7046235E-006  0.1198570E+04  0.7818608E-02  0.8607640E-01
          2   -1    0    0  502    0  0.00000000000E+00  0.00000000000E+00  0.28514442693E+04  0.28514442693E+04  0.00000000000E+00 0. -1.
         -2   -1    0    0    0  501 -0.00000000000E+00 -0.00000000000E+00 -0.51314424555E+03  0.51314424555E+03  0.00000000000E+00 0.  1.
    9000010    2    1    2  502    0 -0.31773806711E+03  0.59244135082E+03  0.94252696649E+03  0.15250452186E+04  0.99270418689E+03 0.  0.
   -9000010    2    1    2    0  501  0.31773806711E+03 -0.59244135082E+03  0.13957730572E+04  0.18395432962E+04  0.99186333639E+03 0.  0.
        -13    1    3    3    0    0 -0.38009372381E+03  0.42774226349E+03  0.11307434735E+04  0.12672866672E+04  0.10566000000E+00 0.  1.
          4    1    3    3  502    0  0.62355656697E+02  0.16469908733E+03 -0.18821650701E+03  0.25775855136E+03  0.00000000000E+00 0.  1.
         13    1    4    4    0    0  0.68143788525E+02  0.21598234359E+03  0.23881479496E+02  0.22773292446E+03  0.10566000000E+00 0. -1.
         -4    1    4    4    0  501  0.24959427858E+03 -0.80842369441E+03  0.13718915777E+04  0.16118103718E+04  0.00000000000E+00 0. -1.
<mgrwt>
<rscale>  2 0.11985705E+04</rscale>
<asrwt>0</asrwt>
<pdfrwt beam="1">  1        2 0.43868372E+00 0.11985705E+04</pdfrwt>
<pdfrwt beam="2">  1       -2 0.78945270E-01 0.11985705E+04</pdfrwt>
<totfact> 0.47813667E+00</totfact>
</mgrwt>
</event>
<event>
 8    1  0.7046235E-006  0.1843529E+04  0.7818608E-02  0.8235256E-01
         -2   -1    0    0    0  501 -0.00000000000E+00  0.00000000000E+00  0.11994845136E+04  0.11994845136E+04  0.00000000000E+00 0.  1.
          2   -1    0    0  502    0  0.00000000000E+00 -0.00000000000E+00 -0.29816918119E+04  0.29816918119E+04  0.00000000000E+00 0. -1.
    9000010    2    1    2  502    0  0.99744992436E+03 -0.11695098856E+04 -0.42118090465E+03  0.18830627508E+04  0.10029318247E+04 0.  0.
   -9000010    2    1    2    0  501 -0.99744992436E+03  0.11695098856E+04 -0.13610263936E+04  0.22981135747E+04  0.10326051686E+04 0.  0.
        -13    1    3    3    0    0  0.30349861549E+03 -0.42852603239E+03 -0.65677012844E+03  0.84088821066E+03  0.10566000000E+00 0.  1.
          4    1    3    3  502    0  0.69395130887E+03 -0.74098385322E+03  0.23558922379E+03  0.10421745402E+04  0.00000000000E+00 0.  1.
         13    1    4    4    0    0 -0.41048328095E+03  0.30897196912E+02  0.22948270001E+02  0.41228363414E+03  0.10566000000E+00 0. -1.
         -4    1    4    4    0  501 -0.58696664341E+03  0.11386126887E+04 -0.13839746636E+04  0.18858299406E+04  0.00000000000E+00 0. -1.
<mgrwt>
<rscale>  2 0.18435288E+04</rscale>
<asrwt>0</asrwt>
<pdfrwt beam="2">  1        2 0.45872182E+00 0.18435288E+04</pdfrwt>
<pdfrwt beam="1">  1       -2 0.18453608E+00 0.18435288E+04</pdfrwt>
<totfact> 0.36499394E-01</totfact>
</mgrwt>
</event>
<event>
 8    1  0.7046235E-006  0.1080858E+04  0.7818608E-02  0.8702121E-01
          2   -1    0    0  502    0  0.00000000000E+00  0.00000000000E+00  0.17879763764E+04  0.17879763764E+04  0.00000000000E+00 0.  1.
         -2   -1    0    0    0  501 -0.00000000000E+00 -0.00000000000E+00 -0.69699254848E+03  0.69699254848E+03  0.00000000000E+00 0. -1.
    9000010    2    1    2  502    0  0.34304178108E+03 -0.25753391567E+03  0.23743375789E+03  0.11120637781E+04  0.99815313244E+03 0.  0.
   -9000010    2    1    2    0  501 -0.34304178108E+03  0.25753391567E+03  0.85355007002E+03  0.13729051468E+04  0.98606259375E+03 0.  0.
        -13    1    3    3    0    0  0.43075432869E+03  0.90024862360E+02  0.50123433637E+03  0.66700047875E+03  0.10566000000E+00 0.  1.
          4    1    3    3  502    0 -0.87712547609E+02 -0.34755877803E+03 -0.26380057848E+03  0.44506329932E+03  0.00000000000E+00 0.  1.
         13    1    4    4    0    0 -0.26033233622E+03  0.17836205557E+03  0.10767558847E+04  0.11220468772E+04  0.10566000000E+00 0. -1.
         -4    1    4    4    0  501 -0.82709444858E+02  0.79171860097E+02 -0.22320581472E+03  0.25085826960E+03  0.00000000000E+00 0. -1.
<mgrwt>
<rscale>  2 0.10808582E+04</rscale>
<asrwt>0</asrwt>
<pdfrwt beam="1">  1        2 0.27507329E+00 0.10808582E+04</pdfrwt>
<pdfrwt beam="2">  1       -2 0.10722962E+00 0.10808582E+04</pdfrwt>
<totfact> 0.93141463E+00</totfact>
</mgrwt>
</event>
<event>
 8    1  0.7046235E-006  0.1086808E+04  0.7818608E-02  0.8697050E-01
          4   -1    0    0  502    0  0.00000000000E+00  0.00000000000E+00  0.10705808402E+04  0.10705808402E+04  0.00000000000E+00 0.  1.
         -4   -1    0    0    0  501 -0.00000000000E+00 -0.00000000000E+00 -0.11890194816E+04  0.11890194816E+04  0.00000000000E+00 0. -1.
    9000010    2    1    2  502    0  0.19712880445E+03 -0.29206022387E+03  0.24448101435E+03  0.10953183687E+04  0.10078652799E+04 0.  0.
   -9000010    2    1    2    0  501 -0.19712880445E+03  0.29206022387E+03 -0.36291965579E+03  0.11642819532E+04  0.10486576419E+04 0.  0.
        -13    1    3    3    0    0  0.38919256492E+03  0.54752321929E+02  0.49065724694E+03  0.62865985595E+03  0.10566000000E+00 0.  1.
          4    1    3    3  502    0 -0.19206376047E+03 -0.34681254580E+03 -0.24617623259E+03  0.46665851273E+03  0.00000000000E+00 0.  1.
         13    1    4    4    0    0  0.58863649619E+02 -0.19442148164E+02  0.34449758845E+03  0.35003075005E+03  0.10566000000E+00 0. -1.
         -4    1    4    4    0  501 -0.25599245407E+03  0.31150237203E+03 -0.70741724424E+03  0.81425120311E+03  0.00000000000E+00 0. -1.
<mgrwt>
<rscale>  2 0.10868082E+04</rscale>
<asrwt>0</asrwt>
<pdfrwt beam="1">  1        4 0.16470475E+00 0.10868082E+04</pdfrwt>
<pdfrwt beam="2">  1       -4 0.18292607E+00 0.10868082E+04</pdfrwt>
<totfact> 0.26632766E-01</totfact>
</mgrwt>
</event>
<event>
 8    1  0.7046235E-006  0.1742487E+04  0.7818608E-02  0.8282155E-01
         -2   -1    0    0    0  501 -0.00000000000E+00  0.00000000000E+00  0.14155564101E+04  0.14155564101E+04  0.00000000000E+00 0. -1.
          2   -1    0    0  502    0  0.00000000000E+00 -0.00000000000E+00 -0.24044887656E+04  0.24044887656E+04  0.00000000000E+00 0.  1.
    9000010    2    1    2  502    0  0.14120482827E+04  0.20641745766E+03 -0.11205155549E+04  0.20667946794E+04  0.98974573434E+03 0.  0.
   -9000010    2    1    2    0  501 -0.14120482827E+04 -0.20641745766E+03  0.13158319929E+03  0.17532504963E+04  0.10099923985E+04 0.  0.
        -13    1    3    3    0    0  0.10213079669E+04 -0.30983227273E+03 -0.85296486098E+03  0.13662412180E+04  0.10566000000E+00 0.  1.
          4    1    3    3  502    0  0.39074031578E+03  0.51624973039E+03 -0.26755069388E+03  0.70055346141E+03  0.00000000000E+00 0.  1.
         13    1    4    4    0    0  0.39099082955E+02  0.22220476686E+03  0.79549019656E+02  0.23923159155E+03  0.10566000000E+00 0. -1.
         -4    1    4    4    0  501 -0.14511473656E+04 -0.42862222452E+03  0.52034179630E+02  0.15140189048E+04  0.00000000000E+00 0. -1.
<mgrwt>
<rscale>  2 0.17424872E+04</rscale>
<asrwt>0</asrwt>
<pdfrwt beam="2">  1        2 0.36992135E+00 0.17424872E+04</pdfrwt>
<pdfrwt beam="1">  1       -2 0.21777791E+00 0.17424872E+04</pdfrwt>
<totfact> 0.42733423E-01</totfact>
</mgrwt>
</event>
<event>
 8    1  0.7046235E-006  0.1198842E+04  0.7818608E-02  0.8607434E-01
          2   -1    0    0  502    0  0.00000000000E+00  0.00000000000E+00  0.11258940527E+04  0.11258940527E+04  0.00000000000E+00 0.  1.
         -2   -1    0    0    0  501 -0.00000000000E+00 -0.00000000000E+00 -0.13114619640E+04  0.13114619640E+04  0.00000000000E+00 0. -1.
    9000010    2    1    2  502    0  0.13871917520E+03  0.64378170568E+03 -0.29166452239E+03  0.12331820211E+04  0.10009854192E+04 0.  0.
   -9000010    2    1    2    0  501 -0.13871917520E+03 -0.64378170568E+03  0.10609661110E+03  0.12041739956E+04  0.10025370949E+04 0.  0.
        -13    1    3    3    0    0 -0.52708602298E+02  0.37137745222E+02  0.33445213549E+03  0.34061070296E+03  0.10566000000E+00 0.  1.
          4    1    3    3  502    0  0.19142777750E+03  0.60664396046E+03 -0.62611665788E+03  0.89257131818E+03  0.00000000000E+00 0.  1.
         13    1    4    4    0    0  0.36618417648E+03 -0.34772409921E+03  0.30026690093E+03  0.58750584954E+03  0.10566000000E+00 0. -1.
         -4    1    4    4    0  501 -0.50490335168E+03 -0.29605760647E+03 -0.19417028983E+03  0.61666814604E+03  0.00000000000E+00 0. -1.
<mgrwt>
<rscale>  2 0.11988425E+04</rscale>
<asrwt>0</asrwt>
<pdfrwt beam="1">  1        2 0.17321447E+00 0.11988425E+04</pdfrwt>
<pdfrwt beam="2">  1       -2 0.20176338E+00 0.11988425E+04</pdfrwt>
<totfact> 0.31189314E+00</totfact>
</mgrwt>
</event>
<event>
 8    1  0.7046235E-006  0.1336225E+04  0.7818608E-02  0.8510484E-01
         -1   -1    0    0    0  501 -0.00000000000E+00  0.00000000000E+00  0.29697580698E+04  0.29697580698E+04  0.00000000000E+00 0. -1.
          1   -1    0    0  502    0  0.00000000000E+00 -0.00000000000E+00 -0.61490748921E+03  0.61490748921E+03  0.00000000000E+00 0.  1.
    9000010    2    1    2  502    0  0.46143304161E+03  0.74496911059E+03  0.91574691639E+03  0.16252134144E+04  0.10172643707E+04 0.  0.
   -9000010    2    1    2    0  501 -0.46143304161E+03 -0.74496911059E+03  0.14391036642E+04  0.19594521446E+04  0.10002669258E+04 0.  0.
        -13    1    3    3    0    0 -0.15220847617E+03  0.55837012568E+03  0.77723843851E+03  0.96904293968E+03  0.10566000000E+00 0.  1.
          4    1    3    3  502    0  0.61364151778E+03  0.18659898491E+03  0.13850847788E+03  0.65617047477E+03  0.00000000000E+00 0.  1.
         13    1    4    4    0    0 -0.45543334671E+03 -0.79376875460E+03  0.15713210458E+04  0.18183889049E+04  0.10566000000E+00 0. -1.
         -4    1    4    4    0  501 -0.59996948943E+01  0.48799644010E+02 -0.13221738162E+03  0.14106323971E+03  0.00000000000E+00 0. -1.
<mgrwt>
<rscale>  2 0.13362251E+04</rscale>
<asrwt>0</asrwt>
<pdfrwt beam="2">  1        1 0.94601154E-01 0.13362251E+04</pdfrwt>
<pdfrwt beam="1">  1       -1 0.45688585E+00 0.13362251E+04</pdfrwt>
<totfact> 0.48868520E-01</totfact>
</mgrwt>
</event>
<event>
 8    1  0.7046235E-006  0.1441244E+04  0.7818608E-02  0.8444137E-01
          2   -1    0    0  502    0  0.00000000000E+00  0.00000000000E+00  0.28302256456E+04  0.28302256456E+04  0.00000000000E+00 0.  1.
         -2   -1    0    0    0  501 -0.00000000000E+00 -0.00000000000E+00 -0.73403841863E+03  0.73403841863E+03  0.00000000000E+00 0. -1.
    9000010    2    1    2  502    0 -0.45941170242E+03  0.93253308733E+03  0.10703249567E+04  0.17957385778E+04  0.99920190932E+03 0.  0.
   -9000010    2    1    2    0  501  0.45941170242E+03 -0.93253308733E+03  0.10258622702E+04  0.17685254864E+04  0.99730232490E+03 0.  0.
        -13    1    3    3    0    0 -0.58501062356E+03  0.67558434812E+03  0.25147831484E+03  0.92838192308E+03  0.10566000000E+00 0.  1.
          4    1    3    3  502    0  0.12559892114E+03  0.25694873921E+03  0.81884664191E+03  0.86735665475E+03  0.00000000000E+00 0.  1.
         13    1    4    4    0    0  0.18418035549E+03  0.20186974232E+03  0.19240655455E+03  0.33420665704E+03  0.10566000000E+00 0. -1.
         -4    1    4    4    0  501  0.27523134693E+03 -0.11344028296E+04  0.83345571566E+03  0.14343188293E+04  0.00000000000E+00 0. -1.
<mgrwt>
<rscale>  2 0.14412440E+04</rscale>
<asrwt>0</asrwt>
<pdfrwt beam="1">  1        2 0.43541933E+00 0.14412440E+04</pdfrwt>
<pdfrwt beam="2">  1       -2 0.11292899E+00 0.14412440E+04</pdfrwt>
<totfact> 0.20592417E+00</totfact>
</mgrwt>
</event>
<event>
 8    1  0.7046235E-006  0.1254628E+04  0.7818608E-02  0.8566524E-01
         -1   -1    0    0    0  501 -0.00000000000E+00  0.00000000000E+00  0.12025485270E+04  0.12025485270E+04  0.00000000000E+00 0.  1.
          1   -1    0    0  502    0  0.00000000000E+00 -0.00000000000E+00 -0.13173603137E+04  0.13173603137E+04  0.00000000000E+00 0. -1.
    9000010    2    1    2  502    0  0.27087118813E+03  0.73176344633E+03  0.43002512983E+02  0.12584160814E+04  0.98636346034E+03 0.  0.
   -9000010    2    1    2    0  501 -0.27087118813E+03 -0.73176344633E+03 -0.15781429966E+03  0.12614927593E+04  0.97857533522E+03 0.  0.
        -13    1    3    3    0    0 -0.30633051512E+03  0.54487938592E+03  0.14881550707E+03  0.64255583104E+03  0.10566000000E+00 0.  1.
          4    1    3    3  502    0  0.57720170325E+03  0.18688406041E+03 -0.10581299409E+03  0.61586025037E+03  0.00000000000E+00 0.  1.
         13    1    4    4    0    0 -0.28626510756E+03 -0.29640969020E+03 -0.54186164644E+03  0.68074993301E+03  0.10566000000E+00 0. -1.
         -4    1    4    4    0  501  0.15393919438E+02 -0.43535375614E+03  0.38404734678E+03  0.58074282631E+03  0.00000000000E+00 0. -1.
<mgrwt>
<rscale>  2 0.12546281E+04</rscale>
<asrwt>0</asrwt>
<pdfrwt beam="2">  1        1 0.20267082E+00 0.12546281E+04</pdfrwt>
<pdfrwt beam="1">  1       -1 0.18500747E+00 0.12546281E+04</pdfrwt>
<totfact> 0.21708475E+00</totfact>
</mgrwt>
</event>
<event>
 8    1  0.7046235E-006  0.1083993E+04  0.7818608E-02  0.8699445E-01
         -4   -1    0    0    0  501 -0.00000000000E+00  0.00000000000E+00  0.48078101463E+04  0.48078101463E+04  0.00000000000E+00 0. -1.
          4   -1    0    0  502    0  0.00000000000E+00 -0.00000000000E+00 -0.24587648316E+03  0.24587648316E+03  0.00000000000E+00 0.  1.
    9000010    2    1    2  502    0 -0.29970347406E+02  0.37314830286E+03  0.20883522334E+04  0.23535856132E+04  0.10188288916E+04 0.  0.
   -9000010    2    1    2    0  501  0.29970347406E+02 -0.37314830286E+03  0.24735814298E+04  0.27001010163E+04  0.10157768115E+04 0.  0.
        -13    1    3    3    0    0  0.62936961417E+02  0.61042818127E+03  0.19865641153E+04  0.20791874905E+04  0.10566000000E+00 0.  1.
          4    1    3    3  502    0 -0.92907308823E+02 -0.23727987841E+03  0.10178811813E+03  0.27439812267E+03  0.00000000000E+00 0.  1.
         13    1    4    4    0    0 -0.15940781983E+03  0.29780872361E+03  0.47077868722E+03  0.57942512233E+03  0.10566000000E+00 0. -1.
         -4    1    4    4    0  501  0.18937816723E+03 -0.67095702647E+03  0.20028027425E+04  0.21206758939E+04  0.00000000000E+00 0. -1.
<mgrwt>
<rscale>  2 0.10839932E+04</rscale>
<asrwt>0</asrwt>
<pdfrwt beam="2">  1        4 0.37827155E-01 0.10839932E+04</pdfrwt>
<pdfrwt beam="1">  1       -4 0.73966303E+00 0.10839932E+04</pdfrwt>
<totfact> 0.22316419E-02</totfact>
</mgrwt>
</event>
<event>
 8    1  0.7046235E-006  0.1375096E+04  0.7818608E-02  0.8485220E-01
         -1   -1    0    0    0  501 -0.00000000000E+00  0.00000000000E+00  0.44033798244E+04  0.44033798244E+04  0.00000000000E+00 0.  1.
          1   -1    0    0  502    0  0.00000000000E+00 -0.00000000000E+00 -0.42982472098E+03  0.42982472098E+03  0.00000000000E+00 0. -1.
    9000010    2    1    2  502    0  0.54548960088E+03 -0.77348569715E+03  0.19146087706E+04  0.23581172078E+04  0.99957540638E+03 0.  0.
   -9000010    2    1    2    0  501 -0.54548960088E+03  0.77348569715E+03  0.20589463329E+04  0.24750873376E+04  0.99546888387E+03 0.  0.
        -13    1    3    3    0    0 -0.10958819755E+03  0.17479220087E+03  0.44477516472E+03  0.49029261146E+03  0.10566000000E+00 0.  1.
          4    1    3    3  502    0  0.65507779843E+03 -0.94827789802E+03  0.14698336059E+04  0.18678245964E+04  0.00000000000E+00 0.  1.
         13    1    4    4    0    0 -0.42741945525E+03  0.10161796881E+04  0.16957474982E+04  0.20225894635E+04  0.10566000000E+00 0. -1.
         -4    1    4    4    0  501 -0.11807014563E+03 -0.24269399094E+03  0.36319883470E+03  0.45249787409E+03  0.00000000000E+00 0. -1.
<mgrwt>
<rscale>  2 0.13750961E+04</rscale>
<asrwt>0</asrwt>
<pdfrwt beam="2">  1        1 0.66126883E-01 0.13750961E+04</pdfrwt>
<pdfrwt beam="1">  1       -1 0.67744302E+00 0.13750961E+04</pdfrwt>
<totfact> 0.83497155E-02</totfact>
</mgrwt>
</event>
<event>
 8    1  0.7046235E-006  0.1703700E+04  0.7818608E-02  0.8301034E-01
         -2   -1    0    0    0  501 -0.00000000000E+00  0.00000000000E+00  0.18782256268E+04  0.18782256268E+04  0.00000000000E+00 0.  1.
          2   -1    0    0  502    0  0.00000000000E+00 -0.00000000000E+00 -0.17639772132E+04  0.17639772132E+04  0.00000000000E+00 0. -1.
    9000010    2    1    2  502    0 -0.50737899355E+03  0.12823980886E+04  0.69827650219E+03  0.18444794440E+04  0.10062485006E+04 0.  0.
   -9000010    2    1    2    0  501  0.50737899355E+03 -0.12823980886E+04 -0.58402808858E+03  0.17977233959E+04  0.99435521776E+03 0.  0.
        -13    1    3    3    0    0 -0.56245102753E+03  0.12709888062E+04  0.88616881293E+03  0.16483503511E+04  0.10566000000E+00 0.  1.
          4    1    3    3  502    0  0.55072033979E+02  0.11409282474E+02 -0.18789231074E+03  0.19612909292E+03  0.00000000000E+00 0.  1.
         13    1    4    4    0    0  0.45489244468E+03 -0.22321943565E+03 -0.53388246426E+03  0.73606015344E+03  0.10566000000E+00 0. -1.
         -4    1    4    4    0  501  0.52486548871E+02 -0.10591786530E+04 -0.50145624327E+02  0.10616632425E+04  0.00000000000E+00 0. -1.
<mgrwt>
<rscale>  2 0.17036998E+04</rscale>
<asrwt>0</asrwt>
<pdfrwt beam="2">  1        2 0.27138111E+00 0.17036998E+04</pdfrwt>
<pdfrwt beam="1">  1       -2 0.28895779E+00 0.17036998E+04</pdfrwt>
<totfact> 0.27201994E-01</totfact>
</mgrwt>
</event>
<event>
 8    1  0.7046235E-006  0.1203403E+04  0.7818608E-02  0.8604005E-01
          2   -1    0    0  502    0  0.00000000000E+00  0.00000000000E+00  0.25813796901E+04  0.25813796901E+04  0.00000000000E+00 0. -1.
         -2   -1    0    0    0  501 -0.00000000000E+00 -0.00000000000E+00 -0.65530214663E+03  0.65530214663E+03  0.00000000000E+00 0.  1.
    9000010    2    1    2  502    0  0.29874977414E+03  0.61494974151E+03  0.15709807139E+04  0.19737742902E+04  0.97999486385E+03 0.  0.
   -9000010    2    1    2    0  501 -0.29874977414E+03 -0.61494974151E+03  0.35509682962E+03  0.12629075466E+04  0.10007132959E+04 0.  0.
        -13    1    3    3    0    0 -0.14688536478E+03 -0.20086380500E+03  0.20993956385E+03  0.32557059170E+03  0.10566000000E+00 0.  1.
          4    1    3    3  502    0  0.44563513892E+03  0.81581354651E+03  0.13610411500E+04  0.16482036985E+04  0.00000000000E+00 0.  1.
         13    1    4    4    0    0 -0.10601459417E+03 -0.71397467129E+03  0.59804510453E+03  0.93736699517E+03  0.10566000000E+00 0. -1.
         -4    1    4    4    0  501 -0.19273517998E+03  0.99024929782E+02 -0.24294827490E+03  0.32554055139E+03  0.00000000000E+00 0. -1.
<mgrwt>
<rscale>  2 0.12034026E+04</rscale>
<asrwt>0</asrwt>
<pdfrwt beam="1">  1        2 0.39713533E+00 0.12034026E+04</pdfrwt>
<pdfrwt beam="2">  1       -2 0.10081572E+00 0.12034026E+04</pdfrwt>
<totfact> 0.39176746E+00</totfact>
</mgrwt>
</event>
<event>
 8    1  0.7046235E-006  0.1463067E+04  0.7818608E-02  0.8431077E-01
          1   -1    0    0  502    0  0.00000000000E+00  0.00000000000E+00  0.24348723757E+04  0.24348723757E+04  0.00000000000E+00 0.  1.
         -1   -1    0    0    0  501 -0.00000000000E+00 -0.00000000000E+00 -0.87917972809E+03  0.87917972809E+03  0.00000000000E+00 0. -1.
    9000010    2    1    2  502    0  0.67540315921E+03 -0.84606655909E+03  0.76461128133E+03  0.16498202592E+04  0.98248584016E+03 0.  0.
   -9000010    2    1    2    0  501 -0.67540315921E+03  0.84606655909E+03  0.79108136625E+03  0.16642318446E+04  0.98582952617E+03 0.  0.
        -13    1    3    3    0    0  0.48831162079E+03 -0.29948264994E+03  0.89022720861E+03  0.10586040765E+04  0.10566000000E+00 0.  1.
          4    1    3    3  502    0  0.18709153842E+03 -0.54658390914E+03 -0.12561592728E+03  0.59121618268E+03  0.00000000000E+00 0.  1.
         13    1    4    4    0    0  0.38893777103E+02 -0.15344435394E+02 -0.17865110810E+03  0.18347862868E+03  0.10566000000E+00 0. -1.
         -4    1    4    4    0  501 -0.71429693631E+03  0.86141099448E+03  0.96973247434E+03  0.14807532159E+04  0.00000000000E+00 0. -1.
<mgrwt>
<rscale>  2 0.14630669E+04</rscale>
<asrwt>0</asrwt>
<pdfrwt beam="1">  1        1 0.37459575E+00 0.14630669E+04</pdfrwt>
<pdfrwt beam="2">  1       -1 0.13525842E+00 0.14630669E+04</pdfrwt>
<totfact> 0.77590462E-01</totfact>
</mgrwt>
</event>
<event>
 8    1  0.7046235E-006  0.1250109E+04  0.7818608E-02  0.8569755E-01
          2   -1    0    0  502    0  0.00000000000E+00  0.00000000000E+00  0.11511761048E+04  0.11511761048E+04  0.00000000000E+00 0. -1.
         -2   -1    0    0    0  501 -0.00000000000E+00 -0.00000000000E+00 -0.14048355894E+04  0.14048355894E+04  0.00000000000E+00 0.  1.
    9000010    2    1    2  502    0 -0.73521209220E+03  0.67530801071E+02  0.10831774285E+03  0.12464803179E+04  0.99844039374E+03 0.  0.
   -9000010    2    1    2    0  501  0.73521209220E+03 -0.67530801071E+02 -0.36197722746E+03  0.13095313763E+04  0.10191897187E+04 0.  0.
        -13    1    3    3    0    0 -0.33631894545E+03  0.23008411746E+03 -0.40626312926E+03  0.57541191814E+03  0.10566000000E+00 0.  1.
          4    1    3    3  502    0 -0.39889314675E+03 -0.16255331639E+03  0.51458087211E+03  0.67106839975E+03  0.00000000000E+00 0.  1.
         13    1    4    4    0    0 -0.19160267781E+03  0.20945486931E+03 -0.14247836587E+03  0.31762088144E+03  0.10566000000E+00 0. -1.
         -4    1    4    4    0  501  0.92681477000E+03 -0.27698567039E+03 -0.21949886159E+03  0.99191049482E+03  0.00000000000E+00 0. -1.
<mgrwt>
<rscale>  2 0.12501090E+04</rscale>
<asrwt>0</asrwt>
<pdfrwt beam="1">  1        2 0.17710402E+00 0.12501090E+04</pdfrwt>
<pdfrwt beam="2">  1       -2 0.21612855E+00 0.12501090E+04</pdfrwt>
<totfact> 0.22855254E+00</totfact>
</mgrwt>
</event>
<event>
 8    1  0.7046235E-006  0.1096092E+04  0.7818608E-02  0.8689205E-01
          2   -1    0    0  502    0  0.00000000000E+00  0.00000000000E+00  0.17443351626E+04  0.17443351626E+04  0.00000000000E+00 0. -1.
         -2   -1    0    0    0  501 -0.00000000000E+00 -0.00000000000E+00 -0.71665377455E+03  0.71665377455E+03  0.00000000000E+00 0.  1.
    9000010    2    1    2  502    0  0.30238945823E+02  0.51255654678E+03  0.27896414966E+03  0.11467284875E+04  0.98667959330E+03 0.  0.
   -9000010    2    1    2    0  501 -0.30238945823E+02 -0.51255654678E+03  0.74871723838E+03  0.13142604496E+04  0.95030227761E+03 0.  0.
        -13    1    3    3    0    0 -0.18194120899E+03  0.33747971598E+03  0.60741696150E+03  0.71829697097E+03  0.10566000000E+00 0.  1.
          4    1    3    3  502    0  0.21218015482E+03  0.17507683081E+03 -0.32845281184E+03  0.42843151657E+03  0.00000000000E+00 0.  1.
         13    1    4    4    0    0  0.31190796140E+03 -0.40476203115E+03  0.80264587251E+03  0.95150369735E+03  0.10566000000E+00 0. -1.
         -4    1    4    4    0  501 -0.34214690722E+03 -0.10779451563E+03 -0.53928634130E+02  0.36275675225E+03  0.00000000000E+00 0. -1.
<mgrwt>
<rscale>  2 0.10960920E+04</rscale>
<asrwt>0</asrwt>
<pdfrwt beam="1">  1        2 0.26835925E+00 0.10960920E+04</pdfrwt>
<pdfrwt beam="2">  1       -2 0.11025443E+00 0.10960920E+04</pdfrwt>
<totfact> 0.91599441E+00</totfact>
</mgrwt>
</event>
<event>
 8    1  0.7046235E-006  0.2262944E+04  0.7818608E-02  0.8069024E-01
          1   -1    0    0  502    0  0.00000000000E+00  0.00000000000E+00  0.16123096126E+04  0.16123096126E+04  0.00000000000E+00 0. -1.
         -1   -1    0    0    0  501 -0.00000000000E+00 -0.00000000000E+00 -0.33254082585E+04  0.33254082585E+04  0.00000000000E+00 0.  1.
    9000010    2    1    2  502    0 -0.15570170699E+04 -0.13062545829E+04 -0.13801721550E+04  0.26519310755E+04  0.99862909059E+03 0.  0.
   -9000010    2    1    2    0  501  0.15570170699E+04  0.13062545829E+04 -0.33292649097E+03  0.22857867956E+04  0.99165419136E+03 0.  0.
        -13    1    3    3    0    0 -0.32934183365E+03  0.81686503307E+02  0.34880316305E+01  0.33933892459E+03  0.10566000000E+00 0.  1.
          4    1    3    3  502    0 -0.12276752363E+04 -0.13879410862E+04 -0.13836601867E+04  0.23125921509E+04  0.00000000000E+00 0.  1.
         13    1    4    4    0    0  0.10159107469E+04  0.13651231413E+04 -0.13647620561E+03  0.17071208518E+04  0.10566000000E+00 0. -1.
         -4    1    4    4    0  501  0.54110632295E+03 -0.58868558432E+02 -0.19645028537E+03  0.57866594381E+03  0.00000000000E+00 0. -1.
<mgrwt>
<rscale>  2 0.22629444E+04</rscale>
<asrwt>0</asrwt>
<pdfrwt beam="1">  1        1 0.24804764E+00 0.22629444E+04</pdfrwt>
<pdfrwt beam="2">  1       -1 0.51160126E+00 0.22629444E+04</pdfrwt>
<totfact> 0.52735876E-02</totfact>
</mgrwt>
</event>
<event>
 8    1  0.7046235E-006  0.1545665E+04  0.7818608E-02  0.8383693E-01
          2   -1    0    0  502    0  0.00000000000E+00  0.00000000000E+00  0.22098257163E+04  0.22098257163E+04  0.00000000000E+00 0.  1.
         -2   -1    0    0    0  501 -0.00000000000E+00 -0.00000000000E+00 -0.11810914619E+04  0.11810914619E+04  0.00000000000E+00 0. -1.
    9000010    2    1    2  502    0  0.11267474532E+04 -0.22106004829E+03  0.10043234746E+04  0.18345638655E+04  0.10190836897E+04 0.  0.
   -9000010    2    1    2    0  501 -0.11267474532E+04  0.22106004829E+03  0.24410779705E+02  0.15563533127E+04  0.10503391735E+04 0.  0.
        -13    1    3    3    0    0  0.64060416287E+03  0.37076220377E+03  0.31591780406E+03  0.80476230982E+03  0.10566000000E+00 0.  1.
          4    1    3    3  502    0  0.48614329036E+03 -0.59182225205E+03  0.68840567059E+03  0.10298015557E+04  0.00000000000E+00 0.  1.
         13    1    4    4    0    0 -0.12633624531E+04  0.29970961269E+03 -0.16618188276E+03  0.13090175588E+04  0.10566000000E+00 0. -1.
         -4    1    4    4    0  501  0.13661499988E+03 -0.78649564401E+02  0.19059266246E+03  0.24733575390E+03  0.00000000000E+00 0. -1.
<mgrwt>
<rscale>  2 0.15456651E+04</rscale>
<asrwt>0</asrwt>
<pdfrwt beam="1">  1        2 0.33997319E+00 0.15456651E+04</pdfrwt>
<pdfrwt beam="2">  1       -2 0.18170638E+00 0.15456651E+04</pdfrwt>
<totfact> 0.11123643E+00</totfact>
</mgrwt>
</event>
<event>
 8    1  0.7046235E-006  0.1244624E+04  0.7818608E-02  0.8573696E-01
          1   -1    0    0  502    0  0.00000000000E+00  0.00000000000E+00  0.61791046835E+03  0.61791046835E+03  0.00000000000E+00 0.  1.
         -1   -1    0    0    0  501 -0.00000000000E+00 -0.00000000000E+00 -0.26281851517E+04  0.26281851517E+04  0.00000000000E+00 0. -1.
    9000010    2    1    2  502    0  0.40115291340E+03  0.56340932411E+03 -0.69511779420E+03  0.14647211752E+04  0.10880559025E+04 0.  0.
   -9000010    2    1    2    0  501 -0.40115291340E+03 -0.56340932411E+03 -0.13151568892E+04  0.17813744449E+04  0.98249862250E+03 0.  0.
        -13    1    3    3    0    0  0.59689842667E+03  0.31465596835E+02 -0.40920527914E+02  0.59912629412E+03  0.10566000000E+00 0.  1.
          4    1    3    3  502    0 -0.19574551327E+03  0.53194372728E+03 -0.65419726629E+03  0.86559488109E+03  0.00000000000E+00 0.  1.
         13    1    4    4    0    0  0.76656262581E+02 -0.51415254740E+01 -0.96382382447E+03  0.96688106489E+03  0.10566000000E+00 0. -1.
         -4    1    4    4    0  501 -0.47780917598E+03 -0.55826779864E+03 -0.35133306472E+03  0.81449337997E+03  0.00000000000E+00 0. -1.
<mgrwt>
<rscale>  2 0.12446238E+04</rscale>
<asrwt>0</asrwt>
<pdfrwt beam="1">  1        1 0.95063150E-01 0.12446238E+04</pdfrwt>
<pdfrwt beam="2">  1       -1 0.40433617E+00 0.12446238E+04</pdfrwt>
<totfact> 0.50803961E-01</totfact>
</mgrwt>
</event>
<event>
 8    1  0.7046235E-006  0.1145910E+04  0.7818608E-02  0.8648445E-01
         -1   -1    0    0    0  501 -0.00000000000E+00  0.00000000000E+00  0.11365600618E+04  0.11365600618E+04  0.00000000000E+00 0. -1.
          1   -1    0    0  502    0  0.00000000000E+00 -0.00000000000E+00 -0.12083362101E+04  0.12083362101E+04  0.00000000000E+00 0.  1.
    9000010    2    1    2  502    0  0.34877366247E+02  0.57008598063E+03  0.20893001020E+03  0.11774045036E+04  0.10081741714E+04 0.  0.
   -9000010    2    1    2    0  501 -0.34877366247E+02 -0.57008598063E+03 -0.28070615847E+03  0.11674917683E+04  0.97878834565E+03 0.  0.
        -13    1    3    3    0    0 -0.28540128503E+03 -0.92284666249E+02  0.31395103522E+03  0.43420688249E+03  0.10566000000E+00 0.  1.
          4    1    3    3  502    0  0.32027865128E+03  0.66237064688E+03 -0.10502102502E+03  0.74319762110E+03  0.00000000000E+00 0.  1.
         13    1    4    4    0    0 -0.95732834309E+01 -0.15725335124E+03 -0.61551439930E+03  0.63535679043E+03  0.10566000000E+00 0. -1.
         -4    1    4    4    0  501 -0.25304082816E+02 -0.41283262940E+03  0.33480824084E+03  0.53213497784E+03  0.00000000000E+00 0. -1.
<mgrwt>
<rscale>  2 0.11459105E+04</rscale>
<asrwt>0</asrwt>
<pdfrwt beam="2">  1        1 0.18589788E+00 0.11459105E+04</pdfrwt>
<pdfrwt beam="1">  1       -1 0.17485540E+00 0.11459105E+04</pdfrwt>
<totfact> 0.32655062E+00</totfact>
</mgrwt>
</event>
<event>
 8    1  0.7046235E-006  0.1900171E+04  0.7818608E-02  0.8210293E-01
         -2   -1    0    0    0  501 -0.00000000000E+00  0.00000000000E+00  0.12229384069E+04  0.12229384069E+04  0.00000000000E+00 0.  1.
          2   -1    0    0  502    0  0.00000000000E+00 -0.00000000000E+00 -0.29822450304E+04  0.29822450304E+04  0.00000000000E+00 0. -1.
    9000010    2    1    2  502    0  0.14235452982E+04  0.76679386028E+03 -0.10867476115E+04  0.21833366920E+04  0.98563923402E+03 0.  0.
   -9000010    2    1    2    0  501 -0.14235452982E+04 -0.76679386028E+03 -0.67255901202E+03  0.20218467453E+04  0.10104823585E+04 0.  0.
        -13    1    3    3    0    0  0.60198716461E+03 -0.13170019534E+03 -0.11788806233E+03  0.62740026635E+03  0.10566000000E+00 0.  1.
          4    1    3    3  502    0  0.82155813355E+03  0.89849405562E+03 -0.96885954917E+03  0.15559364257E+04  0.00000000000E+00 0.  1.
         13    1    4    4    0    0 -0.50161041745E+03 -0.82754279858E+03 -0.47076843034E+03  0.10761333656E+04  0.10566000000E+00 0. -1.
         -4    1    4    4    0  501 -0.92193488072E+03  0.60748938301E+02 -0.20179058168E+03  0.94571337975E+03  0.00000000000E+00 0. -1.
<mgrwt>
<rscale>  2 0.19001707E+04</rscale>
<asrwt>0</asrwt>
<pdfrwt beam="2">  1        2 0.45880693E+00 0.19001707E+04</pdfrwt>
<pdfrwt beam="1">  1       -2 0.18814437E+00 0.19001707E+04</pdfrwt>
<totfact> 0.33831190E-01</totfact>
</mgrwt>
</event>
<event>
 8    1  0.7046235E-006  0.1046250E+04  0.7818608E-02  0.8732309E-01
          2   -1    0    0  502    0  0.00000000000E+00  0.00000000000E+00  0.20044792452E+04  0.20044792452E+04  0.00000000000E+00 0.  1.
         -2   -1    0    0    0  501 -0.00000000000E+00 -0.00000000000E+00 -0.61281934201E+03  0.61281934201E+03  0.00000000000E+00 0. -1.
    9000010    2    1    2  502    0 -0.24201702352E+03  0.20112694016E+03  0.25612806145E+03  0.10637448547E+04  0.98332458850E+03 0.  0.
   -9000010    2    1    2    0  501  0.24201702352E+03 -0.20112694016E+03  0.11355318418E+04  0.15535537325E+04  0.10124585672E+04 0.  0.
        -13    1    3    3    0    0 -0.62029631052E+02 -0.72742787839E+02  0.58894948383E+03  0.59665793716E+03  0.10566000000E+00 0.  1.
          4    1    3    3  502    0 -0.17998739247E+03  0.27386972800E+03 -0.33282142238E+03  0.46708691756E+03  0.00000000000E+00 0.  1.
         13    1    4    4    0    0 -0.29861415914E+02 -0.17485735290E+03  0.12462582207E+04  0.12588194318E+04  0.10566000000E+00 0. -1.
         -4    1    4    4    0  501  0.27187843944E+03 -0.26269587260E+02 -0.11072637891E+03  0.29473430074E+03  0.00000000000E+00 0. -1.
<mgrwt>
<rscale>  2 0.10462495E+04</rscale>
<asrwt>0</asrwt>
<pdfrwt beam="1">  1        2 0.30838142E+00 0.10462495E+04</pdfrwt>
<pdfrwt beam="2">  1       -2 0.94279900E-01 0.10462495E+04</pdfrwt>
<totfact> 0.97282234E+00</totfact>
</mgrwt>
</event>
<event>
 8    1  0.7046235E-006  0.1616244E+04  0.7818608E-02  0.8345572E-01
          1   -1    0    0  502    0  0.00000000000E+00  0.00000000000E+00  0.26877450000E+04  0.26877450000E+04  0.00000000000E+00 0.  1.
         -1   -1    0    0    0  501 -0.00000000000E+00 -0.00000000000E+00 -0.98062098681E+03  0.98062098681E+03  0.00000000000E+00 0. -1.
    9000010    2    1    2  502    0 -0.60668322144E+03 -0.11197762163E+04  0.10285220125E+04  0.19192117030E+04  0.10017747875E+04 0.  0.
   -9000010    2    1    2    0  501  0.60668322144E+03  0.11197762163E+04  0.67860200072E+03  0.17491542839E+04  0.98847191541E+03 0.  0.
        -13    1    3    3    0    0 -0.45514052645E+03  0.30285943298E+02  0.35359809862E+03  0.57714968915E+03  0.10566000000E+00 0.  1.
          4    1    3    3  502    0 -0.15154269499E+03 -0.11500621596E+04  0.67492391390E+03  0.13420620138E+04  0.00000000000E+00 0.  1.
         13    1    4    4    0    0 -0.25356034764E+03  0.32780979394E+03  0.32774200717E+03  0.52836251317E+03  0.10566000000E+00 0. -1.
         -4    1    4    4    0  501  0.86024356908E+03  0.79196642239E+03  0.35085999355E+03  0.12207917707E+04  0.00000000000E+00 0. -1.
<mgrwt>
<rscale>  2 0.16162439E+04</rscale>
<asrwt>0</asrwt>
<pdfrwt beam="1">  1        1 0.41349923E+00 0.16162439E+04</pdfrwt>
<pdfrwt beam="2">  1       -1 0.15086477E+00 0.16162439E+04</pdfrwt>
<totfact> 0.32533298E-01</totfact>
</mgrwt>
</event>
<event>
 8    1  0.7046235E-006  0.1155089E+04  0.7818608E-02  0.8641171E-01
         -2   -1    0    0    0  501 -0.00000000000E+00  0.00000000000E+00  0.78598767370E+03  0.78598767370E+03  0.00000000000E+00 0. -1.
          2   -1    0    0  502    0  0.00000000000E+00 -0.00000000000E+00 -0.17411207048E+04  0.17411207048E+04  0.00000000000E+00 0.  1.
    9000010    2    1    2  502    0 -0.41591549358E+03 -0.44668945871E+03 -0.66603936059E+03  0.13127236164E+04  0.95242726382E+03 0.  0.
   -9000010    2    1    2    0  501  0.41591549358E+03  0.44668945871E+03 -0.28909367048E+03  0.12143847621E+04  0.10092759928E+04 0.  0.
        -13    1    3    3    0    0  0.16120740492E+03  0.14860550466E+03 -0.37426704310E+03  0.43375944270E+03  0.10566000000E+00 0.  1.
          4    1    3    3  502    0 -0.57712289851E+03 -0.59529496337E+03 -0.29177231749E+03  0.87896417370E+03  0.00000000000E+00 0.  1.
         13    1    4    4    0    0  0.24113075048E+02  0.69958445514E+03 -0.84270120125E+02  0.70505412174E+03  0.10566000000E+00 0. -1.
         -4    1    4    4    0  501  0.39180241854E+03 -0.25289499643E+03 -0.20482355036E+03  0.50933064032E+03  0.00000000000E+00 0. -1.
<mgrwt>
<rscale>  2 0.11550889E+04</rscale>
<asrwt>0</asrwt>
<pdfrwt beam="2">  1        2 0.26786472E+00 0.11550889E+04</pdfrwt>
<pdfrwt beam="1">  1       -2 0.12092118E+00 0.11550889E+04</pdfrwt>
<totfact> 0.72031711E+00</totfact>
</mgrwt>
</event>
<event>
 8    1  0.7046235E-006  0.1458537E+04  0.7818608E-02  0.8433769E-01
          2   -1    0    0  502    0  0.00000000000E+00  0.00000000000E+00  0.23243930200E+04  0.23243930200E+04  0.00000000000E+00 0. -1.
         -2   -1    0    0    0  501 -0.00000000000E+00 -0.00000000000E+00 -0.92655057414E+03  0.92655057414E+03  0.00000000000E+00 0.  1.
    9000010    2    1    2  502    0  0.62901038254E+03  0.80556904779E+03  0.56434355073E+03  0.16252092583E+04  0.11305865460E+04 0.  0.
   -9000010    2    1    2    0  501 -0.62901038254E+03 -0.80556904779E+03  0.83349889512E+03  0.16257343358E+04  0.95062935489E+03 0.  0.
        -13    1    3    3    0    0  0.25007449293E+02 -0.11757068228E+03 -0.23426679322E+03  0.26330434752E+03  0.10566000000E+00 0.  1.
          4    1    3    3  502    0  0.60400293325E+03  0.92313973007E+03  0.79861034395E+03  0.13619049108E+04  0.00000000000E+00 0.  1.
         13    1    4    4    0    0 -0.87888516015E+03 -0.63256544617E+03  0.72443574873E+03  0.13028374164E+04  0.10566000000E+00 0. -1.
         -4    1    4    4    0  501  0.24987477760E+03 -0.17300360162E+03  0.10906314639E+03  0.32289691940E+03  0.00000000000E+00 0. -1.
<mgrwt>
<rscale>  2 0.14585370E+04</rscale>
<asrwt>0</asrwt>
<pdfrwt beam="1">  1        2 0.35759892E+00 0.14585370E+04</pdfrwt>
<pdfrwt beam="2">  1       -2 0.14254624E+00 0.14585370E+04</pdfrwt>
<totfact> 0.21122661E+00</totfact>
</mgrwt>
</event>
<event>
 8    1  0.7046235E-006  0.1125695E+04  0.7818608E-02  0.8664720E-01
          1   -1    0    0  502    0  0.00000000000E+00  0.00000000000E+00  0.23599140585E+04  0.23599140585E+04  0.00000000000E+00 0.  1.
         -1   -1    0    0    0  501 -0.00000000000E+00 -0.00000000000E+00 -0.60306117877E+03  0.60306117877E+03  0.00000000000E+00 0. -1.
    9000010    2    1    2  502    0  0.31242685212E+03  0.45170231693E+03  0.38007854681E+03  0.11771197824E+04  0.96928105276E+03 0.  0.
   -9000010    2    1    2    0  501 -0.31242685212E+03 -0.45170231693E+03  0.13767743329E+04  0.17858554549E+04  0.99605553106E+03 0.  0.
        -13    1    3    3    0    0 -0.13092986470E+03  0.61870086140E+03  0.28616771542E+03  0.69413641158E+03  0.10566000000E+00 0.  1.
          4    1    3    3  502    0  0.44335671682E+03 -0.16699854447E+03  0.93910831384E+02  0.48298337079E+03  0.00000000000E+00 0.  1.
         13    1    4    4    0    0 -0.20934464241E+03 -0.77250588759E+03  0.95728441945E+03  0.12477916479E+04  0.10566000000E+00 0. -1.
         -4    1    4    4    0  501 -0.10308220971E+03  0.32080357066E+03  0.41948991344E+03  0.53806380698E+03  0.00000000000E+00 0. -1.
<mgrwt>
<rscale>  2 0.11256947E+04</rscale>
<asrwt>0</asrwt>
<pdfrwt beam="1">  1        1 0.36306370E+00 0.11256947E+04</pdfrwt>
<pdfrwt beam="2">  1       -1 0.92778644E-01 0.11256947E+04</pdfrwt>
<totfact> 0.22999523E+00</totfact>
</mgrwt>
</event>
<event>
 8    1  0.7046235E-006  0.1103623E+04  0.7818608E-02  0.8682900E-01
          2   -1    0    0  502    0  0.00000000000E+00  0.00000000000E+00  0.34043224742E+04  0.34043224742E+04  0.00000000000E+00 0. -1.
         -2   -1    0    0    0  501 -0.00000000000E+00 -0.00000000000E+00 -0.55880240342E+03  0.55880240342E+03  0.00000000000E+00 0.  1.
    9000010    2    1    2  502    0 -0.97983025666E+02  0.46373427223E+03  0.26102112778E+04  0.28334332921E+04  0.99523422244E+03 0.  0.
   -9000010    2    1    2    0  501  0.97983025666E+02 -0.46373427223E+03  0.23530879297E+03  0.11296915855E+04  0.99808952592E+03 0.  0.
        -13    1    3    3    0    0  0.40990363751E+03  0.23626954319E+03  0.70832983791E+03  0.85180717273E+03  0.10566000000E+00 0.  1.
          4    1    3    3  502    0 -0.50788666317E+03  0.22746472903E+03  0.19018814399E+04  0.19816261194E+04  0.00000000000E+00 0.  1.
         13    1    4    4    0    0  0.20595763334E+03  0.72433177800E+01 -0.32810364905E+03  0.38745713062E+03  0.10566000000E+00 0. -1.
         -4    1    4    4    0  501 -0.10797460767E+03 -0.47097759001E+03  0.56341244203E+03  0.74223445489E+03  0.00000000000E+00 0. -1.
<mgrwt>
<rscale>  2 0.11036230E+04</rscale>
<asrwt>0</asrwt>
<pdfrwt beam="1">  1        2 0.52374191E+00 0.11036230E+04</pdfrwt>
<pdfrwt beam="2">  1       -2 0.85969603E-01 0.11036230E+04</pdfrwt>
<totfact> 0.17732175E+00</totfact>
</mgrwt>
</event>
<event>
 8    1  0.7046235E-006  0.1192494E+04  0.7818608E-02  0.8612236E-01
          2   -1    0    0  502    0  0.00000000000E+00  0.00000000000E+00  0.31670976176E+04  0.31670976176E+04  0.00000000000E+00 0. -1.
         -2   -1    0    0    0  501 -0.00000000000E+00 -0.00000000000E+00 -0.48982436365E+03  0.48982436365E+03  0.00000000000E+00 0.  1.
    9000010    2    1    2  502    0  0.11850610402E+03 -0.62477636882E+03  0.80823756572E+03  0.14385165340E+04  0.10058293335E+04 0.  0.
   -9000010    2    1    2    0  501 -0.11850610402E+03  0.62477636882E+03  0.18690356882E+04  0.22184054473E+04  0.10117505211E+04 0.  0.
        -13    1    3    3    0    0 -0.22167779701E+03  0.19905380560E+03  0.22497811011E+03  0.37333446720E+03  0.10566000000E+00 0.  1.
          4    1    3    3  502    0  0.34018390103E+03 -0.82383017442E+03  0.58325945561E+03  0.10651820668E+04  0.00000000000E+00 0.  1.
         13    1    4    4    0    0 -0.99017323639E+02 -0.19256014498E+03  0.10082427336E+04  0.10312309445E+04  0.10566000000E+00 0. -1.
         -4    1    4    4    0  501 -0.19488780383E+02  0.81733651381E+03  0.86079295466E+03  0.11871745028E+04  0.00000000000E+00 0. -1.
<mgrwt>
<rscale>  2 0.11924943E+04</rscale>
<asrwt>0</asrwt>
<pdfrwt beam="1">  1        2 0.48724578E+00 0.11924943E+04</pdfrwt>
<pdfrwt beam="2">  1       -2 0.75357596E-01 0.11924943E+04</pdfrwt>
<totfact> 0.33707907E+00</totfact>
</mgrwt>
</event>
<event>
 8    1  0.7046235E-006  0.1104343E+04  0.7818608E-02  0.8682300E-01
          1   -1    0    0  502    0  0.00000000000E+00  0.00000000000E+00  0.97510174044E+03  0.97510174044E+03  0.00000000000E+00 0. -1.
         -1   -1    0    0    0  501 -0.00000000000E+00 -0.00000000000E+00 -0.13101544761E+04  0.13101544761E+04  0.00000000000E+00 0.  1.
    9000010    2    1    2  502    0 -0.35578341155E+03 -0.15293119733E+03  0.78226062936E+02  0.10728977583E+04  0.99750714078E+03 0.  0.
   -9000010    2    1    2    0  501  0.35578341155E+03  0.15293119733E+03 -0.41327879856E+03  0.12123584581E+04  0.10719346429E+04 0.  0.
        -13    1    3    3    0    0  0.23417567255E+03 -0.92775113649E+02  0.34126977208E+03  0.42415862107E+03  0.10566000000E+00 0.  1.
          4    1    3    3  502    0 -0.58995908410E+03 -0.60156083676E+02 -0.26304370914E+03  0.64873913728E+03  0.00000000000E+00 0.  1.
         13    1    4    4    0    0  0.23318503955E+03  0.32843025163E+02  0.35452589711E+03  0.42560844665E+03  0.10566000000E+00 0. -1.
         -4    1    4    4    0  501  0.12259837200E+03  0.12008817216E+03 -0.76780469567E+03  0.78675001150E+03  0.00000000000E+00 0. -1.
<mgrwt>
<rscale>  2 0.11043427E+04</rscale>
<asrwt>0</asrwt>
<pdfrwt beam="1">  1        1 0.15001565E+00 0.11043427E+04</pdfrwt>
<pdfrwt beam="2">  1       -1 0.20156223E+00 0.11043427E+04</pdfrwt>
<totfact> 0.29235049E+00</totfact>
</mgrwt>
</event>
<event>
 8    1  0.7046235E-006  0.1504280E+04  0.7818608E-02  0.8407040E-01
         -2   -1    0    0    0  501 -0.00000000000E+00  0.00000000000E+00  0.78339012382E+03  0.78339012382E+03  0.00000000000E+00 0.  1.
          2   -1    0    0  502    0  0.00000000000E+00 -0.00000000000E+00 -0.31614068880E+04  0.31614068880E+04  0.00000000000E+00 0. -1.
    9000010    2    1    2  502    0 -0.69142104225E+03 -0.90993649700E+03 -0.61723122851E+03  0.16356646310E+04  0.99417146874E+03 0.  0.
   -9000010    2    1    2    0  501  0.69142104225E+03  0.90993649700E+03 -0.17607855357E+04  0.23091323809E+04  0.96212221861E+03 0.  0.
        -13    1    3    3    0    0 -0.41159502619E+03 -0.11822221635E+03 -0.66904126518E+03  0.79435708828E+03  0.10566000000E+00 0.  1.
          4    1    3    3  502    0 -0.27982601606E+03 -0.79171428065E+03  0.51810036671E+02  0.84130754267E+03  0.00000000000E+00 0.  1.
         13    1    4    4    0    0  0.84686321883E+03  0.35618869023E+03 -0.10764190950E+04  0.14151769408E+04  0.10566000000E+00 0. -1.
         -4    1    4    4    0  501 -0.15544217658E+03  0.55374780677E+03 -0.68436644073E+03  0.89395544015E+03  0.00000000000E+00 0. -1.
<mgrwt>
<rscale>  2 0.15042800E+04</rscale>
<asrwt>0</asrwt>
<pdfrwt beam="2">  1        2 0.48637029E+00 0.15042800E+04</pdfrwt>
<pdfrwt beam="1">  1       -2 0.12052156E+00 0.15042800E+04</pdfrwt>
<totfact> 0.10743529E+00</totfact>
</mgrwt>
</event>
<event>
 8    1  0.7046235E-006  0.1648630E+04  0.7818608E-02  0.8328747E-01
         -2   -1    0    0    0  501 -0.00000000000E+00  0.00000000000E+00  0.10377950725E+04  0.10377950725E+04  0.00000000000E+00 0.  1.
          2   -1    0    0  502    0  0.00000000000E+00 -0.00000000000E+00 -0.27943122379E+04  0.27943122379E+04  0.00000000000E+00 0. -1.
    9000010    2    1    2  502    0  0.46446859172E+03  0.12326928427E+04 -0.39620415929E+03  0.16913943330E+04  0.98416174313E+03 0.  0.
   -9000010    2    1    2    0  501 -0.46446859172E+03 -0.12326928427E+04 -0.13603130062E+04  0.21407129774E+04  0.99846775602E+03 0.  0.
        -13    1    3    3    0    0  0.24791042066E+03  0.11326084135E+04 -0.66129919347E+03  0.13347576669E+04  0.10566000000E+00 0.  1.
          4    1    3    3  502    0  0.21655817106E+03  0.10008442922E+03  0.26509503418E+03  0.35663666605E+03  0.00000000000E+00 0.  1.
         13    1    4    4    0    0  0.16880381847E+03  0.46247789748E+02 -0.88992975854E+01  0.17525066576E+03  0.10566000000E+00 0. -1.
         -4    1    4    4    0  501 -0.63327241019E+03 -0.12789406324E+04 -0.13514137086E+04  0.19654623117E+04  0.00000000000E+00 0. -1.
<mgrwt>
<rscale>  2 0.16486303E+04</rscale>
<asrwt>0</asrwt>
<pdfrwt beam="2">  1        2 0.42989419E+00 0.16486303E+04</pdfrwt>
<pdfrwt beam="1">  1       -2 0.15966078E+00 0.16486303E+04</pdfrwt>
<totfact> 0.78703058E-01</totfact>
</mgrwt>
</event>
<event>
 8    1  0.7046235E-006  0.1208601E+04  0.7818608E-02  0.8600113E-01
          2   -1    0    0  502    0  0.00000000000E+00  0.00000000000E+00  0.16315421131E+04  0.16315421131E+04  0.00000000000E+00 0. -1.
         -2   -1    0    0    0  501 -0.00000000000E+00 -0.00000000000E+00 -0.89740931556E+03  0.89740931556E+03  0.00000000000E+00 0.  1.
    9000010    2    1    2  502    0 -0.68638249760E+03 -0.92061614737E+02  0.30714107994E+03  0.12510200474E+04  0.99554971858E+03 0.  0.
   -9000010    2    1    2    0  501  0.68638249760E+03  0.92061614737E+02  0.42699171757E+03  0.12779313812E+04  0.98548993615E+03 0.  0.
        -13    1    3    3    0    0 -0.12643031216E+03  0.36968004463E+02 -0.35243244299E+03  0.37624446205E+03  0.10566000000E+00 0.  1.
          4    1    3    3  502    0 -0.55995218545E+03 -0.12902961920E+03  0.65957352293E+03  0.87477558537E+03  0.00000000000E+00 0.  1.
         13    1    4    4    0    0  0.75043249273E+03 -0.43840541749E+02 -0.73575442841E+02  0.75530409518E+03  0.10566000000E+00 0. -1.
         -4    1    4    4    0  501 -0.64049995123E+02  0.13590215649E+03  0.50056716041E+03  0.52262728602E+03  0.00000000000E+00 0. -1.
<mgrwt>
<rscale>  2 0.12086013E+04</rscale>
<asrwt>0</asrwt>
<pdfrwt beam="1">  1        2 0.25100648E+00 0.12086013E+04</pdfrwt>
<pdfrwt beam="2">  1       -2 0.13806297E+00 0.12086013E+04</pdfrwt>
<totfact> 0.56952539E+00</totfact>
</mgrwt>
</event>
<event>
 8    1  0.7046235E-006  0.1527684E+04  0.7818608E-02  0.8393743E-01
         -2   -1    0    0    0  501 -0.00000000000E+00  0.00000000000E+00  0.11561890541E+04  0.11561890541E+04  0.00000000000E+00 0. -1.
          2   -1    0    0  502    0  0.00000000000E+00 -0.00000000000E+00 -0.20415215029E+04  0.20415215029E+04  0.00000000000E+00 0.  1.
    9000010    2    1    2  502    0 -0.10466604225E+04  0.49196260744E+03 -0.27171081470E+03  0.15468260809E+04  0.99061542012E+03 0.  0.
   -9000010    2    1    2    0  501  0.10466604225E+04 -0.49196260744E+03 -0.61362163403E+03  0.16508844761E+04  0.10056653501E+04 0.  0.
        -13    1    3    3    0    0 -0.10667409423E+04  0.77618042081E+02 -0.37004994332E+02  0.10702009995E+04  0.10566000000E+00 0.  1.
          4    1    3    3  502    0  0.20080519849E+02  0.41434456536E+03 -0.23470582037E+03  0.47662508141E+03  0.00000000000E+00 0.  1.
         13    1    4    4    0    0 -0.10010626582E+03  0.20830144244E+02 -0.35356274425E+03  0.36805133426E+03  0.10566000000E+00 0. -1.
         -4    1    4    4    0  501  0.11467666883E+04 -0.51279275168E+03 -0.26005888978E+03  0.12828331418E+04  0.00000000000E+00 0. -1.
<mgrwt>
<rscale>  2 0.15276838E+04</rscale>
<asrwt>0</asrwt>
<pdfrwt beam="2">  1        2 0.31408022E+00 0.15276838E+04</pdfrwt>
<pdfrwt beam="1">  1       -2 0.17787524E+00 0.15276838E+04</pdfrwt>
<totfact> 0.14846767E+00</totfact>
</mgrwt>
</event>
<event>
 8    1  0.7046235E-006  0.1300733E+04  0.7818608E-02  0.8534338E-01
         -2   -1    0    0    0  501 -0.00000000000E+00  0.00000000000E+00  0.33678271285E+04  0.33678271285E+04  0.00000000000E+00 0.  1.
          2   -1    0    0  502    0  0.00000000000E+00 -0.00000000000E+00 -0.12234185054E+04  0.12234185054E+04  0.00000000000E+00 0. -1.
    9000010    2    1    2  502    0  0.70225698131E+03  0.33018475252E+03  0.28433537668E+04  0.31382949245E+04  0.10779830941E+04 0.  0.
   -9000010    2    1    2    0  501 -0.70225698131E+03 -0.33018475252E+03 -0.69894514370E+03  0.14529507093E+04  0.10101260373E+04 0.  0.
        -13    1    3    3    0    0  0.59596552408E+03  0.48563904622E+03  0.28479824954E+04  0.29499194047E+04  0.10566000000E+00 0.  1.
          4    1    3    3  502    0  0.10629145723E+03 -0.15545429370E+03 -0.46287286108E+01  0.18837551975E+03  0.00000000000E+00 0.  1.
         13    1    4    4    0    0  0.14215269250E+03 -0.39510415042E+03 -0.16135819088E+03  0.44983458581E+03  0.10566000000E+00 0. -1.
         -4    1    4    4    0  501 -0.84440967381E+03  0.64919397894E+02 -0.53758695282E+03  0.10031161235E+04  0.00000000000E+00 0. -1.
<mgrwt>
<rscale>  2 0.13007326E+04</rscale>
<asrwt>0</asrwt>
<pdfrwt beam="2">  1        2 0.18821823E+00 0.13007326E+04</pdfrwt>
<pdfrwt beam="1">  1       -2 0.51812725E+00 0.13007326E+04</pdfrwt>
<totfact> 0.78810029E-02</totfact>
</mgrwt>
</event>
<event>
 8    1  0.7046235E-006  0.1026691E+04  0.7818608E-02  0.8749910E-01
         -2   -1    0    0    0  501 -0.00000000000E+00  0.00000000000E+00  0.81709131803E+03  0.81709131803E+03  0.00000000000E+00 0.  1.
          2   -1    0    0  502    0  0.00000000000E+00 -0.00000000000E+00 -0.13224115211E+04  0.13224115211E+04  0.00000000000E+00 0. -1.
    9000010    2    1    2  502    0  0.12176128111E+03 -0.22145512339E+03 -0.41688346542E+03  0.10977584101E+04  0.98357181839E+03 0.  0.
   -9000010    2    1    2    0  501 -0.12176128111E+03  0.22145512339E+03 -0.88436737645E+02  0.10417444290E+04  0.10067483388E+04 0.  0.
        -13    1    3    3    0    0 -0.34707067017E+03 -0.17963139894E+03 -0.48424496665E+03  0.62226898401E+03  0.10566000000E+00 0.  1.
          4    1    3    3  502    0  0.46883195128E+03 -0.41823724454E+02  0.67361501232E+02  0.47548942608E+03  0.00000000000E+00 0.  1.
         13    1    4    4    0    0  0.32413865211E+03  0.35318828366E+03 -0.26096835538E+03  0.54581345090E+03  0.10566000000E+00 0. -1.
         -4    1    4    4    0  501 -0.44589993321E+03 -0.13173316027E+03  0.17253161774E+03  0.49593097813E+03  0.00000000000E+00 0. -1.
<mgrwt>
<rscale>  2 0.10266907E+04</rscale>
<asrwt>0</asrwt>
<pdfrwt beam="2">  1        2 0.20344793E+00 0.10266907E+04</pdfrwt>
<pdfrwt beam="1">  1       -2 0.12570636E+00 0.10266907E+04</pdfrwt>
<totfact> 0.11152195E+01</totfact>
</mgrwt>
</event>
<event>
 8    1  0.7046235E-006  0.1415862E+04  0.7818608E-02  0.8459629E-01
          2   -1    0    0  502    0  0.00000000000E+00  0.00000000000E+00  0.22278230859E+04  0.22278230859E+04  0.00000000000E+00 0.  1.
         -2   -1    0    0    0  501 -0.00000000000E+00 -0.00000000000E+00 -0.10864480120E+04  0.10864480120E+04  0.00000000000E+00 0. -1.
    9000010    2    1    2  502    0 -0.37448626404E+03  0.91978195761E+03  0.12579992262E+04  0.18951565351E+04  0.10113443666E+04 0.  0.
   -9000010    2    1    2    0  501  0.37448626404E+03 -0.91978195761E+03 -0.11662415232E+03  0.14191145628E+04  0.10069985789E+04 0.  0.
        -13    1    3    3    0    0  0.23606723067E+03  0.66314012663E+03  0.89908676109E+03  0.11418579509E+04  0.10566000000E+00 0.  1.
          4    1    3    3  502    0 -0.61055349470E+03  0.25664183098E+03  0.35891246510E+03  0.75329858416E+03  0.00000000000E+00 0.  1.
         13    1    4    4    0    0  0.10990291282E+02 -0.55486529179E+03 -0.52335325927E+03  0.76282037446E+03  0.10566000000E+00 0. -1.
         -4    1    4    4    0  501  0.36349597275E+03 -0.36491666582E+03  0.40672910695E+03  0.65629418833E+03  0.00000000000E+00 0. -1.
<mgrwt>
<rscale>  2 0.14158622E+04</rscale>
<asrwt>0</asrwt>
<pdfrwt beam="1">  1        2 0.34274201E+00 0.14158622E+04</pdfrwt>
<pdfrwt beam="2">  1       -2 0.16714585E+00 0.14158622E+04</pdfrwt>
<totfact> 0.14601346E+00</totfact>
</mgrwt>
</event>
<event>
 8    1  0.7046235E-006  0.1227368E+04  0.7818608E-02  0.8586233E-01
          2   -1    0    0  502    0  0.00000000000E+00  0.00000000000E+00  0.12049137658E+04  0.12049137658E+04  0.00000000000E+00 0. -1.
         -2   -1    0    0    0  501 -0.00000000000E+00 -0.00000000000E+00 -0.12849964520E+04  0.12849964520E+04  0.00000000000E+00 0.  1.
    9000010    2    1    2  502    0  0.62931092688E+03  0.35059143044E+03 -0.24481763407E+03  0.12526344210E+04  0.99509332478E+03 0.  0.
   -9000010    2    1    2    0  501 -0.62931092688E+03 -0.35059143044E+03  0.16473494791E+03  0.12372757967E+04  0.99235437236E+03 0.  0.
        -13    1    3    3    0    0 -0.10715946425E+03  0.45353830191E+03 -0.20155996306E+03  0.50774656271E+03  0.10566000000E+00 0.  1.
          4    1    3    3  502    0  0.73647039114E+03 -0.10294687147E+03 -0.43257671018E+02  0.74488785832E+03  0.00000000000E+00 0.  1.
         13    1    4    4    0    0 -0.39396439946E+03 -0.65554470138E+03 -0.97895273601E+02  0.77105790918E+03  0.10566000000E+00 0. -1.
         -4    1    4    4    0  501 -0.23534652743E+03  0.30495327094E+03  0.26263022151E+03  0.46621788756E+03  0.00000000000E+00 0. -1.
<mgrwt>
<rscale>  2 0.12273684E+04</rscale>
<asrwt>0</asrwt>
<pdfrwt beam="1">  1        2 0.18537135E+00 0.12273684E+04</pdfrwt>
<pdfrwt beam="2">  1       -2 0.19769176E+00 0.12273684E+04</pdfrwt>
<totfact> 0.30259397E+00</totfact>
</mgrwt>
</event>
<event>
 8    1  0.7046235E-006  0.1122792E+04  0.7818608E-02  0.8667086E-01
         -2   -1    0    0    0  501 -0.00000000000E+00  0.00000000000E+00  0.88839236765E+03  0.88839236765E+03  0.00000000000E+00 0.  1.
          2   -1    0    0  502    0  0.00000000000E+00 -0.00000000000E+00 -0.14231912480E+04  0.14231912480E+04  0.00000000000E+00 0. -1.
    9000010    2    1    2  502    0  0.39234117481E+03  0.21246320774E+03 -0.21054009270E+03  0.11573588284E+04  0.10469384485E+04 0.  0.
   -9000010    2    1    2    0  501 -0.39234117481E+03 -0.21246320774E+03 -0.32425878766E+03  0.11542247873E+04  0.10139126620E+04 0.  0.
        -13    1    3    3    0    0  0.60460246101E+03  0.13081475142E+03  0.23130234085E+03  0.66042215218E+03  0.10566000000E+00 0.  1.
          4    1    3    3  502    0 -0.21226128620E+03  0.81648456322E+02 -0.44184243355E+03  0.49693667617E+03  0.00000000000E+00 0.  1.
         13    1    4    4    0    0 -0.17465431860E+03  0.34084041598E+03  0.13163844994E+03  0.40497532374E+03  0.10566000000E+00 0. -1.
         -4    1    4    4    0  501 -0.21768685620E+03 -0.55330362372E+03 -0.45589723760E+03  0.74924946356E+03  0.00000000000E+00 0. -1.
<mgrwt>
<rscale>  2 0.11227923E+04</rscale>
<asrwt>0</asrwt>
<pdfrwt beam="2">  1        2 0.21895250E+00 0.11227923E+04</pdfrwt>
<pdfrwt beam="1">  1       -2 0.13667575E+00 0.11227923E+04</pdfrwt>
<totfact> 0.76889224E+00</totfact>
</mgrwt>
</event>
<event>
 8    1  0.7046235E-006  0.1296381E+04  0.7818608E-02  0.8537317E-01
         -2   -1    0    0    0  501 -0.00000000000E+00  0.00000000000E+00  0.57729293569E+03  0.57729293569E+03  0.00000000000E+00 0.  1.
          2   -1    0    0  502    0  0.00000000000E+00 -0.00000000000E+00 -0.33154237476E+04  0.33154237476E+04  0.00000000000E+00 0. -1.
    9000010    2    1    2  502    0 -0.11896796704E+03 -0.79353848206E+03 -0.69009514846E+03  0.14692481384E+04  0.10191182848E+04 0.  0.
   -9000010    2    1    2    0  501  0.11896796704E+03  0.79353848206E+03 -0.20480356634E+04  0.24234685449E+04  0.10172969133E+04 0.  0.
        -13    1    3    3    0    0  0.93216486548E+02 -0.86028154574E+02  0.24602939381E+03  0.27680431811E+03  0.10566000000E+00 0.  1.
          4    1    3    3  502    0 -0.21218445359E+03 -0.70751032749E+03 -0.93612454227E+03  0.11924438203E+04  0.00000000000E+00 0.  1.
         13    1    4    4    0    0  0.60061321100E+02  0.38995148202E+03 -0.19688443309E+04  0.20079884290E+04  0.10566000000E+00 0. -1.
         -4    1    4    4    0  501  0.58906645942E+02  0.40358700004E+03 -0.79191332524E+02  0.41548011587E+03  0.00000000000E+00 0. -1.
<mgrwt>
<rscale>  2 0.12963808E+04</rscale>
<asrwt>0</asrwt>
<pdfrwt beam="2">  1        2 0.51006520E+00 0.12963808E+04</pdfrwt>
<pdfrwt beam="1">  1       -2 0.88814297E-01 0.12963808E+04</pdfrwt>
<totfact> 0.18451151E+00</totfact>
</mgrwt>
</event>
<event>
 8    1  0.7046235E-006  0.1225475E+04  0.7818608E-02  0.8587622E-01
         -1   -1    0    0    0  501 -0.00000000000E+00  0.00000000000E+00  0.33965301297E+04  0.33965301297E+04  0.00000000000E+00 0. -1.
          1   -1    0    0  502    0  0.00000000000E+00 -0.00000000000E+00 -0.45828193667E+03  0.45828193667E+03  0.00000000000E+00 0.  1.
    9000010    2    1    2  502    0  0.73278916256E+03  0.90879317385E+02  0.18636219584E+04  0.22480603865E+04  0.10175704843E+04 0.  0.
   -9000010    2    1    2    0  501 -0.73278916256E+03 -0.90879317385E+02  0.10746262347E+04  0.16067516799E+04  0.93893046039E+03 0.  0.
        -13    1    3    3    0    0  0.40791165854E+03 -0.15267548720E+03  0.11161917292E+03  0.44962270460E+03  0.10566000000E+00 0.  1.
          4    1    3    3  502    0  0.32487750402E+03  0.24355480458E+03  0.17520027855E+04  0.17984376819E+04  0.00000000000E+00 0.  1.
         13    1    4    4    0    0  0.39163094829E+02 -0.35571392087E+03  0.47164320114E+03  0.59204177373E+03  0.10566000000E+00 0. -1.
         -4    1    4    4    0  501 -0.77195225739E+03  0.26483460349E+03  0.60298303351E+03  0.10147099061E+04  0.00000000000E+00 0. -1.
<mgrwt>
<rscale>  2 0.12254754E+04</rscale>
<asrwt>0</asrwt>
<pdfrwt beam="2">  1        1 0.70504915E-01 0.12254754E+04</pdfrwt>
<pdfrwt beam="1">  1       -1 0.52254308E+00 0.12254754E+04</pdfrwt>
<totfact> 0.54778161E-01</totfact>
</mgrwt>
</event>
<event>
 8    1  0.7046235E-006  0.1565824E+04  0.7818608E-02  0.8372593E-01
         -1   -1    0    0    0  501 -0.00000000000E+00  0.00000000000E+00  0.31944842298E+04  0.31944842298E+04  0.00000000000E+00 0.  1.
          1   -1    0    0  502    0  0.00000000000E+00 -0.00000000000E+00 -0.85523097826E+03  0.85523097826E+03  0.00000000000E+00 0. -1.
    9000010    2    1    2  502    0 -0.11275492683E+04 -0.40339353012E+03  0.18167092438E+04  0.23970231487E+04  0.10055813274E+04 0.  0.
   -9000010    2    1    2    0  501  0.11275492683E+04  0.40339353012E+03  0.52254400773E+03  0.16526920594E+04  0.10120499547E+04 0.  0.
        -13    1    3    3    0    0 -0.24217134196E+03  0.25174343620E+03  0.11083126965E+03  0.36647687243E+03  0.10566000000E+00 0.  1.
          4    1    3    3  502    0 -0.88537792632E+03 -0.65513696632E+03  0.17058779742E+04  0.20305462762E+04  0.00000000000E+00 0.  1.
         13    1    4    4    0    0  0.77205657031E+03  0.73605433560E+03  0.25339513257E+03  0.10963833440E+04  0.10566000000E+00 0. -1.
         -4    1    4    4    0  501  0.35549269797E+03 -0.33266080548E+03  0.26914887516E+03  0.55630871538E+03  0.00000000000E+00 0. -1.
<mgrwt>
<rscale>  2 0.15658239E+04</rscale>
<asrwt>0</asrwt>
<pdfrwt beam="2">  1        1 0.13157400E+00 0.15658239E+04</pdfrwt>
<pdfrwt beam="1">  1       -1 0.49145910E+00 0.15658239E+04</pdfrwt>
<totfact> 0.25262280E-01</totfact>
</mgrwt>
</event>
<event>
 8    1  0.7046235E-006  0.1099624E+04  0.7818608E-02  0.8686242E-01
          2   -1    0    0  502    0  0.00000000000E+00  0.00000000000E+00  0.18150965309E+04  0.18150965309E+04  0.00000000000E+00 0.  1.
         -2   -1    0    0    0  501 -0.00000000000E+00 -0.00000000000E+00 -0.66718966114E+03  0.66718966114E+03  0.00000000000E+00 0. -1.
    9000010    2    1    2  502    0 -0.46495604804E+03 -0.80730279122E+02  0.62303650388E+03  0.12650442950E+04  0.99471658203E+03 0.  0.
   -9000010    2    1    2    0  501  0.46495604804E+03  0.80730279122E+02  0.52487036585E+03  0.12172418970E+04  0.99170934769E+03 0.  0.
        -13    1    3    3    0    0 -0.58798041014E+03  0.14149075850E+03  0.13737161740E+02  0.60492091898E+03  0.10566000000E+00 0.  1.
          4    1    3    3  502    0  0.12302436210E+03 -0.22222103762E+03  0.60929934214E+03  0.66012337602E+03  0.00000000000E+00 0.  1.
         13    1    4    4    0    0  0.39785864359E+03 -0.13313920821E+02  0.81386865067E+03  0.90600825188E+03  0.10566000000E+00 0. -1.
         -4    1    4    4    0  501  0.67097404452E+02  0.94044199943E+02 -0.28899828482E+03  0.31123364512E+03  0.00000000000E+00 0. -1.
<mgrwt>
<rscale>  2 0.10996236E+04</rscale>
<asrwt>0</asrwt>
<pdfrwt beam="1">  1        2 0.27924562E+00 0.10996236E+04</pdfrwt>
<pdfrwt beam="2">  1       -2 0.10264456E+00 0.10996236E+04</pdfrwt>
<totfact> 0.10004579E+01</totfact>
</mgrwt>
</event>
<event>
 8    1  0.7046235E-006  0.1139702E+04  0.7818608E-02  0.8653406E-01
          2   -1    0    0  502    0  0.00000000000E+00  0.00000000000E+00  0.23023005075E+04  0.23023005075E+04  0.00000000000E+00 0.  1.
         -2   -1    0    0    0  501 -0.00000000000E+00 -0.00000000000E+00 -0.57181628075E+03  0.57181628075E+03  0.00000000000E+00 0. -1.
    9000010    2    1    2  502    0  0.28716163415E+03 -0.47598416512E+03  0.10403088340E+04  0.15529146565E+04  0.10100884767E+04 0.  0.
   -9000010    2    1    2    0  501 -0.28716163415E+03  0.47598416512E+03  0.69017539270E+03  0.13212021317E+04  0.97990319449E+03 0.  0.
        -13    1    3    3    0    0 -0.32184152488E+03 -0.39923248059E+03  0.63997211180E+03  0.82008100560E+03  0.10566000000E+00 0.  1.
          4    1    3    3  502    0  0.60900315902E+03 -0.76751684532E+02  0.40033672225E+03  0.73283365094E+03  0.00000000000E+00 0.  1.
         13    1    4    4    0    0 -0.24327638100E+03  0.69392411224E+02 -0.21238661133E+03  0.33031316674E+03  0.10566000000E+00 0. -1.
         -4    1    4    4    0  501 -0.43885253146E+02  0.40659175390E+03  0.90256200402E+03  0.99088896496E+03  0.00000000000E+00 0. -1.
<mgrwt>
<rscale>  2 0.11397017E+04</rscale>
<asrwt>0</asrwt>
<pdfrwt beam="1">  1        2 0.35420007E+00 0.11397017E+04</pdfrwt>
<pdfrwt beam="2">  1       -2 0.87971737E-01 0.11397017E+04</pdfrwt>
<totfact> 0.77700665E+00</totfact>
</mgrwt>
</event>
<event>
 8    1  0.7046235E-006  0.2463973E+04  0.7818608E-02  0.8001981E-01
         -2   -1    0    0    0  501 -0.00000000000E+00  0.00000000000E+00  0.13462924795E+04  0.13462924795E+04  0.00000000000E+00 0.  1.
          2   -1    0    0  502    0  0.00000000000E+00 -0.00000000000E+00 -0.45524144816E+04  0.45524144816E+04  0.00000000000E+00 0. -1.
    9000010    2    1    2  502    0 -0.18480204366E+04  0.12781598116E+04 -0.18929667682E+04  0.31118203578E+04  0.10252954285E+04 0.  0.
   -9000010    2    1    2    0  501  0.18480204366E+04 -0.12781598116E+04 -0.13131552339E+04  0.27868866033E+04  0.99673879883E+03 0.  0.
        -13    1    3    3    0    0 -0.14777869231E+04  0.13527384587E+04 -0.12359847576E+04  0.23540207857E+04  0.10566000000E+00 0.  1.
          4    1    3    3  502    0 -0.37023351351E+03 -0.74578647091E+02 -0.65698201061E+03  0.75779957205E+03  0.00000000000E+00 0.  1.
         13    1    4    4    0    0  0.82297486184E+03 -0.96542931742E+01 -0.51799456323E+03  0.97247067169E+03  0.10566000000E+00 0. -1.
         -4    1    4    4    0  501  0.10250455748E+04 -0.12685055184E+04 -0.79516067069E+03  0.18144159316E+04  0.00000000000E+00 0. -1.
<mgrwt>
<rscale>  2 0.24639730E+04</rscale>
<asrwt>0</asrwt>
<pdfrwt beam="2">  1        2 0.70037147E+00 0.24639730E+04</pdfrwt>
<pdfrwt beam="1">  1       -2 0.20712192E+00 0.24639730E+04</pdfrwt>
<totfact> 0.12087083E-02</totfact>
</mgrwt>
</event>
<event>
 8    1  0.7046235E-006  0.1942402E+04  0.7818608E-02  0.8192254E-01
         -4   -1    0    0    0  501 -0.00000000000E+00  0.00000000000E+00  0.16253330998E+04  0.16253330998E+04  0.00000000000E+00 0.  1.
          4   -1    0    0  502    0  0.00000000000E+00 -0.00000000000E+00 -0.27121889732E+04  0.27121889732E+04  0.00000000000E+00 0. -1.
    9000010    2    1    2  502    0 -0.59836147055E+02  0.16332764178E+04 -0.13608058862E+04  0.23528563232E+04  0.10064631122E+04 0.  0.
   -9000010    2    1    2    0  501  0.59836147055E+02 -0.16332764178E+04  0.27395001283E+03  0.19846657499E+04  0.10920976639E+04 0.  0.
        -13    1    3    3    0    0  0.25312412195E+03  0.12430367528E+04 -0.13500289032E+04  0.18525091742E+04  0.10566000000E+00 0.  1.
          4    1    3    3  502    0 -0.31296026901E+03  0.39023966507E+03 -0.10776983017E+02  0.50034714902E+03  0.00000000000E+00 0.  1.
         13    1    4    4    0    0  0.35100356842E+03 -0.11502121182E+04  0.58850384353E+03  0.13388533179E+04  0.10566000000E+00 0. -1.
         -4    1    4    4    0  501 -0.29116742137E+03 -0.48306429967E+03 -0.31455383070E+03  0.64581243197E+03  0.00000000000E+00 0. -1.
<mgrwt>
<rscale>  2 0.19424019E+04</rscale>
<asrwt>0</asrwt>
<pdfrwt beam="2">  1        4 0.41725984E+00 0.19424019E+04</pdfrwt>
<pdfrwt beam="1">  1       -4 0.25005125E+00 0.19424019E+04</pdfrwt>
<totfact> 0.27963215E-02</totfact>
</mgrwt>
</event>
<event>
 8    1  0.7046235E-006  0.1982138E+04  0.7818608E-02  0.8175704E-01
         -1   -1    0    0    0  501 -0.00000000000E+00  0.00000000000E+00  0.18812943281E+04  0.18812943281E+04  0.00000000000E+00 0. -1.
          1   -1    0    0  502    0  0.00000000000E+00 -0.00000000000E+00 -0.20901549582E+04  0.20901549582E+04  0.00000000000E+00 0.  1.
    9000010    2    1    2  502    0  0.16716578085E+04  0.22848094208E+03 -0.49606610870E+02  0.19983063452E+04  0.10696373515E+04 0.  0.
   -9000010    2    1    2    0  501 -0.16716578085E+04 -0.22848094208E+03 -0.15925401918E+03  0.19731429411E+04  0.10105878752E+04 0.  0.
        -13    1    3    3    0    0 -0.12111470900E+02  0.15319618412E+03 -0.25771588468E+03  0.30005540645E+03  0.10566000000E+00 0.  1.
          4    1    3    3  502    0  0.16837692794E+04  0.75284757955E+02  0.20810927381E+03  0.16982509388E+04  0.00000000000E+00 0.  1.
         13    1    4    4    0    0 -0.11176001267E+04  0.96718683183E+02  0.32582254740E+03  0.11681373594E+04  0.10566000000E+00 0. -1.
         -4    1    4    4    0  501 -0.55405768184E+03 -0.32519962526E+03 -0.48507656658E+03  0.80500558167E+03  0.00000000000E+00 0. -1.
<mgrwt>
<rscale>  2 0.19821376E+04</rscale>
<asrwt>0</asrwt>
<pdfrwt beam="2">  1        1 0.32156230E+00 0.19821376E+04</pdfrwt>
<pdfrwt beam="1">  1       -1 0.28942990E+00 0.19821376E+04</pdfrwt>
<totfact> 0.54768867E-02</totfact>
</mgrwt>
</event>
<event>
 8    1  0.7046235E-006  0.1722241E+04  0.7818608E-02  0.8291945E-01
         -2   -1    0    0    0  501 -0.00000000000E+00  0.00000000000E+00  0.12243252147E+04  0.12243252147E+04  0.00000000000E+00 0. -1.
          2   -1    0    0  502    0  0.00000000000E+00 -0.00000000000E+00 -0.24663807727E+04  0.24663807727E+04  0.00000000000E+00 0.  1.
    9000010    2    1    2  502    0 -0.13248904188E+04 -0.45038237461E+03 -0.37570296789E+03  0.17638055707E+04  0.10058222835E+04 0.  0.
   -9000010    2    1    2    0  501  0.13248904188E+04  0.45038237461E+03 -0.86635259016E+03  0.19269004167E+04  0.10020975504E+04 0.  0.
        -13    1    3    3    0    0 -0.85185942186E+03 -0.21805054284E+03 -0.71814229684E+03  0.11353144426E+04  0.10566000000E+00 0.  1.
          4    1    3    3  502    0 -0.47303099693E+03 -0.23233183176E+03  0.34243932896E+03  0.62849112812E+03  0.00000000000E+00 0.  1.
         13    1    4    4    0    0  0.92595902164E+02  0.43797825971E+03 -0.42676750289E+03  0.61848966828E+03  0.10566000000E+00 0. -1.
         -4    1    4    4    0  501  0.12322945166E+04  0.12404114892E+02 -0.43958508727E+03  0.13084107485E+04  0.00000000000E+00 0. -1.
<mgrwt>
<rscale>  2 0.17222414E+04</rscale>
<asrwt>0</asrwt>
<pdfrwt beam="2">  1        2 0.37944320E+00 0.17222414E+04</pdfrwt>
<pdfrwt beam="1">  1       -2 0.18835772E+00 0.17222414E+04</pdfrwt>
<totfact> 0.69306353E-01</totfact>
</mgrwt>
</event>
<event>
 8    1  0.7046235E-006  0.1277198E+04  0.7818608E-02  0.8550593E-01
          2   -1    0    0  502    0  0.00000000000E+00  0.00000000000E+00  0.35252278355E+04  0.35252278355E+04  0.00000000000E+00 0.  1.
         -2   -1    0    0    0  501 -0.00000000000E+00 -0.00000000000E+00 -0.11504689243E+04  0.11504689243E+04  0.00000000000E+00 0. -1.
    9000010    2    1    2  502    0  0.59270657057E+03 -0.54064962395E+03  0.29962767812E+04  0.32585570012E+04  0.99845685243E+03 0.  0.
   -9000010    2    1    2    0  501 -0.59270657057E+03  0.54064962395E+03 -0.62151786993E+03  0.14171397586E+04  0.98913979705E+03 0.  0.
        -13    1    3    3    0    0  0.32782519259E+03  0.18869526849E+03  0.40752897302E+03  0.55601720860E+03  0.10566000000E+00 0.  1.
          4    1    3    3  502    0  0.26488137798E+03 -0.72934489243E+03  0.25887478081E+04  0.27025397926E+04  0.00000000000E+00 0.  1.
         13    1    4    4    0    0 -0.25867589253E+02  0.32650056741E+03  0.20940425045E+03  0.38874400827E+03  0.10566000000E+00 0. -1.
         -4    1    4    4    0  501 -0.56683898131E+03  0.21414905653E+03 -0.83092212039E+03  0.10283957503E+04  0.00000000000E+00 0. -1.
<mgrwt>
<rscale>  2 0.12771976E+04</rscale>
<asrwt>0</asrwt>
<pdfrwt beam="1">  1        2 0.54234274E+00 0.12771976E+04</pdfrwt>
<pdfrwt beam="2">  1       -2 0.17699522E+00 0.12771976E+04</pdfrwt>
<totfact> 0.19558412E-01</totfact>
</mgrwt>
</event>
<event>
 8    1  0.7046235E-006  0.1322518E+04  0.7818608E-02  0.8519605E-01
         -1   -1    0    0    0  501 -0.00000000000E+00  0.00000000000E+00  0.11326369788E+04  0.11326369788E+04  0.00000000000E+00 0. -1.
          1   -1    0    0  502    0  0.00000000000E+00 -0.00000000000E+00 -0.17197866465E+04  0.17197866465E+04  0.00000000000E+00 0.  1.
    9000010    2    1    2  502    0 -0.75446126175E+03 -0.45870601956E+03 -0.75160147592E+03  0.15324175562E+04  0.10018861113E+04 0.  0.
   -9000010    2    1    2    0  501  0.75446126175E+03  0.45870601956E+03  0.16445180823E+03  0.13200060691E+04  0.96734100370E+03 0.  0.
        -13    1    3    3    0    0 -0.52114634319E+03 -0.39951977964E+03 -0.99366883556E+03  0.11910446387E+04  0.10566000000E+00 0.  1.
          4    1    3    3  502    0 -0.23331491855E+03 -0.59186239920E+02  0.24206735964E+03  0.34137291753E+03  0.00000000000E+00 0.  1.
         13    1    4    4    0    0  0.23038331457E+03 -0.17717613247E+03 -0.26278125165E+03  0.39181864547E+03  0.10566000000E+00 0. -1.
         -4    1    4    4    0  501  0.52407794717E+03  0.63588215203E+03  0.42723305988E+03  0.92818742366E+03  0.00000000000E+00 0. -1.
<mgrwt>
<rscale>  2 0.13225182E+04</rscale>
<asrwt>0</asrwt>
<pdfrwt beam="2">  1        1 0.26458256E+00 0.13225182E+04</pdfrwt>
<pdfrwt beam="1">  1       -1 0.17425184E+00 0.13225182E+04</pdfrwt>
<totfact> 0.13369639E+00</totfact>
</mgrwt>
</event>
<event>
 8    1  0.7046235E-006  0.1148150E+04  0.7818608E-02  0.8646664E-01
          2   -1    0    0  502    0  0.00000000000E+00  0.00000000000E+00  0.32019352585E+04  0.32019352585E+04  0.00000000000E+00 0.  1.
         -2   -1    0    0    0  501 -0.00000000000E+00 -0.00000000000E+00 -0.41176673767E+03  0.41176673767E+03  0.00000000000E+00 0. -1.
    9000010    2    1    2  502    0 -0.33455561577E+03 -0.44325372138E+03  0.13670394385E+04  0.17787335723E+04  0.99332521022E+03 0.  0.
   -9000010    2    1    2    0  501  0.33455561577E+03  0.44325372138E+03  0.14231290824E+04  0.18349684239E+04  0.10165684483E+04 0.  0.
        -13    1    3    3    0    0 -0.64421929677E+03 -0.50610826026E+03  0.92914163895E+03  0.12387365619E+04  0.10566000000E+00 0.  1.
          4    1    3    3  502    0  0.30966368099E+03  0.62854538874E+02  0.43789779951E+03  0.53999701036E+03  0.00000000000E+00 0.  1.
         13    1    4    4    0    0  0.29527178367E+02 -0.16217729331E+03 -0.82072147458E+02  0.18414444678E+03  0.10566000000E+00 0. -1.
         -4    1    4    4    0  501  0.30502843741E+03  0.60543101469E+03  0.15052012298E+04  0.16508239771E+04  0.00000000000E+00 0. -1.
<mgrwt>
<rscale>  2 0.11481496E+04</rscale>
<asrwt>0</asrwt>
<pdfrwt beam="1">  1        2 0.49260541E+00 0.11481496E+04</pdfrwt>
<pdfrwt beam="2">  1       -2 0.63348731E-01 0.11481496E+04</pdfrwt>
<totfact> 0.46299188E+00</totfact>
</mgrwt>
</event>
<event>
 8    1  0.7046235E-006  0.1697326E+04  0.7818608E-02  0.8304186E-01
         -2   -1    0    0    0  501 -0.00000000000E+00  0.00000000000E+00  0.21945314039E+04  0.21945314039E+04  0.00000000000E+00 0.  1.
          2   -1    0    0  502    0  0.00000000000E+00 -0.00000000000E+00 -0.18235396037E+04  0.18235396037E+04  0.00000000000E+00 0. -1.
    9000010    2    1    2  502    0  0.13468885494E+04 -0.27981921060E+03 -0.87822562569E+03  0.19056960805E+04  0.98386469926E+03 0.  0.
   -9000010    2    1    2    0  501 -0.13468885494E+04  0.27981921060E+03  0.12492174259E+04  0.21123749271E+04  0.10045775731E+04 0.  0.
        -13    1    3    3    0    0  0.90858608743E+03  0.17642757224E+02 -0.34427826446E+02  0.90940927615E+03  0.10566000000E+00 0.  1.
          4    1    3    3  502    0  0.43830246193E+03 -0.29746196782E+03 -0.84379779924E+03  0.99628680430E+03  0.00000000000E+00 0.  1.
         13    1    4    4    0    0 -0.14540476003E+04  0.62569410249E+02  0.11289163370E+04  0.18419070178E+04  0.10566000000E+00 0. -1.
         -4    1    4    4    0  501  0.10715905098E+03  0.21724980035E+03  0.12030108882E+03  0.27046790924E+03  0.00000000000E+00 0. -1.
<mgrwt>
<rscale>  2 0.16973264E+04</rscale>
<asrwt>0</asrwt>
<pdfrwt beam="2">  1        2 0.28054455E+00 0.16973264E+04</pdfrwt>
<pdfrwt beam="1">  1       -2 0.33762022E+00 0.16973264E+04</pdfrwt>
<totfact> 0.12007116E-01</totfact>
</mgrwt>
</event>
<event>
 8    1  0.7046235E-006  0.1545094E+04  0.7818608E-02  0.8384010E-01
         -2   -1    0    0    0  501 -0.00000000000E+00  0.00000000000E+00  0.94150890495E+03  0.94150890495E+03  0.00000000000E+00 0.  1.
          2   -1    0    0  502    0  0.00000000000E+00 -0.00000000000E+00 -0.25526995860E+04  0.25526995860E+04  0.00000000000E+00 0. -1.
    9000010    2    1    2  502    0 -0.99721151003E+03 -0.61998877668E+03 -0.66593708974E+03  0.16879445240E+04  0.10133447734E+04 0.  0.
   -9000010    2    1    2    0  501  0.99721151003E+03  0.61998877668E+03 -0.94525359134E+03  0.18062639670E+04  0.99512224750E+03 0.  0.
        -13    1    3    3    0    0  0.13450105071E+03 -0.33572194661E+03 -0.28502721539E+03  0.46047831953E+03  0.10566000000E+00 0.  1.
          4    1    3    3  502    0 -0.11317125607E+04 -0.28426683007E+03 -0.38090987435E+03  0.12274662045E+04  0.00000000000E+00 0.  1.
         13    1    4    4    0    0  0.39158976248E+03 -0.20086190375E+02  0.13272566122E+03  0.41395906734E+03  0.10566000000E+00 0. -1.
         -4    1    4    4    0  501  0.60562174754E+03  0.64007496706E+03 -0.10779792526E+04  0.13923048996E+04  0.00000000000E+00 0. -1.
<mgrwt>
<rscale>  2 0.15450938E+04</rscale>
<asrwt>0</asrwt>
<pdfrwt beam="2">  1        2 0.39272301E+00 0.15450938E+04</pdfrwt>
<pdfrwt beam="1">  1       -2 0.14484752E+00 0.15450938E+04</pdfrwt>
<totfact> 0.14882240E+00</totfact>
</mgrwt>
</event>
<event>
 8    1  0.7046235E-006  0.1332714E+04  0.7818608E-02  0.8512810E-01
          1   -1    0    0  502    0  0.00000000000E+00  0.00000000000E+00  0.16120305588E+04  0.16120305588E+04  0.00000000000E+00 0.  1.
         -1   -1    0    0    0  501 -0.00000000000E+00 -0.00000000000E+00 -0.11065849090E+04  0.11065849090E+04  0.00000000000E+00 0. -1.
    9000010    2    1    2  502    0 -0.72118537146E+03 -0.49621995781E+03  0.16214717392E+03  0.13345538329E+04  0.99418290091E+03 0.  0.
   -9000010    2    1    2    0  501  0.72118537146E+03  0.49621995781E+03  0.34329847589E+03  0.13840616348E+04  0.10155935106E+04 0.  0.
        -13    1    3    3    0    0 -0.75741641982E+03 -0.19325307037E+03 -0.25095951749E+03  0.82097933763E+03  0.10566000000E+00 0.  1.
          4    1    3    3  502    0  0.36231048361E+02 -0.30296688744E+03  0.41310669141E+03  0.51357449531E+03  0.00000000000E+00 0.  1.
         13    1    4    4    0    0  0.78694512310E+03 -0.56622169515E+01  0.27480221245E+02  0.78744514806E+03  0.10566000000E+00 0. -1.
         -4    1    4    4    0  501 -0.65759751641E+02  0.50188217476E+03  0.31581825465E+03  0.59661648674E+03  0.00000000000E+00 0. -1.
<mgrwt>
<rscale>  2 0.13327142E+04</rscale>
<asrwt>0</asrwt>
<pdfrwt beam="1">  1        1 0.24800470E+00 0.13327142E+04</pdfrwt>
<pdfrwt beam="2">  1       -1 0.17024383E+00 0.13327142E+04</pdfrwt>
<totfact> 0.17417667E+00</totfact>
</mgrwt>
</event>
<event>
 8    1  0.7046235E-006  0.1103302E+04  0.7818608E-02  0.8683168E-01
          2   -1    0    0  502    0  0.00000000000E+00  0.00000000000E+00  0.38515932415E+04  0.38515932415E+04  0.00000000000E+00 0.  1.
         -2   -1    0    0    0  501 -0.00000000000E+00 -0.00000000000E+00 -0.31657783858E+03  0.31657783858E+03  0.00000000000E+00 0. -1.
    9000010    2    1    2  502    0 -0.39480043019E+03 -0.17835955093E+03  0.16621946428E+04  0.19864760024E+04  0.99775566566E+03 0.  0.
   -9000010    2    1    2    0  501  0.39480043019E+03  0.17835955093E+03  0.18728207602E+04  0.21816950778E+04  0.10318218371E+04 0.  0.
        -13    1    3    3    0    0 -0.37823358540E+03 -0.42147138832E+03  0.38153040371E+03  0.68283543876E+03  0.10566000000E+00 0.  1.
          4    1    3    3  502    0 -0.16566844787E+02  0.24311183740E+03  0.12806642391E+04  0.13036405636E+04  0.00000000000E+00 0.  1.
         13    1    4    4    0    0 -0.14902111684E+03  0.26004768533E+03  0.85484902245E+02  0.31167253903E+03  0.10566000000E+00 0. -1.
         -4    1    4    4    0  501  0.54382154703E+03 -0.81688134400E+02  0.17873358579E+04  0.18700225387E+04  0.00000000000E+00 0. -1.
<mgrwt>
<rscale>  2 0.11033019E+04</rscale>
<asrwt>0</asrwt>
<pdfrwt beam="1">  1        2 0.59255277E+00 0.11033019E+04</pdfrwt>
<pdfrwt beam="2">  1       -2 0.48704286E-01 0.11033019E+04</pdfrwt>
<totfact> 0.25578573E+00</totfact>
</mgrwt>
</event>
<event>
 8    1  0.7046235E-006  0.1077369E+04  0.7818608E-02  0.8705111E-01
         -2   -1    0    0    0  501 -0.00000000000E+00  0.00000000000E+00  0.42523102784E+03  0.42523102784E+03  0.00000000000E+00 0.  1.
          2   -1    0    0  502    0  0.00000000000E+00 -0.00000000000E+00 -0.28261037730E+04  0.28261037730E+04  0.00000000000E+00 0. -1.
    9000010    2    1    2  502    0  0.36609614822E+03  0.15848961967E+03 -0.15073436345E+04  0.18564178375E+04  0.10075003750E+04 0.  0.
   -9000010    2    1    2    0  501 -0.36609614822E+03 -0.15848961967E+03 -0.89352911057E+03  0.13949169633E+04  0.99410950792E+03 0.  0.
        -13    1    3    3    0    0  0.16713656535E+03  0.20072450186E+03 -0.16082828036E+04  0.16293552542E+04  0.10566000000E+00 0.  1.
          4    1    3    3  502    0  0.19895958287E+03 -0.42234882191E+02  0.10093916901E+03  0.22706258329E+03  0.00000000000E+00 0.  1.
         13    1    4    4    0    0 -0.27456418183E+03 -0.17724238053E+03  0.14118240795E+03  0.35599555458E+03  0.10566000000E+00 0. -1.
         -4    1    4    4    0  501 -0.91531966392E+02  0.18752760863E+02 -0.10347115185E+04  0.10389214087E+04  0.00000000000E+00 0. -1.
<mgrwt>
<rscale>  2 0.10773687E+04</rscale>
<asrwt>0</asrwt>
<pdfrwt beam="2">  1        2 0.43478520E+00 0.10773687E+04</pdfrwt>
<pdfrwt beam="1">  1       -2 0.65420157E-01 0.10773687E+04</pdfrwt>
<totfact> 0.74755075E+00</totfact>
</mgrwt>
</event>
<event>
 8    1  0.7046235E-006  0.1725570E+04  0.7818608E-02  0.8290326E-01
         -4   -1    0    0    0  501 -0.00000000000E+00  0.00000000000E+00  0.16798959334E+04  0.16798959334E+04  0.00000000000E+00 0.  1.
          4   -1    0    0  502    0  0.00000000000E+00 -0.00000000000E+00 -0.17932406694E+04  0.17932406694E+04  0.00000000000E+00 0. -1.
    9000010    2    1    2  502    0 -0.85423608274E+03 -0.11257338075E+04 -0.24356678336E+03  0.17456720303E+04  0.99551502689E+03 0.  0.
   -9000010    2    1    2    0  501  0.85423608274E+03  0.11257338075E+04  0.13022204731E+03  0.17274645725E+04  0.98497724701E+03 0.  0.
        -13    1    3    3    0    0  0.12039739221E+03  0.69864968043E+02 -0.14348126222E+03  0.19990880317E+03  0.10566000000E+00 0.  1.
          4    1    3    3  502    0 -0.97463347495E+03 -0.11955987756E+04 -0.10008552114E+03  0.15457632271E+04  0.00000000000E+00 0.  1.
         13    1    4    4    0    0  0.28829255825E+03 -0.97185635289E+02  0.22230236342E+03  0.37679702599E+03  0.10566000000E+00 0. -1.
         -4    1    4    4    0  501  0.56594352449E+03  0.12229194428E+04 -0.92080316107E+02  0.13506675465E+04  0.00000000000E+00 0. -1.
<mgrwt>
<rscale>  2 0.17255703E+04</rscale>
<asrwt>0</asrwt>
<pdfrwt beam="2">  1        4 0.27588318E+00 0.17255703E+04</pdfrwt>
<pdfrwt beam="1">  1       -4 0.25844553E+00 0.17255703E+04</pdfrwt>
<totfact> 0.80784133E-02</totfact>
</mgrwt>
</event>
<event>
 8    1  0.7046235E-006  0.1269548E+04  0.7818608E-02  0.8555954E-01
          2   -1    0    0  502    0  0.00000000000E+00  0.00000000000E+00  0.11850481518E+04  0.11850481518E+04  0.00000000000E+00 0.  1.
         -2   -1    0    0    0  501 -0.00000000000E+00 -0.00000000000E+00 -0.17457478804E+04  0.17457478804E+04  0.00000000000E+00 0. -1.
    9000010    2    1    2  502    0 -0.35439969665E+03  0.71791298197E+03 -0.96573864790E+03  0.15809776278E+04  0.96220628190E+03 0.  0.
   -9000010    2    1    2    0  501  0.35439969665E+03 -0.71791298197E+03  0.40503891928E+03  0.13498184044E+04  0.10084418695E+04 0.  0.
        -13    1    3    3    0    0 -0.39283262275E+03 -0.57203358729E+02 -0.82924296299E+02  0.40554425631E+03  0.10566000000E+00 0.  1.
          4    1    3    3  502    0  0.38432926107E+02  0.77511634070E+03 -0.88281435160E+03  0.11754333715E+04  0.00000000000E+00 0.  1.
         13    1    4    4    0    0 -0.24180029979E+03 -0.63597534117E+03  0.27657294542E+03  0.73445532529E+03  0.10566000000E+00 0. -1.
         -4    1    4    4    0  501  0.59619999643E+03 -0.81937640807E+02  0.12846597386E+03  0.61536307914E+03  0.00000000000E+00 0. -1.
<mgrwt>
<rscale>  2 0.12695481E+04</rscale>
<asrwt>0</asrwt>
<pdfrwt beam="1">  1        2 0.18231510E+00 0.12695481E+04</pdfrwt>
<pdfrwt beam="2">  1       -2 0.26857660E+00 0.12695481E+04</pdfrwt>
<totfact> 0.84321500E-01</totfact>
</mgrwt>
</event>
<event>
 8    1  0.7046235E-006  0.1671905E+04  0.7818608E-02  0.8316900E-01
         -4   -1    0    0    0  501 -0.00000000000E+00  0.00000000000E+00  0.11256606904E+04  0.11256606904E+04  0.00000000000E+00 0. -1.
          4   -1    0    0  502    0  0.00000000000E+00 -0.00000000000E+00 -0.26760739844E+04  0.26760739844E+04  0.00000000000E+00 0.  1.
    9000010    2    1    2  502    0  0.99783486603E+03 -0.90131417661E+03 -0.12854757212E+04  0.21089322150E+04  0.99353187823E+03 0.  0.
   -9000010    2    1    2    0  501 -0.99783486603E+03  0.90131417661E+03 -0.26493757287E+03  0.16928024598E+04  0.99365315150E+03 0.  0.
        -13    1    3    3    0    0  0.86041440127E+03 -0.13450911825E+03 -0.84775960071E+03  0.12153608504E+04  0.10566000000E+00 0.  1.
          4    1    3    3  502    0  0.13742046476E+03 -0.76680505836E+03 -0.43771612047E+03  0.89357136469E+03  0.00000000000E+00 0.  1.
         13    1    4    4    0    0  0.38374593622E+02  0.12536973928E+03  0.26369537107E+03  0.29449183494E+03  0.10566000000E+00 0. -1.
         -4    1    4    4    0  501 -0.10362094597E+04  0.77594443733E+03 -0.52863294394E+03  0.13983106248E+04  0.00000000000E+00 0. -1.
<mgrwt>
<rscale>  2 0.16719054E+04</rscale>
<asrwt>0</asrwt>
<pdfrwt beam="2">  1        4 0.41170369E+00 0.16719054E+04</pdfrwt>
<pdfrwt beam="1">  1       -4 0.17317857E+00 0.16719054E+04</pdfrwt>
<totfact> 0.49537728E-02</totfact>
</mgrwt>
</event>
<event>
 8    1  0.7046235E-006  0.1048818E+04  0.7818608E-02  0.8730028E-01
          2   -1    0    0  502    0  0.00000000000E+00  0.00000000000E+00  0.82594162966E+03  0.82594162966E+03  0.00000000000E+00 0.  1.
         -2   -1    0    0    0  501 -0.00000000000E+00 -0.00000000000E+00 -0.13510465117E+04  0.13510465117E+04  0.00000000000E+00 0. -1.
    9000010    2    1    2  502    0  0.24518551050E+03 -0.20217341820E+03 -0.39533942435E+03  0.11368954972E+04  0.10174714176E+04 0.  0.
   -9000010    2    1    2    0  501 -0.24518551050E+03  0.20217341820E+03 -0.12976545765E+03  0.10400926441E+04  0.98181648425E+03 0.  0.
        -13    1    3    3    0    0 -0.89527336683E+02  0.38196341080E+03 -0.16046770353E+03  0.42386446683E+03  0.10566000000E+00 0.  1.
          4    1    3    3  502    0  0.33471284718E+03 -0.58413682900E+03 -0.23487172081E+03  0.71303103039E+03  0.00000000000E+00 0.  1.
         13    1    4    4    0    0 -0.27394727400E+02 -0.27905080680E+03 -0.36633265942E+03  0.46132358751E+03  0.10566000000E+00 0. -1.
         -4    1    4    4    0  501 -0.21779078310E+03  0.48122422500E+03  0.23656720177E+03  0.57876905660E+03  0.00000000000E+00 0. -1.
<mgrwt>
<rscale>  2 0.10488177E+04</rscale>
<asrwt>0</asrwt>
<pdfrwt beam="1">  1        2 0.12706794E+00 0.10488177E+04</pdfrwt>
<pdfrwt beam="2">  1       -2 0.20785331E+00 0.10488177E+04</pdfrwt>
<totfact> 0.43292786E+00</totfact>
</mgrwt>
</event>
<event>
 8    1  0.7046235E-006  0.1510469E+04  0.7818608E-02  0.8403500E-01
          2   -1    0    0  502    0  0.00000000000E+00  0.00000000000E+00  0.23337202771E+04  0.23337202771E+04  0.00000000000E+00 0.  1.
         -2   -1    0    0    0  501 -0.00000000000E+00 -0.00000000000E+00 -0.10044331688E+04  0.10044331688E+04  0.00000000000E+00 0. -1.
    9000010    2    1    2  502    0  0.84523445641E+03  0.73212102227E+03  0.93867710936E+03  0.17811724683E+04  0.10203127799E+04 0.  0.
   -9000010    2    1    2    0  501 -0.84523445641E+03 -0.73212102227E+03  0.39060999898E+03  0.15569809775E+04  0.10105400119E+04 0.  0.
        -13    1    3    3    0    0 -0.90454548108E+02  0.32814406857E+03 -0.69713955898E+02  0.34744870387E+03  0.10566000000E+00 0.  1.
          4    1    3    3  502    0  0.93568900452E+03  0.40397695370E+03  0.10083910653E+04  0.14337237645E+04  0.00000000000E+00 0.  1.
         13    1    4    4    0    0  0.83144453293E+02 -0.34329502870E+03  0.42157323811E+03  0.54998952999E+03  0.10566000000E+00 0. -1.
         -4    1    4    4    0  501 -0.92837890970E+03 -0.38882599356E+03 -0.30963239132E+02  0.10069914475E+04  0.00000000000E+00 0. -1.
<mgrwt>
<rscale>  2 0.15104686E+04</rscale>
<asrwt>0</asrwt>
<pdfrwt beam="1">  1        2 0.35903389E+00 0.15104686E+04</pdfrwt>
<pdfrwt beam="2">  1       -2 0.15452818E+00 0.15104686E+04</pdfrwt>
<totfact> 0.16245996E+00</totfact>
</mgrwt>
</event>
<event>
 8    1  0.7046235E-006  0.1365739E+04  0.7818608E-02  0.8491222E-01
         -2   -1    0    0    0  501 -0.00000000000E+00  0.00000000000E+00  0.96074255676E+03  0.96074255676E+03  0.00000000000E+00 0. -1.
          2   -1    0    0  502    0  0.00000000000E+00 -0.00000000000E+00 -0.22454651868E+04  0.22454651868E+04  0.00000000000E+00 0.  1.
    9000010    2    1    2  502    0  0.61466607103E+03 -0.68765419589E+03 -0.12316163092E+04  0.18379561703E+04  0.10052469740E+04 0.  0.
   -9000010    2    1    2    0  501 -0.61466607103E+03  0.68765419589E+03 -0.53106320864E+02  0.13682515733E+04  0.10092618167E+04 0.  0.
        -13    1    3    3    0    0  0.85092053247E+03 -0.65483531806E+03 -0.11771663880E+04  0.15932971357E+04  0.10566000000E+00 0.  1.
          4    1    3    3  502    0 -0.23625446144E+03 -0.32818877824E+02 -0.54449921236E+02  0.24465903461E+03  0.00000000000E+00 0.  1.
         13    1    4    4    0    0  0.57961814700E+02  0.62872351696E+03  0.17561904826E+03  0.65535859956E+03  0.10566000000E+00 0. -1.
         -4    1    4    4    0  501 -0.67262788573E+03  0.58930678932E+02 -0.22872536912E+03  0.71289297377E+03  0.00000000000E+00 0. -1.
<mgrwt>
<rscale>  2 0.13657393E+04</rscale>
<asrwt>0</asrwt>
<pdfrwt beam="2">  1        2 0.34545618E+00 0.13657393E+04</pdfrwt>
<pdfrwt beam="1">  1       -2 0.14780655E+00 0.13657393E+04</pdfrwt>
<totfact> 0.21167363E+00</totfact>
</mgrwt>
</event>
<event>
 8    1  0.7046235E-006  0.1250397E+04  0.7818608E-02  0.8569548E-01
          1   -1    0    0  502    0  0.00000000000E+00  0.00000000000E+00  0.19276674081E+04  0.19276674081E+04  0.00000000000E+00 0. -1.
         -1   -1    0    0    0  501 -0.00000000000E+00 -0.00000000000E+00 -0.87288581869E+03  0.87288581869E+03  0.00000000000E+00 0.  1.
    9000010    2    1    2  502    0  0.73007932640E+03 -0.20604999762E+03  0.15173558508E+03  0.12515916219E+04  0.98386252891E+03 0.  0.
   -9000010    2    1    2    0  501 -0.73007932640E+03  0.20604999762E+03  0.90304600434E+03  0.15489616049E+04  0.10041501597E+04 0.  0.
        -13    1    3    3    0    0  0.12955912372E+03 -0.30711423002E+03 -0.33457281969E+03  0.47227502545E+03  0.10566000000E+00 0.  1.
          4    1    3    3  502    0  0.60052020268E+03  0.10106423240E+03  0.48630840477E+03  0.77931659642E+03  0.00000000000E+00 0.  1.
         13    1    4    4    0    0 -0.44393947191E+03 -0.26774128244E+03  0.84643355596E+03  0.99258119308E+03  0.10566000000E+00 0. -1.
         -4    1    4    4    0  501 -0.28613985448E+03  0.47379128006E+03  0.56612448385E+02  0.55638041185E+03  0.00000000000E+00 0. -1.
<mgrwt>
<rscale>  2 0.12503975E+04</rscale>
<asrwt>0</asrwt>
<pdfrwt beam="1">  1        1 0.29656422E+00 0.12503975E+04</pdfrwt>
<pdfrwt beam="2">  1       -1 0.13429013E+00 0.12503975E+04</pdfrwt>
<totfact> 0.20956811E+00</totfact>
</mgrwt>
</event>
<event>
 8    1  0.7046235E-006  0.1093390E+04  0.7818608E-02  0.8691479E-01
          1   -1    0    0  502    0  0.00000000000E+00  0.00000000000E+00  0.11740143440E+04  0.11740143440E+04  0.00000000000E+00 0.  1.
         -1   -1    0    0    0  501 -0.00000000000E+00 -0.00000000000E+00 -0.10382043460E+04  0.10382043460E+04  0.00000000000E+00 0. -1.
    9000010    2    1    2  502    0  0.23686166562E+03  0.39906714679E+03  0.22128800986E+03  0.11278051863E+04  0.10038018324E+04 0.  0.
   -9000010    2    1    2    0  501 -0.23686166562E+03 -0.39906714679E+03 -0.85478011844E+02  0.10844135037E+04  0.97636474755E+03 0.  0.
        -13    1    3    3    0    0 -0.14837948380E+03  0.63626710350E+03  0.12213060318E+03  0.66465644780E+03  0.10566000000E+00 0.  1.
          4    1    3    3  502    0  0.38524114942E+03 -0.23719995672E+03  0.99157406683E+02  0.46314873850E+03  0.00000000000E+00 0.  1.
         13    1    4    4    0    0  0.21265429294E+03 -0.47125453271E+03 -0.28155864013E+03  0.58870872416E+03  0.10566000000E+00 0. -1.
         -4    1    4    4    0  501 -0.44951595856E+03  0.72187385927E+02  0.19608062828E+03  0.49570477956E+03  0.00000000000E+00 0. -1.
<mgrwt>
<rscale>  2 0.10933904E+04</rscale>
<asrwt>0</asrwt>
<pdfrwt beam="1">  1        1 0.18061759E+00 0.10933904E+04</pdfrwt>
<pdfrwt beam="2">  1       -1 0.15972375E+00 0.10933904E+04</pdfrwt>
<totfact> 0.47296904E+00</totfact>
</mgrwt>
</event>
<event>
 8    1  0.7046235E-006  0.1274273E+04  0.7818608E-02  0.8552638E-01
          4   -1    0    0  502    0  0.00000000000E+00  0.00000000000E+00  0.18326601437E+04  0.18326601437E+04  0.00000000000E+00 0.  1.
         -4   -1    0    0    0  501 -0.00000000000E+00 -0.00000000000E+00 -0.10209058885E+04  0.10209058885E+04  0.00000000000E+00 0. -1.
    9000010    2    1    2  502    0 -0.68458261472E+03 -0.13422359765E+03  0.93803639660E+03  0.16407584395E+04  0.11513064948E+04 0.  0.
   -9000010    2    1    2    0  501  0.68458261472E+03  0.13422359765E+03 -0.12628214146E+03  0.12128075927E+04  0.98401511531E+03 0.  0.
        -13    1    3    3    0    0 -0.53069152100E+03  0.45119528171E+03  0.70799764843E+03  0.99321264292E+03  0.10566000000E+00 0.  1.
          4    1    3    3  502    0 -0.15389109371E+03 -0.58541887936E+03  0.23003874817E+03  0.64754579660E+03  0.00000000000E+00 0.  1.
         13    1    4    4    0    0  0.23043680795E+03 -0.30524227461E+03  0.26883691141E+03  0.46749039002E+03  0.10566000000E+00 0. -1.
         -4    1    4    4    0  501  0.45414580677E+03  0.43946587225E+03 -0.39511905287E+03  0.74531720269E+03  0.00000000000E+00 0. -1.
<mgrwt>
<rscale>  2 0.12742730E+04</rscale>
<asrwt>0</asrwt>
<pdfrwt beam="1">  1        4 0.28194771E+00 0.12742730E+04</pdfrwt>
<pdfrwt beam="2">  1       -4 0.15706244E+00 0.12742730E+04</pdfrwt>
<totfact> 0.15740451E-01</totfact>
</mgrwt>
</event>
<event>
 8    1  0.7046235E-006  0.2508233E+04  0.7818608E-02  0.7988099E-01
         -1   -1    0    0    0  501 -0.00000000000E+00  0.00000000000E+00  0.36269871823E+04  0.36269871823E+04  0.00000000000E+00 0.  1.
          1   -1    0    0  502    0  0.00000000000E+00 -0.00000000000E+00 -0.18434081914E+04  0.18434081914E+04  0.00000000000E+00 0. -1.
    9000010    2    1    2  502    0  0.14821440208E+04 -0.17671425776E+04  0.22615188715E+03  0.25154075591E+04  0.97805251631E+03 0.  0.
   -9000010    2    1    2    0  501 -0.14821440208E+04  0.17671425776E+04  0.15574271038E+04  0.29549878146E+04  0.99339318148E+03 0.  0.
        -13    1    3    3    0    0  0.53755258274E+03 -0.67398558411E+03 -0.38820876549E+03  0.94547628398E+03  0.10566000000E+00 0.  1.
          4    1    3    3  502    0  0.94459143806E+03 -0.10931569935E+04  0.61436065264E+03  0.15699312752E+04  0.00000000000E+00 0.  1.
         13    1    4    4    0    0 -0.10235659521E+04  0.10655207963E+04  0.15143008844E+04  0.21156864147E+04  0.10566000000E+00 0. -1.
         -4    1    4    4    0  501 -0.45857806873E+03  0.70162178130E+03  0.43126219347E+02  0.83930139992E+03  0.00000000000E+00 0. -1.
<mgrwt>
<rscale>  2 0.25082332E+04</rscale>
<asrwt>0</asrwt>
<pdfrwt beam="2">  1        1 0.28360126E+00 0.25082332E+04</pdfrwt>
<pdfrwt beam="1">  1       -1 0.55799803E+00 0.25082332E+04</pdfrwt>
<totfact> 0.20182596E-02</totfact>
</mgrwt>
</event>
<event>
 8    1  0.7046235E-006  0.1291244E+04  0.7818608E-02  0.8540848E-01
         -2   -1    0    0    0  501 -0.00000000000E+00  0.00000000000E+00  0.56778556252E+03  0.56778556252E+03  0.00000000000E+00 0. -1.
          2   -1    0    0  502    0  0.00000000000E+00 -0.00000000000E+00 -0.31890097404E+04  0.31890097404E+04  0.00000000000E+00 0.  1.
    9000010    2    1    2  502    0  0.81403969884E+03 -0.21968001483E+03 -0.76702968675E+03  0.14876603645E+04  0.95597012488E+03 0.  0.
   -9000010    2    1    2    0  501 -0.81403969884E+03  0.21968001483E+03 -0.18541944911E+04  0.22691349384E+04  0.10000081087E+04 0.  0.
        -13    1    3    3    0    0  0.68935823752E+03 -0.52914863474E+03 -0.31183178554E+03  0.92328334270E+03  0.10566000000E+00 0.  1.
          4    1    3    3  502    0  0.12468146132E+03  0.30946861991E+03 -0.45519790121E+03  0.56437702184E+03  0.00000000000E+00 0.  1.
         13    1    4    4    0    0 -0.28599643314E+03  0.46448750987E+03 -0.32984536928E+03  0.63744849626E+03  0.10566000000E+00 0. -1.
         -4    1    4    4    0  501 -0.52804326570E+03 -0.24480749504E+03 -0.15243491218E+04  0.16316864421E+04  0.00000000000E+00 0. -1.
<mgrwt>
<rscale>  2 0.12912441E+04</rscale>
<asrwt>0</asrwt>
<pdfrwt beam="2">  1        2 0.49061687E+00 0.12912441E+04</pdfrwt>
<pdfrwt beam="1">  1       -2 0.87351627E-01 0.12912441E+04</pdfrwt>
<totfact> 0.23270594E+00</totfact>
</mgrwt>
</event>
<event>
 8    1  0.7046235E-006  0.1127244E+04  0.7818608E-02  0.8663460E-01
          1   -1    0    0  502    0  0.00000000000E+00  0.00000000000E+00  0.16247063164E+04  0.16247063164E+04  0.00000000000E+00 0. -1.
         -1   -1    0    0    0  501 -0.00000000000E+00 -0.00000000000E+00 -0.97124599204E+03  0.97124599204E+03  0.00000000000E+00 0.  1.
    9000010    2    1    2  502    0 -0.23345218355E+03 -0.46192364142E+03 -0.25343370885E+03  0.11183413406E+04  0.95842857676E+03 0.  0.
   -9000010    2    1    2    0  501  0.23345218355E+03  0.46192364142E+03  0.90689403318E+03  0.14776109678E+04  0.10454683220E+04 0.  0.
        -13    1    3    3    0    0 -0.43006093139E+03 -0.38120826019E+03 -0.52164284914E+03  0.77613363255E+03  0.10566000000E+00 0.  1.
          4    1    3    3  502    0  0.19660874784E+03 -0.80715381226E+02  0.26820914029E+03  0.34220770803E+03  0.00000000000E+00 0.  1.
         13    1    4    4    0    0  0.52032613121E+03 -0.75800535952E+02  0.25228884222E+03  0.58321066104E+03  0.10566000000E+00 0. -1.
         -4    1    4    4    0  501 -0.28687394766E+03  0.53772417737E+03  0.65460519095E+03  0.89440030680E+03  0.00000000000E+00 0. -1.
<mgrwt>
<rscale>  2 0.11272439E+04</rscale>
<asrwt>0</asrwt>
<pdfrwt beam="1">  1        1 0.24995482E+00 0.11272439E+04</pdfrwt>
<pdfrwt beam="2">  1       -1 0.14942246E+00 0.11272439E+04</pdfrwt>
<totfact> 0.26515755E+00</totfact>
</mgrwt>
</event>
<event>
 8    1  0.7046235E-006  0.1592186E+04  0.7818608E-02  0.8358336E-01
          2   -1    0    0  502    0  0.00000000000E+00  0.00000000000E+00  0.18002030102E+04  0.18002030102E+04  0.00000000000E+00 0.  1.
         -2   -1    0    0    0  501 -0.00000000000E+00 -0.00000000000E+00 -0.14134116273E+04  0.14134116273E+04  0.00000000000E+00 0. -1.
    9000010    2    1    2  502    0 -0.98153550120E+03 -0.75140993158E+03  0.95754216334E+02  0.15940332800E+04  0.10018704519E+04 0.  0.
   -9000010    2    1    2    0  501  0.98153550120E+03  0.75140993158E+03  0.29103716662E+03  0.16195813575E+04  0.10051429330E+04 0.  0.
        -13    1    3    3    0    0 -0.99353826971E+03 -0.34474208134E+03  0.35693205141E+03  0.11105700773E+04  0.10566000000E+00 0.  1.
          4    1    3    3  502    0  0.12002768516E+02 -0.40666785023E+03 -0.26117783508E+03  0.48346320274E+03  0.00000000000E+00 0.  1.
         13    1    4    4    0    0  0.26337371474E+03  0.41021861578E+03 -0.34846187918E+03  0.59922509857E+03  0.10566000000E+00 0. -1.
         -4    1    4    4    0  501  0.71816178645E+03  0.34119131579E+03  0.63949904580E+03  0.10203562589E+04  0.00000000000E+00 0. -1.
<mgrwt>
<rscale>  2 0.15921856E+04</rscale>
<asrwt>0</asrwt>
<pdfrwt beam="1">  1        2 0.27695431E+00 0.15921856E+04</pdfrwt>
<pdfrwt beam="2">  1       -2 0.21744794E+00 0.15921856E+04</pdfrwt>
<totfact> 0.93937298E-01</totfact>
</mgrwt>
</event>
<event>
 8    1  0.7046235E-006  0.1066598E+04  0.7818608E-02  0.8714415E-01
          1   -1    0    0  502    0  0.00000000000E+00  0.00000000000E+00  0.12943624466E+04  0.12943624466E+04  0.00000000000E+00 0. -1.
         -1   -1    0    0    0  501 -0.00000000000E+00 -0.00000000000E+00 -0.93842191850E+03  0.93842191850E+03  0.00000000000E+00 0.  1.
    9000010    2    1    2  502    0  0.37674806838E+03  0.11534291852E+03 -0.10364209218E+03  0.10684548531E+04  0.98773022332E+03 0.  0.
   -9000010    2    1    2    0  501 -0.37674806838E+03 -0.11534291852E+03  0.45958262026E+03  0.11643295119E+04  0.99458731725E+03 0.  0.
        -13    1    3    3    0    0  0.26309378445E+03 -0.42149003210E+03 -0.14661510726E+03  0.51804265019E+03  0.10566000000E+00 0.  1.
          4    1    3    3  502    0  0.11365428393E+03  0.53683295063E+03  0.42973015078E+02  0.55041220295E+03  0.00000000000E+00 0.  1.
         13    1    4    4    0    0  0.16338017846E+03 -0.39724464634E+03  0.55170274638E+02  0.43305907464E+03  0.10566000000E+00 0. -1.
         -4    1    4    4    0  501 -0.54012824685E+03  0.28190172781E+03  0.40441234562E+03  0.73127043730E+03  0.00000000000E+00 0. -1.
<mgrwt>
<rscale>  2 0.10665975E+04</rscale>
<asrwt>0</asrwt>
<pdfrwt beam="1">  1        1 0.19913268E+00 0.10665975E+04</pdfrwt>
<pdfrwt beam="2">  1       -1 0.14437260E+00 0.10665975E+04</pdfrwt>
<totfact> 0.52087430E+00</totfact>
</mgrwt>
</event>
<event>
 8    1  0.7046235E-006  0.1241729E+04  0.7818608E-02  0.8575785E-01
          2   -1    0    0  502    0  0.00000000000E+00  0.00000000000E+00  0.28613171548E+04  0.28613171548E+04  0.00000000000E+00 0. -1.
         -2   -1    0    0    0  501 -0.00000000000E+00 -0.00000000000E+00 -0.64932290321E+03  0.64932290321E+03  0.00000000000E+00 0.  1.
    9000010    2    1    2  502    0 -0.69717352266E+03  0.24877380870E+03  0.38589679378E+03  0.13052420107E+04  0.10033947590E+04 0.  0.
   -9000010    2    1    2    0  501  0.69717352266E+03 -0.24877380870E+03  0.18260974578E+04  0.22053980473E+04  0.99056009067E+03 0.  0.
        -13    1    3    3    0    0 -0.64684087317E+03 -0.24897191101E+03  0.34652877222E+02  0.69396755021E+03  0.10566000000E+00 0.  1.
          4    1    3    3  502    0 -0.50332649482E+02  0.49774571970E+03  0.35124391655E+03  0.61127446045E+03  0.00000000000E+00 0.  1.
         13    1    4    4    0    0  0.56798564153E+03  0.26909158923E+03  0.60333748508E+03  0.87122563349E+03  0.10566000000E+00 0. -1.
         -4    1    4    4    0  501  0.12918788113E+03 -0.51786539792E+03  0.12227599727E+04  0.13341724139E+04  0.00000000000E+00 0. -1.
<mgrwt>
<rscale>  2 0.12417292E+04</rscale>
<asrwt>0</asrwt>
<pdfrwt beam="1">  1        2 0.44020263E+00 0.12417292E+04</pdfrwt>
<pdfrwt beam="2">  1       -2 0.99895832E-01 0.12417292E+04</pdfrwt>
<totfact> 0.27348696E+00</totfact>
</mgrwt>
</event>
<event>
 8    1  0.7046235E-006  0.1450037E+04  0.7818608E-02  0.8438847E-01
          2   -1    0    0  502    0  0.00000000000E+00  0.00000000000E+00  0.36108656037E+04  0.36108656037E+04  0.00000000000E+00 0. -1.
         -2   -1    0    0    0  501 -0.00000000000E+00 -0.00000000000E+00 -0.58400985656E+03  0.58400985656E+03  0.00000000000E+00 0.  1.
    9000010    2    1    2  502    0  0.25673039478E+03 -0.10249152190E+04  0.16321060451E+04  0.21866802664E+04  0.10007191132E+04 0.  0.
   -9000010    2    1    2    0  501 -0.25673039478E+03  0.10249152190E+04  0.13947497020E+04  0.20081951938E+04  0.98547425311E+03 0.  0.
        -13    1    3    3    0    0  0.62738794925E+03 -0.51132617717E+03  0.77177789038E+03  0.11183520115E+04  0.10566000000E+00 0.  1.
          4    1    3    3  502    0 -0.37065755447E+03 -0.51358904178E+03  0.86032815475E+03  0.10683282550E+04  0.00000000000E+00 0.  1.
         13    1    4    4    0    0 -0.29361061941E+03  0.75939654927E+03  0.27894282512E+03  0.86063896364E+03  0.10566000000E+00 0. -1.
         -4    1    4    4    0  501  0.36880224636E+02  0.26551866968E+03  0.11158068769E+04  0.11475562301E+04  0.00000000000E+00 0. -1.
<mgrwt>
<rscale>  2 0.14500367E+04</rscale>
<asrwt>0</asrwt>
<pdfrwt beam="1">  1        2 0.55551777E+00 0.14500367E+04</pdfrwt>
<pdfrwt beam="2">  1       -2 0.89847672E-01 0.14500367E+04</pdfrwt>
<totfact> 0.10748111E+00</totfact>
</mgrwt>
</event>
<event>
 8    1  0.7046235E-006  0.1282735E+04  0.7818608E-02  0.8546736E-01
          2   -1    0    0  502    0  0.00000000000E+00  0.00000000000E+00  0.18867455875E+04  0.18867455875E+04  0.00000000000E+00 0. -1.
         -2   -1    0    0    0  501 -0.00000000000E+00 -0.00000000000E+00 -0.10484905543E+04  0.10484905543E+04  0.00000000000E+00 0.  1.
    9000010    2    1    2  502    0 -0.20115796070E+03 -0.72965712630E+03 -0.17048902920E+03  0.13337124934E+04  0.10848310739E+04 0.  0.
   -9000010    2    1    2    0  501  0.20115796070E+03  0.72965712630E+03  0.10087440624E+04  0.16015236484E+04  0.98714201906E+03 0.  0.
        -13    1    3    3    0    0  0.92873652172E+02 -0.62985392318E+03 -0.55141984320E+03  0.84226203431E+03  0.10566000000E+00 0.  1.
          4    1    3    3  502    0 -0.29403161287E+03 -0.99803203117E+02  0.38093081399E+03  0.49145045912E+03  0.00000000000E+00 0.  1.
         13    1    4    4    0    0  0.10899225768E+03  0.58476562671E+03  0.12031341780E+04  0.13421482824E+04  0.10566000000E+00 0. -1.
         -4    1    4    4    0  501  0.92165703023E+02  0.14489149958E+03 -0.19439011559E+03  0.25937536603E+03  0.00000000000E+00 0. -1.
<mgrwt>
<rscale>  2 0.12827348E+04</rscale>
<asrwt>0</asrwt>
<pdfrwt beam="1">  1        2 0.29026855E+00 0.12827348E+04</pdfrwt>
<pdfrwt beam="2">  1       -2 0.16130624E+00 0.12827348E+04</pdfrwt>
<totfact> 0.25545935E+00</totfact>
</mgrwt>
</event>
<event>
 8    1  0.7046235E-006  0.1505777E+04  0.7818608E-02  0.8406182E-01
          2   -1    0    0  502    0  0.00000000000E+00  0.00000000000E+00  0.17333605262E+04  0.17333605262E+04  0.00000000000E+00 0. -1.
         -2   -1    0    0    0  501 -0.00000000000E+00 -0.00000000000E+00 -0.18474487586E+04  0.18474487586E+04  0.00000000000E+00 0.  1.
    9000010    2    1    2  502    0 -0.10886505727E+03  0.10966781682E+04  0.91034715889E+03  0.17601428200E+04  0.10270424490E+04 0.  0.
   -9000010    2    1    2    0  501  0.10886505727E+03 -0.10966781682E+04 -0.10244353913E+04  0.18206664648E+04  0.10250872646E+04 0.  0.
        -13    1    3    3    0    0 -0.23527869099E+03  0.16995761573E+03 -0.16587038702E+03  0.33429724802E+03  0.10566000000E+00 0.  1.
          4    1    3    3  502    0  0.12641363372E+03  0.92672055242E+03  0.10762175459E+04  0.14258455720E+04  0.00000000000E+00 0.  1.
         13    1    4    4    0    0 -0.75724423942E+00 -0.62160566554E+03  0.67074752127E+02  0.62521453149E+03  0.10566000000E+00 0. -1.
         -4    1    4    4    0  501  0.10962230151E+03 -0.47507250262E+03 -0.10915101434E+04  0.11954519333E+04  0.00000000000E+00 0. -1.
<mgrwt>
<rscale>  2 0.15057768E+04</rscale>
<asrwt>0</asrwt>
<pdfrwt beam="1">  1        2 0.26667085E+00 0.15057768E+04</pdfrwt>
<pdfrwt beam="2">  1       -2 0.28422289E+00 0.15057768E+04</pdfrwt>
<totfact> 0.31188916E-01</totfact>
</mgrwt>
</event>
<event>
 8    1  0.7046235E-006  0.1150557E+04  0.7818608E-02  0.8644754E-01
          1   -1    0    0  502    0  0.00000000000E+00  0.00000000000E+00  0.88682233144E+03  0.88682233144E+03  0.00000000000E+00 0. -1.
         -1   -1    0    0    0  501 -0.00000000000E+00 -0.00000000000E+00 -0.15168375889E+04  0.15168375889E+04  0.00000000000E+00 0.  1.
    9000010    2    1    2  502    0  0.22367786167E+03 -0.63235064610E+03 -0.46994821062E+03  0.12578851104E+04  0.95473792468E+03 0.  0.
   -9000010    2    1    2    0  501 -0.22367786167E+03  0.63235064610E+03 -0.16006704687E+03  0.11457748100E+04  0.91502968819E+03 0.  0.
        -13    1    3    3    0    0  0.11160742130E+03  0.17645007492E+03  0.12883402250E+03  0.24533459182E+03  0.10566000000E+00 0.  1.
          4    1    3    3  502    0  0.11207044036E+03 -0.80880072102E+03 -0.59878223312E+03  0.10125505186E+04  0.00000000000E+00 0.  1.
         13    1    4    4    0    0 -0.44415671942E+03  0.49171696404E+03 -0.41395363615E+03  0.78129276727E+03  0.10566000000E+00 0. -1.
         -4    1    4    4    0  501  0.22047885776E+03  0.14063368206E+03  0.25388658928E+03  0.36448204272E+03  0.00000000000E+00 0. -1.
<mgrwt>
<rscale>  2 0.11505567E+04</rscale>
<asrwt>0</asrwt>
<pdfrwt beam="1">  1        1 0.13643421E+00 0.11505567E+04</pdfrwt>
<pdfrwt beam="2">  1       -1 0.23335963E+00 0.11505567E+04</pdfrwt>
<totfact> 0.17555887E+00</totfact>
</mgrwt>
</event>
<event>
 8    1  0.7046235E-006  0.1979528E+04  0.7818608E-02  0.8176778E-01
          2   -1    0    0  502    0  0.00000000000E+00  0.00000000000E+00  0.12218970541E+04  0.12218970541E+04  0.00000000000E+00 0. -1.
         -2   -1    0    0    0  501 -0.00000000000E+00 -0.00000000000E+00 -0.42595246731E+04  0.42595246731E+04  0.00000000000E+00 0.  1.
    9000010    2    1    2  502    0  0.35105824821E+03 -0.16756134225E+04 -0.28810465310E+04  0.34953687278E+04  0.99310180458E+03 0.  0.
   -9000010    2    1    2    0  501 -0.35105824821E+03  0.16756134225E+04 -0.15658108810E+03  0.19860529994E+04  0.99446802064E+03 0.  0.
        -13    1    3    3    0    0 -0.31262368781E+03 -0.67589554533E+03 -0.79862718768E+03  0.10919586780E+04  0.10566000000E+00 0.  1.
          4    1    3    3  502    0  0.66368193601E+03 -0.99971787715E+03 -0.20824193433E+04  0.24034100498E+04  0.00000000000E+00 0.  1.
         13    1    4    4    0    0 -0.10618156240E+03  0.58163706017E+03  0.42017190520E+03  0.72534173673E+03  0.10566000000E+00 0. -1.
         -4    1    4    4    0  501 -0.24487668581E+03  0.10939763623E+04 -0.57675299331E+03  0.12607112627E+04  0.00000000000E+00 0. -1.
<mgrwt>
<rscale>  2 0.19795280E+04</rscale>
<asrwt>0</asrwt>
<pdfrwt beam="1">  1        2 0.18798416E+00 0.19795280E+04</pdfrwt>
<pdfrwt beam="2">  1       -2 0.65531149E+00 0.19795280E+04</pdfrwt>
<totfact> 0.77173817E-02</totfact>
</mgrwt>
</event>
<event>
 8    1  0.7046235E-006  0.1277296E+04  0.7818608E-02  0.8550524E-01
          2   -1    0    0  502    0  0.00000000000E+00  0.00000000000E+00  0.22471998454E+04  0.22471998454E+04  0.00000000000E+00 0.  1.
         -2   -1    0    0    0  501 -0.00000000000E+00 -0.00000000000E+00 -0.89603220604E+03  0.89603220604E+03  0.00000000000E+00 0. -1.
    9000010    2    1    2  502    0 -0.65362726914E+02  0.75743382687E+03  0.13544430128E+04  0.18528783155E+04  0.10102791145E+04 0.  0.
   -9000010    2    1    2    0  501  0.65362726914E+02 -0.75743382687E+03 -0.32753734022E+01  0.12903537359E+04  0.10426043102E+04 0.  0.
        -13    1    3    3    0    0  0.35668568633E+03  0.22996628776E+03  0.11242073393E+03  0.43903030068E+03  0.10566000000E+00 0.  1.
          4    1    3    3  502    0 -0.42204841324E+03  0.52746753911E+03  0.12420222788E+04  0.14138480148E+04  0.00000000000E+00 0.  1.
         13    1    4    4    0    0 -0.10294625761E+03  0.23099225282E+03  0.12041717269E+03  0.28009937426E+03  0.10566000000E+00 0. -1.
         -4    1    4    4    0  501  0.16830898453E+03 -0.98842607969E+03 -0.12369254609E+03  0.10102543617E+04  0.00000000000E+00 0. -1.
<mgrwt>
<rscale>  2 0.12772959E+04</rscale>
<asrwt>0</asrwt>
<pdfrwt beam="1">  1        2 0.34572305E+00 0.12772959E+04</pdfrwt>
<pdfrwt beam="2">  1       -2 0.13785111E+00 0.12772959E+04</pdfrwt>
<totfact> 0.26190754E+00</totfact>
</mgrwt>
</event>
<event>
 8    1  0.7046235E-006  0.1260671E+04  0.7818608E-02  0.8562224E-01
          1   -1    0    0  502    0  0.00000000000E+00  0.00000000000E+00  0.13497162413E+04  0.13497162413E+04  0.00000000000E+00 0. -1.
         -1   -1    0    0    0  501 -0.00000000000E+00 -0.00000000000E+00 -0.13242009180E+04  0.13242009180E+04  0.00000000000E+00 0.  1.
    9000010    2    1    2  502    0  0.48951189468E+03 -0.60674902037E+03  0.45763461774E+03  0.13347574108E+04  0.98202934463E+03 0.  0.
   -9000010    2    1    2    0  501 -0.48951189468E+03  0.60674902037E+03 -0.43211929447E+03  0.13391597484E+04  0.99942757532E+03 0.  0.
        -13    1    3    3    0    0  0.23963288744E+03  0.23866159009E+02  0.59569611667E+03  0.64253201388E+03  0.10566000000E+00 0.  1.
          4    1    3    3  502    0  0.24987900724E+03 -0.63061517938E+03 -0.13806149892E+03  0.69222539697E+03  0.00000000000E+00 0.  1.
         13    1    4    4    0    0 -0.74572122121E+03  0.61873396128E+03 -0.19202091420E+03  0.98782786823E+03  0.10566000000E+00 0. -1.
         -4    1    4    4    0  501  0.25620932653E+03 -0.11984940907E+02 -0.24009838027E+03  0.35133188016E+03  0.00000000000E+00 0. -1.
<mgrwt>
<rscale>  2 0.12606710E+04</rscale>
<asrwt>0</asrwt>
<pdfrwt beam="1">  1        1 0.20764865E+00 0.12606710E+04</pdfrwt>
<pdfrwt beam="2">  1       -1 0.20372322E+00 0.12606710E+04</pdfrwt>
<totfact> 0.13984298E+00</totfact>
</mgrwt>
</event>
<event>
 8    1  0.7046235E-006  0.1028157E+04  0.7818608E-02  0.8748576E-01
         -4   -1    0    0    0  501 -0.00000000000E+00  0.00000000000E+00  0.41853880114E+03  0.41853880114E+03  0.00000000000E+00 0. -1.
          4   -1    0    0  502    0  0.00000000000E+00 -0.00000000000E+00 -0.25266666054E+04  0.25266666054E+04  0.00000000000E+00 0.  1.
    9000010    2    1    2  502    0  0.27502877340E+03  0.54643085881E+02 -0.10201852583E+04  0.14436928504E+04  0.98226492964E+03 0.  0.
   -9000010    2    1    2    0  501 -0.27502877340E+03 -0.54643085881E+02 -0.10879425460E+04  0.15015125562E+04  0.99613968894E+03 0.  0.
        -13    1    3    3    0    0  0.53446215339E+03  0.28112722688E+02 -0.18109253278E+03  0.56500852664E+03  0.10566000000E+00 0.  1.
          4    1    3    3  502    0 -0.25943337998E+03  0.26530363193E+02 -0.83909272547E+03  0.87868432373E+03  0.00000000000E+00 0.  1.
         13    1    4    4    0    0 -0.65418043049E+03 -0.33767063822E+02 -0.67992443045E+03  0.94413425556E+03  0.10566000000E+00 0. -1.
         -4    1    4    4    0  501  0.37915165708E+03 -0.20876022059E+02 -0.40801811555E+03  0.55737830060E+03  0.00000000000E+00 0. -1.
<mgrwt>
<rscale>  2 0.10281571E+04</rscale>
<asrwt>0</asrwt>
<pdfrwt beam="2">  1        4 0.38871793E+00 0.10281571E+04</pdfrwt>
<pdfrwt beam="1">  1       -4 0.64390586E-01 0.10281571E+04</pdfrwt>
<totfact> 0.38277244E-01</totfact>
</mgrwt>
</event>
<event>
 8    1  0.7046235E-006  0.1136426E+04  0.7818608E-02  0.8656037E-01
          2   -1    0    0  502    0  0.00000000000E+00  0.00000000000E+00  0.26357054651E+04  0.26357054651E+04  0.00000000000E+00 0.  1.
         -2   -1    0    0    0  501 -0.00000000000E+00 -0.00000000000E+00 -0.51350241815E+03  0.51350241815E+03  0.00000000000E+00 0. -1.
    9000010    2    1    2  502    0  0.13400606525E+02 -0.58007185609E+03  0.74152773848E+03  0.13725416310E+04  0.99867122092E+03 0.  0.
   -9000010    2    1    2    0  501 -0.13400606525E+02  0.58007185609E+03  0.13806753085E+04  0.17766662522E+04  0.95583248004E+03 0.  0.
        -13    1    3    3    0    0  0.39613408120E+03  0.57271912041E+01  0.48734135337E+03  0.62805781333E+03  0.10566000000E+00 0.  1.
          4    1    3    3  502    0 -0.38273347468E+03 -0.58579904729E+03  0.25418638511E+03  0.74448381770E+03  0.00000000000E+00 0.  1.
         13    1    4    4    0    0 -0.31454652705E+03  0.28107513794E+02  0.98350086764E+03  0.10329586235E+04  0.10566000000E+00 0. -1.
         -4    1    4    4    0  501  0.30114592052E+03  0.55196434229E+03  0.39717444085E+03  0.74370762876E+03  0.00000000000E+00 0. -1.
<mgrwt>
<rscale>  2 0.11364262E+04</rscale>
<asrwt>0</asrwt>
<pdfrwt beam="1">  1        2 0.40549314E+00 0.11364262E+04</pdfrwt>
<pdfrwt beam="2">  1       -2 0.79000373E-01 0.11364262E+04</pdfrwt>
<totfact> 0.64347584E+00</totfact>
</mgrwt>
</event>
<event>
 8    1  0.7046235E-006  0.1440237E+04  0.7818608E-02  0.8444746E-01
         -2   -1    0    0    0  501 -0.00000000000E+00  0.00000000000E+00  0.13515389546E+04  0.13515389546E+04  0.00000000000E+00 0. -1.
          2   -1    0    0  502    0  0.00000000000E+00 -0.00000000000E+00 -0.17969043562E+04  0.17969043562E+04  0.00000000000E+00 0.  1.
    9000010    2    1    2  502    0 -0.79073464366E+03 -0.68845901522E+03 -0.82276195235E+03  0.16512786964E+04  0.97496000466E+03 0.  0.
   -9000010    2    1    2    0  501  0.79073464366E+03  0.68845901522E+03  0.37739655076E+03  0.14971646144E+04  0.99991831354E+03 0.  0.
        -13    1    3    3    0    0  0.18326843267E+03 -0.28911150841E+03 -0.37378046193E+03  0.50683787111E+03  0.10566000000E+00 0.  1.
          4    1    3    3  502    0 -0.97400307632E+03 -0.39934750681E+03 -0.44898149041E+03  0.11444408253E+04  0.00000000000E+00 0.  1.
         13    1    4    4    0    0  0.31259018872E+03 -0.23935512774E+03  0.21153170868E+02  0.39427271154E+03  0.10566000000E+00 0. -1.
         -4    1    4    4    0  501  0.47814445493E+03  0.92781414296E+03  0.35624337990E+03  0.11028919029E+04  0.00000000000E+00 0. -1.
<mgrwt>
<rscale>  2 0.14402370E+04</rscale>
<asrwt>0</asrwt>
<pdfrwt beam="2">  1        2 0.27644683E+00 0.14402370E+04</pdfrwt>
<pdfrwt beam="1">  1       -2 0.20792907E+00 0.14402370E+04</pdfrwt>
<totfact> 0.11467300E+00</totfact>
</mgrwt>
</event>
<event>
 8    1  0.7046235E-006  0.1422287E+04  0.7818608E-02  0.8455676E-01
         -2   -1    0    0    0  501 -0.00000000000E+00  0.00000000000E+00  0.19489131258E+04  0.19489131258E+04  0.00000000000E+00 0. -1.
          2   -1    0    0  502    0  0.00000000000E+00 -0.00000000000E+00 -0.11284349330E+04  0.11284349330E+04  0.00000000000E+00 0.  1.
    9000010    2    1    2  502    0  0.25176923328E+03 -0.10066665075E+04 -0.30917612344E+02  0.13994117373E+04  0.93842000592E+03 0.  0.
   -9000010    2    1    2    0  501 -0.25176923328E+03  0.10066665075E+04  0.85139580519E+03  0.16779363215E+04  0.10068913931E+04 0.  0.
        -13    1    3    3    0    0  0.27200572815E+03  0.26414523285E+02 -0.21768675071E+03  0.34938857421E+03  0.10566000000E+00 0.  1.
          4    1    3    3  502    0 -0.20236494878E+02 -0.10330810308E+04  0.18676913837E+03  0.10500231631E+04  0.00000000000E+00 0.  1.
         13    1    4    4    0    0 -0.63009658335E+03  0.76392572154E+03  0.65580023741E+03  0.11877197375E+04  0.10566000000E+00 0. -1.
         -4    1    4    4    0  501  0.37832735008E+03  0.24274078600E+03  0.19559556778E+03  0.49021658391E+03  0.00000000000E+00 0. -1.
<mgrwt>
<rscale>  2 0.14222870E+04</rscale>
<asrwt>0</asrwt>
<pdfrwt beam="2">  1        2 0.17360537E+00 0.14222870E+04</pdfrwt>
<pdfrwt beam="1">  1       -2 0.29983279E+00 0.14222870E+04</pdfrwt>
<totfact> 0.53344235E-01</totfact>
</mgrwt>
</event>
<event>
 8    1  0.7046235E-006  0.1370027E+04  0.7818608E-02  0.8488465E-01
         -2   -1    0    0    0  501 -0.00000000000E+00  0.00000000000E+00  0.14206466938E+04  0.14206466938E+04  0.00000000000E+00 0. -1.
          2   -1    0    0  502    0  0.00000000000E+00 -0.00000000000E+00 -0.18176039675E+04  0.18176039675E+04  0.00000000000E+00 0.  1.
    9000010    2    1    2  502    0 -0.65772527957E+03 -0.66956546063E+03 -0.10442175382E+04  0.17196412456E+04  0.99290246096E+03 0.  0.
   -9000010    2    1    2    0  501  0.65772527957E+03  0.66956546063E+03  0.64726026453E+03  0.15186094158E+04  0.10031491704E+04 0.  0.
        -13    1    3    3    0    0 -0.29857854171E+03  0.12099418676E+03 -0.72702189073E+03  0.79520411188E+03  0.10566000000E+00 0.  1.
          4    1    3    3  502    0 -0.35914673787E+03 -0.79055964739E+03 -0.31719564747E+03  0.92443713370E+03  0.00000000000E+00 0.  1.
         13    1    4    4    0    0  0.12225873042E+03  0.71963164551E+03  0.65502385891E+03  0.98075132898E+03  0.10566000000E+00 0. -1.
         -4    1    4    4    0  501  0.53546654916E+03 -0.50066184882E+02 -0.77635943751E+01  0.53785808680E+03  0.00000000000E+00 0. -1.
<mgrwt>
<rscale>  2 0.13700271E+04</rscale>
<asrwt>0</asrwt>
<pdfrwt beam="2">  1        2 0.27963138E+00 0.13700271E+04</pdfrwt>
<pdfrwt beam="1">  1       -2 0.21856103E+00 0.13700271E+04</pdfrwt>
<totfact> 0.92082369E-01</totfact>
</mgrwt>
</event>
<event>
 8    1  0.7046235E-006  0.1541933E+04  0.7818608E-02  0.8385767E-01
          2   -1    0    0  502    0  0.00000000000E+00  0.00000000000E+00  0.38151605878E+04  0.38151605878E+04  0.00000000000E+00 0.  1.
         -2   -1    0    0    0  501 -0.00000000000E+00 -0.00000000000E+00 -0.63251803741E+03  0.63251803741E+03  0.00000000000E+00 0. -1.
    9000010    2    1    2  502    0  0.10112831873E+04 -0.63008067215E+03  0.13032617154E+04  0.20045173986E+04  0.94863247052E+03 0.  0.
   -9000010    2    1    2    0  501 -0.10112831873E+04  0.63008067215E+03  0.18793808349E+04  0.24431612265E+04  0.10085975996E+04 0.  0.
        -13    1    3    3    0    0  0.35104081785E+03 -0.59101348170E+03  0.11268984256E+04  0.13200101000E+04  0.10566000000E+00 0.  1.
          4    1    3    3  502    0  0.66024236948E+03 -0.39067190455E+02  0.17636328978E+03  0.68450729858E+03  0.00000000000E+00 0.  1.
         13    1    4    4    0    0 -0.61689953946E+02  0.61777480381E+02  0.10664238831E+04  0.10699915968E+04  0.10566000000E+00 0. -1.
         -4    1    4    4    0  501 -0.94959323338E+03  0.56830319177E+03  0.81295695181E+03  0.13731696298E+04  0.00000000000E+00 0. -1.
<mgrwt>
<rscale>  2 0.15419331E+04</rscale>
<asrwt>0</asrwt>
<pdfrwt beam="1">  1        2 0.58694777E+00 0.15419331E+04</pdfrwt>
<pdfrwt beam="2">  1       -2 0.97310470E-01 0.15419331E+04</pdfrwt>
<totfact> 0.59862398E-01</totfact>
</mgrwt>
</event>
<event>
 8    1  0.7046235E-006  0.1469240E+04  0.7818608E-02  0.8427425E-01
         -2   -1    0    0    0  501 -0.00000000000E+00  0.00000000000E+00  0.97740339037E+03  0.97740339037E+03  0.00000000000E+00 0.  1.
          2   -1    0    0  502    0  0.00000000000E+00 -0.00000000000E+00 -0.22550198347E+04  0.22550198347E+04  0.00000000000E+00 0. -1.
    9000010    2    1    2  502    0 -0.90356951947E+03 -0.57370322467E+03 -0.40887699444E+03  0.15295367179E+04  0.10132763238E+04 0.  0.
   -9000010    2    1    2    0  501  0.90356951947E+03  0.57370322467E+03 -0.86873944991E+03  0.17028865072E+04  0.99977045261E+03 0.  0.
        -13    1    3    3    0    0 -0.82557363282E+02 -0.48289101101E+03 -0.49818404995E+03  0.69870366075E+03  0.10566000000E+00 0.  1.
          4    1    3    3  502    0 -0.82101215619E+03 -0.90812213654E+02  0.89307055513E+02  0.83083305719E+03  0.00000000000E+00 0.  1.
         13    1    4    4    0    0  0.45275987531E+02 -0.19937810763E+03  0.68219169966E+02  0.21553517385E+03  0.10566000000E+00 0. -1.
         -4    1    4    4    0  501  0.85829353194E+03  0.77308133230E+03 -0.93695861988E+03  0.14873513333E+04  0.00000000000E+00 0. -1.
<mgrwt>
<rscale>  2 0.14692397E+04</rscale>
<asrwt>0</asrwt>
<pdfrwt beam="2">  1        2 0.34692613E+00 0.14692397E+04</pdfrwt>
<pdfrwt beam="1">  1       -2 0.15036975E+00 0.14692397E+04</pdfrwt>
<totfact> 0.19629543E+00</totfact>
</mgrwt>
</event>
<event>
 8    1  0.7046235E-006  0.1128778E+04  0.7818608E-02  0.8662215E-01
          1   -1    0    0  502    0  0.00000000000E+00  0.00000000000E+00  0.14750195632E+04  0.14750195632E+04  0.00000000000E+00 0. -1.
         -1   -1    0    0    0  501 -0.00000000000E+00 -0.00000000000E+00 -0.90364069261E+03  0.90364069261E+03  0.00000000000E+00 0.  1.
    9000010    2    1    2  502    0 -0.38584830319E+03 -0.35874316586E+03  0.53577043541E+03  0.12509496289E+04  0.10001247135E+04 0.  0.
   -9000010    2    1    2    0  501  0.38584830319E+03  0.35874316586E+03  0.35608435184E+02  0.11277106269E+04  0.99643751699E+03 0.  0.
        -13    1    3    3    0    0 -0.37810276458E+03  0.26145424925E+03  0.48605672126E+02  0.46225809626E+03  0.10566000000E+00 0.  1.
          4    1    3    3  502    0 -0.77455386010E+01 -0.62019741510E+03  0.48716476328E+03  0.78869153264E+03  0.00000000000E+00 0.  1.
         13    1    4    4    0    0  0.71462279867E+03  0.26110296287E+03 -0.81777980162E+02  0.76521118053E+03  0.10566000000E+00 0. -1.
         -4    1    4    4    0  501 -0.32877449549E+03  0.97640202985E+02  0.11738641535E+03  0.36249944638E+03  0.00000000000E+00 0. -1.
<mgrwt>
<rscale>  2 0.11287776E+04</rscale>
<asrwt>0</asrwt>
<pdfrwt beam="1">  1        1 0.22692609E+00 0.11287776E+04</pdfrwt>
<pdfrwt beam="2">  1       -1 0.13902165E+00 0.11287776E+04</pdfrwt>
<totfact> 0.42136639E+00</totfact>
</mgrwt>
</event>
<event>
 8    1  0.7046235E-006  0.1152565E+04  0.7818608E-02  0.8643164E-01
          4   -1    0    0  502    0  0.00000000000E+00  0.00000000000E+00  0.21219246105E+04  0.21219246105E+04  0.00000000000E+00 0.  1.
         -4   -1    0    0    0  501 -0.00000000000E+00 -0.00000000000E+00 -0.63749215401E+03  0.63749215401E+03  0.00000000000E+00 0. -1.
    9000010    2    1    2  502    0 -0.36260924525E+03 -0.27496180146E+03  0.93406439053E+03  0.14927557022E+04  0.10717993487E+04 0.  0.
   -9000010    2    1    2    0  501  0.36260924525E+03  0.27496180146E+03  0.55036806599E+03  0.12666610623E+04  0.10461528482E+04 0.  0.
        -13    1    3    3    0    0 -0.85057660010E+02 -0.67115161856E+03  0.48198930228E+03  0.83065817235E+03  0.10566000000E+00 0.  1.
          4    1    3    3  502    0 -0.27755158524E+03  0.39618981710E+03  0.45207508826E+03  0.66209752987E+03  0.00000000000E+00 0.  1.
         13    1    4    4    0    0 -0.14585267533E+03 -0.28957024996E+03  0.35785960375E+03  0.48289485369E+03  0.10566000000E+00 0. -1.
         -4    1    4    4    0  501  0.50846192057E+03  0.56453205141E+03  0.19250846224E+03  0.78376620863E+03  0.00000000000E+00 0. -1.
<mgrwt>
<rscale>  2 0.11525653E+04</rscale>
<asrwt>0</asrwt>
<pdfrwt beam="1">  1        4 0.32644994E+00 0.11525653E+04</pdfrwt>
<pdfrwt beam="2">  1       -4 0.98075717E-01 0.11525653E+04</pdfrwt>
<totfact> 0.26190796E-01</totfact>
</mgrwt>
</event>
<event>
 8    1  0.7046235E-006  0.1292529E+04  0.7818608E-02  0.8539964E-01
         -2   -1    0    0    0  501 -0.00000000000E+00  0.00000000000E+00  0.11174210972E+04  0.11174210972E+04  0.00000000000E+00 0. -1.
          2   -1    0    0  502    0  0.00000000000E+00 -0.00000000000E+00 -0.17523239017E+04  0.17523239017E+04  0.00000000000E+00 0.  1.
    9000010    2    1    2  502    0 -0.21368454036E+03  0.76079398645E+03 -0.87010428407E+03  0.15705842463E+04  0.10417220536E+04 0.  0.
   -9000010    2    1    2    0  501  0.21368454036E+03 -0.76079398645E+03  0.23520147959E+03  0.12991607526E+04  0.10040071476E+04 0.  0.
        -13    1    3    3    0    0 -0.16112484570E+03  0.33953772870E+03 -0.10456942560E+04  0.11111811614E+04  0.10566000000E+00 0.  1.
          4    1    3    3  502    0 -0.52559694661E+02  0.42125625776E+03  0.17558997198E+03  0.45940308495E+03  0.00000000000E+00 0.  1.
         13    1    4    4    0    0  0.29026591720E+02  0.23924287890E+03 -0.43108968919E+02  0.24482257350E+03  0.10566000000E+00 0. -1.
         -4    1    4    4    0  501  0.18465794864E+03 -0.10000368654E+04  0.27831044851E+03  0.10543381791E+04  0.00000000000E+00 0. -1.
<mgrwt>
<rscale>  2 0.12925288E+04</rscale>
<asrwt>0</asrwt>
<pdfrwt beam="2">  1        2 0.26958829E+00 0.12925288E+04</pdfrwt>
<pdfrwt beam="1">  1       -2 0.17191094E+00 0.12925288E+04</pdfrwt>
<totfact> 0.24548758E+00</totfact>
</mgrwt>
</event>
<event>
 8    1  0.7046235E-006  0.1152495E+04  0.7818608E-02  0.8643219E-01
         -2   -1    0    0    0  501 -0.00000000000E+00  0.00000000000E+00  0.30782218819E+03  0.30782218819E+03  0.00000000000E+00 0.  1.
          2   -1    0    0  502    0  0.00000000000E+00 -0.00000000000E+00 -0.53560640604E+04  0.53560640604E+04  0.00000000000E+00 0. -1.
    9000010    2    1    2  502    0  0.64173567582E+03  0.13764082603E+03 -0.13319133248E+04  0.17818138262E+04  0.98493539470E+03 0.  0.
   -9000010    2    1    2    0  501 -0.64173567582E+03 -0.13764082603E+03 -0.37163285474E+04  0.38820724224E+04  0.91028498061E+03 0.  0.
        -13    1    3    3    0    0  0.67408607482E+03 -0.97907893596E+02 -0.13802614627E+04  0.15391880030E+04  0.10566000000E+00 0.  1.
          4    1    3    3  502    0 -0.32350399004E+02  0.23554871963E+03  0.48348137926E+02  0.24262582318E+03  0.00000000000E+00 0.  1.
         13    1    4    4    0    0 -0.23270584935E+03 -0.18937911216E+03 -0.32325502756E+04  0.32464438631E+04  0.10566000000E+00 0. -1.
         -4    1    4    4    0  501 -0.40902982647E+03  0.51738286134E+02 -0.48377827177E+03  0.63562855933E+03  0.00000000000E+00 0. -1.
<mgrwt>
<rscale>  2 0.11524953E+04</rscale>
<asrwt>0</asrwt>
<pdfrwt beam="2">  1        2 0.82400983E+00 0.11524953E+04</pdfrwt>
<pdfrwt beam="1">  1       -2 0.47357261E-01 0.11524953E+04</pdfrwt>
<totfact> 0.12062018E-01</totfact>
</mgrwt>
</event>
<event>
 8    1  0.7046235E-006  0.1568869E+04  0.7818608E-02  0.8370932E-01
          2   -1    0    0  502    0  0.00000000000E+00  0.00000000000E+00  0.27473360387E+04  0.27473360387E+04  0.00000000000E+00 0. -1.
         -2   -1    0    0    0  501 -0.00000000000E+00 -0.00000000000E+00 -0.90132618609E+03  0.90132618609E+03  0.00000000000E+00 0.  1.
    9000010    2    1    2  502    0  0.11336667324E+04 -0.38127500092E+03  0.10614156809E+04  0.18899947154E+04  0.10074253769E+04 0.  0.
   -9000010    2    1    2    0  501 -0.11336667324E+04  0.38127500092E+03  0.78459417174E+03  0.17586675094E+04  0.10231092355E+04 0.  0.
        -13    1    3    3    0    0  0.62135713944E+02  0.28647934015E+03  0.12806592100E+03  0.31989396769E+03  0.10566000000E+00 0.  1.
          4    1    3    3  502    0  0.10715310185E+04 -0.66775434108E+03  0.93334975991E+03  0.15701007477E+04  0.00000000000E+00 0.  1.
         13    1    4    4    0    0 -0.20475347853E+03 -0.29204302372E+03 -0.20237027689E+02  0.35724314287E+03  0.10566000000E+00 0. -1.
         -4    1    4    4    0  501 -0.92891325392E+03  0.67331802464E+03  0.80483119942E+03  0.14014243666E+04  0.00000000000E+00 0. -1.
<mgrwt>
<rscale>  2 0.15688686E+04</rscale>
<asrwt>0</asrwt>
<pdfrwt beam="1">  1        2 0.42266708E+00 0.15688686E+04</pdfrwt>
<pdfrwt beam="2">  1       -2 0.13866557E+00 0.15688686E+04</pdfrwt>
<totfact> 0.13009519E+00</totfact>
</mgrwt>
</event>
<event>
 8    1  0.7046235E-006  0.1225271E+04  0.7818608E-02  0.8587772E-01
          2   -1    0    0  502    0  0.00000000000E+00  0.00000000000E+00  0.21881308992E+04  0.21881308992E+04  0.00000000000E+00 0.  1.
         -2   -1    0    0    0  501 -0.00000000000E+00 -0.00000000000E+00 -0.91014242907E+03  0.91014242907E+03  0.00000000000E+00 0. -1.
    9000010    2    1    2  502    0  0.69075994119E+03  0.14261095501E+03  0.14107182301E+04  0.18738964463E+04  0.10118669803E+04 0.  0.
   -9000010    2    1    2    0  501 -0.69075994119E+03 -0.14261095501E+03 -0.13272975999E+03  0.12243768819E+04  0.99196490816E+03 0.  0.
        -13    1    3    3    0    0 -0.26165803571E+03  0.91181483582E+02  0.36940419990E+03  0.46177750559E+03  0.10566000000E+00 0.  1.
          4    1    3    3  502    0  0.95241797690E+03  0.51429471427E+02  0.10413140303E+04  0.14121189408E+04  0.00000000000E+00 0.  1.
         13    1    4    4    0    0  0.95425350177E+01  0.21177000539E+03  0.26915088882E+03  0.34260736605E+03  0.10566000000E+00 0. -1.
         -4    1    4    4    0  501 -0.70030247620E+03 -0.35438096039E+03 -0.40188064882E+03  0.88176951589E+03  0.00000000000E+00 0. -1.
<mgrwt>
<rscale>  2 0.12252711E+04</rscale>
<asrwt>0</asrwt>
<pdfrwt beam="1">  1        2 0.33663552E+00 0.12252711E+04</pdfrwt>
<pdfrwt beam="2">  1       -2 0.14002191E+00 0.12252711E+04</pdfrwt>
<totfact> 0.27135292E+00</totfact>
</mgrwt>
</event>
<event>
 8    1  0.7046235E-006  0.1071990E+04  0.7818608E-02  0.8709743E-01
         -2   -1    0    0    0  501 -0.00000000000E+00  0.00000000000E+00  0.18550342360E+04  0.18550342360E+04  0.00000000000E+00 0.  1.
          2   -1    0    0  502    0  0.00000000000E+00 -0.00000000000E+00 -0.61987960117E+03  0.61987960117E+03  0.00000000000E+00 0. -1.
    9000010    2    1    2  502    0 -0.44284646672E+03 -0.39011870159E+01  0.62112223231E+03  0.12193809472E+04  0.95129850965E+03 0.  0.
   -9000010    2    1    2    0  501  0.44284646672E+03  0.39011870159E+01  0.61403240252E+03  0.12555328900E+04  0.10015981401E+04 0.  0.
        -13    1    3    3    0    0 -0.34107524083E+03 -0.22799832837E+03 -0.12887745800E+03  0.43002903157E+03  0.10566000000E+00 0.  1.
          4    1    3    3  502    0 -0.10177122589E+03  0.22409714135E+03  0.74999969031E+03  0.78935191559E+03  0.00000000000E+00 0.  1.
         13    1    4    4    0    0  0.50398854693E+03  0.42493341410E+03  0.45652111125E+03  0.80186307936E+03  0.10566000000E+00 0. -1.
         -4    1    4    4    0  501 -0.61142080207E+02 -0.42103222708E+03  0.15751129126E+03  0.45366981064E+03  0.00000000000E+00 0. -1.
<mgrwt>
<rscale>  2 0.10719902E+04</rscale>
<asrwt>0</asrwt>
<pdfrwt beam="2">  1        2 0.95366093E-01 0.10719902E+04</pdfrwt>
<pdfrwt beam="1">  1       -2 0.28538988E+00 0.10719902E+04</pdfrwt>
<totfact> 0.15270644E+00</totfact>
</mgrwt>
</event>
<event>
 8    1  0.7046235E-006  0.1279335E+04  0.7818608E-02  0.8549102E-01
         -2   -1    0    0    0  501 -0.00000000000E+00  0.00000000000E+00  0.15516875057E+04  0.15516875057E+04  0.00000000000E+00 0.  1.
          2   -1    0    0  502    0  0.00000000000E+00 -0.00000000000E+00 -0.10668950073E+04  0.10668950073E+04  0.00000000000E+00 0. -1.
    9000010    2    1    2  502    0  0.64636331334E+02  0.79922998930E+03  0.10128242527E+03  0.12722104887E+04  0.98250443599E+03 0.  0.
   -9000010    2    1    2    0  501 -0.64636331334E+02 -0.79922998930E+03  0.38351007313E+03  0.13463720243E+04  0.10112819689E+04 0.  0.
        -13    1    3    3    0    0 -0.21226690692E+03  0.93561218603E+03  0.69236915635E+02  0.96188417394E+03  0.10566000000E+00 0.  1.
          4    1    3    3  502    0  0.27690323826E+03 -0.13638219673E+03  0.32045509633E+02  0.31032631476E+03  0.00000000000E+00 0.  1.
         13    1    4    4    0    0 -0.32187463608E+03  0.10031720863E+03  0.52237372824E+01  0.33718559028E+03  0.10566000000E+00 0. -1.
         -4    1    4    4    0  501  0.25723830474E+03 -0.89954719793E+03  0.37828633585E+03  0.10091864340E+04  0.00000000000E+00 0. -1.
<mgrwt>
<rscale>  2 0.12793350E+04</rscale>
<asrwt>0</asrwt>
<pdfrwt beam="2">  1        2 0.16413769E+00 0.12793350E+04</pdfrwt>
<pdfrwt beam="1">  1       -2 0.23872116E+00 0.12793350E+04</pdfrwt>
<totfact> 0.16811403E+00</totfact>
</mgrwt>
</event>
<event>
 8    1  0.7046235E-006  0.1561460E+04  0.7818608E-02  0.8374982E-01
         -1   -1    0    0    0  501 -0.00000000000E+00  0.00000000000E+00  0.14925862028E+04  0.14925862028E+04  0.00000000000E+00 0.  1.
          1   -1    0    0  502    0  0.00000000000E+00 -0.00000000000E+00 -0.16335809155E+04  0.16335809155E+04  0.00000000000E+00 0. -1.
    9000010    2    1    2  502    0 -0.28848640589E+03 -0.11574880859E+04 -0.67579099056E+02  0.15725603099E+04  0.10224362661E+04 0.  0.
   -9000010    2    1    2    0  501  0.28848640589E+03  0.11574880859E+04 -0.73415613602E+02  0.15536068085E+04  0.99262338668E+03 0.  0.
        -13    1    3    3    0    0  0.30688592361E+03 -0.10945935902E+03 -0.16134647226E+03  0.36358357590E+03  0.10566000000E+00 0.  1.
          4    1    3    3  502    0 -0.59537232951E+03 -0.10480287268E+04  0.93767373200E+02  0.12089767340E+04  0.00000000000E+00 0.  1.
         13    1    4    4    0    0  0.59795751662E+03  0.84556496626E+03 -0.27299596818E+03  0.10710089232E+04  0.10566000000E+00 0. -1.
         -4    1    4    4    0  501 -0.30947111073E+03  0.31192311960E+03  0.19958035458E+03  0.48259788525E+03  0.00000000000E+00 0. -1.
<mgrwt>
<rscale>  2 0.15614598E+04</rscale>
<asrwt>0</asrwt>
<pdfrwt beam="2">  1        1 0.25132014E+00 0.15614598E+04</pdfrwt>
<pdfrwt beam="1">  1       -1 0.22962865E+00 0.15614598E+04</pdfrwt>
<totfact> 0.47714564E-01</totfact>
</mgrwt>
</event>
<event>
 8    1  0.7046235E-006  0.1345413E+04  0.7818608E-02  0.8504434E-01
          2   -1    0    0  502    0  0.00000000000E+00  0.00000000000E+00  0.89415235894E+03  0.89415235894E+03  0.00000000000E+00 0. -1.
         -2   -1    0    0    0  501 -0.00000000000E+00 -0.00000000000E+00 -0.20245045679E+04  0.20245045679E+04  0.00000000000E+00 0.  1.
    9000010    2    1    2  502    0  0.86523163511E+03 -0.68959244990E+02 -0.55476532633E+03  0.14524556804E+04  0.10239539913E+04 0.  0.
   -9000010    2    1    2    0  501 -0.86523163511E+03  0.68959244990E+02 -0.57558688261E+03  0.14662012464E+04  0.10320197071E+04 0.  0.
        -13    1    3    3    0    0  0.75975268623E+03 -0.28403029369E+03  0.39149043685E+02  0.81205296056E+03  0.10566000000E+00 0.  1.
          4    1    3    3  502    0  0.10547894888E+03  0.21507104870E+03 -0.59391437002E+03  0.64040271982E+03  0.00000000000E+00 0.  1.
         13    1    4    4    0    0 -0.30706737364E+03 -0.44581849053E+03 -0.43395102138E+03  0.69379968187E+03  0.10566000000E+00 0. -1.
         -4    1    4    4    0  501 -0.55816426147E+03  0.51477773552E+03 -0.14163586123E+03  0.77240156457E+03  0.00000000000E+00 0. -1.
<mgrwt>
<rscale>  2 0.13454127E+04</rscale>
<asrwt>0</asrwt>
<pdfrwt beam="1">  1        2 0.13756190E+00 0.13454127E+04</pdfrwt>
<pdfrwt beam="2">  1       -2 0.31146224E+00 0.13454127E+04</pdfrwt>
<totfact> 0.62622017E-01</totfact>
</mgrwt>
</event>
<event>
 8    1  0.7046235E-006  0.1676078E+04  0.7818608E-02  0.8314797E-01
         -2   -1    0    0    0  501 -0.00000000000E+00  0.00000000000E+00  0.71668877108E+03  0.71668877108E+03  0.00000000000E+00 0. -1.
          2   -1    0    0  502    0  0.00000000000E+00 -0.00000000000E+00 -0.39397926253E+04  0.39397926253E+04  0.00000000000E+00 0.  1.
    9000010    2    1    2  502    0  0.70721647009E+03 -0.11367929401E+04 -0.17780624983E+04  0.24438255932E+04  0.10091203881E+04 0.  0.
   -9000010    2    1    2    0  501 -0.70721647009E+03  0.11367929401E+04 -0.14450413560E+04  0.22126558032E+04  0.10075950867E+04 0.  0.
        -13    1    3    3    0    0 -0.15021272226E+03  0.93015468782E+02 -0.20895964718E+03  0.27364189130E+03  0.10566000000E+00 0.  1.
          4    1    3    3  502    0  0.85742919235E+03 -0.12298084089E+04 -0.15691028511E+04  0.21701837019E+04  0.00000000000E+00 0.  1.
         13    1    4    4    0    0  0.19293795084E+03  0.55590855556E+03 -0.66174834461E+03  0.88553388291E+03  0.10566000000E+00 0. -1.
         -4    1    4    4    0  501 -0.90015442093E+03  0.58088438459E+03 -0.78329301136E+03  0.13271219203E+04  0.00000000000E+00 0. -1.
<mgrwt>
<rscale>  2 0.16760784E+04</rscale>
<asrwt>0</asrwt>
<pdfrwt beam="2">  1        2 0.60612195E+00 0.16760784E+04</pdfrwt>
<pdfrwt beam="1">  1       -2 0.11025981E+00 0.16760784E+04</pdfrwt>
<totfact> 0.34115265E-01</totfact>
</mgrwt>
</event>
<event>
 8    1  0.7046235E-006  0.1100288E+04  0.7818608E-02  0.8685686E-01
          2   -1    0    0  502    0  0.00000000000E+00  0.00000000000E+00  0.51885274953E+04  0.51885274953E+04  0.00000000000E+00 0. -1.
         -2   -1    0    0    0  501 -0.00000000000E+00 -0.00000000000E+00 -0.29595210022E+03  0.29595210022E+03  0.00000000000E+00 0.  1.
    9000010    2    1    2  502    0  0.14525254114E+03 -0.40460392501E+03  0.36862040988E+04  0.38434943809E+04  0.99977285488E+03 0.  0.
   -9000010    2    1    2    0  501 -0.14525254114E+03  0.40460392501E+03  0.12063712963E+04  0.16409852146E+04  0.10260107861E+04 0.  0.
        -13    1    3    3    0    0  0.50565613378E+03 -0.57184627845E+02  0.11381553891E+04  0.12467381073E+04  0.10566000000E+00 0.  1.
          4    1    3    3  502    0 -0.36040359264E+03 -0.34741929716E+03  0.25480487096E+04  0.25967562735E+04  0.00000000000E+00 0.  1.
         13    1    4    4    0    0 -0.50652109426E+03  0.52087355787E+03  0.87354227882E+03  0.11361993691E+04  0.10566000000E+00 0. -1.
         -4    1    4    4    0  501  0.36126855312E+03 -0.11626963286E+03  0.33282901751E+03  0.50478584557E+03  0.00000000000E+00 0. -1.
<mgrwt>
<rscale>  2 0.11002877E+04</rscale>
<asrwt>0</asrwt>
<pdfrwt beam="1">  1        2 0.79823493E+00 0.11002877E+04</pdfrwt>
<pdfrwt beam="2">  1       -2 0.45531096E-01 0.11002877E+04</pdfrwt>
<totfact> 0.19197882E-01</totfact>
</mgrwt>
</event>
<event>
 8    1  0.7046235E-006  0.1264560E+04  0.7818608E-02  0.8559471E-01
         -2   -1    0    0    0  501 -0.00000000000E+00  0.00000000000E+00  0.55434991326E+03  0.55434991326E+03  0.00000000000E+00 0.  1.
          2   -1    0    0  502    0  0.00000000000E+00 -0.00000000000E+00 -0.30456455033E+04  0.30456455033E+04  0.00000000000E+00 0. -1.
    9000010    2    1    2  502    0  0.30557500173E+03 -0.71320911953E+03 -0.16707177385E+04  0.21029042268E+04  0.10143298750E+04 0.  0.
   -9000010    2    1    2    0  501 -0.30557500173E+03  0.71320911953E+03 -0.82057785147E+03  0.14970911897E+04  0.98279738000E+03 0.  0.
        -13    1    3    3    0    0  0.48258929790E+03  0.46855025975E+02 -0.50504962704E+03  0.70011639093E+03  0.10566000000E+00 0.  1.
          4    1    3    3  502    0 -0.17701429617E+03 -0.76006414550E+03 -0.11656681115E+04  0.14027878359E+04  0.00000000000E+00 0.  1.
         13    1    4    4    0    0 -0.71319244087E+02  0.51971191352E+03  0.94378650273E+02  0.53300492345E+03  0.10566000000E+00 0. -1.
         -4    1    4    4    0  501 -0.23425575764E+03  0.19349720601E+03 -0.91495650174E+03  0.96408626627E+03  0.00000000000E+00 0. -1.
<mgrwt>
<rscale>  2 0.12645597E+04</rscale>
<asrwt>0</asrwt>
<pdfrwt beam="2">  1        2 0.46856086E+00 0.12645597E+04</pdfrwt>
<pdfrwt beam="1">  1       -2 0.85284600E-01 0.12645597E+04</pdfrwt>
<totfact> 0.30378218E+00</totfact>
</mgrwt>
</event>
<event>
 8    1  0.7046235E-006  0.1913554E+04  0.7818608E-02  0.8204525E-01
          2   -1    0    0  502    0  0.00000000000E+00  0.00000000000E+00  0.26081254358E+04  0.26081254358E+04  0.00000000000E+00 0.  1.
         -2   -1    0    0    0  501 -0.00000000000E+00 -0.00000000000E+00 -0.15489574412E+04  0.15489574412E+04  0.00000000000E+00 0. -1.
    9000010    2    1    2  502    0  0.16038867488E+04  0.24860651128E+03  0.11645103403E+04  0.22365876648E+04  0.10059732348E+04 0.  0.
   -9000010    2    1    2    0  501 -0.16038867488E+04 -0.24860651128E+03 -0.10534234571E+03  0.19204952122E+04  0.10212477416E+04 0.  0.
        -13    1    3    3    0    0  0.25202526250E+03 -0.14911047453E+03  0.69020244913E+03  0.74975335845E+03  0.10566000000E+00 0.  1.
          4    1    3    3  502    0  0.13518614863E+04  0.39771698581E+03  0.47430789120E+03  0.14868343063E+04  0.00000000000E+00 0.  1.
         13    1    4    4    0    0 -0.16463722906E+04 -0.42196191853E+03  0.24524843152E+02  0.16997632361E+04  0.10566000000E+00 0. -1.
         -4    1    4    4    0  501  0.42485541817E+02  0.17335540725E+03 -0.12986718887E+03  0.22073197600E+03  0.00000000000E+00 0. -1.
<mgrwt>
<rscale>  2 0.19135542E+04</rscale>
<asrwt>0</asrwt>
<pdfrwt beam="1">  1        2 0.40125007E+00 0.19135542E+04</pdfrwt>
<pdfrwt beam="2">  1       -2 0.23830115E+00 0.19135542E+04</pdfrwt>
<totfact> 0.22011281E-01</totfact>
</mgrwt>
</event>
<event>
 8    1  0.7046235E-006  0.1323643E+04  0.7818608E-02  0.8518853E-01
          1   -1    0    0  502    0  0.00000000000E+00  0.00000000000E+00  0.20050605268E+04  0.20050605268E+04  0.00000000000E+00 0. -1.
         -1   -1    0    0    0  501 -0.00000000000E+00 -0.00000000000E+00 -0.10386923602E+04  0.10386923602E+04  0.00000000000E+00 0.  1.
    9000010    2    1    2  502    0 -0.36481294069E+03 -0.77908699771E+03 -0.12349910999E+03  0.13283421051E+04  0.10045773670E+04 0.  0.
   -9000010    2    1    2    0  501  0.36481294069E+03  0.77908699771E+03  0.10898672766E+04  0.17154107819E+04  0.10073521918E+04 0.  0.
        -13    1    3    3    0    0 -0.14043857887E+02 -0.21074130406E+03 -0.51328754223E+03  0.55504345717E+03  0.10566000000E+00 0.  1.
          4    1    3    3  502    0 -0.35076908280E+03 -0.56834569366E+03  0.38978843224E+03  0.77329864791E+03  0.00000000000E+00 0.  1.
         13    1    4    4    0    0  0.21440896415E+03 -0.15835770365E+03 -0.45119304310E+01  0.26658719942E+03  0.10566000000E+00 0. -1.
         -4    1    4    4    0  501  0.15040397653E+03  0.93744470136E+03  0.10943792070E+04  0.14488235824E+04  0.00000000000E+00 0. -1.
<mgrwt>
<rscale>  2 0.13236427E+04</rscale>
<asrwt>0</asrwt>
<pdfrwt beam="1">  1        1 0.30847085E+00 0.13236427E+04</pdfrwt>
<pdfrwt beam="2">  1       -1 0.15979882E+00 0.13236427E+04</pdfrwt>
<totfact> 0.10892689E+00</totfact>
</mgrwt>
</event>
<event>
 8    1  0.7046235E-006  0.1053207E+04  0.7818608E-02  0.8726144E-01
         -2   -1    0    0    0  501 -0.00000000000E+00  0.00000000000E+00  0.29557914661E+03  0.29557914661E+03  0.00000000000E+00 0. -1.
          2   -1    0    0  502    0  0.00000000000E+00 -0.00000000000E+00 -0.37686127410E+04  0.37686127410E+04  0.00000000000E+00 0.  1.
    9000010    2    1    2  502    0 -0.23285453550E+03  0.18710936246E+03 -0.16247773514E+04  0.19423598350E+04  0.10215816848E+04 0.  0.
   -9000010    2    1    2    0  501  0.23285453550E+03 -0.18710936246E+03 -0.18482562430E+04  0.21218320526E+04  0.99844327407E+03 0.  0.
        -13    1    3    3    0    0 -0.15911427780E+03 -0.47986798519E+02  0.10404042311E+03  0.19607270855E+03  0.10566000000E+00 0.  1.
          4    1    3    3  502    0 -0.73740257690E+02  0.23509616098E+03 -0.17288177746E+04  0.17462871265E+04  0.00000000000E+00 0.  1.
         13    1    4    4    0    0  0.56684088948E+01 -0.57000790667E+02  0.12172543058E+03  0.13452996919E+03  0.10566000000E+00 0. -1.
         -4    1    4    4    0  501  0.22718612660E+03 -0.13010857180E+03 -0.19699816735E+04  0.19873020834E+04  0.00000000000E+00 0. -1.
<mgrwt>
<rscale>  2 0.10532066E+04</rscale>
<asrwt>0</asrwt>
<pdfrwt beam="2">  1        2 0.57978660E+00 0.10532066E+04</pdfrwt>
<pdfrwt beam="1">  1       -2 0.45473713E-01 0.10532066E+04</pdfrwt>
<totfact> 0.34324394E+00</totfact>
</mgrwt>
</event>
<event>
 8    1  0.7046235E-006  0.1239431E+04  0.7818608E-02  0.8577447E-01
         -2   -1    0    0    0  501 -0.00000000000E+00  0.00000000000E+00  0.81622724883E+03  0.81622724883E+03  0.00000000000E+00 0.  1.
          2   -1    0    0  502    0  0.00000000000E+00 -0.00000000000E+00 -0.19927369900E+04  0.19927369900E+04  0.00000000000E+00 0. -1.
    9000010    2    1    2  502    0  0.27580416634E+03  0.68943351349E+03 -0.91973821903E+03  0.15442894441E+04  0.99374291849E+03 0.  0.
   -9000010    2    1    2    0  501 -0.27580416634E+03 -0.68943351349E+03 -0.25677152215E+03  0.12646747947E+04  0.99100162163E+03 0.  0.
        -13    1    3    3    0    0 -0.18353509033E+03 -0.38886311468E+02  0.97589688694E+02  0.21147348086E+03  0.10566000000E+00 0.  1.
          4    1    3    3  502    0  0.45933925667E+03  0.72831982496E+03 -0.10173279077E+04  0.13328159633E+04  0.00000000000E+00 0.  1.
         13    1    4    4    0    0 -0.34320371958E+03  0.44888096652E+02  0.19756133734E+03  0.39854012035E+03  0.10566000000E+00 0. -1.
         -4    1    4    4    0  501  0.67399553235E+02 -0.73432161015E+03 -0.45433285949E+03  0.86613467435E+03  0.00000000000E+00 0. -1.
<mgrwt>
<rscale>  2 0.12394308E+04</rscale>
<asrwt>0</asrwt>
<pdfrwt beam="2">  1        2 0.30657492E+00 0.12394308E+04</pdfrwt>
<pdfrwt beam="1">  1       -2 0.12557343E+00 0.12394308E+04</pdfrwt>
<totfact> 0.47082926E+00</totfact>
</mgrwt>
</event>
<event>
 8    1  0.7046235E-006  0.1353002E+04  0.7818608E-02  0.8499473E-01
          2   -1    0    0  502    0  0.00000000000E+00  0.00000000000E+00  0.49323057692E+04  0.49323057692E+04  0.00000000000E+00 0.  1.
         -2   -1    0    0    0  501 -0.00000000000E+00 -0.00000000000E+00 -0.37565019210E+03  0.37565019210E+03  0.00000000000E+00 0. -1.
    9000010    2    1    2  502    0  0.64044075512E+03 -0.38619202797E+03  0.23381705820E+04  0.27702683230E+04  0.12837586486E+04 0.  0.
   -9000010    2    1    2    0  501 -0.64044075512E+03  0.38619202797E+03  0.22184849951E+04  0.25376876383E+04  0.97922123781E+03 0.  0.
        -13    1    3    3    0    0  0.24375380397E+03 -0.81725089385E+03  0.10322532170E+04  0.13389778398E+04  0.10566000000E+00 0.  1.
          4    1    3    3  502    0  0.39668695114E+03  0.43105886587E+03  0.13059173650E+04  0.14312904832E+04  0.00000000000E+00 0.  1.
         13    1    4    4    0    0  0.61719114943E+02 -0.10495960196E+03 -0.35076798987E+02  0.12671290457E+03  0.10566000000E+00 0. -1.
         -4    1    4    4    0  501 -0.70215987006E+03  0.49115162993E+03  0.22535617941E+04  0.24109747337E+04  0.00000000000E+00 0. -1.
<mgrwt>
<rscale>  2 0.13530024E+04</rscale>
<asrwt>0</asrwt>
<pdfrwt beam="1">  1        2 0.75881622E+00 0.13530024E+04</pdfrwt>
<pdfrwt beam="2">  1       -2 0.57792341E-01 0.13530024E+04</pdfrwt>
<totfact> 0.19487730E-01</totfact>
</mgrwt>
</event>
<event>
 8    1  0.7046235E-006  0.1049240E+04  0.7818608E-02  0.8729653E-01
         -2   -1    0    0    0  501 -0.00000000000E+00  0.00000000000E+00  0.50270930702E+03  0.50270930702E+03  0.00000000000E+00 0. -1.
          2   -1    0    0  502    0  0.00000000000E+00 -0.00000000000E+00 -0.23222913957E+04  0.23222913957E+04  0.00000000000E+00 0.  1.
    9000010    2    1    2  502    0 -0.40191478387E+03  0.22052759708E+03 -0.53555585414E+03  0.11302851548E+04  0.88349111132E+03 0.  0.
   -9000010    2    1    2    0  501  0.40191478387E+03 -0.22052759708E+03 -0.12840262346E+04  0.16947155479E+04  0.10065632135E+04 0.  0.
        -13    1    3    3    0    0  0.72686401506E+02  0.36392825087E+03  0.36936207265E+02  0.37294956672E+03  0.10566000000E+00 0.  1.
          4    1    3    3  502    0 -0.47460118537E+03 -0.14340065378E+03 -0.57249206141E+03  0.75733558812E+03  0.00000000000E+00 0.  1.
         13    1    4    4    0    0  0.49222608123E+03 -0.45894957925E+03 -0.41869563944E+03  0.79260789864E+03  0.10566000000E+00 0. -1.
         -4    1    4    4    0  501 -0.90311297358E+02  0.23842198216E+03 -0.86533059512E+03  0.90210764926E+03  0.00000000000E+00 0. -1.
<mgrwt>
<rscale>  2 0.10492399E+04</rscale>
<asrwt>0</asrwt>
<pdfrwt beam="2">  1        2 0.35727560E+00 0.10492399E+04</pdfrwt>
<pdfrwt beam="1">  1       -2 0.77339893E-01 0.10492399E+04</pdfrwt>
<totfact> 0.10185149E+01</totfact>
</mgrwt>
</event>
<event>
 8    1  0.7046235E-006  0.1109450E+04  0.7818608E-02  0.8678058E-01
         -1   -1    0    0    0  501 -0.00000000000E+00  0.00000000000E+00  0.66826851557E+03  0.66826851557E+03  0.00000000000E+00 0. -1.
          1   -1    0    0  502    0  0.00000000000E+00 -0.00000000000E+00 -0.18505975154E+04  0.18505975154E+04  0.00000000000E+00 0.  1.
    9000010    2    1    2  502    0  0.40992335271E+03 -0.29834261700E+03 -0.49773716570E+03  0.11998807314E+04  0.96691572084E+03 0.  0.
   -9000010    2    1    2    0  501 -0.40992335271E+03  0.29834261700E+03 -0.68459183411E+03  0.13189852996E+04  0.10069810172E+04 0.  0.
        -13    1    3    3    0    0  0.21876548420E+02 -0.31420854081E+03 -0.69591120380E+03  0.76387041128E+03  0.10566000000E+00 0.  1.
          4    1    3    3  502    0  0.38804680429E+03  0.15865923809E+02  0.19817403810E+03  0.43601032010E+03  0.00000000000E+00 0.  1.
         13    1    4    4    0    0 -0.36295613748E+03 -0.12534992621E+03 -0.79129684109E+03  0.87954560065E+03  0.10566000000E+00 0. -1.
         -4    1    4    4    0  501 -0.46967215225E+02  0.42369254321E+03  0.10670500698E+03  0.43943969893E+03  0.00000000000E+00 0. -1.
<mgrwt>
<rscale>  2 0.11094498E+04</rscale>
<asrwt>0</asrwt>
<pdfrwt beam="2">  1        1 0.28470731E+00 0.11094498E+04</pdfrwt>
<pdfrwt beam="1">  1       -1 0.10281054E+00 0.11094498E+04</pdfrwt>
<totfact> 0.46666727E+00</totfact>
</mgrwt>
</event>
<event>
 8    1  0.7046235E-006  0.1029992E+04  0.7818608E-02  0.8746911E-01
          1   -1    0    0  502    0  0.00000000000E+00  0.00000000000E+00  0.14887983324E+04  0.14887983324E+04  0.00000000000E+00 0. -1.
         -1   -1    0    0    0  501 -0.00000000000E+00 -0.00000000000E+00 -0.80141860184E+03  0.80141860184E+03  0.00000000000E+00 0.  1.
    9000010    2    1    2  502    0  0.30593738005E+03  0.15706592384E+02 -0.42442105889E+02  0.10128536889E+04  0.96448270339E+03 0.  0.
   -9000010    2    1    2    0  501 -0.30593738005E+03 -0.15706592384E+02  0.72982183641E+03  0.12773632453E+04  0.10025829492E+04 0.  0.
        -13    1    3    3    0    0 -0.24686043285E+03  0.22964086877E+03  0.17699163243E+03  0.38079003536E+03  0.10566000000E+00 0.  1.
          4    1    3    3  502    0  0.55279781290E+03 -0.21393427639E+03 -0.21943373832E+03  0.63206365350E+03  0.00000000000E+00 0.  1.
         13    1    4    4    0    0 -0.30637380913E+02  0.33489969447E+03 -0.86511809981E+02  0.34724740301E+03  0.10566000000E+00 0. -1.
         -4    1    4    4    0  501 -0.27529999914E+03 -0.35060628685E+03  0.81633364639E+03  0.93011584232E+03  0.00000000000E+00 0. -1.
<mgrwt>
<rscale>  2 0.10299915E+04</rscale>
<asrwt>0</asrwt>
<pdfrwt beam="1">  1        1 0.22904590E+00 0.10299915E+04</pdfrwt>
<pdfrwt beam="2">  1       -1 0.12329517E+00 0.10299915E+04</pdfrwt>
<totfact> 0.57276747E+00</totfact>
</mgrwt>
</event>
<event>
 8    1  0.7046235E-006  0.1099975E+04  0.7818608E-02  0.8685948E-01
         -2   -1    0    0    0  501 -0.00000000000E+00  0.00000000000E+00  0.36334375359E+04  0.36334375359E+04  0.00000000000E+00 0.  1.
          2   -1    0    0  502    0  0.00000000000E+00 -0.00000000000E+00 -0.42669021983E+03  0.42669021983E+03  0.00000000000E+00 0. -1.
    9000010    2    1    2  502    0  0.40984897301E+03  0.17075510183E+03  0.25537462786E+04  0.27802651217E+04  0.10055449300E+04 0.  0.
   -9000010    2    1    2    0  501 -0.40984897301E+03 -0.17075510183E+03  0.65300103749E+03  0.12798626340E+04  0.10072261521E+04 0.  0.
        -13    1    3    3    0    0  0.51046388225E+03 -0.25234797676E+03  0.19803781920E+04  0.20606190019E+04  0.10566000000E+00 0.  1.
          4    1    3    3  502    0 -0.10061490925E+03  0.42310307859E+03  0.57336808662E+03  0.71964611986E+03  0.00000000000E+00 0.  1.
         13    1    4    4    0    0 -0.64345807876E+03 -0.37613995123E+03  0.61536613853E+03  0.96653766489E+03  0.10566000000E+00 0. -1.
         -4    1    4    4    0  501  0.23360910575E+03  0.20538484941E+03  0.37634898956E+02  0.31332496912E+03  0.00000000000E+00 0. -1.
<mgrwt>
<rscale>  2 0.10999749E+04</rscale>
<asrwt>0</asrwt>
<pdfrwt beam="2">  1        2 0.65644651E-01 0.10999749E+04</pdfrwt>
<pdfrwt beam="1">  1       -2 0.55899037E+00 0.10999749E+04</pdfrwt>
<totfact> 0.43018048E-01</totfact>
</mgrwt>
</event>
<event>
 8    1  0.7046235E-006  0.1102308E+04  0.7818608E-02  0.8683997E-01
         -1   -1    0    0    0  501 -0.00000000000E+00  0.00000000000E+00  0.66882491702E+03  0.66882491702E+03  0.00000000000E+00 0.  1.
          1   -1    0    0  502    0  0.00000000000E+00 -0.00000000000E+00 -0.18260785068E+04  0.18260785068E+04  0.00000000000E+00 0. -1.
    9000010    2    1    2  502    0 -0.13279765140E+03  0.51067377869E+03 -0.64443119014E+03  0.12505672525E+04  0.93284723816E+03 0.  0.
   -9000010    2    1    2    0  501  0.13279765140E+03 -0.51067377869E+03 -0.51282239968E+03  0.12443361714E+04  0.10034753456E+04 0.  0.
        -13    1    3    3    0    0  0.17181956628E+03  0.44926300216E+03  0.56050591689E+02  0.48425291787E+03  0.10566000000E+00 0.  1.
          4    1    3    3  502    0 -0.30461721768E+03  0.61410776523E+02 -0.70048178183E+03  0.76631433463E+03  0.00000000000E+00 0.  1.
         13    1    4    4    0    0  0.24978728747E+03 -0.52594498839E+03  0.12515055842E+03  0.59554554254E+03  0.10566000000E+00 0. -1.
         -4    1    4    4    0  501 -0.11698963607E+03  0.15271209705E+02 -0.63797295810E+03  0.64879062884E+03  0.00000000000E+00 0. -1.
<mgrwt>
<rscale>  2 0.11023084E+04</rscale>
<asrwt>0</asrwt>
<pdfrwt beam="2">  1        1 0.28093515E+00 0.11023084E+04</pdfrwt>
<pdfrwt beam="1">  1       -1 0.10289614E+00 0.11023084E+04</pdfrwt>
<totfact> 0.48634859E+00</totfact>
</mgrwt>
</event>
<event>
 8    1  0.7046235E-006  0.1476077E+04  0.7818608E-02  0.8423401E-01
          2   -1    0    0  502    0  0.00000000000E+00  0.00000000000E+00  0.38465765768E+04  0.38465765768E+04  0.00000000000E+00 0.  1.
         -2   -1    0    0    0  501 -0.00000000000E+00 -0.00000000000E+00 -0.69149324397E+03  0.69149324397E+03  0.00000000000E+00 0. -1.
    9000010    2    1    2  502    0 -0.31552997987E+03 -0.10445230025E+04  0.25391890116E+04  0.29351550529E+04  0.98846693274E+03 0.  0.
   -9000010    2    1    2    0  501  0.31552997987E+03  0.10445230025E+04  0.61589432126E+03  0.16029147679E+04  0.99971119190E+03 0.  0.
        -13    1    3    3    0    0  0.31820822191E+03 -0.49501587205E+03  0.70540461886E+03  0.91863642076E+03  0.10566000000E+00 0.  1.
          4    1    3    3  502    0 -0.63373820178E+03 -0.54950713044E+03  0.18337843927E+04  0.20165186321E+04  0.00000000000E+00 0.  1.
         13    1    4    4    0    0  0.61885207910E+02  0.11519831401E+04  0.31692324242E+03  0.11963842555E+04  0.10566000000E+00 0. -1.
         -4    1    4    4    0  501  0.25364477196E+03 -0.10746013762E+03  0.29897107884E+03  0.40653051239E+03  0.00000000000E+00 0. -1.
<mgrwt>
<rscale>  2 0.14760771E+04</rscale>
<asrwt>0</asrwt>
<pdfrwt beam="1">  1        2 0.59178100E+00 0.14760771E+04</pdfrwt>
<pdfrwt beam="2">  1       -2 0.10638358E+00 0.14760771E+04</pdfrwt>
<totfact> 0.45770989E-01</totfact>
</mgrwt>
</event>
<event>
 8    1  0.7046235E-006  0.1080248E+04  0.7818608E-02  0.8702643E-01
          1   -1    0    0  502    0  0.00000000000E+00  0.00000000000E+00  0.31857144610E+04  0.31857144610E+04  0.00000000000E+00 0. -1.
         -1   -1    0    0    0  501 -0.00000000000E+00 -0.00000000000E+00 -0.40728544905E+03  0.40728544905E+03  0.00000000000E+00 0.  1.
    9000010    2    1    2  502    0 -0.21577932078E+03  0.36105971435E+03  0.19622682996E+04  0.22412986864E+04  0.99799703874E+03 0.  0.
   -9000010    2    1    2    0  501  0.21577932078E+03 -0.36105971435E+03  0.81616071234E+03  0.13517012237E+04  0.99199448439E+03 0.  0.
        -13    1    3    3    0    0 -0.17645544666E+03 -0.49768136746E+02  0.17812149677E+04  0.17906256349E+04  0.10566000000E+00 0.  1.
          4    1    3    3  502    0 -0.39323874116E+02  0.41082785110E+03  0.18105333188E+03  0.45067305144E+03  0.00000000000E+00 0.  1.
         13    1    4    4    0    0  0.51717904427E+03 -0.11983737845E+03  0.10303286793E+03  0.54078733727E+03  0.10566000000E+00 0. -1.
         -4    1    4    4    0  501 -0.30139972350E+03 -0.24122233590E+03  0.71312784441E+03  0.81091388639E+03  0.00000000000E+00 0. -1.
<mgrwt>
<rscale>  2 0.10802477E+04</rscale>
<asrwt>0</asrwt>
<pdfrwt beam="1">  1        1 0.49010990E+00 0.10802477E+04</pdfrwt>
<pdfrwt beam="2">  1       -1 0.62659302E-01 0.10802477E+04</pdfrwt>
<totfact> 0.73438674E-01</totfact>
</mgrwt>
</event>
<event>
 8    1  0.7046235E-006  0.1148950E+04  0.7818608E-02  0.8646028E-01
         -2   -1    0    0    0  501 -0.00000000000E+00  0.00000000000E+00  0.62634834026E+03  0.62634834026E+03  0.00000000000E+00 0.  1.
          2   -1    0    0  502    0  0.00000000000E+00 -0.00000000000E+00 -0.26756739374E+04  0.26756739374E+04  0.00000000000E+00 0. -1.
    9000010    2    1    2  502    0  0.33453051183E+03 -0.43974682248E+03 -0.25756498919E+03  0.11685268736E+04  0.99690892231E+03 0.  0.
   -9000010    2    1    2    0  501 -0.33453051183E+03  0.43974682248E+03 -0.17917606080E+04  0.21334954041E+04  0.10178942145E+04 0.  0.
        -13    1    3    3    0    0  0.57885218486E+03 -0.29900447113E+03 -0.48012211586E+03  0.80931500850E+03  0.10566000000E+00 0.  1.
          4    1    3    3  502    0 -0.24432167303E+03 -0.14074235135E+03  0.22255712667E+03  0.35921186508E+03  0.00000000000E+00 0.  1.
         13    1    4    4    0    0 -0.53383532310E+03  0.66786776349E+03 -0.13028229975E+04  0.15583245091E+04  0.10566000000E+00 0. -1.
         -4    1    4    4    0  501  0.19930481127E+03 -0.22812094100E+03 -0.48893761046E+03  0.57517089499E+03  0.00000000000E+00 0. -1.
<mgrwt>
<rscale>  2 0.11489503E+04</rscale>
<asrwt>0</asrwt>
<pdfrwt beam="2">  1        2 0.41164215E+00 0.11489503E+04</pdfrwt>
<pdfrwt beam="1">  1       -2 0.96361281E-01 0.11489503E+04</pdfrwt>
<totfact> 0.38786579E+00</totfact>
</mgrwt>
</event>
<event>
 8    1  0.7046235E-006  0.1158170E+04  0.7818608E-02  0.8638745E-01
         -1   -1    0    0    0  501 -0.00000000000E+00  0.00000000000E+00  0.11781922286E+04  0.11781922286E+04  0.00000000000E+00 0.  1.
          1   -1    0    0  502    0  0.00000000000E+00 -0.00000000000E+00 -0.11557709972E+04  0.11557709972E+04  0.00000000000E+00 0. -1.
    9000010    2    1    2  502    0 -0.50385028920E+03  0.30632589135E+03  0.15390098241E+03  0.11673350909E+04  0.99563298273E+03 0.  0.
   -9000010    2    1    2    0  501  0.50385028920E+03 -0.30632589135E+03 -0.13147975104E+03  0.11666281349E+04  0.99801483684E+03 0.  0.
        -13    1    3    3    0    0 -0.64722657930E+03  0.39730470898E+03  0.40770875318E+03  0.86196271109E+03  0.10566000000E+00 0.  1.
          4    1    3    3  502    0  0.14337629010E+03 -0.90978817628E+02 -0.25380777077E+03  0.30537237976E+03  0.00000000000E+00 0.  1.
         13    1    4    4    0    0  0.77273251852E+03 -0.34942816659E+03  0.32616075951E+02  0.84869276441E+03  0.10566000000E+00 0. -1.
         -4    1    4    4    0  501 -0.26888222932E+03  0.43102275235E+02 -0.16409582699E+03  0.31793537049E+03  0.00000000000E+00 0. -1.
<mgrwt>
<rscale>  2 0.11581701E+04</rscale>
<asrwt>0</asrwt>
<pdfrwt beam="2">  1        1 0.17781092E+00 0.11581701E+04</pdfrwt>
<pdfrwt beam="1">  1       -1 0.18126034E+00 0.11581701E+04</pdfrwt>
<totfact> 0.31487169E+00</totfact>
</mgrwt>
</event>
<event>
 8    1  0.7046235E-006  0.1935126E+04  0.7818608E-02  0.8195328E-01
         -2   -1    0    0    0  501 -0.00000000000E+00  0.00000000000E+00  0.22332919113E+04  0.22332919113E+04  0.00000000000E+00 0.  1.
          2   -1    0    0  502    0  0.00000000000E+00 -0.00000000000E+00 -0.17662925578E+04  0.17662925578E+04  0.00000000000E+00 0. -1.
    9000010    2    1    2  502    0 -0.13263348567E+04  0.96714504142E+03 -0.21137218135E+03  0.19811555788E+04  0.10889286226E+04 0.  0.
   -9000010    2    1    2    0  501  0.13263348567E+04 -0.96714504142E+03  0.67837153490E+03  0.20184288903E+04  0.95881883727E+03 0.  0.
        -13    1    3    3    0    0 -0.19484936352E+02  0.60671417764E+03  0.12479875597E+02  0.60715526396E+03  0.10566000000E+00 0.  1.
          4    1    3    3  502    0 -0.13068499203E+04  0.36043086378E+03 -0.22385205694E+03  0.13740003148E+04  0.00000000000E+00 0.  1.
         13    1    4    4    0    0  0.50703689283E+03 -0.11528130378E+03 -0.18807200898E+03  0.55294419376E+03  0.10566000000E+00 0. -1.
         -4    1    4    4    0  501  0.81929796384E+03 -0.85186373764E+03  0.86644354388E+03  0.14654846965E+04  0.00000000000E+00 0. -1.
<mgrwt>
<rscale>  2 0.19351265E+04</rscale>
<asrwt>0</asrwt>
<pdfrwt beam="2">  1        2 0.27173732E+00 0.19351265E+04</pdfrwt>
<pdfrwt beam="1">  1       -2 0.34358337E+00 0.19351265E+04</pdfrwt>
<totfact> 0.11439786E-01</totfact>
</mgrwt>
</event>
<event>
 8    1  0.7046235E-006  0.1047126E+04  0.7818608E-02  0.8731530E-01
         -2   -1    0    0    0  501 -0.00000000000E+00  0.00000000000E+00  0.32129135189E+03  0.32129135189E+03  0.00000000000E+00 0.  1.
          2   -1    0    0  502    0  0.00000000000E+00 -0.00000000000E+00 -0.45177598229E+04  0.45177598229E+04  0.00000000000E+00 0. -1.
    9000010    2    1    2  502    0 -0.65168603110E+02 -0.32315836207E+03 -0.32987190069E+04  0.34617021847E+04  0.99657245342E+03 0.  0.
   -9000010    2    1    2    0  501  0.65168603110E+02  0.32315836207E+03 -0.89774946404E+03  0.13773489901E+04  0.99119012628E+03 0.  0.
        -13    1    3    3    0    0  0.30717169564E+03  0.22812771015E+03 -0.11079722842E+04  0.11721771609E+04  0.10566000000E+00 0.  1.
          4    1    3    3  502    0 -0.37234029875E+03 -0.55128607223E+03 -0.21907467227E+04  0.22895250238E+04  0.00000000000E+00 0.  1.
         13    1    4    4    0    0  0.12790921234E+03 -0.25995779643E+03  0.17572232508E+02  0.29025440056E+03  0.10566000000E+00 0. -1.
         -4    1    4    4    0  501 -0.62740609232E+02  0.58311615850E+03 -0.91532169655E+03  0.10870945895E+04  0.00000000000E+00 0. -1.
<mgrwt>
<rscale>  2 0.10471258E+04</rscale>
<asrwt>0</asrwt>
<pdfrwt beam="2">  1        2 0.69503995E+00 0.10471258E+04</pdfrwt>
<pdfrwt beam="1">  1       -2 0.49429440E-01 0.10471258E+04</pdfrwt>
<totfact> 0.63121610E-01</totfact>
</mgrwt>
</event>
<event>
 8    1  0.7046235E-006  0.1495557E+04  0.7818608E-02  0.8412061E-01
         -2   -1    0    0    0  501 -0.00000000000E+00  0.00000000000E+00  0.17802622884E+04  0.17802622884E+04  0.00000000000E+00 0. -1.
          2   -1    0    0  502    0  0.00000000000E+00 -0.00000000000E+00 -0.13648295002E+04  0.13648295002E+04  0.00000000000E+00 0.  1.
    9000010    2    1    2  502    0  0.57540802748E+03 -0.95998460293E+03  0.65259952826E+03  0.16452467830E+04  0.10140443761E+04 0.  0.
   -9000010    2    1    2    0  501 -0.57540802748E+03  0.95998460293E+03 -0.23716674011E+03  0.14998450056E+04  0.96985676383E+03 0.  0.
        -13    1    3    3    0    0  0.51444905751E+02 -0.93265596564E+03  0.20665529649E+03  0.95666093853E+03  0.10566000000E+00 0.  1.
          4    1    3    3  502    0  0.52396312173E+03 -0.27328637292E+02  0.44594423177E+03  0.68858584447E+03  0.00000000000E+00 0.  1.
         13    1    4    4    0    0  0.17049186226E+03  0.54294852854E+03 -0.29935166916E+03  0.64301789457E+03  0.10566000000E+00 0. -1.
         -4    1    4    4    0  501 -0.74589988974E+03  0.41703607439E+03  0.62184929043E+02  0.85682711107E+03  0.00000000000E+00 0. -1.
<mgrwt>
<rscale>  2 0.14955566E+04</rscale>
<asrwt>0</asrwt>
<pdfrwt beam="2">  1        2 0.20997377E+00 0.14955566E+04</pdfrwt>
<pdfrwt beam="1">  1       -2 0.27388651E+00 0.14955566E+04</pdfrwt>
<totfact> 0.59417092E-01</totfact>
</mgrwt>
</event>
<event>
 8    1  0.7046235E-006  0.1031502E+04  0.7818608E-02  0.8745543E-01
          2   -1    0    0  502    0  0.00000000000E+00  0.00000000000E+00  0.20299952339E+04  0.20299952339E+04  0.00000000000E+00 0.  1.
         -2   -1    0    0    0  501 -0.00000000000E+00 -0.00000000000E+00 -0.52678996628E+03  0.52678996628E+03  0.00000000000E+00 0. -1.
    9000010    2    1    2  502    0 -0.36378562726E+02 -0.25523484018E+03  0.84890958331E+03  0.13439502891E+04  0.10094982295E+04 0.  0.
   -9000010    2    1    2    0  501  0.36378562726E+02  0.25523484018E+03  0.65429568433E+03  0.12128349111E+04  0.98812825870E+03 0.  0.
        -13    1    3    3    0    0  0.45886891448E+03 -0.17048000775E+03  0.21391085915E+03  0.53421155036E+03  0.10566000000E+00 0.  1.
          4    1    3    3  502    0 -0.49524747720E+03 -0.84754832430E+02  0.63499872416E+03  0.80973873872E+03  0.00000000000E+00 0.  1.
         13    1    4    4    0    0  0.48318186600E+03  0.29016574658E+03  0.28210923644E+03  0.63027494681E+03  0.10566000000E+00 0. -1.
         -4    1    4    4    0  501 -0.44680330327E+03 -0.34930906401E+02  0.37218644789E+03  0.58255996432E+03  0.00000000000E+00 0. -1.
<mgrwt>
<rscale>  2 0.10315019E+04</rscale>
<asrwt>0</asrwt>
<pdfrwt beam="1">  1        2 0.31230695E+00 0.10315019E+04</pdfrwt>
<pdfrwt beam="2">  1       -2 0.81044611E-01 0.10315019E+04</pdfrwt>
<totfact> 0.13312119E+01</totfact>
</mgrwt>
</event>
<event>
 8    1  0.7046235E-006  0.1511211E+04  0.7818608E-02  0.8403076E-01
         -2   -1    0    0    0  501 -0.00000000000E+00  0.00000000000E+00  0.11229199721E+04  0.11229199721E+04  0.00000000000E+00 0.  1.
          2   -1    0    0  502    0  0.00000000000E+00 -0.00000000000E+00 -0.20347766105E+04  0.20347766105E+04  0.00000000000E+00 0. -1.
    9000010    2    1    2  502    0 -0.82672275072E+03  0.77349086761E+03 -0.49159935361E+03  0.15909601662E+04  0.10038554165E+04 0.  0.
   -9000010    2    1    2    0  501  0.82672275072E+03 -0.77349086761E+03 -0.42025728474E+03  0.15667364163E+04  0.99814236663E+03 0.  0.
        -13    1    3    3    0    0 -0.36323237302E+03  0.86925303783E+03 -0.58445194098E+03  0.11086580551E+04  0.10566000000E+00 0.  1.
          4    1    3    3  502    0 -0.46349037770E+03 -0.95762170222E+02  0.92852587371E+02  0.48230211118E+03  0.00000000000E+00 0.  1.
         13    1    4    4    0    0  0.22420714497E+03 -0.27711177654E+03  0.32872377462E+03  0.48489082454E+03  0.10566000000E+00 0. -1.
         -4    1    4    4    0  501  0.60251560575E+03 -0.49637909106E+03 -0.74898105936E+03  0.10818455918E+04  0.00000000000E+00 0. -1.
<mgrwt>
<rscale>  2 0.15112109E+04</rscale>
<asrwt>0</asrwt>
<pdfrwt beam="2">  1        2 0.31304256E+00 0.15112109E+04</pdfrwt>
<pdfrwt beam="1">  1       -2 0.17275692E+00 0.15112109E+04</pdfrwt>
<totfact> 0.16556092E+00</totfact>
</mgrwt>
</event>
<event>
 8    1  0.7046235E-006  0.1197508E+04  0.7818608E-02  0.8608441E-01
          2   -1    0    0  502    0  0.00000000000E+00  0.00000000000E+00  0.22996336714E+04  0.22996336714E+04  0.00000000000E+00 0.  1.
         -2   -1    0    0    0  501 -0.00000000000E+00 -0.00000000000E+00 -0.69800771950E+03  0.69800771950E+03  0.00000000000E+00 0. -1.
    9000010    2    1    2  502    0  0.45279556605E+03  0.47893489107E+03  0.30949021925E+03  0.12337102235E+04  0.99591880450E+03 0.  0.
   -9000010    2    1    2    0  501 -0.45279556605E+03 -0.47893489107E+03  0.12921357327E+04  0.17639311675E+04  0.10037110926E+04 0.  0.
        -13    1    3    3    0    0  0.60965811810E+03  0.51670684785E+03 -0.88698147552E+02  0.80407484734E+03  0.10566000000E+00 0.  1.
          4    1    3    3  502    0 -0.15686255206E+03 -0.37771956783E+02  0.39818836680E+03  0.42963537612E+03  0.00000000000E+00 0.  1.
         13    1    4    4    0    0 -0.61336510864E+03 -0.60758350138E+03  0.12970622365E+04  0.15581222430E+04  0.10566000000E+00 0. -1.
         -4    1    4    4    0  501  0.16056954259E+03  0.12864861031E+03 -0.49265038268E+01  0.20580892445E+03  0.00000000000E+00 0. -1.
<mgrwt>
<rscale>  2 0.11975084E+04</rscale>
<asrwt>0</asrwt>
<pdfrwt beam="1">  1        2 0.35378979E+00 0.11975084E+04</pdfrwt>
<pdfrwt beam="2">  1       -2 0.10738580E+00 0.11975084E+04</pdfrwt>
<totfact> 0.48191693E+00</totfact>
</mgrwt>
</event>
<event>
 8    1  0.7046235E-006  0.1303418E+04  0.7818608E-02  0.8532506E-01
         -1   -1    0    0    0  501 -0.00000000000E+00  0.00000000000E+00  0.14342975998E+04  0.14342975998E+04  0.00000000000E+00 0.  1.
          1   -1    0    0  502    0  0.00000000000E+00 -0.00000000000E+00 -0.12787114364E+04  0.12787114364E+04  0.00000000000E+00 0. -1.
    9000010    2    1    2  502    0 -0.83174145508E+03 -0.14874261135E+03 -0.29069855352E+03  0.13302309406E+04  0.98543923895E+03 0.  0.
   -9000010    2    1    2    0  501  0.83174145508E+03  0.14874261135E+03  0.44628471691E+03  0.13827780957E+04  0.99949337206E+03 0.  0.
        -13    1    3    3    0    0 -0.74428781620E+03 -0.16584068998E+03 -0.62394328708E+03  0.98527799349E+03  0.10566000000E+00 0.  1.
          4    1    3    3  502    0 -0.87453638880E+02  0.17098078630E+02  0.33324473356E+03  0.34495294707E+03  0.00000000000E+00 0.  1.
         13    1    4    4    0    0  0.41328315967E+03 -0.23543967388E+03  0.62669026189E+03  0.78674996384E+03  0.10566000000E+00 0. -1.
         -4    1    4    4    0  501  0.41845829541E+03  0.38418228522E+03 -0.18040554497E+03  0.59602813183E+03  0.00000000000E+00 0. -1.
<mgrwt>
<rscale>  2 0.13034185E+04</rscale>
<asrwt>0</asrwt>
<pdfrwt beam="2">  1        1 0.19672483E+00 0.13034185E+04</pdfrwt>
<pdfrwt beam="1">  1       -1 0.22066117E+00 0.13034185E+04</pdfrwt>
<totfact> 0.11011342E+00</totfact>
</mgrwt>
</event>
<event>
 8    1  0.7046235E-006  0.1062489E+04  0.7818608E-02  0.8717995E-01
          2   -1    0    0  502    0  0.00000000000E+00  0.00000000000E+00  0.71358303835E+03  0.71358303835E+03  0.00000000000E+00 0.  1.
         -2   -1    0    0    0  501 -0.00000000000E+00 -0.00000000000E+00 -0.20023642187E+04  0.20023642187E+04  0.00000000000E+00 0. -1.
    9000010    2    1    2  502    0 -0.48576572658E+03  0.14100354006E+02 -0.12306885527E+04  0.15859711566E+04  0.87438151554E+03 0.  0.
   -9000010    2    1    2    0  501  0.48576572658E+03 -0.14100354006E+02 -0.58092627657E+02  0.11299761005E+04  0.10184812581E+04 0.  0.
        -13    1    3    3    0    0 -0.17168803664E+03  0.36734811651E+03 -0.20014334361E+03  0.45219331019E+03  0.10566000000E+00 0.  1.
          4    1    3    3  502    0 -0.31407768993E+03 -0.35324776250E+03 -0.10305452091E+04  0.11337778464E+04  0.00000000000E+00 0.  1.
         13    1    4    4    0    0  0.35481747561E+03  0.34707357583E+03  0.32031818702E+03  0.59072773774E+03  0.10566000000E+00 0. -1.
         -4    1    4    4    0  501  0.13094825097E+03 -0.36117392983E+03 -0.37841081468E+03  0.53924836271E+03  0.00000000000E+00 0. -1.
<mgrwt>
<rscale>  2 0.10624888E+04</rscale>
<asrwt>0</asrwt>
<pdfrwt beam="1">  1        2 0.10978201E+00 0.10624888E+04</pdfrwt>
<pdfrwt beam="2">  1       -2 0.30805603E+00 0.10624888E+04</pdfrwt>
<totfact> 0.90689093E-01</totfact>
</mgrwt>
</event>
<event>
 8    1  0.7046235E-006  0.1023726E+04  0.7818608E-02  0.8752613E-01
          4   -1    0    0  502    0  0.00000000000E+00  0.00000000000E+00  0.17593083246E+04  0.17593083246E+04  0.00000000000E+00 0.  1.
         -4   -1    0    0    0  501 -0.00000000000E+00 -0.00000000000E+00 -0.66988606554E+03  0.66988606554E+03  0.00000000000E+00 0. -1.
    9000010    2    1    2  502    0 -0.20674977364E+03  0.12335810588E+02  0.94816478398E+03  0.13942018717E+04  0.10009419365E+04 0.  0.
   -9000010    2    1    2    0  501  0.20674977364E+03 -0.12335810588E+02  0.14125747508E+03  0.10349925185E+04  0.10041704028E+04 0.  0.
        -13    1    3    3    0    0  0.19868347990E+03 -0.25576795690E+03 -0.53847632759E+01  0.32391569860E+03  0.10566000000E+00 0.  1.
          4    1    3    3  502    0 -0.40543325355E+03  0.26810376748E+03  0.95354954725E+03  0.10702861731E+04  0.00000000000E+00 0.  1.
         13    1    4    4    0    0  0.28408447894E+03  0.16913445291E+03  0.51522814497E+03  0.61218502666E+03  0.10566000000E+00 0. -1.
         -4    1    4    4    0  501 -0.77334705301E+02 -0.18147026350E+03 -0.37397066989E+03  0.42280749179E+03  0.00000000000E+00 0. -1.
<mgrwt>
<rscale>  2 0.10237256E+04</rscale>
<asrwt>0</asrwt>
<pdfrwt beam="1">  1        4 0.27066282E+00 0.10237256E+04</pdfrwt>
<pdfrwt beam="2">  1       -4 0.10305940E+00 0.10237256E+04</pdfrwt>
<totfact> 0.33831889E-01</totfact>
</mgrwt>
</event>
<event>
 8    1  0.7046235E-006  0.1702347E+04  0.7818608E-02  0.8301702E-01
          1   -1    0    0  502    0  0.00000000000E+00  0.00000000000E+00  0.21366965824E+04  0.21366965824E+04  0.00000000000E+00 0.  1.
         -1   -1    0    0    0  501 -0.00000000000E+00 -0.00000000000E+00 -0.16738055567E+04  0.16738055567E+04  0.00000000000E+00 0. -1.
    9000010    2    1    2  502    0  0.12595517710E+04 -0.52228293641E+03 -0.59899247258E+03  0.17990960107E+04  0.10093088447E+04 0.  0.
   -9000010    2    1    2    0  501 -0.12595517710E+04  0.52228293641E+03  0.10618834983E+04  0.20114061284E+04  0.10290325164E+04 0.  0.
        -13    1    3    3    0    0  0.68291906082E+03 -0.73361693046E+03 -0.98998497850E+02  0.10071608402E+04  0.10566000000E+00 0.  1.
          4    1    3    3  502    0  0.57663271018E+03  0.21133399405E+03 -0.49999397473E+03  0.79193517049E+03  0.00000000000E+00 0.  1.
         13    1    4    4    0    0 -0.12131421211E+04  0.74269397834E+02  0.56361560194E+03  0.13397359095E+04  0.10566000000E+00 0. -1.
         -4    1    4    4    0  501 -0.46409649938E+02  0.44801353857E+03  0.49826789634E+03  0.67167021884E+03  0.00000000000E+00 0. -1.
<mgrwt>
<rscale>  2 0.17023474E+04</rscale>
<asrwt>0</asrwt>
<pdfrwt beam="1">  1        1 0.32872255E+00 0.17023474E+04</pdfrwt>
<pdfrwt beam="2">  1       -1 0.25750855E+00 0.17023474E+04</pdfrwt>
<totfact> 0.10449198E-01</totfact>
</mgrwt>
</event>
<event>
 8    1  0.7046235E-006  0.1190950E+04  0.7818608E-02  0.8613408E-01
          2   -1    0    0  502    0  0.00000000000E+00  0.00000000000E+00  0.17672508895E+04  0.17672508895E+04  0.00000000000E+00 0.  1.
         -2   -1    0    0    0  501 -0.00000000000E+00 -0.00000000000E+00 -0.81961204720E+03  0.81961204720E+03  0.00000000000E+00 0. -1.
    9000010    2    1    2  502    0  0.40046676325E+03  0.52880007191E+03  0.29368773419E+03  0.12407949808E+04  0.10066362574E+04 0.  0.
   -9000010    2    1    2    0  501 -0.40046676325E+03 -0.52880007191E+03  0.65395110806E+03  0.13460679558E+04  0.97172205152E+03 0.  0.
        -13    1    3    3    0    0 -0.33661490863E+03  0.21002442507E+03  0.15439131877E+03  0.42574234734E+03  0.10566000000E+00 0.  1.
          4    1    3    3  502    0  0.73708167188E+03  0.31877564684E+03  0.13929641542E+03  0.81505263351E+03  0.00000000000E+00 0.  1.
         13    1    4    4    0    0 -0.37392667304E+03 -0.30025569844E+03  0.89341444761E+03  0.10139842344E+04  0.10566000000E+00 0. -1.
         -4    1    4    4    0  501 -0.26540090211E+02 -0.22854437346E+03 -0.23946333955E+03  0.33208372140E+03  0.00000000000E+00 0. -1.
<mgrwt>
<rscale>  2 0.11909504E+04</rscale>
<asrwt>0</asrwt>
<pdfrwt beam="1">  1        2 0.27188475E+00 0.11909504E+04</pdfrwt>
<pdfrwt beam="2">  1       -2 0.12609416E+00 0.11909504E+04</pdfrwt>
<totfact> 0.62058180E+00</totfact>
</mgrwt>
</event>
<event>
 8    1  0.7046235E-006  0.1269041E+04  0.7818608E-02  0.8556311E-01
         -2   -1    0    0    0  501 -0.00000000000E+00  0.00000000000E+00  0.11462474358E+04  0.11462474358E+04  0.00000000000E+00 0. -1.
          2   -1    0    0  502    0  0.00000000000E+00 -0.00000000000E+00 -0.14461319311E+04  0.14461319311E+04  0.00000000000E+00 0.  1.
    9000010    2    1    2  502    0  0.68190577668E+03  0.33262112383E+03 -0.36687137531E+03  0.13096296558E+04  0.10024484670E+04 0.  0.
   -9000010    2    1    2    0  501 -0.68190577668E+03 -0.33262112383E+03  0.66986880069E+02  0.12827497111E+04  0.10321469271E+04 0.  0.
        -13    1    3    3    0    0 -0.76671476349E+01  0.53158062515E+03 -0.84173291425E+02  0.53825820972E+03  0.10566000000E+00 0.  1.
          4    1    3    3  502    0  0.68957292432E+03 -0.19895950132E+03 -0.28269808389E+03  0.77137144603E+03  0.00000000000E+00 0.  1.
         13    1    4    4    0    0 -0.11251387327E+02 -0.32231517068E+02 -0.40691132874E+03  0.40834091766E+03  0.10566000000E+00 0. -1.
         -4    1    4    4    0  501 -0.67065438936E+03 -0.30038960676E+03  0.47389820881E+03  0.87440879349E+03  0.00000000000E+00 0. -1.
<mgrwt>
<rscale>  2 0.12690406E+04</rscale>
<asrwt>0</asrwt>
<pdfrwt beam="2">  1        2 0.22248183E+00 0.12690406E+04</pdfrwt>
<pdfrwt beam="1">  1       -2 0.17634576E+00 0.12690406E+04</pdfrwt>
<totfact> 0.33233536E+00</totfact>
</mgrwt>
</event>
<event>
 8    1  0.7046235E-006  0.1309414E+04  0.7818608E-02  0.8528432E-01
          1   -1    0    0  502    0  0.00000000000E+00  0.00000000000E+00  0.79704902800E+03  0.79704902800E+03  0.00000000000E+00 0. -1.
         -1   -1    0    0    0  501 -0.00000000000E+00 -0.00000000000E+00 -0.21890227478E+04  0.21890227478E+04  0.00000000000E+00 0.  1.
    9000010    2    1    2  502    0 -0.83290132085E+03 -0.85580013016E+02 -0.50687134968E+03  0.14161953751E+04  0.10235439544E+04 0.  0.
   -9000010    2    1    2    0  501  0.83290132085E+03  0.85580013016E+02 -0.88510237015E+03  0.15698764007E+04  0.98997836285E+03 0.  0.
        -13    1    3    3    0    0 -0.59926708895E+03 -0.46019279410E+03 -0.60018366952E+03  0.96494502432E+03  0.10566000000E+00 0.  1.
          4    1    3    3  502    0 -0.23363423190E+03  0.37461278108E+03  0.93312319841E+02  0.45125035081E+03  0.00000000000E+00 0.  1.
         13    1    4    4    0    0  0.82398776240E+02 -0.12776952022E+03 -0.76558746300E+03  0.78053749640E+03  0.10566000000E+00 0. -1.
         -4    1    4    4    0  501  0.75050254461E+03  0.21334953324E+03 -0.11951490715E+03  0.78933890429E+03  0.00000000000E+00 0. -1.
<mgrwt>
<rscale>  2 0.13094141E+04</rscale>
<asrwt>0</asrwt>
<pdfrwt beam="1">  1        1 0.12262293E+00 0.13094141E+04</pdfrwt>
<pdfrwt beam="2">  1       -1 0.33677274E+00 0.13094141E+04</pdfrwt>
<totfact> 0.29148491E-01</totfact>
</mgrwt>
</event>
<event>
 8    1  0.7046235E-006  0.1488199E+04  0.7818608E-02  0.8416323E-01
         -2   -1    0    0    0  501 -0.00000000000E+00  0.00000000000E+00  0.37048854480E+04  0.37048854480E+04  0.00000000000E+00 0. -1.
          2   -1    0    0  502    0  0.00000000000E+00 -0.00000000000E+00 -0.11317243904E+04  0.11317243904E+04  0.00000000000E+00 0.  1.
    9000010    2    1    2  502    0 -0.10156006367E+04  0.41517247102E+03 -0.37246138092E+03  0.15383692377E+04  0.10119484164E+04 0.  0.
   -9000010    2    1    2    0  501  0.10156006367E+04 -0.41517247102E+03  0.29456224386E+04  0.32982406007E+04  0.99894277885E+03 0.  0.
        -13    1    3    3    0    0 -0.63725532779E+03 -0.22638377784E+02  0.25325700074E+03  0.68610929781E+03  0.10566000000E+00 0.  1.
          4    1    3    3  502    0 -0.37834530886E+03  0.43781084881E+03 -0.62571838166E+03  0.85225993994E+03  0.00000000000E+00 0.  1.
         13    1    4    4    0    0  0.30222764887E+03 -0.59638799588E+03  0.19404342268E+04  0.20523901171E+04  0.10566000000E+00 0. -1.
         -4    1    4    4    0  501  0.71337298778E+03  0.18121552486E+03  0.10051882118E+04  0.12458504835E+04  0.00000000000E+00 0. -1.
<mgrwt>
<rscale>  2 0.14881994E+04</rscale>
<asrwt>0</asrwt>
<pdfrwt beam="2">  1        2 0.17411145E+00 0.14881994E+04</pdfrwt>
<pdfrwt beam="1">  1       -2 0.56998237E+00 0.14881994E+04</pdfrwt>
<totfact> 0.13910408E-01</totfact>
</mgrwt>
</event>
<event>
 8    1  0.7046235E-006  0.1206847E+04  0.7818608E-02  0.8601424E-01
         -2   -1    0    0    0  501 -0.00000000000E+00  0.00000000000E+00  0.93092046814E+03  0.93092046814E+03  0.00000000000E+00 0.  1.
          2   -1    0    0  502    0  0.00000000000E+00 -0.00000000000E+00 -0.15865783970E+04  0.15865783970E+04  0.00000000000E+00 0. -1.
    9000010    2    1    2  502    0  0.59492895937E+03  0.32577448520E+03 -0.18065566045E+03  0.12242056490E+04  0.10029823137E+04 0.  0.
   -9000010    2    1    2    0  501 -0.59492895937E+03 -0.32577448520E+03 -0.47500226839E+03  0.12932932161E+04  0.99343379542E+03 0.  0.
        -13    1    3    3    0    0  0.16856383147E+03  0.21485587631E+02 -0.55496609237E+03  0.58039880307E+03  0.10566000000E+00 0.  1.
          4    1    3    3  502    0  0.42636512790E+03  0.30428889757E+03  0.37431043192E+03  0.64380684597E+03  0.00000000000E+00 0.  1.
         13    1    4    4    0    0 -0.85581422941E+01 -0.56822169029E+03 -0.23283786678E+03  0.61413566456E+03  0.10566000000E+00 0. -1.
         -4    1    4    4    0  501 -0.58637081708E+03  0.24244720509E+03 -0.24216440162E+03  0.67915755152E+03  0.00000000000E+00 0. -1.
<mgrwt>
<rscale>  2 0.12068473E+04</rscale>
<asrwt>0</asrwt>
<pdfrwt beam="2">  1        2 0.24408898E+00 0.12068473E+04</pdfrwt>
<pdfrwt beam="1">  1       -2 0.14321853E+00 0.12068473E+04</pdfrwt>
<totfact> 0.54165170E+00</totfact>
</mgrwt>
</event>
<event>
 8    1  0.7046235E-006  0.1425538E+04  0.7818608E-02  0.8453685E-01
          2   -1    0    0  502    0  0.00000000000E+00  0.00000000000E+00  0.31036656421E+04  0.31036656421E+04  0.00000000000E+00 0. -1.
         -2   -1    0    0    0  501 -0.00000000000E+00 -0.00000000000E+00 -0.68063373827E+03  0.68063373827E+03  0.00000000000E+00 0.  1.
    9000010    2    1    2  502    0 -0.10394570027E+04 -0.89613050316E+02  0.88564823462E+03  0.17184243042E+04  0.10392824133E+04 0.  0.
   -9000010    2    1    2    0  501  0.10394570027E+04  0.89613050316E+02  0.15373836692E+04  0.20658750761E+04  0.90321089710E+03 0.  0.
        -13    1    3    3    0    0 -0.36911391909E+03  0.42915505224E+03  0.59773511435E+03  0.82322926468E+03  0.10566000000E+00 0.  1.
          4    1    3    3  502    0 -0.67034308362E+03 -0.51876810255E+03  0.28791312027E+03  0.89519503954E+03  0.00000000000E+00 0.  1.
         13    1    4    4    0    0  0.46014278975E+02 -0.15489248859E+03 -0.57109133989E+02  0.17137812357E+03  0.10566000000E+00 0. -1.
         -4    1    4    4    0  501  0.99344272374E+03  0.24450553890E+03  0.15944928032E+04  0.18944969526E+04  0.00000000000E+00 0. -1.
<mgrwt>
<rscale>  2 0.14255376E+04</rscale>
<asrwt>0</asrwt>
<pdfrwt beam="1">  1        2 0.47748701E+00 0.14255376E+04</pdfrwt>
<pdfrwt beam="2">  1       -2 0.10471289E+00 0.14255376E+04</pdfrwt>
<totfact> 0.16893491E+00</totfact>
</mgrwt>
</event>
<event>
 8    1  0.7046235E-006  0.1026945E+04  0.7818608E-02  0.8749678E-01
          1   -1    0    0  502    0  0.00000000000E+00  0.00000000000E+00  0.12123667502E+04  0.12123667502E+04  0.00000000000E+00 0. -1.
         -1   -1    0    0    0  501 -0.00000000000E+00 -0.00000000000E+00 -0.98955624737E+03  0.98955624737E+03  0.00000000000E+00 0.  1.
    9000010    2    1    2  502    0  0.18385564880E+03  0.23780966830E+03 -0.26818720928E+03  0.10856981797E+04  0.10081963203E+04 0.  0.
   -9000010    2    1    2    0  501 -0.18385564880E+03 -0.23780966830E+03  0.49099771216E+03  0.11162248179E+04  0.95630682984E+03 0.  0.
        -13    1    3    3    0    0 -0.29497724263E+03 -0.88277715262E+01  0.21259615383E+03  0.36371230252E+03  0.10566000000E+00 0.  1.
          4    1    3    3  502    0  0.47883289143E+03  0.24663743982E+03 -0.48078336311E+03  0.72198587720E+03  0.00000000000E+00 0.  1.
         13    1    4    4    0    0  0.23105738070E+03 -0.86593457777E+02  0.61071157118E+03  0.65867638066E+03  0.10566000000E+00 0. -1.
         -4    1    4    4    0  501 -0.41491302949E+03 -0.15121621052E+03 -0.11971385902E+03  0.45754843723E+03  0.00000000000E+00 0. -1.
<mgrwt>
<rscale>  2 0.10269453E+04</rscale>
<asrwt>0</asrwt>
<pdfrwt beam="1">  1        1 0.18651796E+00 0.10269453E+04</pdfrwt>
<pdfrwt beam="2">  1       -1 0.15223942E+00 0.10269453E+04</pdfrwt>
<totfact> 0.51699093E+00</totfact>
</mgrwt>
</event>
<event>
 8    1  0.7046235E-006  0.1459784E+04  0.7818608E-02  0.8433027E-01
          2   -1    0    0  502    0  0.00000000000E+00  0.00000000000E+00  0.59695254328E+03  0.59695254328E+03  0.00000000000E+00 0.  1.
         -2   -1    0    0    0  501 -0.00000000000E+00 -0.00000000000E+00 -0.39838993494E+04  0.39838993494E+04  0.00000000000E+00 0. -1.
    9000010    2    1    2  502    0 -0.92824186630E+03 -0.50209172303E+03 -0.24293591675E+04  0.28329292209E+04  0.10049741018E+04 0.  0.
   -9000010    2    1    2    0  501  0.92824186630E+03  0.50209172303E+03 -0.95758763871E+03  0.17479226718E+04  0.10121909505E+04 0.  0.
        -13    1    3    3    0    0 -0.19048184174E+03  0.28949153654E+03 -0.85504235333E+03  0.92259748478E+03  0.10566000000E+00 0.  1.
          4    1    3    3  502    0 -0.73776002456E+03 -0.79158325957E+03 -0.15743168141E+04  0.19103317361E+04  0.00000000000E+00 0.  1.
         13    1    4    4    0    0  0.10928665018E+04  0.60236314453E+03 -0.71543653106E+03  0.14384185725E+04  0.10566000000E+00 0. -1.
         -4    1    4    4    0  501 -0.16462463547E+03 -0.10027142150E+03 -0.24215110765E+03  0.30950409934E+03  0.00000000000E+00 0. -1.
<mgrwt>
<rscale>  2 0.14597837E+04</rscale>
<asrwt>0</asrwt>
<pdfrwt beam="1">  1        2 0.91838853E-01 0.14597837E+04</pdfrwt>
<pdfrwt beam="2">  1       -2 0.61290759E+00 0.14597837E+04</pdfrwt>
<totfact> 0.30712121E-01</totfact>
</mgrwt>
</event>
<event>
 8    1  0.7046235E-006  0.1530411E+04  0.7818608E-02  0.8392209E-01
         -2   -1    0    0    0  501 -0.00000000000E+00  0.00000000000E+00  0.12855584337E+04  0.12855584337E+04  0.00000000000E+00 0. -1.
          2   -1    0    0  502    0  0.00000000000E+00 -0.00000000000E+00 -0.19887269158E+04  0.19887269158E+04  0.00000000000E+00 0.  1.
    9000010    2    1    2  502    0 -0.71886792357E+03 -0.88514727701E+03 -0.82404606843E+03  0.17313444879E+04  0.10090812750E+04 0.  0.
   -9000010    2    1    2    0  501  0.71886792357E+03  0.88514727701E+03  0.12087758625E+03  0.15429408616E+04  0.10323750859E+04 0.  0.
        -13    1    3    3    0    0 -0.52159248543E+03 -0.10229863848E+04 -0.35122302903E+03  0.12007986891E+04  0.10566000000E+00 0.  1.
          4    1    3    3  502    0 -0.19727543814E+03  0.13783910780E+03 -0.47282303939E+03  0.53054579889E+03  0.00000000000E+00 0.  1.
         13    1    4    4    0    0  0.72270611070E+03  0.11026794166E+04  0.74677552330E+02  0.13205236712E+04  0.10566000000E+00 0. -1.
         -4    1    4    4    0  501 -0.38381871342E+01 -0.21753213959E+03  0.46200033916E+02  0.22241719036E+03  0.00000000000E+00 0. -1.
<mgrwt>
<rscale>  2 0.15304110E+04</rscale>
<asrwt>0</asrwt>
<pdfrwt beam="2">  1        2 0.30595798E+00 0.15304110E+04</pdfrwt>
<pdfrwt beam="1">  1       -2 0.19777822E+00 0.15304110E+04</pdfrwt>
<totfact> 0.10823755E+00</totfact>
</mgrwt>
</event>
<event>
 8    1  0.7046235E-006  0.1593427E+04  0.7818608E-02  0.8357672E-01
         -2   -1    0    0    0  501 -0.00000000000E+00  0.00000000000E+00  0.34805290421E+04  0.34805290421E+04  0.00000000000E+00 0. -1.
          2   -1    0    0  502    0  0.00000000000E+00 -0.00000000000E+00 -0.12310732590E+04  0.12310732590E+04  0.00000000000E+00 0.  1.
    9000010    2    1    2  502    0 -0.28926723621E+03  0.11939832207E+04 -0.38348201095E+03  0.16283697145E+04  0.99762618698E+03 0.  0.
   -9000010    2    1    2    0  501  0.28926723621E+03 -0.11939832207E+04  0.26329377940E+04  0.30832325867E+04  0.10318383066E+04 0.  0.
        -13    1    3    3    0    0 -0.58919137929E+03  0.35541282895E+03 -0.22385116575E+03  0.72358421485E+03  0.10566000000E+00 0.  1.
          4    1    3    3  502    0  0.29992414309E+03  0.83857039176E+03 -0.15963084521E+03  0.90478549960E+03  0.00000000000E+00 0.  1.
         13    1    4    4    0    0 -0.24544808470E+03 -0.18170336016E+02  0.82738326959E+03  0.86321376805E+03  0.10566000000E+00 0. -1.
         -4    1    4    4    0  501  0.53471532090E+03 -0.11758128847E+04  0.18055545245E+04  0.22200188186E+04  0.00000000000E+00 0. -1.
<mgrwt>
<rscale>  2 0.15934266E+04</rscale>
<asrwt>0</asrwt>
<pdfrwt beam="2">  1        2 0.18939589E+00 0.15934266E+04</pdfrwt>
<pdfrwt beam="1">  1       -2 0.53546600E+00 0.15934266E+04</pdfrwt>
<totfact> 0.85092778E-02</totfact>
</mgrwt>
</event>
<event>
 8    1  0.7046235E-006  0.1143848E+04  0.7818608E-02  0.8650090E-01
          2   -1    0    0  502    0  0.00000000000E+00  0.00000000000E+00  0.26457543699E+04  0.26457543699E+04  0.00000000000E+00 0. -1.
         -2   -1    0    0    0  501 -0.00000000000E+00 -0.00000000000E+00 -0.56334526184E+03  0.56334526184E+03  0.00000000000E+00 0.  1.
    9000010    2    1    2  502    0 -0.15589199244E+03  0.52509127562E+03  0.16011273007E+04  0.19670831879E+04  0.10028880665E+04 0.  0.
   -9000010    2    1    2    0  501  0.15589199244E+03 -0.52509127562E+03  0.48128180741E+03  0.12420164439E+04  0.10054598489E+04 0.  0.
        -13    1    3    3    0    0 -0.24529549299E+03  0.75055931492E+03  0.77623458964E+03  0.11072711111E+04  0.10566000000E+00 0.  1.
          4    1    3    3  502    0  0.89403500553E+02 -0.22546803930E+03  0.82489271105E+03  0.85981207679E+03  0.00000000000E+00 0.  1.
         13    1    4    4    0    0  0.24145132639E+02 -0.63815727633E+03 -0.90011182417E+02  0.64492613599E+03  0.10566000000E+00 0. -1.
         -4    1    4    4    0  501  0.13174685980E+03  0.11306600071E+03  0.57129298983E+03  0.59709030792E+03  0.00000000000E+00 0. -1.
<mgrwt>
<rscale>  2 0.11438477E+04</rscale>
<asrwt>0</asrwt>
<pdfrwt beam="1">  1        2 0.40703913E+00 0.11438477E+04</pdfrwt>
<pdfrwt beam="2">  1       -2 0.86668504E-01 0.11438477E+04</pdfrwt>
<totfact> 0.51650190E+00</totfact>
</mgrwt>
</event>
<event>
 8    1  0.7046235E-006  0.1535844E+04  0.7818608E-02  0.8389165E-01
          2   -1    0    0  502    0  0.00000000000E+00  0.00000000000E+00  0.29180438606E+04  0.29180438606E+04  0.00000000000E+00 0. -1.
         -2   -1    0    0    0  501 -0.00000000000E+00 -0.00000000000E+00 -0.80854555293E+03  0.80854555293E+03  0.00000000000E+00 0.  1.
    9000010    2    1    2  502    0  0.10422430486E+04 -0.51834330985E+03  0.10320364023E+04  0.18560487852E+04  0.10123574458E+04 0.  0.
   -9000010    2    1    2    0  501 -0.10422430486E+04  0.51834330985E+03  0.10774619053E+04  0.18705406283E+04  0.99148763258E+03 0.  0.
        -13    1    3    3    0    0  0.55361465801E+03  0.25097487423E+03  0.25801264090E+03  0.66033939083E+03  0.10566000000E+00 0.  1.
          4    1    3    3  502    0  0.48862839060E+03 -0.76931818408E+03  0.77402376144E+03  0.11957093943E+04  0.00000000000E+00 0.  1.
         13    1    4    4    0    0 -0.74017156125E+03  0.30148857612E+02  0.11470743503E+03  0.74961370086E+03  0.10566000000E+00 0. -1.
         -4    1    4    4    0  501 -0.30207148736E+03  0.48819445224E+03  0.96275447025E+03  0.11209269274E+04  0.00000000000E+00 0. -1.
<mgrwt>
<rscale>  2 0.15358435E+04</rscale>
<asrwt>0</asrwt>
<pdfrwt beam="1">  1        2 0.44892982E+00 0.15358435E+04</pdfrwt>
<pdfrwt beam="2">  1       -2 0.12439163E+00 0.15358435E+04</pdfrwt>
<totfact> 0.13978744E+00</totfact>
</mgrwt>
</event>
<event>
 8    1  0.7046235E-006  0.1123395E+04  0.7818608E-02  0.8666594E-01
         -1   -1    0    0    0  501 -0.00000000000E+00  0.00000000000E+00  0.41477973509E+03  0.41477973509E+03  0.00000000000E+00 0. -1.
          1   -1    0    0  502    0  0.00000000000E+00 -0.00000000000E+00 -0.32348160605E+04  0.32348160605E+04  0.00000000000E+00 0.  1.
    9000010    2    1    2  502    0  0.39715038507E+02 -0.52090681389E+03 -0.18618810757E+04  0.21776903027E+04  0.10014053732E+04 0.  0.
   -9000010    2    1    2    0  501 -0.39715038507E+02  0.52090681389E+03 -0.95815524971E+03  0.14719054929E+04  0.98768573159E+03 0.  0.
        -13    1    3    3    0    0 -0.40583163128E+03 -0.54938345440E+03 -0.11229680497E+04  0.13143738983E+04  0.10566000000E+00 0.  1.
          4    1    3    3  502    0  0.44554666979E+03  0.28476640504E+02 -0.73891302605E+03  0.86331640439E+03  0.00000000000E+00 0.  1.
         13    1    4    4    0    0 -0.53768793574E+02 -0.20914563389E+03 -0.63993604127E+03  0.67538961157E+03  0.10566000000E+00 0. -1.
         -4    1    4    4    0  501  0.14053755068E+02  0.73005244779E+03 -0.31821920844E+03  0.79651588130E+03  0.00000000000E+00 0. -1.
<mgrwt>
<rscale>  2 0.11233946E+04</rscale>
<asrwt>0</asrwt>
<pdfrwt beam="2">  1        1 0.49766400E+00 0.11233946E+04</pdfrwt>
<pdfrwt beam="1">  1       -1 0.63812268E-01 0.11233946E+04</pdfrwt>
<totfact> 0.61403246E-01</totfact>
</mgrwt>
</event>
<event>
 8    1  0.7046235E-006  0.1076662E+04  0.7818608E-02  0.8705718E-01
         -2   -1    0    0    0  501 -0.00000000000E+00  0.00000000000E+00  0.83113024429E+03  0.83113024429E+03  0.00000000000E+00 0.  1.
          2   -1    0    0  502    0  0.00000000000E+00 -0.00000000000E+00 -0.14706073678E+04  0.14706073678E+04  0.00000000000E+00 0. -1.
    9000010    2    1    2  502    0  0.22878464658E+01  0.49648645700E+03 -0.50969864200E+02  0.10421945365E+04  0.91491392412E+03 0.  0.
   -9000010    2    1    2    0  501 -0.22878464658E+01 -0.49648645700E+03 -0.58850725926E+03  0.12595430756E+04  0.99679683427E+03 0.  0.
        -13    1    3    3    0    0 -0.34144110089E+02  0.76882395560E+02  0.40955937708E+03  0.41810957597E+03  0.10566000000E+00 0.  1.
          4    1    3    3  502    0  0.36431956555E+02  0.41960406144E+03 -0.46052924128E+03  0.62408496049E+03  0.00000000000E+00 0.  1.
         13    1    4    4    0    0 -0.54524316551E+02 -0.70171415230E+03 -0.79580506769E+02  0.70831399877E+03  0.10566000000E+00 0. -1.
         -4    1    4    4    0  501  0.52236470085E+02  0.20522769529E+03 -0.50892675249E+03  0.55122907681E+03  0.00000000000E+00 0. -1.
<mgrwt>
<rscale>  2 0.10766617E+04</rscale>
<asrwt>0</asrwt>
<pdfrwt beam="2">  1        2 0.22624728E+00 0.10766617E+04</pdfrwt>
<pdfrwt beam="1">  1       -2 0.12786619E+00 0.10766617E+04</pdfrwt>
<totfact> 0.87735947E+00</totfact>
</mgrwt>
</event>
<event>
 8    1  0.7046235E-006  0.1233123E+04  0.7818608E-02  0.8582029E-01
         -2   -1    0    0    0  501 -0.00000000000E+00  0.00000000000E+00  0.85879985488E+03  0.85879985488E+03  0.00000000000E+00 0.  1.
          2   -1    0    0  502    0  0.00000000000E+00 -0.00000000000E+00 -0.22990911397E+04  0.22990911397E+04  0.00000000000E+00 0. -1.
    9000010    2    1    2  502    0  0.19036006584E+03  0.57669141145E+03 -0.15016921343E+04  0.19852306066E+04  0.11477157124E+04 0.  0.
   -9000010    2    1    2    0  501 -0.19036006584E+03 -0.57669141145E+03  0.61400849508E+02  0.11726603879E+04  0.10012753779E+04 0.  0.
        -13    1    3    3    0    0 -0.47241271331E+03  0.21431166478E+03 -0.42842148784E+03  0.67279138206E+03  0.10566000000E+00 0.  1.
          4    1    3    3  502    0  0.66277277915E+03  0.36237974667E+03 -0.10732706465E+04  0.13124392246E+04  0.00000000000E+00 0.  1.
         13    1    4    4    0    0  0.16385988108E+03  0.23282653839E+03  0.49360388555E+02  0.28895452364E+03  0.10566000000E+00 0. -1.
         -4    1    4    4    0  501 -0.35421994693E+03 -0.80951794985E+03  0.12040460953E+02  0.88370586431E+03  0.00000000000E+00 0. -1.
<mgrwt>
<rscale>  2 0.12331230E+04</rscale>
<asrwt>0</asrwt>
<pdfrwt beam="2">  1        2 0.35370632E+00 0.12331230E+04</pdfrwt>
<pdfrwt beam="1">  1       -2 0.13212306E+00 0.12331230E+04</pdfrwt>
<totfact> 0.27811728E+00</totfact>
</mgrwt>
</event>
<event>
 8    1  0.7046235E-006  0.1470178E+04  0.7818608E-02  0.8426871E-01
         -2   -1    0    0    0  501 -0.00000000000E+00  0.00000000000E+00  0.68950347507E+03  0.68950347507E+03  0.00000000000E+00 0. -1.
          2   -1    0    0  502    0  0.00000000000E+00 -0.00000000000E+00 -0.31732226800E+04  0.31732226800E+04  0.00000000000E+00 0.  1.
    9000010    2    1    2  502    0 -0.87890677347E+02  0.10009455681E+04 -0.10895169226E+04  0.18763155281E+04  0.11506068116E+04 0.  0.
   -9000010    2    1    2    0  501  0.87890677347E+02 -0.10009455681E+04 -0.13942022824E+04  0.19864106270E+04  0.99619795902E+03 0.  0.
        -13    1    3    3    0    0  0.18199668928E+03 -0.21405553205E+03 -0.16430563204E+03  0.32548259184E+03  0.10566000000E+00 0.  1.
          4    1    3    3  502    0 -0.26988736663E+03  0.12150011001E+04 -0.92521129058E+03  0.15508329363E+04  0.00000000000E+00 0.  1.
         13    1    4    4    0    0 -0.31359284060E+03  0.10630621157E+01 -0.47194088451E+03  0.56663022282E+03  0.10566000000E+00 0. -1.
         -4    1    4    4    0  501  0.40148351795E+03 -0.10020086302E+04 -0.92226139785E+03  0.14197804042E+04  0.00000000000E+00 0. -1.
<mgrwt>
<rscale>  2 0.14701784E+04</rscale>
<asrwt>0</asrwt>
<pdfrwt beam="2">  1        2 0.48818808E+00 0.14701784E+04</pdfrwt>
<pdfrwt beam="1">  1       -2 0.10607746E+00 0.14701784E+04</pdfrwt>
<totfact> 0.14699368E+00</totfact>
</mgrwt>
</event>
<event>
 8    1  0.7046235E-006  0.1120080E+04  0.7818608E-02  0.8669304E-01
          2   -1    0    0  502    0  0.00000000000E+00  0.00000000000E+00  0.35719875082E+03  0.35719875082E+03  0.00000000000E+00 0. -1.
         -2   -1    0    0    0  501 -0.00000000000E+00 -0.00000000000E+00 -0.35700475416E+04  0.35700475416E+04  0.00000000000E+00 0.  1.
    9000010    2    1    2  502    0  0.43520348892E+03  0.26240105893E+03 -0.13587576605E+04  0.17618671871E+04  0.99984859468E+03 0.  0.
   -9000010    2    1    2    0  501 -0.43520348892E+03 -0.26240105893E+03 -0.18540911303E+04  0.21653791054E+04  0.99647195557E+03 0.  0.
        -13    1    3    3    0    0  0.15465684509E+03  0.39180875490E+03 -0.58335401329E+02  0.42524801041E+03  0.10566000000E+00 0.  1.
          4    1    3    3  502    0  0.28054664383E+03 -0.12940769597E+03 -0.13004222592E+04  0.13366191767E+04  0.00000000000E+00 0.  1.
         13    1    4    4    0    0 -0.71323084615E+03 -0.24819260933E+03 -0.91766265446E+03  0.11884454425E+04  0.10566000000E+00 0. -1.
         -4    1    4    4    0  501  0.27802735723E+03 -0.14208449598E+02 -0.93642847581E+03  0.97693366290E+03  0.00000000000E+00 0. -1.
<mgrwt>
<rscale>  2 0.11200798E+04</rscale>
<asrwt>0</asrwt>
<pdfrwt beam="1">  1        2 0.54953656E-01 0.11200798E+04</pdfrwt>
<pdfrwt beam="2">  1       -2 0.54923806E+00 0.11200798E+04</pdfrwt>
<totfact> 0.47644390E-01</totfact>
</mgrwt>
</event>
<event>
 8    1  0.7046235E-006  0.1215471E+04  0.7818608E-02  0.8595003E-01
         -2   -1    0    0    0  501 -0.00000000000E+00  0.00000000000E+00  0.44256457711E+03  0.44256457711E+03  0.00000000000E+00 0.  1.
          2   -1    0    0  502    0  0.00000000000E+00 -0.00000000000E+00 -0.33932179788E+04  0.33932179788E+04  0.00000000000E+00 0. -1.
    9000010    2    1    2  502    0 -0.67084999797E+03 -0.91298133042E+02 -0.17134999611E+04  0.20979663938E+04  0.10034967882E+04 0.  0.
   -9000010    2    1    2    0  501  0.67084999797E+03  0.91298133042E+02 -0.12371534406E+04  0.17378161622E+04  0.10154217394E+04 0.  0.
        -13    1    3    3    0    0  0.18414918721E+03  0.19609286801E+03 -0.64996466786E+03  0.70343259568E+03  0.10566000000E+00 0.  1.
          4    1    3    3  502    0 -0.85499918518E+03 -0.28739100105E+03 -0.10635352932E+04  0.13945337981E+04  0.00000000000E+00 0.  1.
         13    1    4    4    0    0  0.63998212511E+03 -0.48092215205E+02 -0.17377514494E+03  0.66489682943E+03  0.10566000000E+00 0. -1.
         -4    1    4    4    0  501  0.30867872858E+02  0.13939034825E+03 -0.10633782957E+04  0.10729193327E+04  0.00000000000E+00 0. -1.
<mgrwt>
<rscale>  2 0.12154709E+04</rscale>
<asrwt>0</asrwt>
<pdfrwt beam="2">  1        2 0.52203355E+00 0.12154709E+04</pdfrwt>
<pdfrwt beam="1">  1       -2 0.68086857E-01 0.12154709E+04</pdfrwt>
<totfact> 0.29387349E+00</totfact>
</mgrwt>
</event>
<event>
 8    1  0.7046235E-006  0.1205272E+04  0.7818608E-02  0.8602603E-01
          1   -1    0    0  502    0  0.00000000000E+00  0.00000000000E+00  0.19066653045E+04  0.19066653045E+04  0.00000000000E+00 0.  1.
         -1   -1    0    0    0  501 -0.00000000000E+00 -0.00000000000E+00 -0.11336713056E+04  0.11336713056E+04  0.00000000000E+00 0. -1.
    9000010    2    1    2  502    0  0.26736808615E+03  0.55542917410E+03 -0.44974740735E+03  0.13963575725E+04  0.11694248496E+04 0.  0.
   -9000010    2    1    2    0  501 -0.26736808615E+03 -0.55542917410E+03  0.12227414063E+04  0.16439790376E+04  0.90971603725E+03 0.  0.
        -13    1    3    3    0    0  0.47059332679E+03  0.36242220404E+03  0.24857368591E+03  0.64389193324E+03  0.10566000000E+00 0.  1.
          4    1    3    3  502    0 -0.20322524064E+03  0.19300697006E+03 -0.69832109326E+03  0.75246563923E+03  0.00000000000E+00 0.  1.
         13    1    4    4    0    0 -0.49857665581E+03 -0.62664094815E+03  0.11298028649E+04  0.13848148195E+04  0.10566000000E+00 0. -1.
         -4    1    4    4    0  501  0.23120856967E+03  0.71211774047E+02  0.92938541344E+02  0.25916421805E+03  0.00000000000E+00 0. -1.
<mgrwt>
<rscale>  2 0.12052719E+04</rscale>
<asrwt>0</asrwt>
<pdfrwt beam="1">  1        1 0.29333312E+00 0.12052719E+04</pdfrwt>
<pdfrwt beam="2">  1       -1 0.17441097E+00 0.12052719E+04</pdfrwt>
<totfact> 0.98025630E-01</totfact>
</mgrwt>
</event>
<event>
 8    1  0.7046235E-006  0.1747380E+04  0.7818608E-02  0.8279809E-01
         -2   -1    0    0    0  501 -0.00000000000E+00  0.00000000000E+00  0.10837444035E+04  0.10837444035E+04  0.00000000000E+00 0. -1.
          2   -1    0    0  502    0  0.00000000000E+00 -0.00000000000E+00 -0.30414239357E+04  0.30414239357E+04  0.00000000000E+00 0.  1.
    9000010    2    1    2  502    0 -0.10659419744E+04 -0.96773044003E+03 -0.15409450750E+04  0.23331672877E+04  0.99821008369E+03 0.  0.
   -9000010    2    1    2    0  501  0.10659419744E+04  0.96773044003E+03 -0.41673445729E+03  0.17920010515E+04  0.98227575727E+03 0.  0.
        -13    1    3    3    0    0 -0.44877033439E+03 -0.47808491318E+03 -0.13817302133E+04  0.15294242023E+04  0.10566000000E+00 0.  1.
          4    1    3    3  502    0 -0.61717163997E+03 -0.48964552685E+03 -0.15921486171E+03  0.80374308541E+03  0.00000000000E+00 0.  1.
         13    1    4    4    0    0  0.10871015827E+03 -0.18941367309E+03  0.40633865439E+02  0.22214085678E+03  0.10566000000E+00 0. -1.
         -4    1    4    4    0  501  0.95723181609E+03  0.11571441131E+04 -0.45736832273E+03  0.15698601947E+04  0.00000000000E+00 0. -1.
<mgrwt>
<rscale>  2 0.17473804E+04</rscale>
<asrwt>0</asrwt>
<pdfrwt beam="2">  1        2 0.46791138E+00 0.17473804E+04</pdfrwt>
<pdfrwt beam="1">  1       -2 0.16672991E+00 0.17473804E+04</pdfrwt>
<totfact> 0.47725497E-01</totfact>
</mgrwt>
</event>
<event>
 8    1  0.7046235E-006  0.1583646E+04  0.7818608E-02  0.8362924E-01
         -1   -1    0    0    0  501 -0.00000000000E+00  0.00000000000E+00  0.20727420842E+04  0.20727420842E+04  0.00000000000E+00 0.  1.
          1   -1    0    0  502    0  0.00000000000E+00 -0.00000000000E+00 -0.12135484773E+04  0.12135484773E+04  0.00000000000E+00 0. -1.
    9000010    2    1    2  502    0  0.67848383269E+03  0.10161202456E+04  0.51655191779E+03  0.16585507874E+04  0.99555219144E+03 0.  0.
   -9000010    2    1    2    0  501 -0.67848383269E+03 -0.10161202456E+04  0.34264168906E+03  0.16277397741E+04  0.10194571009E+04 0.  0.
        -13    1    3    3    0    0  0.18414379816E+01  0.69886081855E+03 -0.78499051158E+02  0.70325809402E+03  0.10566000000E+00 0.  1.
          4    1    3    3  502    0  0.67664239471E+03  0.31725942700E+03  0.59505096895E+03  0.95529269336E+03  0.00000000000E+00 0.  1.
         13    1    4    4    0    0 -0.44841202719E+02 -0.64710157138E+03  0.56635288471E+03  0.86110787845E+03  0.10566000000E+00 0. -1.
         -4    1    4    4    0  501 -0.63364262998E+03 -0.36901867417E+03 -0.22371119565E+03  0.76663189568E+03  0.00000000000E+00 0. -1.
<mgrwt>
<rscale>  2 0.15836456E+04</rscale>
<asrwt>0</asrwt>
<pdfrwt beam="2">  1        1 0.18669976E+00 0.15836456E+04</pdfrwt>
<pdfrwt beam="1">  1       -1 0.31888340E+00 0.15836456E+04</pdfrwt>
<totfact> 0.15544894E-01</totfact>
</mgrwt>
</event>
<event>
 8    1  0.7046235E-006  0.1232293E+04  0.7818608E-02  0.8582634E-01
          2   -1    0    0  502    0  0.00000000000E+00  0.00000000000E+00  0.41777836839E+04  0.41777836839E+04  0.00000000000E+00 0. -1.
         -2   -1    0    0    0  501 -0.00000000000E+00 -0.00000000000E+00 -0.36461713470E+03  0.36461713470E+03  0.00000000000E+00 0.  1.
    9000010    2    1    2  502    0  0.62320812196E+03 -0.25847601234E+03  0.17462892925E+04  0.21204285347E+04  0.99573724715E+03 0.  0.
   -9000010    2    1    2    0  501 -0.62320812196E+03  0.25847601234E+03  0.20668772567E+04  0.24219722839E+04  0.10671316402E+04 0.  0.
        -13    1    3    3    0    0  0.58188384663E+02 -0.44514581381E+03  0.13036787212E+04  0.13788106842E+04  0.10566000000E+00 0.  1.
          4    1    3    3  502    0  0.56501973730E+03  0.18666980147E+03  0.44261057137E+03  0.74161785052E+03  0.00000000000E+00 0.  1.
         13    1    4    4    0    0 -0.36971003922E+03  0.28999432911E+02  0.47529571064E+02  0.37387905999E+03  0.10566000000E+00 0. -1.
         -4    1    4    4    0  501 -0.25349808275E+03  0.22947657943E+03  0.20193476856E+04  0.20480932239E+04  0.00000000000E+00 0. -1.
<mgrwt>
<rscale>  2 0.12322926E+04</rscale>
<asrwt>0</asrwt>
<pdfrwt beam="1">  1        2 0.64273592E+00 0.12322926E+04</pdfrwt>
<pdfrwt beam="2">  1       -2 0.56094947E-01 0.12322926E+04</pdfrwt>
<totfact> 0.98171684E-01</totfact>
</mgrwt>
</event>
<event>
 8    1  0.7046235E-006  0.1177843E+04  0.7818608E-02  0.8623437E-01
         -1   -1    0    0    0  501 -0.00000000000E+00  0.00000000000E+00  0.15587126726E+04  0.15587126726E+04  0.00000000000E+00 0.  1.
          1   -1    0    0  502    0  0.00000000000E+00 -0.00000000000E+00 -0.12302306180E+04  0.12302306180E+04  0.00000000000E+00 0. -1.
    9000010    2    1    2  502    0  0.16510756279E+03 -0.59865042874E+03 -0.56906882726E+03  0.13079775578E+04  0.10006613406E+04 0.  0.
   -9000010    2    1    2    0  501 -0.16510756279E+03  0.59865042874E+03  0.89755088186E+03  0.14809657327E+04  0.10010090274E+04 0.  0.
        -13    1    3    3    0    0  0.16759878679E+03  0.15423721409E+03 -0.50303193066E+03  0.55219526073E+03  0.10566000000E+00 0.  1.
          4    1    3    3  502    0 -0.24912240048E+01 -0.75288764282E+03 -0.66036896603E+02  0.75578229711E+03  0.00000000000E+00 0.  1.
         13    1    4    4    0    0  0.21018853977E+03  0.57776727112E+03  0.13302818328E+03  0.62903954609E+03  0.10566000000E+00 0. -1.
         -4    1    4    4    0  501 -0.37529610256E+03  0.20883157615E+02  0.76452269857E+03  0.85192618665E+03  0.00000000000E+00 0. -1.
<mgrwt>
<rscale>  2 0.11778429E+04</rscale>
<asrwt>0</asrwt>
<pdfrwt beam="2">  1        1 0.18926625E+00 0.11778429E+04</pdfrwt>
<pdfrwt beam="1">  1       -1 0.23980195E+00 0.11778429E+04</pdfrwt>
<totfact> 0.80518047E-01</totfact>
</mgrwt>
</event>
<event>
 8    1  0.7046235E-006  0.1095956E+04  0.7818608E-02  0.8689320E-01
          2   -1    0    0  502    0  0.00000000000E+00  0.00000000000E+00  0.11058762570E+04  0.11058762570E+04  0.00000000000E+00 0.  1.
         -2   -1    0    0    0  501 -0.00000000000E+00 -0.00000000000E+00 -0.10989042470E+04  0.10989042470E+04  0.00000000000E+00 0. -1.
    9000010    2    1    2  502    0  0.39160045699E+03  0.18154260859E+03  0.12236396718E+03  0.11018377867E+04  0.10063622266E+04 0.  0.
   -9000010    2    1    2    0  501 -0.39160045699E+03 -0.18154260859E+03 -0.11539195725E+03  0.11029427173E+04  0.10083941180E+04 0.  0.
        -13    1    3    3    0    0  0.23973394020E+03  0.59140990605E+03 -0.30235063552E+02  0.63886791224E+03  0.10566000000E+00 0.  1.
          4    1    3    3  502    0  0.15186651680E+03 -0.40986729746E+03  0.15259903073E+03  0.46296987443E+03  0.00000000000E+00 0.  1.
         13    1    4    4    0    0 -0.70156885492E+03 -0.66506907177E+02  0.94945243287E+02  0.71108131552E+03  0.10566000000E+00 0. -1.
         -4    1    4    4    0  501  0.30996839792E+03 -0.11503570141E+03 -0.21033720054E+03  0.39186140182E+03  0.00000000000E+00 0. -1.
<mgrwt>
<rscale>  2 0.10959556E+04</rscale>
<asrwt>0</asrwt>
<pdfrwt beam="1">  1        2 0.17013481E+00 0.10959556E+04</pdfrwt>
<pdfrwt beam="2">  1       -2 0.16906219E+00 0.10959556E+04</pdfrwt>
<totfact> 0.60575241E+00</totfact>
</mgrwt>
</event>
<event>
 8    1  0.7046235E-006  0.1092521E+04  0.7818608E-02  0.8692213E-01
          1   -1    0    0  502    0  0.00000000000E+00  0.00000000000E+00  0.14346328042E+04  0.14346328042E+04  0.00000000000E+00 0.  1.
         -1   -1    0    0    0  501 -0.00000000000E+00 -0.00000000000E+00 -0.83481203834E+03  0.83481203834E+03  0.00000000000E+00 0. -1.
    9000010    2    1    2  502    0 -0.26208796268E+03  0.46921824521E+03  0.32581462185E+03  0.10926926907E+04  0.89384914087E+03 0.  0.
   -9000010    2    1    2    0  501  0.26208796268E+03 -0.46921824521E+03  0.27400614401E+03  0.11767521519E+04  0.10103516210E+04 0.  0.
        -13    1    3    3    0    0  0.31273069602E+03  0.27523526309E+03  0.29812999053E+02  0.41766465538E+03  0.10566000000E+00 0.  1.
          4    1    3    3  502    0 -0.57481865870E+03  0.19398298212E+03  0.29600162280E+03  0.67502803530E+03  0.00000000000E+00 0.  1.
         13    1    4    4    0    0  0.64188649158E+03 -0.24197266340E+03  0.70430895403E+02  0.68958651386E+03  0.10566000000E+00 0. -1.
         -4    1    4    4    0  501 -0.37979852890E+03 -0.22724558181E+03  0.20357524860E+03  0.48716563800E+03  0.00000000000E+00 0. -1.
<mgrwt>
<rscale>  2 0.10925206E+04</rscale>
<asrwt>0</asrwt>
<pdfrwt beam="1">  1        1 0.22071274E+00 0.10925206E+04</pdfrwt>
<pdfrwt beam="2">  1       -1 0.12843262E+00 0.10925206E+04</pdfrwt>
<totfact> 0.56165136E+00</totfact>
</mgrwt>
</event>
<event>
 8    1  0.7046235E-006  0.1303621E+04  0.7818608E-02  0.8532368E-01
         -1   -1    0    0    0  501 -0.00000000000E+00  0.00000000000E+00  0.19592074476E+04  0.19592074476E+04  0.00000000000E+00 0. -1.
          1   -1    0    0  502    0  0.00000000000E+00 -0.00000000000E+00 -0.87337573972E+03  0.87337573972E+03  0.00000000000E+00 0.  1.
    9000010    2    1    2  502    0  0.83415691495E+03 -0.10814719060E+03  0.66259022191E+03  0.14684098097E+04  0.10048323211E+04 0.  0.
   -9000010    2    1    2    0  501 -0.83415691495E+03  0.10814719060E+03  0.42324148595E+03  0.13641733776E+04  0.98707754256E+03 0.  0.
        -13    1    3    3    0    0  0.73111224966E+03 -0.50707006577E+03  0.52974072163E+03  0.10355049090E+04  0.10566000000E+00 0.  1.
          4    1    3    3  502    0  0.10304466529E+03  0.39892287517E+03  0.13284950029E+03  0.43290490076E+03  0.00000000000E+00 0.  1.
         13    1    4    4    0    0 -0.69121359363E+03  0.26009764683E+03  0.70002355868E+03  0.10175755558E+04  0.10566000000E+00 0. -1.
         -4    1    4    4    0  501 -0.14294332131E+03 -0.15195045623E+03 -0.27678207273E+03  0.34659782175E+03  0.00000000000E+00 0. -1.
<mgrwt>
<rscale>  2 0.13036206E+04</rscale>
<asrwt>0</asrwt>
<pdfrwt beam="2">  1        1 0.13436550E+00 0.13036206E+04</pdfrwt>
<pdfrwt beam="1">  1       -1 0.30141653E+00 0.13036206E+04</pdfrwt>
<totfact> 0.39769546E-01</totfact>
</mgrwt>
</event>
<event>
 8    1  0.7046235E-006  0.1765389E+04  0.7818608E-02  0.8271243E-01
          2   -1    0    0  502    0  0.00000000000E+00  0.00000000000E+00  0.13336226099E+04  0.13336226099E+04  0.00000000000E+00 0. -1.
         -2   -1    0    0    0  501 -0.00000000000E+00 -0.00000000000E+00 -0.26067441682E+04  0.26067441682E+04  0.00000000000E+00 0.  1.
    9000010    2    1    2  502    0  0.14467255286E+04  0.43109839849E+02 -0.34959159785E+01  0.17677781426E+04  0.10149650864E+04 0.  0.
   -9000010    2    1    2    0  501 -0.14467255286E+04 -0.43109839849E+02 -0.12696256423E+04  0.21725886356E+04  0.10066374195E+04 0.  0.
        -13    1    3    3    0    0  0.15434998626E+04  0.52022361714E+02  0.18528443059E+03  0.15554512154E+04  0.10566000000E+00 0.  1.
          4    1    3    3  502    0 -0.96774334007E+02 -0.89125218653E+01 -0.18878034656E+03  0.21232692721E+03  0.00000000000E+00 0.  1.
         13    1    4    4    0    0 -0.13572186802E+04 -0.19826166029E+03 -0.63189196947E+03  0.15101780373E+04  0.10566000000E+00 0. -1.
         -4    1    4    4    0  501 -0.89506848352E+02  0.15515182044E+03 -0.63773367284E+03  0.66241059831E+03  0.00000000000E+00 0. -1.
<mgrwt>
<rscale>  2 0.17653890E+04</rscale>
<asrwt>0</asrwt>
<pdfrwt beam="1">  1        2 0.20517271E+00 0.17653890E+04</pdfrwt>
<pdfrwt beam="2">  1       -2 0.40103757E+00 0.17653890E+04</pdfrwt>
<totfact> 0.85299754E-02</totfact>
</mgrwt>
</event>
<event>
 8    1  0.7046235E-006  0.1305210E+04  0.7818608E-02  0.8531286E-01
         -1   -1    0    0    0  501 -0.00000000000E+00  0.00000000000E+00  0.14170733902E+04  0.14170733902E+04  0.00000000000E+00 0.  1.
          1   -1    0    0  502    0  0.00000000000E+00 -0.00000000000E+00 -0.14338717318E+04  0.14338717318E+04  0.00000000000E+00 0. -1.
    9000010    2    1    2  502    0 -0.21940991847E+03  0.80626331872E+03 -0.58128071496E+03  0.14418508675E+04  0.10211980234E+04 0.  0.
   -9000010    2    1    2    0  501  0.21940991847E+03 -0.80626331872E+03  0.56448237330E+03  0.14090942545E+04  0.98422813259E+03 0.  0.
        -13    1    3    3    0    0  0.37006053673E+03  0.24071606712E+03 -0.38515941093E+01  0.44147918609E+03  0.10566000000E+00 0.  1.
          4    1    3    3  502    0 -0.58947045520E+03  0.56554725161E+03 -0.57742912085E+03  0.10003716814E+04  0.00000000000E+00 0.  1.
         13    1    4    4    0    0  0.38013936386E+03 -0.30513778922E+03  0.71169040241E+03  0.86262288772E+03  0.10566000000E+00 0. -1.
         -4    1    4    4    0  501 -0.16072944539E+03 -0.50112552950E+03 -0.14720802911E+03  0.54647136683E+03  0.00000000000E+00 0. -1.
<mgrwt>
<rscale>  2 0.13052100E+04</rscale>
<asrwt>0</asrwt>
<pdfrwt beam="2">  1        1 0.22059565E+00 0.13052100E+04</pdfrwt>
<pdfrwt beam="1">  1       -1 0.21801129E+00 0.13052100E+04</pdfrwt>
<totfact> 0.89007120E-01</totfact>
</mgrwt>
</event>
<event>
 8    1  0.7046235E-006  0.1202776E+04  0.7818608E-02  0.8604475E-01
         -4   -1    0    0    0  501 -0.00000000000E+00  0.00000000000E+00  0.40138479588E+04  0.40138479588E+04  0.00000000000E+00 0. -1.
          4   -1    0    0  502    0  0.00000000000E+00 -0.00000000000E+00 -0.54675958839E+03  0.54675958839E+03  0.00000000000E+00 0.  1.
    9000010    2    1    2  502    0 -0.15446005679E+03 -0.60148148494E+03  0.39496113723E+03  0.12585471434E+04  0.10209352215E+04 0.  0.
   -9000010    2    1    2    0  501  0.15446005679E+03  0.60148148494E+03  0.30721272332E+04  0.33020604038E+04  0.10392301417E+04 0.  0.
        -13    1    3    3    0    0  0.37673497603E+03  0.13512427496E+02  0.70425640578E+02  0.38349916541E+03  0.10566000000E+00 0.  1.
          4    1    3    3  502    0 -0.53119503282E+03 -0.61499391243E+03  0.32453549665E+03  0.87504797800E+03  0.00000000000E+00 0.  1.
         13    1    4    4    0    0 -0.13728538776E+03  0.69665078128E+03  0.28104698529E+04  0.28987773964E+04  0.10566000000E+00 0. -1.
         -4    1    4    4    0  501  0.29174544455E+03 -0.95169296340E+02  0.26165738034E+03  0.40328300741E+03  0.00000000000E+00 0. -1.
<mgrwt>
<rscale>  2 0.12027756E+04</rscale>
<asrwt>0</asrwt>
<pdfrwt beam="2">  1        4 0.84116862E-01 0.12027756E+04</pdfrwt>
<pdfrwt beam="1">  1       -4 0.61751505E+00 0.12027756E+04</pdfrwt>
<totfact> 0.17397204E-02</totfact>
</mgrwt>
</event>
<event>
 8    1  0.7046235E-006  0.9976372E+03  0.7818608E-02  0.8776815E-01
          2   -1    0    0  502    0  0.00000000000E+00  0.00000000000E+00  0.16319336055E+04  0.16319336055E+04  0.00000000000E+00 0. -1.
         -2   -1    0    0    0  501 -0.00000000000E+00 -0.00000000000E+00 -0.64636331537E+03  0.64636331537E+03  0.00000000000E+00 0.  1.
    9000010    2    1    2  502    0 -0.99369597457E+02 -0.11199244509E+03  0.21862278891E+03  0.10136635378E+04  0.97841771209E+03 0.  0.
   -9000010    2    1    2    0  501  0.99369597457E+02  0.11199244509E+03  0.76694750120E+03  0.12646333831E+04  0.99432011913E+03 0.  0.
        -13    1    3    3    0    0 -0.12537698370E+03  0.42681478225E+03  0.45697592580E+02  0.44718958789E+03  0.10566000000E+00 0.  1.
          4    1    3    3  502    0  0.26007386246E+02 -0.53880722734E+03  0.17292519633E+03  0.56647394989E+03  0.00000000000E+00 0.  1.
         13    1    4    4    0    0  0.32361790137E+03  0.46948730261E+03  0.33784225283E+03  0.66278523849E+03  0.10566000000E+00 0. -1.
         -4    1    4    4    0  501 -0.22424830391E+03 -0.35749485751E+03  0.42910524837E+03  0.60184814458E+03  0.00000000000E+00 0. -1.
<mgrwt>
<rscale>  2 0.99763715E+03</rscale>
<asrwt>0</asrwt>
<pdfrwt beam="1">  1        2 0.25106671E+00 0.99763715E+03</pdfrwt>
<pdfrwt beam="2">  1       -2 0.99440511E-01 0.99763715E+03</pdfrwt>
<totfact> 0.13726532E+01</totfact>
</mgrwt>
</event>
<event>
 8    1  0.7046235E-006  0.1038082E+04  0.7818608E-02  0.8739610E-01
         -2   -1    0    0    0  501 -0.00000000000E+00  0.00000000000E+00  0.44449720593E+03  0.44449720593E+03  0.00000000000E+00 0.  1.
          2   -1    0    0  502    0  0.00000000000E+00 -0.00000000000E+00 -0.24367599494E+04  0.24367599494E+04  0.00000000000E+00 0. -1.
    9000010    2    1    2  502    0 -0.12369998526E+03  0.24517438448E+03 -0.89561089723E+03  0.13728239839E+04  0.10035510183E+04 0.  0.
   -9000010    2    1    2    0  501  0.12369998526E+03 -0.24517438448E+03 -0.10966518462E+04  0.15084331714E+04  0.99865569422E+03 0.  0.
        -13    1    3    3    0    0  0.69618792515E+02  0.61722692394E+03 -0.53937800093E+03  0.82264481458E+03  0.10566000000E+00 0.  1.
          4    1    3    3  502    0 -0.19331877777E+03 -0.37205253946E+03 -0.35623289630E+03  0.55017916933E+03  0.00000000000E+00 0.  1.
         13    1    4    4    0    0 -0.94843057325E+02 -0.53867032269E+03 -0.98359350341E+03  0.11254408528E+04  0.10566000000E+00 0. -1.
         -4    1    4    4    0  501  0.21854304258E+03  0.29349593821E+03 -0.11305834278E+03  0.38299231856E+03  0.00000000000E+00 0. -1.
<mgrwt>
<rscale>  2 0.10380823E+04</rscale>
<asrwt>0</asrwt>
<pdfrwt beam="2">  1        2 0.37488614E+00 0.10380823E+04</pdfrwt>
<pdfrwt beam="1">  1       -2 0.68384186E-01 0.10380823E+04</pdfrwt>
<totfact> 0.11454972E+01</totfact>
</mgrwt>
</event>
<event>
 8    1  0.7046235E-006  0.1793161E+04  0.7818608E-02  0.8258237E-01
         -1   -1    0    0    0  501 -0.00000000000E+00  0.00000000000E+00  0.33570069348E+04  0.33570069348E+04  0.00000000000E+00 0. -1.
          1   -1    0    0  502    0  0.00000000000E+00 -0.00000000000E+00 -0.11969065702E+04  0.11969065702E+04  0.00000000000E+00 0.  1.
    9000010    2    1    2  502    0  0.15527417345E+04  0.54846847854E+02  0.21236562008E+04  0.28187801047E+04  0.10107376259E+04 0.  0.
   -9000010    2    1    2    0  501 -0.15527417345E+04 -0.54846847854E+02  0.36444163813E+02  0.17351334003E+04  0.77158581439E+03 0.  0.
        -13    1    3    3    0    0  0.12145930112E+04  0.29653311272E+03  0.93984275137E+03  0.15641203529E+04  0.10566000000E+00 0.  1.
          4    1    3    3  502    0  0.33814872329E+03 -0.24168626486E+03  0.11838134495E+04  0.12546597518E+04  0.00000000000E+00 0.  1.
         13    1    4    4    0    0 -0.97384790056E+03  0.33738111814E+03  0.85390826153E+02  0.10341650529E+04  0.10566000000E+00 0. -1.
         -4    1    4    4    0  501 -0.57889383393E+03 -0.39222796600E+03 -0.48946662340E+02  0.70096834738E+03  0.00000000000E+00 0. -1.
<mgrwt>
<rscale>  2 0.17931613E+04</rscale>
<asrwt>0</asrwt>
<pdfrwt beam="2">  1        1 0.18413947E+00 0.17931613E+04</pdfrwt>
<pdfrwt beam="1">  1       -1 0.51646260E+00 0.17931613E+04</pdfrwt>
<totfact> 0.10962745E-01</totfact>
</mgrwt>
</event>
<event>
 8    1  0.7046235E-006  0.1661066E+04  0.7818608E-02  0.8322392E-01
         -2   -1    0    0    0  501 -0.00000000000E+00  0.00000000000E+00  0.37393816636E+04  0.37393816636E+04  0.00000000000E+00 0.  1.
          2   -1    0    0  502    0  0.00000000000E+00 -0.00000000000E+00 -0.86127553721E+03  0.86127553721E+03  0.00000000000E+00 0. -1.
    9000010    2    1    2  502    0 -0.38662444965E+03  0.12619516935E+04  0.23176720128E+04  0.28577385722E+04  0.10261898687E+04 0.  0.
   -9000010    2    1    2    0  501  0.38662444965E+03 -0.12619516935E+04  0.56043411359E+03  0.17429186286E+04  0.99079685525E+03 0.  0.
        -13    1    3    3    0    0  0.16902265587E+03  0.17170269500E+02  0.79961303903E+03  0.81746223136E+03  0.10566000000E+00 0.  1.
          4    1    3    3  502    0 -0.55564710552E+03  0.12447814240E+04  0.15180589737E+04  0.20402763409E+04  0.00000000000E+00 0.  1.
         13    1    4    4    0    0  0.33868627867E+03 -0.13968245488E+04  0.33490593347E+03  0.14758012098E+04  0.10566000000E+00 0. -1.
         -4    1    4    4    0  501  0.47938170978E+02  0.13487285536E+03  0.22552818012E+03  0.26711741870E+03  0.00000000000E+00 0. -1.
<mgrwt>
<rscale>  2 0.16610664E+04</rscale>
<asrwt>0</asrwt>
<pdfrwt beam="2">  1        2 0.13250393E+00 0.16610664E+04</pdfrwt>
<pdfrwt beam="1">  1       -2 0.57528948E+00 0.16610664E+04</pdfrwt>
<totfact> 0.21017067E-01</totfact>
</mgrwt>
</event>
<event>
 8    1  0.7046235E-006  0.9828258E+03  0.7818608E-02  0.8790897E-01
         -2   -1    0    0    0  501 -0.00000000000E+00  0.00000000000E+00  0.56445070322E+03  0.56445070322E+03  0.00000000000E+00 0.  1.
          2   -1    0    0  502    0  0.00000000000E+00 -0.00000000000E+00 -0.20082584185E+04  0.20082584185E+04  0.00000000000E+00 0. -1.
    9000010    2    1    2  502    0  0.43374846788E+03  0.84436964173E+02 -0.23176418278E+03  0.10166873108E+04  0.88581663862E+03 0.  0.
   -9000010    2    1    2    0  501 -0.43374846788E+03 -0.84436964173E+02 -0.12120435325E+04  0.15560218109E+04  0.86999253848E+03 0.  0.
        -13    1    3    3    0    0  0.49500307606E+03  0.37715207656E+03  0.24585678019E+02  0.62279707842E+03  0.10566000000E+00 0.  1.
          4    1    3    3  502    0 -0.61254608178E+02 -0.29271511239E+03 -0.25634986080E+03  0.39389023240E+03  0.00000000000E+00 0.  1.
         13    1    4    4    0    0 -0.26138413506E+03 -0.47858136664E+03 -0.65866846668E+03  0.85510581258E+03  0.10566000000E+00 0. -1.
         -4    1    4    4    0  501 -0.17236433282E+03  0.39414440246E+03 -0.55337506583E+03  0.70091599833E+03  0.00000000000E+00 0. -1.
<mgrwt>
<rscale>  2 0.98282578E+03</rscale>
<asrwt>0</asrwt>
<pdfrwt beam="2">  1        2 0.30896283E+00 0.98282578E+03</pdfrwt>
<pdfrwt beam="1">  1       -2 0.86838571E-01 0.98282578E+03</pdfrwt>
<totfact> 0.11793472E+01</totfact>
</mgrwt>
</event>
<event>
 8    1  0.7046235E-006  0.3032420E+04  0.7818608E-02  0.7843018E-01
          2   -1    0    0  502    0  0.00000000000E+00  0.00000000000E+00  0.21303721617E+04  0.21303721617E+04  0.00000000000E+00 0. -1.
         -2   -1    0    0    0  501 -0.00000000000E+00 -0.00000000000E+00 -0.43402111318E+04  0.43402111318E+04  0.00000000000E+00 0.  1.
    9000010    2    1    2  502    0 -0.28095107750E+04 -0.36418658468E+03 -0.87658688818E+03  0.31820523556E+04  0.11537200520E+04 0.  0.
   -9000010    2    1    2    0  501  0.28095107750E+04  0.36418658468E+03 -0.13332520819E+04  0.32885309379E+04  0.10054312271E+04 0.  0.
        -13    1    3    3    0    0 -0.27865793040E+04 -0.40284133290E+03 -0.57060265280E+03  0.28727848433E+04  0.10566000000E+00 0.  1.
          4    1    3    3  502    0 -0.22931470968E+02  0.38654748223E+02 -0.30598423538E+03  0.30926751239E+03  0.00000000000E+00 0.  1.
         13    1    4    4    0    0  0.77935858575E+03  0.16659397159E+03  0.88963580644E+02  0.80191513665E+03  0.10566000000E+00 0. -1.
         -4    1    4    4    0  501  0.20301521892E+04  0.19759261309E+03 -0.14222156625E+04  0.24866158012E+04  0.00000000000E+00 0. -1.
<mgrwt>
<rscale>  2 0.30324199E+04</rscale>
<asrwt>0</asrwt>
<pdfrwt beam="1">  1        2 0.32774957E+00 0.30324199E+04</pdfrwt>
<pdfrwt beam="2">  1       -2 0.66772478E+00 0.30324199E+04</pdfrwt>
<totfact> 0.17192384E-02</totfact>
</mgrwt>
</event>
<event>
 8    1  0.7046235E-006  0.1223464E+04  0.7818608E-02  0.8589100E-01
         -1   -1    0    0    0  501 -0.00000000000E+00  0.00000000000E+00  0.12529129828E+04  0.12529129828E+04  0.00000000000E+00 0.  1.
          1   -1    0    0  502    0  0.00000000000E+00 -0.00000000000E+00 -0.12022289557E+04  0.12022289557E+04  0.00000000000E+00 0. -1.
    9000010    2    1    2  502    0 -0.39244051096E+03 -0.59115382496E+03  0.12240811786E+03  0.12285185377E+04  0.99539020027E+03 0.  0.
   -9000010    2    1    2    0  501  0.39244051096E+03  0.59115382496E+03 -0.71724090724E+02  0.12266234008E+04  0.99799209550E+03 0.  0.
        -13    1    3    3    0    0 -0.27611291532E+03  0.66002833301E+02  0.41255966492E+03  0.50079956499E+03  0.10566000000E+00 0.  1.
          4    1    3    3  502    0 -0.11632759564E+03 -0.65715665826E+03 -0.29015154706E+03  0.72771897273E+03  0.00000000000E+00 0.  1.
         13    1    4    4    0    0  0.56037341228E+03  0.58232874086E+03  0.26478668968E+03  0.85043349288E+03  0.10566000000E+00 0. -1.
         -4    1    4    4    0  501 -0.16793290132E+03  0.88250841040E+01 -0.33651078041E+03  0.37618990787E+03  0.00000000000E+00 0. -1.
<mgrwt>
<rscale>  2 0.12234644E+04</rscale>
<asrwt>0</asrwt>
<pdfrwt beam="2">  1        1 0.18495830E+00 0.12234644E+04</pdfrwt>
<pdfrwt beam="1">  1       -1 0.19275584E+00 0.12234644E+04</pdfrwt>
<totfact> 0.22798901E+00</totfact>
</mgrwt>
</event>
<event>
 8    1  0.7046235E-006  0.1006296E+04  0.7818608E-02  0.8768699E-01
          2   -1    0    0  502    0  0.00000000000E+00  0.00000000000E+00  0.15658410394E+04  0.15658410394E+04  0.00000000000E+00 0. -1.
         -2   -1    0    0    0  501 -0.00000000000E+00 -0.00000000000E+00 -0.65067536070E+03  0.65067536070E+03  0.00000000000E+00 0.  1.
    9000010    2    1    2  502    0 -0.32692061543E+03 -0.22181425403E+03  0.39220725627E+03  0.10146272522E+04  0.84827075681E+03 0.  0.
   -9000010    2    1    2    0  501  0.32692061543E+03  0.22181425403E+03  0.52295842238E+03  0.12018891479E+04  0.10074588628E+04 0.  0.
        -13    1    3    3    0    0  0.59598549013E+02  0.16917332366E+03  0.42760457383E+03  0.46369956137E+03  0.10566000000E+00 0.  1.
          4    1    3    3  502    0 -0.38651916445E+03 -0.39098757769E+03 -0.35397317558E+02  0.55092769079E+03  0.00000000000E+00 0.  1.
         13    1    4    4    0    0  0.34798639928E+03  0.60050753204E+03  0.41019119302E+03  0.80620137442E+03  0.10566000000E+00 0. -1.
         -4    1    4    4    0  501 -0.21065783845E+02 -0.37869327801E+03  0.11276722937E+03  0.39568777348E+03  0.00000000000E+00 0. -1.
<mgrwt>
<rscale>  2 0.10062959E+04</rscale>
<asrwt>0</asrwt>
<pdfrwt beam="1">  1        2 0.24089862E+00 0.10062959E+04</pdfrwt>
<pdfrwt beam="2">  1       -2 0.10010390E+00 0.10062959E+04</pdfrwt>
<totfact> 0.14655509E+01</totfact>
</mgrwt>
</event>
<event>
 8    1  0.7046235E-006  0.1371092E+04  0.7818608E-02  0.8487782E-01
         -2   -1    0    0    0  501 -0.00000000000E+00  0.00000000000E+00  0.86283862357E+03  0.86283862357E+03  0.00000000000E+00 0. -1.
          2   -1    0    0  502    0  0.00000000000E+00 -0.00000000000E+00 -0.23670902412E+04  0.23670902412E+04  0.00000000000E+00 0.  1.
    9000010    2    1    2  502    0 -0.93611135912E+03 -0.68975161371E+00 -0.12180828264E+04  0.18506876508E+04  0.10319951823E+04 0.  0.
   -9000010    2    1    2    0  501  0.93611135912E+03  0.68975161371E+00 -0.28616879120E+03  0.13792412140E+04  0.97165261120E+03 0.  0.
        -13    1    3    3    0    0 -0.14240977160E+03 -0.15584917914E+02 -0.10233258737E+04  0.10333050313E+04  0.10566000000E+00 0.  1.
          4    1    3    3  502    0 -0.79370158752E+03  0.14895166300E+02 -0.19475695270E+03  0.81738261949E+03  0.00000000000E+00 0.  1.
         13    1    4    4    0    0  0.78357482728E+03  0.37207258405E+03 -0.40951348734E+03  0.95923345710E+03  0.10566000000E+00 0. -1.
         -4    1    4    4    0  501  0.15253653184E+03 -0.37138283244E+03  0.12334469613E+03  0.42000775688E+03  0.00000000000E+00 0. -1.
<mgrwt>
<rscale>  2 0.13710925E+04</rscale>
<asrwt>0</asrwt>
<pdfrwt beam="2">  1        2 0.36416772E+00 0.13710925E+04</pdfrwt>
<pdfrwt beam="1">  1       -2 0.13274441E+00 0.13710925E+04</pdfrwt>
<totfact> 0.24801518E+00</totfact>
</mgrwt>
</event>
<event>
 8    1  0.7046235E-006  0.1121582E+04  0.7818608E-02  0.8668075E-01
         -2   -1    0    0    0  501 -0.00000000000E+00  0.00000000000E+00  0.46202780236E+03  0.46202780236E+03  0.00000000000E+00 0. -1.
          2   -1    0    0  502    0  0.00000000000E+00 -0.00000000000E+00 -0.27274470401E+04  0.27274470401E+04  0.00000000000E+00 0.  1.
    9000010    2    1    2  502    0  0.51787765527E+03 -0.32120494608E+02 -0.10648356958E+04  0.15457638697E+04  0.99311725888E+03 0.  0.
   -9000010    2    1    2    0  501 -0.51787765527E+03  0.32120494608E+02 -0.12005835419E+04  0.16437109728E+04  0.99556814372E+03 0.  0.
        -13    1    3    3    0    0 -0.93861526398E+01 -0.38993653598E+03 -0.12368859098E+03  0.40919125193E+03  0.10566000000E+00 0.  1.
          4    1    3    3  502    0  0.52726380791E+03  0.35781604137E+03 -0.94114710485E+03  0.11365726178E+04  0.00000000000E+00 0.  1.
         13    1    4    4    0    0 -0.50144725035E+02 -0.16533625240E+02 -0.11713576068E+04  0.11725470175E+04  0.10566000000E+00 0. -1.
         -4    1    4    4    0  501 -0.46773293024E+03  0.48654119849E+02 -0.29225935157E+02  0.47116395521E+03  0.00000000000E+00 0. -1.
<mgrwt>
<rscale>  2 0.11215817E+04</rscale>
<asrwt>0</asrwt>
<pdfrwt beam="2">  1        2 0.41960724E+00 0.11215817E+04</pdfrwt>
<pdfrwt beam="1">  1       -2 0.71081200E-01 0.11215817E+04</pdfrwt>
<totfact> 0.71486553E+00</totfact>
</mgrwt>
</event>
<event>
 8    1  0.7046235E-006  0.2209058E+04  0.7818608E-02  0.8088218E-01
         -2   -1    0    0    0  501 -0.00000000000E+00  0.00000000000E+00  0.30821479152E+04  0.30821479152E+04  0.00000000000E+00 0. -1.
          2   -1    0    0  502    0  0.00000000000E+00 -0.00000000000E+00 -0.23858968253E+04  0.23858968253E+04  0.00000000000E+00 0.  1.
    9000010    2    1    2  502    0 -0.18888284201E+04  0.56761244369E+03 -0.12377268229E+04  0.25310954161E+04  0.99228001628E+03 0.  0.
   -9000010    2    1    2    0  501  0.18888284201E+04 -0.56761244369E+03  0.19339779129E+04  0.29369493244E+04  0.99776955247E+03 0.  0.
        -13    1    3    3    0    0 -0.13717604510E+04  0.26652750912E+03 -0.13258472033E+04  0.19263007205E+04  0.10566000000E+00 0.  1.
          4    1    3    3  502    0 -0.51706796902E+03  0.30108493457E+03  0.88120380389E+02  0.60479469562E+03  0.00000000000E+00 0.  1.
         13    1    4    4    0    0  0.13610881329E+04  0.20726089031E+02  0.88534890212E+03  0.16238328627E+04  0.10566000000E+00 0. -1.
         -4    1    4    4    0  501  0.52774028716E+03 -0.58833853272E+03  0.10486290108E+04  0.13131164617E+04  0.00000000000E+00 0. -1.
<mgrwt>
<rscale>  2 0.22090576E+04</rscale>
<asrwt>0</asrwt>
<pdfrwt beam="2">  1        2 0.36706105E+00 0.22090576E+04</pdfrwt>
<pdfrwt beam="1">  1       -2 0.47417660E+00 0.22090576E+04</pdfrwt>
<totfact> 0.16868255E-02</totfact>
</mgrwt>
</event>
<event>
 8    1  0.7046235E-006  0.1569516E+04  0.7818608E-02  0.8370579E-01
         -2   -1    0    0    0  501 -0.00000000000E+00  0.00000000000E+00  0.82101704414E+03  0.82101704414E+03  0.00000000000E+00 0. -1.
          2   -1    0    0  502    0  0.00000000000E+00 -0.00000000000E+00 -0.31109510385E+04  0.31109510385E+04  0.00000000000E+00 0.  1.
    9000010    2    1    2  502    0  0.12137091925E+04 -0.22430510415E+03 -0.15047167339E+04  0.21637029943E+04  0.94553445982E+03 0.  0.
   -9000010    2    1    2    0  501 -0.12137091925E+04  0.22430510415E+03 -0.78521726052E+03  0.17682650883E+04  0.99337429636E+03 0.  0.
        -13    1    3    3    0    0  0.57699400587E+03 -0.31768284192E+03 -0.16740215093E+03  0.67960868311E+03  0.10566000000E+00 0.  1.
          4    1    3    3  502    0  0.63671518665E+03  0.93377737775E+02 -0.13373145829E+04  0.14840943112E+04  0.00000000000E+00 0.  1.
         13    1    4    4    0    0 -0.48747481154E+03 -0.34671486756E+03 -0.55537677603E+03  0.81626360067E+03  0.10566000000E+00 0. -1.
         -4    1    4    4    0  501 -0.72623438099E+03  0.57101997171E+03 -0.22984048449E+03  0.95200148767E+03  0.00000000000E+00 0. -1.
<mgrwt>
<rscale>  2 0.15695159E+04</rscale>
<asrwt>0</asrwt>
<pdfrwt beam="2">  1        2 0.47860785E+00 0.15695159E+04</pdfrwt>
<pdfrwt beam="1">  1       -2 0.12631031E+00 0.15695159E+04</pdfrwt>
<totfact> 0.10121464E+00</totfact>
</mgrwt>
</event>
<event>
 8    1  0.7046235E-006  0.1740741E+04  0.7818608E-02  0.8282994E-01
          2   -1    0    0  502    0  0.00000000000E+00  0.00000000000E+00  0.22231277028E+04  0.22231277028E+04  0.00000000000E+00 0.  1.
         -2   -1    0    0    0  501 -0.00000000000E+00 -0.00000000000E+00 -0.13913200067E+04  0.13913200067E+04  0.00000000000E+00 0. -1.
    9000010    2    1    2  502    0  0.13848726752E+04 -0.30032272202E+03  0.16044322860E+03  0.17570552777E+04  0.10263698920E+04 0.  0.
   -9000010    2    1    2    0  501 -0.13848726752E+04  0.30032272202E+03  0.67136446747E+03  0.18573924319E+04  0.99554524444E+03 0.  0.
        -13    1    3    3    0    0  0.10104650024E+03 -0.18540520653E+03  0.39408779160E+03  0.44709136032E+03  0.10566000000E+00 0.  1.
          4    1    3    3  502    0  0.12838261750E+04 -0.11491751549E+03 -0.23364456299E+03  0.13099639174E+04  0.00000000000E+00 0.  1.
         13    1    4    4    0    0 -0.10117558269E+04  0.60015342406E+03  0.71522437667E+03  0.13767279709E+04  0.10566000000E+00 0. -1.
         -4    1    4    4    0  501 -0.37311684838E+03 -0.29983070204E+03 -0.43859909199E+02  0.48066446099E+03  0.00000000000E+00 0. -1.
<mgrwt>
<rscale>  2 0.17407408E+04</rscale>
<asrwt>0</asrwt>
<pdfrwt beam="1">  1        2 0.34201965E+00 0.17407408E+04</pdfrwt>
<pdfrwt beam="2">  1       -2 0.21404923E+00 0.17407408E+04</pdfrwt>
<totfact> 0.57815055E-01</totfact>
</mgrwt>
</event>
<event>
 8    1  0.7046235E-006  0.1054361E+04  0.7818608E-02  0.8725126E-01
         -2   -1    0    0    0  501 -0.00000000000E+00  0.00000000000E+00  0.10443233331E+04  0.10443233331E+04  0.00000000000E+00 0. -1.
          2   -1    0    0  502    0  0.00000000000E+00 -0.00000000000E+00 -0.10760917161E+04  0.10760917161E+04  0.00000000000E+00 0.  1.
    9000010    2    1    2  502    0  0.30395538200E+02 -0.24244996968E+03  0.86996276139E+02  0.10183913827E+04  0.98480799132E+03 0.  0.
   -9000010    2    1    2    0  501 -0.30395538200E+02  0.24244996968E+03 -0.11876465911E+03  0.11020236664E+04  0.10680099441E+04 0.  0.
        -13    1    3    3    0    0 -0.16035246417E+03 -0.69412310809E+01 -0.40774828192E+03  0.43820060021E+03  0.10566000000E+00 0.  1.
          4    1    3    3  502    0  0.19074800237E+03 -0.23550873860E+03  0.49474455806E+03  0.58019078250E+03  0.00000000000E+00 0.  1.
         13    1    4    4    0    0  0.22101950861E+03 -0.36748528939E+03  0.14081733327E+02  0.42906103002E+03  0.10566000000E+00 0. -1.
         -4    1    4    4    0  501 -0.25141504681E+03  0.60993525907E+03 -0.13284639244E+03  0.67296263641E+03  0.00000000000E+00 0. -1.
<mgrwt>
<rscale>  2 0.10543607E+04</rscale>
<asrwt>0</asrwt>
<pdfrwt beam="2">  1        2 0.16555257E+00 0.10543607E+04</pdfrwt>
<pdfrwt beam="1">  1       -2 0.16066513E+00 0.10543607E+04</pdfrwt>
<totfact> 0.74622775E+00</totfact>
</mgrwt>
</event>
<event>
 8    1  0.7046235E-006  0.1541566E+04  0.7818608E-02  0.8385971E-01
          2   -1    0    0  502    0  0.00000000000E+00  0.00000000000E+00  0.14826999128E+04  0.14826999128E+04  0.00000000000E+00 0.  1.
         -2   -1    0    0    0  501 -0.00000000000E+00 -0.00000000000E+00 -0.16392775331E+04  0.16392775331E+04  0.00000000000E+00 0. -1.
    9000010    2    1    2  502    0 -0.55362384578E+03  0.10466026749E+04 -0.31152180433E+03  0.15836595366E+04  0.10045173825E+04 0.  0.
   -9000010    2    1    2    0  501  0.55362384578E+03 -0.10466026749E+04  0.15494418397E+03  0.15383179093E+04  0.96981326455E+03 0.  0.
        -13    1    3    3    0    0 -0.40834461160E+03  0.68297974416E+03 -0.67944806344E+03  0.10463538287E+04  0.10566000000E+00 0.  1.
          4    1    3    3  502    0 -0.14527923418E+03  0.36362293073E+03  0.36792625911E+03  0.53730570793E+03  0.00000000000E+00 0.  1.
         13    1    4    4    0    0  0.29228989713E+01 -0.78902050413E+03  0.39781271114E+03  0.88363842356E+03  0.10566000000E+00 0. -1.
         -4    1    4    4    0  501  0.55070094681E+03 -0.25758217076E+03 -0.24286852717E+03  0.65467948570E+03  0.00000000000E+00 0. -1.
<mgrwt>
<rscale>  2 0.15415661E+04</rscale>
<asrwt>0</asrwt>
<pdfrwt beam="1">  1        2 0.22810768E+00 0.15415661E+04</pdfrwt>
<pdfrwt beam="2">  1       -2 0.25219654E+00 0.15415661E+04</pdfrwt>
<totfact> 0.74764771E-01</totfact>
</mgrwt>
</event>
<event>
 8    1  0.7046235E-006  0.1125571E+04  0.7818608E-02  0.8664821E-01
          1   -1    0    0  502    0  0.00000000000E+00  0.00000000000E+00  0.17195753080E+04  0.17195753080E+04  0.00000000000E+00 0.  1.
         -1   -1    0    0    0  501 -0.00000000000E+00 -0.00000000000E+00 -0.73680015700E+03  0.73680015700E+03  0.00000000000E+00 0. -1.
    9000010    2    1    2  502    0 -0.77207002014E+02  0.55141606499E+03  0.49687239245E+03  0.12381031391E+04  0.98792540753E+03 0.  0.
   -9000010    2    1    2    0  501  0.77207002014E+02 -0.55141606499E+03  0.48590275860E+03  0.12182723259E+04  0.96853774909E+03 0.  0.
        -13    1    3    3    0    0 -0.29921586602E+03  0.37155971699E+03  0.72814860412E+03  0.87050971196E+03  0.10566000000E+00 0.  1.
          4    1    3    3  502    0  0.22200886400E+03  0.17985634799E+03 -0.23127621167E+03  0.36759342716E+03  0.00000000000E+00 0.  1.
         13    1    4    4    0    0  0.26291448730E+03 -0.12817035433E+03 -0.22590288997E+03  0.36957244786E+03  0.10566000000E+00 0. -1.
         -4    1    4    4    0  501 -0.18570748529E+03 -0.42324571066E+03  0.71180564857E+03  0.84869987806E+03  0.00000000000E+00 0. -1.
<mgrwt>
<rscale>  2 0.11255708E+04</rscale>
<asrwt>0</asrwt>
<pdfrwt beam="1">  1        1 0.26455005E+00 0.11255708E+04</pdfrwt>
<pdfrwt beam="2">  1       -1 0.11335387E+00 0.11255708E+04</pdfrwt>
<totfact> 0.46740703E+00</totfact>
</mgrwt>
</event>
<event>
 8    1  0.7046235E-006  0.1109997E+04  0.7818608E-02  0.8677605E-01
         -1   -1    0    0    0  501 -0.00000000000E+00  0.00000000000E+00  0.11069468275E+04  0.11069468275E+04  0.00000000000E+00 0. -1.
          1   -1    0    0  502    0  0.00000000000E+00 -0.00000000000E+00 -0.12173215607E+04  0.12173215607E+04  0.00000000000E+00 0.  1.
    9000010    2    1    2  502    0 -0.40463022651E+03  0.26905375788E+03  0.28510493492E+03  0.11414676335E+04  0.99274769686E+03 0.  0.
   -9000010    2    1    2    0  501  0.40463022651E+03 -0.26905375788E+03 -0.39547966815E+03  0.11828007546E+04  0.10032436954E+04 0.  0.
        -13    1    3    3    0    0  0.45443217542E+02 -0.33956487626E+03  0.14324393668E+03  0.37133304158E+03  0.10566000000E+00 0.  1.
          4    1    3    3  502    0 -0.45007344406E+03  0.60861863415E+03  0.14186099824E+03  0.77013459194E+03  0.00000000000E+00 0.  1.
         13    1    4    4    0    0 -0.11508692107E+03 -0.46336841750E+03  0.37619573235E+02  0.47892643818E+03  0.10566000000E+00 0. -1.
         -4    1    4    4    0  501  0.51971714759E+03  0.19431465961E+03 -0.43309924139E+03  0.70387431643E+03  0.00000000000E+00 0. -1.
<mgrwt>
<rscale>  2 0.11099973E+04</rscale>
<asrwt>0</asrwt>
<pdfrwt beam="2">  1        1 0.18728024E+00 0.11099973E+04</pdfrwt>
<pdfrwt beam="1">  1       -1 0.17029951E+00 0.11099973E+04</pdfrwt>
<totfact> 0.35377127E+00</totfact>
</mgrwt>
</event>
<event>
 8    1  0.7046235E-006  0.1412489E+04  0.7818608E-02  0.8461712E-01
         -2   -1    0    0    0  501 -0.00000000000E+00  0.00000000000E+00  0.15746414859E+04  0.15746414859E+04  0.00000000000E+00 0.  1.
          2   -1    0    0  502    0  0.00000000000E+00 -0.00000000000E+00 -0.19933869252E+04  0.19933869252E+04  0.00000000000E+00 0. -1.
    9000010    2    1    2  502    0 -0.46238191675E+03  0.87381425157E+03 -0.12866848178E+04  0.19140041679E+04  0.10151382918E+04 0.  0.
   -9000010    2    1    2    0  501  0.46238191675E+03 -0.87381425157E+03  0.86793937854E+03  0.16540242432E+04  0.10025612445E+04 0.  0.
        -13    1    3    3    0    0 -0.39943475202E+03  0.32870470614E+03 -0.12629208804E+04  0.13647578782E+04  0.10566000000E+00 0.  1.
          4    1    3    3  502    0 -0.62947164731E+02  0.54510954542E+03 -0.23763937433E+02  0.54924628973E+03  0.00000000000E+00 0.  1.
         13    1    4    4    0    0 -0.27298969911E+03 -0.36161591611E+03  0.78717166511E+02  0.45987590725E+03  0.10566000000E+00 0. -1.
         -4    1    4    4    0  501  0.73537161586E+03 -0.51219833546E+03  0.78922221203E+03  0.11941483359E+04  0.00000000000E+00 0. -1.
<mgrwt>
<rscale>  2 0.14124891E+04</rscale>
<asrwt>0</asrwt>
<pdfrwt beam="2">  1        2 0.30667491E+00 0.14124891E+04</pdfrwt>
<pdfrwt beam="1">  1       -2 0.24225254E+00 0.14124891E+04</pdfrwt>
<totfact> 0.47464289E-01</totfact>
</mgrwt>
</event>
<event>
 8    1  0.7046235E-006  0.1071022E+04  0.7818608E-02  0.8710579E-01
          1   -1    0    0  502    0  0.00000000000E+00  0.00000000000E+00  0.13996705002E+04  0.13996705002E+04  0.00000000000E+00 0.  1.
         -1   -1    0    0    0  501 -0.00000000000E+00 -0.00000000000E+00 -0.12177672848E+04  0.12177672848E+04  0.00000000000E+00 0. -1.
    9000010    2    1    2  502    0 -0.35266827202E+03  0.12026675257E+03  0.83902317876E+03  0.13564720237E+04  0.99860775818E+03 0.  0.
   -9000010    2    1    2    0  501  0.35266827202E+03 -0.12026675257E+03 -0.65711996338E+03  0.12609657613E+04  0.10096479600E+04 0.  0.
        -13    1    3    3    0    0 -0.65225188697E+03  0.27059983264E+03  0.69775057984E+03  0.99272991106E+03  0.10566000000E+00 0.  1.
          4    1    3    3  502    0  0.29958361494E+03 -0.15033308006E+03  0.14127259892E+03  0.36374211264E+03  0.00000000000E+00 0.  1.
         13    1    4    4    0    0  0.30437554787E+03 -0.32268161882E+03 -0.86168546486E+03  0.96915930206E+03  0.10566000000E+00 0. -1.
         -4    1    4    4    0  501  0.48292724154E+02  0.20241486624E+03  0.20456550147E+03  0.29180645928E+03  0.00000000000E+00 0. -1.
<mgrwt>
<rscale>  2 0.10710223E+04</rscale>
<asrwt>0</asrwt>
<pdfrwt beam="1">  1        1 0.21533392E+00 0.10710223E+04</pdfrwt>
<pdfrwt beam="2">  1       -1 0.18734881E+00 0.10710223E+04</pdfrwt>
<totfact> 0.18414770E+00</totfact>
</mgrwt>
</event>
<event>
 8    1  0.7046235E-006  0.1083191E+04  0.7818608E-02  0.8700129E-01
          1   -1    0    0  502    0  0.00000000000E+00  0.00000000000E+00  0.22824681743E+04  0.22824681743E+04  0.00000000000E+00 0.  1.
         -1   -1    0    0    0  501 -0.00000000000E+00 -0.00000000000E+00 -0.59321211246E+03  0.59321211246E+03  0.00000000000E+00 0. -1.
    9000010    2    1    2  502    0  0.14660800179E+02  0.31336211477E+03  0.13496954214E+04  0.17134682344E+04  0.10079111596E+04 0.  0.
   -9000010    2    1    2    0  501 -0.14660800179E+02 -0.31336211477E+03  0.33956064038E+03  0.11622120523E+04  0.10663135899E+04 0.  0.
        -13    1    3    3    0    0  0.29816379940E+03 -0.24182611121E+03  0.27920903544E+03  0.47469907939E+03  0.10566000000E+00 0.  1.
          4    1    3    3  502    0 -0.28350299922E+03  0.55518822598E+03  0.10704863860E+04  0.12387691550E+04  0.00000000000E+00 0.  1.
         13    1    4    4    0    0  0.18728474267E+03  0.35530142969E+03  0.45013004725E+02  0.40415450330E+03  0.10566000000E+00 0. -1.
         -4    1    4    4    0  501 -0.20194554285E+03 -0.66866354446E+03  0.29454763565E+03  0.75805754903E+03  0.00000000000E+00 0. -1.
<mgrwt>
<rscale>  2 0.10831912E+04</rscale>
<asrwt>0</asrwt>
<pdfrwt beam="1">  1        1 0.35114894E+00 0.10831912E+04</pdfrwt>
<pdfrwt beam="2">  1       -1 0.91263404E-01 0.10831912E+04</pdfrwt>
<totfact> 0.27857194E+00</totfact>
</mgrwt>
</event>
<event>
 8    1  0.7046235E-006  0.1084759E+04  0.7818608E-02  0.8698793E-01
         -1   -1    0    0    0  501 -0.00000000000E+00  0.00000000000E+00  0.13257741698E+04  0.13257741698E+04  0.00000000000E+00 0.  1.
          1   -1    0    0  502    0  0.00000000000E+00 -0.00000000000E+00 -0.93406577712E+03  0.93406577712E+03  0.00000000000E+00 0. -1.
    9000010    2    1    2  502    0 -0.20738230126E+03 -0.34378656198E+03 -0.56556187115E+02  0.10845431615E+04  0.10059019076E+04 0.  0.
   -9000010    2    1    2    0  501  0.20738230126E+03  0.34378656198E+03  0.44826457981E+03  0.11752967855E+04  0.10095468198E+04 0.  0.
        -13    1    3    3    0    0  0.85963526038E+02 -0.16365595141E+03  0.44176543158E+03  0.47888381257E+03  0.10566000000E+00 0.  1.
          4    1    3    3  502    0 -0.29334582730E+03 -0.18013061057E+03 -0.49832161869E+03  0.60565934891E+03  0.00000000000E+00 0.  1.
         13    1    4    4    0    0  0.68436665441E+02 -0.35206642304E+03  0.51557673402E+02  0.36234313607E+03  0.10566000000E+00 0. -1.
         -4    1    4    4    0  501  0.13894563582E+03  0.69585298502E+03  0.39670690641E+03  0.81295364940E+03  0.00000000000E+00 0. -1.
<mgrwt>
<rscale>  2 0.10847592E+04</rscale>
<asrwt>0</asrwt>
<pdfrwt beam="2">  1        1 0.14370243E+00 0.10847592E+04</pdfrwt>
<pdfrwt beam="1">  1       -1 0.20396526E+00 0.10847592E+04</pdfrwt>
<totfact> 0.30155440E+00</totfact>
</mgrwt>
</event>
<event>
 8    1  0.7046235E-006  0.1133649E+04  0.7818608E-02  0.8658274E-01
          2   -1    0    0  502    0  0.00000000000E+00  0.00000000000E+00  0.32176922145E+04  0.32176922145E+04  0.00000000000E+00 0. -1.
         -2   -1    0    0    0  501 -0.00000000000E+00 -0.00000000000E+00 -0.96748825711E+03  0.96748825711E+03  0.00000000000E+00 0.  1.
    9000010    2    1    2  502    0 -0.41177211795E+03 -0.35281064018E+03  0.27336646309E+04  0.29642979848E+04  0.10100042591E+04 0.  0.
   -9000010    2    1    2    0  501  0.41177211795E+03  0.35281064018E+03 -0.48346067351E+03  0.12208824868E+04  0.98121771229E+03 0.  0.
        -13    1    3    3    0    0  0.10531698066E+03 -0.10738662630E+03  0.21192618980E+04  0.21245927980E+04  0.10566000000E+00 0.  1.
          4    1    3    3  502    0 -0.51708909861E+03 -0.24542401389E+03  0.61440273296E+03  0.83970518682E+03  0.00000000000E+00 0.  1.
         13    1    4    4    0    0 -0.15515313195E+03 -0.24679107310E+03 -0.79664761262E+02  0.30219995610E+03  0.10566000000E+00 0. -1.
         -4    1    4    4    0  501  0.56692524989E+03  0.59960171329E+03 -0.40379591225E+03  0.91868253074E+03  0.00000000000E+00 0. -1.
<mgrwt>
<rscale>  2 0.11336492E+04</rscale>
<asrwt>0</asrwt>
<pdfrwt beam="1">  1        2 0.49502957E+00 0.11336492E+04</pdfrwt>
<pdfrwt beam="2">  1       -2 0.14884435E+00 0.11336492E+04</pdfrwt>
<totfact> 0.57130133E-01</totfact>
</mgrwt>
</event>
<event>
 8    1  0.7046235E-006  0.1038707E+04  0.7818608E-02  0.8739050E-01
         -1   -1    0    0    0  501 -0.00000000000E+00  0.00000000000E+00  0.10691587666E+04  0.10691587666E+04  0.00000000000E+00 0. -1.
          1   -1    0    0  502    0  0.00000000000E+00 -0.00000000000E+00 -0.10583438707E+04  0.10583438707E+04  0.00000000000E+00 0.  1.
    9000010    2    1    2  502    0 -0.28521758869E+03 -0.22594699441E+02  0.23481312323E+03  0.10648021883E+04  0.99840217551E+03 0.  0.
   -9000010    2    1    2    0  501  0.28521758869E+03  0.22594699441E+02 -0.22399822737E+03  0.10627004490E+04  0.99864780836E+03 0.  0.
        -13    1    3    3    0    0 -0.36495337787E+03  0.75208664653E-01  0.59346195651E+03  0.69669798239E+03  0.10566000000E+00 0.  1.
          4    1    3    3  502    0  0.79735789178E+02 -0.22669908106E+02 -0.35864883328E+03  0.36810420593E+03  0.00000000000E+00 0.  1.
         13    1    4    4    0    0  0.34127723696E+03 -0.44314313044E+03 -0.19634031807E+03  0.59278623313E+03  0.10566000000E+00 0. -1.
         -4    1    4    4    0  501 -0.56059648267E+02  0.46573782988E+03 -0.27657909304E+02  0.46991421589E+03  0.00000000000E+00 0. -1.
<mgrwt>
<rscale>  2 0.10387068E+04</rscale>
<asrwt>0</asrwt>
<pdfrwt beam="2">  1        1 0.16282213E+00 0.10387068E+04</pdfrwt>
<pdfrwt beam="1">  1       -1 0.16448596E+00 0.10387068E+04</pdfrwt>
<totfact> 0.53353716E+00</totfact>
</mgrwt>
</event>
<event>
 8    1  0.7046235E-006  0.1133633E+04  0.7818608E-02  0.8658287E-01
          2   -1    0    0  502    0  0.00000000000E+00  0.00000000000E+00  0.21587802377E+04  0.21587802377E+04  0.00000000000E+00 0.  1.
         -2   -1    0    0    0  501 -0.00000000000E+00 -0.00000000000E+00 -0.64959641212E+03  0.64959641212E+03  0.00000000000E+00 0. -1.
    9000010    2    1    2  502    0  0.44892296138E+03  0.14185162178E+03  0.11726607756E+04  0.16459945196E+04  0.10547563492E+04 0.  0.
   -9000010    2    1    2    0  501 -0.44892296138E+03 -0.14185162178E+03  0.33652304997E+03  0.11623821302E+04  0.10080827077E+04 0.  0.
        -13    1    3    3    0    0 -0.15862277335E+02  0.51034590745E+03  0.78828384918E+03  0.93919965669E+03  0.10566000000E+00 0.  1.
          4    1    3    3  502    0  0.46478523871E+03 -0.36849428567E+03  0.38437692640E+03  0.70679486292E+03  0.00000000000E+00 0.  1.
         13    1    4    4    0    0 -0.14439842633E+03  0.20154846476E+03 -0.29267023861E+03  0.38357342049E+03  0.10566000000E+00 0. -1.
         -4    1    4    4    0  501 -0.30452453505E+03 -0.34340008654E+03  0.62919328859E+03  0.77880870969E+03  0.00000000000E+00 0. -1.
<mgrwt>
<rscale>  2 0.11336328E+04</rscale>
<asrwt>0</asrwt>
<pdfrwt beam="1">  1        2 0.33212003E+00 0.11336328E+04</pdfrwt>
<pdfrwt beam="2">  1       -2 0.99937910E-01 0.11336328E+04</pdfrwt>
<totfact> 0.69116431E+00</totfact>
</mgrwt>
</event>
<event>
 8    1  0.7046235E-006  0.1267778E+04  0.7818608E-02  0.8557200E-01
         -2   -1    0    0    0  501 -0.00000000000E+00  0.00000000000E+00  0.61357016788E+03  0.61357016788E+03  0.00000000000E+00 0.  1.
          2   -1    0    0  502    0  0.00000000000E+00 -0.00000000000E+00 -0.27909715696E+04  0.27909715696E+04  0.00000000000E+00 0. -1.
    9000010    2    1    2  502    0  0.70249847249E+03 -0.32049603212E+03 -0.66895653423E+03  0.14358080090E+04  0.10088706476E+04 0.  0.
   -9000010    2    1    2    0  501 -0.70249847249E+03  0.32049603212E+03 -0.15084448675E+04  0.19687337285E+04  0.10021400925E+04 0.  0.
        -13    1    3    3    0    0  0.22720255120E+03  0.26624167355E+03 -0.57737590255E+03  0.67518039960E+03  0.10566000000E+00 0.  1.
          4    1    3    3  502    0  0.47529592129E+03 -0.58673770566E+03 -0.91580631685E+02  0.76062760937E+03  0.00000000000E+00 0.  1.
         13    1    4    4    0    0  0.20386129808E+03 -0.13992778715E+03 -0.26133656502E+03  0.35977218604E+03  0.10566000000E+00 0. -1.
         -4    1    4    4    0  501 -0.90635977056E+03  0.46042381926E+03 -0.12471083025E+04  0.16089615425E+04  0.00000000000E+00 0. -1.
<mgrwt>
<rscale>  2 0.12677776E+04</rscale>
<asrwt>0</asrwt>
<pdfrwt beam="2">  1        2 0.42938024E+00 0.12677776E+04</pdfrwt>
<pdfrwt beam="1">  1       -2 0.94395410E-01 0.12677776E+04</pdfrwt>
<totfact> 0.34368672E+00</totfact>
</mgrwt>
</event>
<event>
 8    1  0.7046235E-006  0.1368636E+04  0.7818608E-02  0.8489358E-01
          2   -1    0    0  502    0  0.00000000000E+00  0.00000000000E+00  0.36930428741E+04  0.36930428741E+04  0.00000000000E+00 0. -1.
         -2   -1    0    0    0  501 -0.00000000000E+00 -0.00000000000E+00 -0.60674361369E+03  0.60674361369E+03  0.00000000000E+00 0.  1.
    9000010    2    1    2  502    0  0.61078767120E+03 -0.67681085988E+03  0.24036026066E+04  0.27606677548E+04  0.10064027238E+04 0.  0.
   -9000010    2    1    2    0  501 -0.61078767120E+03  0.67681085988E+03  0.68269665386E+03  0.15391187330E+04  0.10352184474E+04 0.  0.
        -13    1    3    3    0    0  0.83119972270E+03 -0.60231553692E+03  0.14339171159E+04  0.17634611681E+04  0.10566000000E+00 0.  1.
          4    1    3    3  502    0 -0.22041205150E+03 -0.74495322953E+02  0.96968549074E+03  0.99720658669E+03  0.00000000000E+00 0.  1.
         13    1    4    4    0    0 -0.78539205203E+03  0.80122719724E+03  0.41524700456E+03  0.11963426695E+04  0.10566000000E+00 0. -1.
         -4    1    4    4    0  501  0.17460438083E+03 -0.12441633736E+03  0.26744964930E+03  0.34277606351E+03  0.00000000000E+00 0. -1.
<mgrwt>
<rscale>  2 0.13686363E+04</rscale>
<asrwt>0</asrwt>
<pdfrwt beam="1">  1        2 0.56816043E+00 0.13686363E+04</pdfrwt>
<pdfrwt beam="2">  1       -2 0.93345173E-01 0.13686363E+04</pdfrwt>
<totfact> 0.85222753E-01</totfact>
</mgrwt>
</event>
<event>
 8    1  0.7046235E-006  0.1370828E+04  0.7818608E-02  0.8487952E-01
          2   -1    0    0  502    0  0.00000000000E+00  0.00000000000E+00  0.25595053963E+04  0.25595053963E+04  0.00000000000E+00 0.  1.
         -2   -1    0    0    0  501 -0.00000000000E+00 -0.00000000000E+00 -0.73446808141E+03  0.73446808141E+03  0.00000000000E+00 0. -1.
    9000010    2    1    2  502    0  0.66371278106E+03  0.66495577333E+03  0.93711161561E+03  0.16535592512E+04  0.98660994369E+03 0.  0.
   -9000010    2    1    2    0  501 -0.66371278106E+03 -0.66495577333E+03  0.88792569927E+03  0.16404142265E+04  0.10098841274E+04 0.  0.
        -13    1    3    3    0    0  0.25232368753E+03 -0.81827470261E+02 -0.12361760913E+03  0.29265047861E+03  0.10566000000E+00 0.  1.
          4    1    3    3  502    0  0.41138909353E+03  0.74678324359E+03  0.10607292247E+04  0.13609087726E+04  0.00000000000E+00 0.  1.
         13    1    4    4    0    0 -0.76410797662E+03 -0.89719450363E+02  0.65970070211E+03  0.10134671219E+04  0.10566000000E+00 0. -1.
         -4    1    4    4    0  501  0.10039519556E+03 -0.57523632297E+03  0.22822499717E+03  0.62694710453E+03  0.00000000000E+00 0. -1.
<mgrwt>
<rscale>  2 0.13708281E+04</rscale>
<asrwt>0</asrwt>
<pdfrwt beam="1">  1        2 0.39377006E+00 0.13708281E+04</pdfrwt>
<pdfrwt beam="2">  1       -2 0.11299509E+00 0.13708281E+04</pdfrwt>
<totfact> 0.29812126E+00</totfact>
</mgrwt>
</event>
<event>
 8    1  0.7046235E-006  0.1778280E+04  0.7818608E-02  0.8265176E-01
         -2   -1    0    0    0  501 -0.00000000000E+00  0.00000000000E+00  0.81586281890E+03  0.81586281890E+03  0.00000000000E+00 0. -1.
          2   -1    0    0  502    0  0.00000000000E+00 -0.00000000000E+00 -0.39276146797E+04  0.39276146797E+04  0.00000000000E+00 0.  1.
    9000010    2    1    2  502    0 -0.14546410244E+04 -0.28128044593E+02 -0.18313139375E+04  0.25555506781E+04  0.10297362933E+04 0.  0.
   -9000010    2    1    2    0  501  0.14546410244E+04  0.28128044593E+02 -0.12804379232E+04  0.21879268204E+04  0.10152491318E+04 0.  0.
        -13    1    3    3    0    0 -0.23151122010E+03 -0.11262907350E+03 -0.10961680109E+04  0.11259960358E+04  0.10566000000E+00 0.  1.
          4    1    3    3  502    0 -0.12231298043E+04  0.84501028908E+02 -0.73514592663E+03  0.14295546424E+04  0.00000000000E+00 0.  1.
         13    1    4    4    0    0  0.12674969731E+04  0.41428508151E+03 -0.85737496739E+03  0.15853304234E+04  0.10566000000E+00 0. -1.
         -4    1    4    4    0  501  0.18714405132E+03 -0.38615703692E+03 -0.42306295583E+03  0.60259639703E+03  0.00000000000E+00 0. -1.
<mgrwt>
<rscale>  2 0.17782803E+04</rscale>
<asrwt>0</asrwt>
<pdfrwt beam="2">  1        2 0.60424841E+00 0.17782803E+04</pdfrwt>
<pdfrwt beam="1">  1       -2 0.12551736E+00 0.17782803E+04</pdfrwt>
<totfact> 0.24569703E-01</totfact>
</mgrwt>
</event>
<event>
 8    1  0.7046235E-006  0.1763004E+04  0.7818608E-02  0.8272371E-01
         -2   -1    0    0    0  501 -0.00000000000E+00  0.00000000000E+00  0.10032511032E+04  0.10032511032E+04  0.00000000000E+00 0. -1.
          2   -1    0    0  502    0  0.00000000000E+00 -0.00000000000E+00 -0.31488273865E+04  0.31488273865E+04  0.00000000000E+00 0.  1.
    9000010    2    1    2  502    0  0.12463788488E+04 -0.74371562831E+03 -0.13321584144E+04  0.22044198786E+04  0.98906409770E+03 0.  0.
   -9000010    2    1    2    0  501 -0.12463788488E+04  0.74371562831E+03 -0.81341786888E+03  0.19476586111E+04  0.10124980323E+04 0.  0.
        -13    1    3    3    0    0  0.73805258649E+03 -0.54467210141E+03 -0.18748704594E+03  0.93623753505E+03  0.10566000000E+00 0.  1.
          4    1    3    3  502    0  0.50832626230E+03 -0.19904352690E+03 -0.11446713685E+04  0.12681823435E+04  0.00000000000E+00 0.  1.
         13    1    4    4    0    0 -0.38097620190E+03 -0.23435459227E+03 -0.95478035375E+02  0.45736310273E+03  0.10566000000E+00 0. -1.
         -4    1    4    4    0  501 -0.86540264689E+03  0.97807022059E+03 -0.71793983351E+03  0.14902955083E+04  0.00000000000E+00 0. -1.
<mgrwt>
<rscale>  2 0.17630045E+04</rscale>
<asrwt>0</asrwt>
<pdfrwt beam="2">  1        2 0.48443498E+00 0.17630045E+04</pdfrwt>
<pdfrwt beam="1">  1       -2 0.15434632E+00 0.17630045E+04</pdfrwt>
<totfact> 0.52169444E-01</totfact>
</mgrwt>
</event>
<event>
 8    1  0.7046235E-006  0.1111987E+04  0.7818608E-02  0.8675959E-01
         -2   -1    0    0    0  501 -0.00000000000E+00  0.00000000000E+00  0.47526627701E+03  0.47526627701E+03  0.00000000000E+00 0. -1.
          2   -1    0    0  502    0  0.00000000000E+00 -0.00000000000E+00 -0.26083988764E+04  0.26083988764E+04  0.00000000000E+00 0.  1.
    9000010    2    1    2  502    0 -0.49224875156E+03 -0.51225748386E+02 -0.99028902495E+03  0.14903120469E+04  0.99770974411E+03 0.  0.
   -9000010    2    1    2    0  501  0.49224875156E+03  0.51225748386E+02 -0.11428435744E+04  0.15933531065E+04  0.99385601355E+03 0.  0.
        -13    1    3    3    0    0 -0.26697231336E+03  0.39078975330E+03 -0.11952580939E+03  0.48813653588E+03  0.10566000000E+00 0.  1.
          4    1    3    3  502    0 -0.22527643820E+03 -0.44201550168E+03 -0.87076321556E+03  0.10021755110E+04  0.00000000000E+00 0.  1.
         13    1    4    4    0    0  0.23610262612E+03 -0.32073875999E+03 -0.38373705188E+02  0.40011292735E+03  0.10566000000E+00 0. -1.
         -4    1    4    4    0  501  0.25614612544E+03  0.37196450837E+03 -0.11044698692E+04  0.11932401791E+04  0.00000000000E+00 0. -1.
<mgrwt>
<rscale>  2 0.11119866E+04</rscale>
<asrwt>0</asrwt>
<pdfrwt beam="2">  1        2 0.40129213E+00 0.11119866E+04</pdfrwt>
<pdfrwt beam="1">  1       -2 0.73117890E-01 0.11119866E+04</pdfrwt>
<totfact> 0.78973806E+00</totfact>
</mgrwt>
</event>
<event>
 8    1  0.7046235E-006  0.1121677E+04  0.7818608E-02  0.8667997E-01
          1   -1    0    0  502    0  0.00000000000E+00  0.00000000000E+00  0.86896920494E+03  0.86896920494E+03  0.00000000000E+00 0. -1.
         -1   -1    0    0    0  501 -0.00000000000E+00 -0.00000000000E+00 -0.17078274313E+04  0.17078274313E+04  0.00000000000E+00 0.  1.
    9000010    2    1    2  502    0 -0.39045991626E+03  0.28086107315E+03 -0.92580700038E+03  0.14639930785E+04  0.10270419871E+04 0.  0.
   -9000010    2    1    2    0  501  0.39045991626E+03 -0.28086107315E+03  0.86948774060E+02  0.11128035577E+04  0.99971484942E+03 0.  0.
        -13    1    3    3    0    0  0.23223864584E+03  0.18126733824E+03  0.53291843842E+02  0.29938715457E+03  0.10566000000E+00 0.  1.
          4    1    3    3  502    0 -0.62269856210E+03  0.99593734906E+02 -0.97909884422E+03  0.11646059239E+04  0.00000000000E+00 0.  1.
         13    1    4    4    0    0 -0.74029091914E+02 -0.51115583882E+03 -0.15701122033E+03  0.53982694679E+03  0.10566000000E+00 0. -1.
         -4    1    4    4    0  501  0.46448900817E+03  0.23029476567E+03  0.24395999439E+03  0.57297661093E+03  0.00000000000E+00 0. -1.
<mgrwt>
<rscale>  2 0.11216772E+04</rscale>
<asrwt>0</asrwt>
<pdfrwt beam="1">  1        1 0.13368757E+00 0.11216772E+04</pdfrwt>
<pdfrwt beam="2">  1       -1 0.26274268E+00 0.11216772E+04</pdfrwt>
<totfact> 0.94449769E-01</totfact>
</mgrwt>
</event>
<event>
 8    1  0.7046235E-006  0.1297754E+04  0.7818608E-02  0.8536375E-01
          2   -1    0    0  502    0  0.00000000000E+00  0.00000000000E+00  0.12811373953E+04  0.12811373953E+04  0.00000000000E+00 0.  1.
         -2   -1    0    0    0  501 -0.00000000000E+00 -0.00000000000E+00 -0.13157342953E+04  0.13157342953E+04  0.00000000000E+00 0. -1.
    9000010    2    1    2  502    0  0.71986336398E+03 -0.40808247014E+03 -0.52739677691E+02  0.13140063882E+04  0.10193609514E+04 0.  0.
   -9000010    2    1    2    0  501 -0.71986336398E+03  0.40808247014E+03  0.18142777727E+02  0.12828653024E+04  0.98014267252E+03 0.  0.
        -13    1    3    3    0    0  0.57002343242E+03  0.13011717860E+03  0.29608392158E+03  0.65537996114E+03  0.10566000000E+00 0.  1.
          4    1    3    3  502    0  0.14983993156E+03 -0.53819964873E+03 -0.34882359927E+03  0.65862642704E+03  0.00000000000E+00 0.  1.
         13    1    4    4    0    0 -0.80188159774E+02  0.60729701280E+03  0.19711042184E+02  0.61288525767E+03  0.10566000000E+00 0. -1.
         -4    1    4    4    0  501 -0.63967520421E+03 -0.19921454266E+03 -0.15682644568E+01  0.66998004473E+03  0.00000000000E+00 0. -1.
<mgrwt>
<rscale>  2 0.12977544E+04</rscale>
<asrwt>0</asrwt>
<pdfrwt beam="1">  1        2 0.19709806E+00 0.12977544E+04</pdfrwt>
<pdfrwt beam="2">  1       -2 0.20242066E+00 0.12977544E+04</pdfrwt>
<totfact> 0.24854930E+00</totfact>
</mgrwt>
</event>
<event>
 8    1  0.7046235E-006  0.1196022E+04  0.7818608E-02  0.8609564E-01
          1   -1    0    0  502    0  0.00000000000E+00  0.00000000000E+00  0.27184651975E+04  0.27184651975E+04  0.00000000000E+00 0.  1.
         -1   -1    0    0    0  501 -0.00000000000E+00 -0.00000000000E+00 -0.59452073793E+03  0.59452073793E+03  0.00000000000E+00 0. -1.
    9000010    2    1    2  502    0 -0.47128349397E+03  0.46483914189E+03  0.51816782864E+03  0.13234223460E+04  0.10221375875E+04 0.  0.
   -9000010    2    1    2    0  501  0.47128349397E+03 -0.46483914189E+03  0.16057766310E+04  0.19895635894E+04  0.97039225490E+03 0.  0.
        -13    1    3    3    0    0 -0.50067169503E+02  0.48696689189E+03 -0.16835666609E+03  0.51767504618E+03  0.10566000000E+00 0.  1.
          4    1    3    3  502    0 -0.42121632447E+03 -0.22127749999E+02  0.68652449473E+03  0.80574729983E+03  0.00000000000E+00 0.  1.
         13    1    4    4    0    0  0.14281343780E+03 -0.66175727314E+03  0.56912838294E+03  0.88443512707E+03  0.10566000000E+00 0. -1.
         -4    1    4    4    0  501  0.32847005618E+03  0.19691813125E+03  0.10366482480E+04  0.11051284624E+04  0.00000000000E+00 0. -1.
<mgrwt>
<rscale>  2 0.11960218E+04</rscale>
<asrwt>0</asrwt>
<pdfrwt beam="1">  1        1 0.41822541E+00 0.11960218E+04</pdfrwt>
<pdfrwt beam="2">  1       -1 0.91464730E-01 0.11960218E+04</pdfrwt>
<totfact> 0.11037609E+00</totfact>
</mgrwt>
</event>
<event>
 8    1  0.7046235E-006  0.1303774E+04  0.7818608E-02  0.8532264E-01
          2   -1    0    0  502    0  0.00000000000E+00  0.00000000000E+00  0.10214111425E+04  0.10214111425E+04  0.00000000000E+00 0.  1.
         -2   -1    0    0    0  501 -0.00000000000E+00 -0.00000000000E+00 -0.18294659422E+04  0.18294659422E+04  0.00000000000E+00 0. -1.
    9000010    2    1    2  502    0  0.62409016679E+03 -0.53742971606E+03 -0.83694443615E+03  0.15640398953E+04  0.10331628957E+04 0.  0.
   -9000010    2    1    2    0  501 -0.62409016679E+03  0.53742971606E+03  0.28889636450E+02  0.12868371893E+04  0.98832995743E+03 0.  0.
        -13    1    3    3    0    0 -0.14397511890E+03  0.18994588242E+03 -0.28284139111E+03  0.36987502863E+03  0.10566000000E+00 0.  1.
          4    1    3    3  502    0  0.76806528568E+03 -0.72737559848E+03 -0.55410304504E+03  0.11941648667E+04  0.00000000000E+00 0.  1.
         13    1    4    4    0    0 -0.60166453063E+03  0.80679104955E+03 -0.42307924667E+02  0.10073241666E+04  0.10566000000E+00 0. -1.
         -4    1    4    4    0  501 -0.22425636158E+02 -0.26936133350E+03  0.71197561117E+02  0.27951302268E+03  0.00000000000E+00 0. -1.
<mgrwt>
<rscale>  2 0.13037738E+04</rscale>
<asrwt>0</asrwt>
<pdfrwt beam="1">  1        2 0.15714018E+00 0.13037738E+04</pdfrwt>
<pdfrwt beam="2">  1       -2 0.28145630E+00 0.13037738E+04</pdfrwt>
<totfact> 0.83958695E-01</totfact>
</mgrwt>
</event>
<event>
 8    1  0.7046235E-006  0.1245149E+04  0.7818608E-02  0.8573318E-01
          2   -1    0    0  502    0  0.00000000000E+00  0.00000000000E+00  0.19662668637E+04  0.19662668637E+04  0.00000000000E+00 0.  1.
         -2   -1    0    0    0  501 -0.00000000000E+00 -0.00000000000E+00 -0.95942863596E+03  0.95942863596E+03  0.00000000000E+00 0. -1.
    9000010    2    1    2  502    0  0.69569864153E+03  0.54304545343E+02 -0.11622949097E+03  0.12438541056E+04  0.10230924484E+04 0.  0.
   -9000010    2    1    2    0  501 -0.69569864153E+03 -0.54304545343E+02  0.11230677188E+04  0.16818413941E+04  0.10394054986E+04 0.  0.
        -13    1    3    3    0    0 -0.25183952275E+03 -0.41062574203E+00 -0.15183469966E+03  0.29406989138E+03  0.10566000000E+00 0.  1.
          4    1    3    3  502    0  0.94753816427E+03  0.54715171085E+02  0.35605208686E+02  0.94978421422E+03  0.00000000000E+00 0.  1.
         13    1    4    4    0    0 -0.62021367295E+03 -0.46966130168E+03  0.48504106459E+03  0.91679418842E+03  0.10566000000E+00 0. -1.
         -4    1    4    4    0  501 -0.75484968572E+02  0.41535675634E+03  0.63802665417E+03  0.76504720570E+03  0.00000000000E+00 0. -1.
<mgrwt>
<rscale>  2 0.12451487E+04</rscale>
<asrwt>0</asrwt>
<pdfrwt beam="1">  1        2 0.30250259E+00 0.12451487E+04</pdfrwt>
<pdfrwt beam="2">  1       -2 0.14760441E+00 0.12451487E+04</pdfrwt>
<totfact> 0.30631602E+00</totfact>
</mgrwt>
</event>
<event>
 8    1  0.7046235E-006  0.1134222E+04  0.7818608E-02  0.8657813E-01
          2   -1    0    0  502    0  0.00000000000E+00  0.00000000000E+00  0.13803347624E+04  0.13803347624E+04  0.00000000000E+00 0. -1.
         -2   -1    0    0    0  501 -0.00000000000E+00 -0.00000000000E+00 -0.93325085050E+03  0.93325085050E+03  0.00000000000E+00 0.  1.
    9000010    2    1    2  502    0  0.49756916693E+03  0.10056658699E+03  0.26553652362E+03  0.11822094684E+04  0.10341280711E+04 0.  0.
   -9000010    2    1    2    0  501 -0.49756916693E+03 -0.10056658699E+03  0.18154738826E+03  0.11313761445E+04  0.99466768916E+03 0.  0.
        -13    1    3    3    0    0 -0.41875297798E+02 -0.38579651006E+03 -0.48153955030E+02  0.39103874781E+03  0.10566000000E+00 0.  1.
          4    1    3    3  502    0  0.53944446473E+03  0.48636309705E+03  0.31369047865E+03  0.79117072058E+03  0.00000000000E+00 0.  1.
         13    1    4    4    0    0 -0.69664718252E+03 -0.35364431806E+03  0.20744811113E+03  0.80834171647E+03  0.10566000000E+00 0. -1.
         -4    1    4    4    0  501  0.19907801558E+03  0.25307773107E+03 -0.25900722874E+02  0.32303442804E+03  0.00000000000E+00 0. -1.
<mgrwt>
<rscale>  2 0.11342215E+04</rscale>
<asrwt>0</asrwt>
<pdfrwt beam="1">  1        2 0.21235919E+00 0.11342215E+04</pdfrwt>
<pdfrwt beam="2">  1       -2 0.14357706E+00 0.11342215E+04</pdfrwt>
<totfact> 0.70300564E+00</totfact>
</mgrwt>
</event>
<event>
 8    1  0.7046235E-006  0.1181926E+04  0.7818608E-02  0.8620298E-01
          1   -1    0    0  502    0  0.00000000000E+00  0.00000000000E+00  0.18194832392E+04  0.18194832392E+04  0.00000000000E+00 0.  1.
         -1   -1    0    0    0  501 -0.00000000000E+00 -0.00000000000E+00 -0.78444187148E+03  0.78444187148E+03  0.00000000000E+00 0. -1.
    9000010    2    1    2  502    0  0.10353677686E+03  0.59813627464E+03  0.70431653181E+03  0.13701640487E+04  0.10063800854E+04 0.  0.
   -9000010    2    1    2    0  501 -0.10353677686E+03 -0.59813627464E+03  0.33072483595E+03  0.12337610620E+04  0.10219102572E+04 0.  0.
        -13    1    3    3    0    0  0.45157764281E+03  0.68121793032E+03  0.47936057741E+03  0.94750557276E+03  0.10566000000E+00 0.  1.
          4    1    3    3  502    0 -0.34804086596E+03 -0.83081655681E+02  0.22495595440E+03  0.42265847597E+03  0.00000000000E+00 0.  1.
         13    1    4    4    0    0 -0.44442177019E+03 -0.21407302328E+03 -0.16484827384E+03  0.52010857873E+03  0.10566000000E+00 0. -1.
         -4    1    4    4    0  501  0.34088499333E+03 -0.38406325136E+03  0.49557310979E+03  0.71365248326E+03  0.00000000000E+00 0. -1.
<mgrwt>
<rscale>  2 0.11819259E+04</rscale>
<asrwt>0</asrwt>
<pdfrwt beam="1">  1        1 0.27992050E+00 0.11819259E+04</pdfrwt>
<pdfrwt beam="2">  1       -1 0.12068337E+00 0.11819259E+04</pdfrwt>
<totfact> 0.33623644E+00</totfact>
</mgrwt>
</event>
<event>
 8    1  0.7046235E-006  0.1550117E+04  0.7818608E-02  0.8381227E-01
          2   -1    0    0  502    0  0.00000000000E+00  0.00000000000E+00  0.22729117791E+04  0.22729117791E+04  0.00000000000E+00 0. -1.
         -2   -1    0    0    0  501 -0.00000000000E+00 -0.00000000000E+00 -0.12152769209E+04  0.12152769209E+04  0.00000000000E+00 0.  1.
    9000010    2    1    2  502    0  0.75867835230E+03  0.89970373612E+03  0.11528649003E+04  0.19190199277E+04  0.98411399213E+03 0.  0.
   -9000010    2    1    2    0  501 -0.75867835230E+03 -0.89970373612E+03 -0.95230042126E+02  0.15691687722E+04  0.10335193369E+04 0.  0.
        -13    1    3    3    0    0 -0.17447537768E+03 -0.18881532835E+02  0.16567322741E+01  0.17550192485E+03  0.10566000000E+00 0.  1.
          4    1    3    3  502    0  0.93315372998E+03  0.91858526896E+03  0.11512081680E+04  0.17435180029E+04  0.00000000000E+00 0.  1.
         13    1    4    4    0    0 -0.56920711269E+03 -0.12620747723E+01  0.20210490877E+03  0.60402378702E+03  0.10566000000E+00 0. -1.
         -4    1    4    4    0  501 -0.18947123961E+03 -0.89844166135E+03 -0.29733495090E+03  0.96514498523E+03  0.00000000000E+00 0. -1.
<mgrwt>
<rscale>  2 0.15501174E+04</rscale>
<asrwt>0</asrwt>
<pdfrwt beam="1">  1        2 0.34967874E+00 0.15501174E+04</pdfrwt>
<pdfrwt beam="2">  1       -2 0.18696568E+00 0.15501174E+04</pdfrwt>
<totfact> 0.92738942E-01</totfact>
</mgrwt>
</event>
<event>
 8    1  0.7046235E-006  0.1297232E+04  0.7818608E-02  0.8536733E-01
          1   -1    0    0  502    0  0.00000000000E+00  0.00000000000E+00  0.24363763689E+04  0.24363763689E+04  0.00000000000E+00 0.  1.
         -1   -1    0    0    0  501 -0.00000000000E+00 -0.00000000000E+00 -0.69123950995E+03  0.69123950995E+03  0.00000000000E+00 0. -1.
    9000010    2    1    2  502    0 -0.66953019356E+03  0.50327475354E+03  0.91799402461E+03  0.16133376173E+04  0.10288775829E+04 0.  0.
   -9000010    2    1    2    0  501  0.66953019356E+03 -0.50327475354E+03  0.82714283431E+03  0.15142782615E+04  0.95253200856E+03 0.  0.
        -13    1    3    3    0    0 -0.12158213530E+03 -0.15136652253E+03 -0.15052243840E+03  0.24566451798E+03  0.10566000000E+00 0.  1.
          4    1    3    3  502    0 -0.54794805826E+03  0.65464127607E+03  0.10685164630E+04  0.13676730993E+04  0.00000000000E+00 0.  1.
         13    1    4    4    0    0 -0.17775803641E+03 -0.30123492040E+03  0.62672584088E+02  0.35534245558E+03  0.10566000000E+00 0. -1.
         -4    1    4    4    0  501  0.84728822997E+03 -0.20203983314E+03  0.76447025022E+03  0.11589358059E+04  0.00000000000E+00 0. -1.
<mgrwt>
<rscale>  2 0.12972318E+04</rscale>
<asrwt>0</asrwt>
<pdfrwt beam="1">  1        1 0.37482713E+00 0.12972318E+04</pdfrwt>
<pdfrwt beam="2">  1       -1 0.10634454E+00 0.12972318E+04</pdfrwt>
<totfact> 0.14330638E+00</totfact>
</mgrwt>
</event>
<event>
 8    1  0.7046235E-006  0.1254259E+04  0.7818608E-02  0.8566787E-01
          2   -1    0    0  502    0  0.00000000000E+00  0.00000000000E+00  0.13646864576E+04  0.13646864576E+04  0.00000000000E+00 0. -1.
         -2   -1    0    0    0  501 -0.00000000000E+00 -0.00000000000E+00 -0.12472549711E+04  0.12472549711E+04  0.00000000000E+00 0.  1.
    9000010    2    1    2  502    0 -0.40846353007E+03 -0.64249216772E+03 -0.30059632067E+03  0.12927094975E+04  0.10005503765E+04 0.  0.
   -9000010    2    1    2    0  501  0.40846353007E+03  0.64249216772E+03  0.41802780716E+03  0.13192319312E+04  0.99296878092E+03 0.  0.
        -13    1    3    3    0    0  0.61536161002E+02 -0.63254603881E+03 -0.47274198368E+03  0.79207713300E+03  0.10566000000E+00 0.  1.
          4    1    3    3  502    0 -0.46999969107E+03 -0.99461289070E+01  0.17214566301E+03  0.50063236450E+03  0.00000000000E+00 0.  1.
         13    1    4    4    0    0 -0.28035525116E+03 -0.38061873089E+02  0.96944330912E+02  0.29907522046E+03  0.10566000000E+00 0. -1.
         -4    1    4    4    0  501  0.68881878123E+03  0.68055404081E+03  0.32108347625E+03  0.10201567108E+04  0.00000000000E+00 0. -1.
<mgrwt>
<rscale>  2 0.12542586E+04</rscale>
<asrwt>0</asrwt>
<pdfrwt beam="1">  1        2 0.20995176E+00 0.12542586E+04</pdfrwt>
<pdfrwt beam="2">  1       -2 0.19188538E+00 0.12542586E+04</pdfrwt>
<totfact> 0.27413030E+00</totfact>
</mgrwt>
</event>
<event>
 8    1  0.7046235E-006  0.1595778E+04  0.7818608E-02  0.8356415E-01
         -2   -1    0    0    0  501 -0.00000000000E+00  0.00000000000E+00  0.10774564175E+04  0.10774564175E+04  0.00000000000E+00 0.  1.
          2   -1    0    0  502    0  0.00000000000E+00 -0.00000000000E+00 -0.23682556123E+04  0.23682556123E+04  0.00000000000E+00 0. -1.
    9000010    2    1    2  502    0 -0.77896116766E+03 -0.90380059773E+03 -0.70293643767E+03  0.17156724508E+04  0.10128061521E+04 0.  0.
   -9000010    2    1    2    0  501  0.77896116766E+03  0.90380059773E+03 -0.58786275719E+03  0.17300395790E+04  0.11062632157E+04 0.  0.
        -13    1    3    3    0    0 -0.68789340348E+03 -0.20305215459E+03  0.24183850007E+01  0.71724010749E+03  0.10566000000E+00 0.  1.
          4    1    3    3  502    0 -0.91067764183E+02 -0.70074844314E+03 -0.70535482268E+03  0.99843234328E+03  0.00000000000E+00 0.  1.
         13    1    4    4    0    0  0.36676341503E+02 -0.25129997023E+03 -0.98597828395E+02  0.27243049020E+03  0.10566000000E+00 0. -1.
         -4    1    4    4    0  501  0.74228482616E+03  0.11551005680E+04 -0.48926492880E+03  0.14576090888E+04  0.00000000000E+00 0. -1.
<mgrwt>
<rscale>  2 0.15957784E+04</rscale>
<asrwt>0</asrwt>
<pdfrwt beam="2">  1        2 0.36434702E+00 0.15957784E+04</pdfrwt>
<pdfrwt beam="1">  1       -2 0.16576253E+00 0.15957784E+04</pdfrwt>
<totfact> 0.12318756E+00</totfact>
</mgrwt>
</event>
<event>
 8    1  0.7046235E-006  0.1083336E+04  0.7818608E-02  0.8700005E-01
         -2   -1    0    0    0  501 -0.00000000000E+00  0.00000000000E+00  0.12416649643E+04  0.12416649643E+04  0.00000000000E+00 0.  1.
          2   -1    0    0  502    0  0.00000000000E+00 -0.00000000000E+00 -0.10442790448E+04  0.10442790448E+04  0.00000000000E+00 0. -1.
    9000010    2    1    2  502    0 -0.51686536088E+02  0.42414501059E+03 -0.25307631365E+03  0.11158306820E+04  0.99922970455E+03 0.  0.
   -9000010    2    1    2    0  501  0.51686536088E+02 -0.42414501059E+03  0.45046223315E+03  0.11701133270E+04  0.99180566976E+03 0.  0.
        -13    1    3    3    0    0 -0.15347411193E+03 -0.26951296180E+02  0.33396276642E+03  0.36852654710E+03  0.10566000000E+00 0.  1.
          4    1    3    3  502    0  0.10178757584E+03  0.45109630677E+03 -0.58703908007E+03  0.74730413495E+03  0.00000000000E+00 0.  1.
         13    1    4    4    0    0  0.30560485602E+03 -0.17228541814E+03  0.66585278762E+03  0.75261978401E+03  0.10566000000E+00 0. -1.
         -4    1    4    4    0  501 -0.25391831993E+03 -0.25185959245E+03 -0.21539055447E+03  0.41749354302E+03  0.00000000000E+00 0. -1.
<mgrwt>
<rscale>  2 0.10833358E+04</rscale>
<asrwt>0</asrwt>
<pdfrwt beam="2">  1        2 0.16065831E+00 0.10833358E+04</pdfrwt>
<pdfrwt beam="1">  1       -2 0.19102538E+00 0.10833358E+04</pdfrwt>
<totfact> 0.43283300E+00</totfact>
</mgrwt>
</event>
<event>
 8    1  0.7046235E-006  0.1024259E+04  0.7818608E-02  0.8752127E-01
          1   -1    0    0  502    0  0.00000000000E+00  0.00000000000E+00  0.13793813880E+04  0.13793813880E+04  0.00000000000E+00 0.  1.
         -1   -1    0    0    0  501 -0.00000000000E+00 -0.00000000000E+00 -0.78835739952E+03  0.78835739952E+03  0.00000000000E+00 0. -1.
    9000010    2    1    2  502    0 -0.23309957099E+03  0.99060062101E+02  0.49881258344E+03  0.11385753936E+04  0.99166104473E+03 0.  0.
   -9000010    2    1    2    0  501  0.23309957099E+03 -0.99060062101E+02  0.92211405007E+02  0.10291633939E+04  0.99324017348E+03 0.  0.
        -13    1    3    3    0    0  0.56881863255E+02 -0.41409740257E+03  0.10917635865E+03  0.43200890458E+03  0.10566000000E+00 0.  1.
          4    1    3    3  502    0 -0.28998143424E+03  0.51315746467E+03  0.38963622479E+03  0.70656648903E+03  0.00000000000E+00 0.  1.
         13    1    4    4    0    0 -0.14272622998E+03  0.26738952440E+03  0.33418763669E+03  0.45116440702E+03  0.10566000000E+00 0. -1.
         -4    1    4    4    0  501  0.37582580096E+03 -0.36644958650E+03 -0.24197623169E+03  0.57799898686E+03  0.00000000000E+00 0. -1.
<mgrwt>
<rscale>  2 0.10242587E+04</rscale>
<asrwt>0</asrwt>
<pdfrwt beam="1">  1        1 0.21221252E+00 0.10242587E+04</pdfrwt>
<pdfrwt beam="2">  1       -1 0.12128575E+00 0.10242587E+04</pdfrwt>
<totfact> 0.72004020E+00</totfact>
</mgrwt>
</event>
<event>
 8    1  0.7046235E-006  0.1333045E+04  0.7818608E-02  0.8512591E-01
          2   -1    0    0  502    0  0.00000000000E+00  0.00000000000E+00  0.18977872909E+04  0.18977872909E+04  0.00000000000E+00 0.  1.
         -2   -1    0    0    0  501 -0.00000000000E+00 -0.00000000000E+00 -0.11624604995E+04  0.11624604995E+04  0.00000000000E+00 0. -1.
    9000010    2    1    2  502    0 -0.87459932989E+03 -0.19245449031E+03 -0.30870255520E+03  0.13613667019E+04  0.97778285455E+03 0.  0.
   -9000010    2    1    2    0  501  0.87459932989E+03  0.19245449031E+03  0.10440293466E+04  0.16988810885E+04  0.99711431527E+03 0.  0.
        -13    1    3    3    0    0 -0.64965885470E+02  0.17608082801E+03  0.24871720400E+03  0.31158511357E+03  0.10566000000E+00 0.  1.
          4    1    3    3  502    0 -0.80963344442E+03 -0.36853531832E+03 -0.55741975920E+03  0.10497815883E+04  0.00000000000E+00 0.  1.
         13    1    4    4    0    0  0.78309000652E+03  0.32769557981E+03  0.24528603918E+03  0.88361733999E+03  0.10566000000E+00 0. -1.
         -4    1    4    4    0  501  0.91509323368E+02 -0.13524108950E+03  0.79874330740E+03  0.81526374853E+03  0.00000000000E+00 0. -1.
<mgrwt>
<rscale>  2 0.13330448E+04</rscale>
<asrwt>0</asrwt>
<pdfrwt beam="1">  1        2 0.29196728E+00 0.13330448E+04</pdfrwt>
<pdfrwt beam="2">  1       -2 0.17884008E+00 0.13330448E+04</pdfrwt>
<totfact> 0.17825071E+00</totfact>
</mgrwt>
</event>
<event>
 8    1  0.7046235E-006  0.1351355E+04  0.7818608E-02  0.8500546E-01
         -2   -1    0    0    0  501 -0.00000000000E+00  0.00000000000E+00  0.10581847858E+04  0.10581847858E+04  0.00000000000E+00 0. -1.
          2   -1    0    0  502    0  0.00000000000E+00 -0.00000000000E+00 -0.21326562794E+04  0.21326562794E+04  0.00000000000E+00 0.  1.
    9000010    2    1    2  502    0  0.90491751097E+03  0.10270954563E+03 -0.12356280656E+04  0.18346151645E+04  0.10047940749E+04 0.  0.
   -9000010    2    1    2    0  501 -0.90491751097E+03 -0.10270954563E+03  0.16115657201E+03  0.13562259008E+04  0.99194369842E+03 0.  0.
        -13    1    3    3    0    0  0.61281127725E+02  0.69577140308E+02 -0.93320371829E+03  0.93779824380E+03  0.10566000000E+00 0.  1.
          4    1    3    3  502    0  0.84363638325E+03  0.33132405318E+02 -0.30242434732E+03  0.89681692071E+03  0.00000000000E+00 0.  1.
         13    1    4    4    0    0 -0.58328195159E+03  0.38814446460E+03 -0.11096804004E+03  0.70935736940E+03  0.10566000000E+00 0. -1.
         -4    1    4    4    0  501 -0.32163555938E+03 -0.49085401022E+03  0.27212461205E+03  0.64686853138E+03  0.00000000000E+00 0. -1.
<mgrwt>
<rscale>  2 0.13513555E+04</rscale>
<asrwt>0</asrwt>
<pdfrwt beam="2">  1        2 0.32810096E+00 0.13513555E+04</pdfrwt>
<pdfrwt beam="1">  1       -2 0.16279766E+00 0.13513555E+04</pdfrwt>
<totfact> 0.18059045E+00</totfact>
</mgrwt>
</event>
<event>
 8    1  0.7046235E-006  0.1077672E+04  0.7818608E-02  0.8704851E-01
          1   -1    0    0  502    0  0.00000000000E+00  0.00000000000E+00  0.95622859480E+03  0.95622859480E+03  0.00000000000E+00 0.  1.
         -1   -1    0    0    0  501 -0.00000000000E+00 -0.00000000000E+00 -0.14842294229E+04  0.14842294229E+04  0.00000000000E+00 0. -1.
    9000010    2    1    2  502    0  0.40658230948E+03  0.82302161193E+00  0.25806780789E+03  0.10982553007E+04  0.98704400115E+03 0.  0.
   -9000010    2    1    2    0  501 -0.40658230948E+03 -0.82302161193E+00 -0.78606863604E+03  0.13422027171E+04  0.10091057335E+04 0.  0.
        -13    1    3    3    0    0 -0.22467179964E+03 -0.27529092420E+02 -0.21244367552E+03  0.31043130466E+03  0.10566000000E+00 0.  1.
          4    1    3    3  502    0  0.63125410912E+03  0.28352114032E+02  0.47051148342E+03  0.78782399600E+03  0.00000000000E+00 0.  1.
         13    1    4    4    0    0 -0.53138979456E+03 -0.28916967173E+02  0.13615659203E+02  0.53235016868E+03  0.10566000000E+00 0. -1.
         -4    1    4    4    0  501  0.12480748508E+03  0.28093945561E+02 -0.79968429524E+03  0.80985254841E+03  0.00000000000E+00 0. -1.
<mgrwt>
<rscale>  2 0.10776717E+04</rscale>
<asrwt>0</asrwt>
<pdfrwt beam="1">  1        1 0.14711209E+00 0.10776717E+04</pdfrwt>
<pdfrwt beam="2">  1       -1 0.22834299E+00 0.10776717E+04</pdfrwt>
<totfact> 0.17271128E+00</totfact>
</mgrwt>
</event>
<event>
 8    1  0.7046235E-006  0.1257266E+04  0.7818608E-02  0.8564644E-01
          2   -1    0    0  502    0  0.00000000000E+00  0.00000000000E+00  0.15579175342E+04  0.15579175342E+04  0.00000000000E+00 0.  1.
         -2   -1    0    0    0  501 -0.00000000000E+00 -0.00000000000E+00 -0.10605279260E+04  0.10605279260E+04  0.00000000000E+00 0. -1.
    9000010    2    1    2  502    0  0.57826406188E+03 -0.50016146481E+03 -0.23092719972E+02  0.12603672969E+04  0.10017193385E+04 0.  0.
   -9000010    2    1    2    0  501 -0.57826406188E+03  0.50016146481E+03  0.52048232822E+03  0.13580781633E+04  0.99444639252E+03 0.  0.
        -13    1    3    3    0    0  0.28518140417E+03  0.13782842083E+03 -0.36179117939E+03  0.48085130292E+03  0.10566000000E+00 0.  1.
          4    1    3    3  502    0  0.29308265771E+03 -0.63798988564E+03  0.33869845942E+03  0.77951599396E+03  0.00000000000E+00 0.  1.
         13    1    4    4    0    0 -0.52072157641E+03  0.64935558225E+03  0.72127921913E+03  0.11013888303E+04  0.10566000000E+00 0. -1.
         -4    1    4    4    0  501 -0.57542485469E+02 -0.14919411744E+03 -0.20079689091E+03  0.25668933307E+03  0.00000000000E+00 0. -1.
<mgrwt>
<rscale>  2 0.12572656E+04</rscale>
<asrwt>0</asrwt>
<pdfrwt beam="1">  1        2 0.23967962E+00 0.12572656E+04</pdfrwt>
<pdfrwt beam="2">  1       -2 0.16315814E+00 0.12572656E+04</pdfrwt>
<totfact> 0.37310141E+00</totfact>
</mgrwt>
</event>
<event>
 8    1  0.7046235E-006  0.1109823E+04  0.7818608E-02  0.8677749E-01
         -1   -1    0    0    0  501 -0.00000000000E+00  0.00000000000E+00  0.13276445911E+04  0.13276445911E+04  0.00000000000E+00 0. -1.
          1   -1    0    0  502    0  0.00000000000E+00 -0.00000000000E+00 -0.94868572771E+03  0.94868572771E+03  0.00000000000E+00 0.  1.
    9000010    2    1    2  502    0  0.38997996200E+03  0.14390948651E+03  0.35927957485E+03  0.11707176170E+04  0.10337812219E+04 0.  0.
   -9000010    2    1    2    0  501 -0.38997996200E+03 -0.14390948651E+03  0.19679288495E+02  0.11056127018E+04  0.10243035980E+04 0.  0.
        -13    1    3    3    0    0  0.24502190675E+03  0.71145481509E+02  0.72610852898E+03  0.76963044466E+03  0.10566000000E+00 0.  1.
          4    1    3    3  502    0  0.14495805525E+03  0.72764005003E+02 -0.36682895413E+03  0.40108717231E+03  0.00000000000E+00 0.  1.
         13    1    4    4    0    0  0.10462063314E+03 -0.36294634637E+03 -0.29548117863E+03  0.47956716454E+03  0.10566000000E+00 0. -1.
         -4    1    4    4    0  501 -0.49460059514E+03  0.21903685985E+03  0.31516046712E+03  0.62604553726E+03  0.00000000000E+00 0. -1.
<mgrwt>
<rscale>  2 0.11098227E+04</rscale>
<asrwt>0</asrwt>
<pdfrwt beam="2">  1        1 0.14595165E+00 0.11098227E+04</pdfrwt>
<pdfrwt beam="1">  1       -1 0.20425301E+00 0.11098227E+04</pdfrwt>
<totfact> 0.29049305E+00</totfact>
</mgrwt>
</event>
<event>
 8    1  0.7046235E-006  0.1201731E+04  0.7818608E-02  0.8605260E-01
         -2   -1    0    0    0  501 -0.00000000000E+00  0.00000000000E+00  0.60860893025E+03  0.60860893025E+03  0.00000000000E+00 0. -1.
          2   -1    0    0  502    0  0.00000000000E+00 -0.00000000000E+00 -0.23979903445E+04  0.23979903445E+04  0.00000000000E+00 0.  1.
    9000010    2    1    2  502    0 -0.37200009959E+03 -0.44996485889E+03 -0.71835290426E+03  0.13623634197E+04  0.99957528181E+03 0.  0.
   -9000010    2    1    2    0  501  0.37200009959E+03  0.44996485889E+03 -0.10710285100E+04  0.16442358550E+04  0.11025230290E+04 0.  0.
        -13    1    3    3    0    0  0.25847150996E+03 -0.17978918190E+03  0.64639280823E+02  0.32141860428E+03  0.10566000000E+00 0.  1.
          4    1    3    3  502    0 -0.63047160955E+03 -0.27017567699E+03 -0.78299218509E+03  0.10409448154E+04  0.00000000000E+00 0.  1.
         13    1    4    4    0    0  0.12039113206E+02  0.23634382655E+03 -0.11866238397E+04  0.12099915259E+04  0.10566000000E+00 0. -1.
         -4    1    4    4    0  501  0.35996098639E+03  0.21362103235E+03  0.11559532967E+03  0.43424432918E+03  0.00000000000E+00 0. -1.
<mgrwt>
<rscale>  2 0.12017314E+04</rscale>
<asrwt>0</asrwt>
<pdfrwt beam="2">  1        2 0.36892158E+00 0.12017314E+04</pdfrwt>
<pdfrwt beam="1">  1       -2 0.93632147E-01 0.12017314E+04</pdfrwt>
<totfact> 0.59199050E+00</totfact>
</mgrwt>
</event>
<event>
 8    1  0.7046235E-006  0.1387499E+04  0.7818608E-02  0.8477339E-01
          2   -1    0    0  502    0  0.00000000000E+00  0.00000000000E+00  0.13759952421E+04  0.13759952421E+04  0.00000000000E+00 0.  1.
         -2   -1    0    0    0  501 -0.00000000000E+00 -0.00000000000E+00 -0.14072410708E+04  0.14072410708E+04  0.00000000000E+00 0. -1.
    9000010    2    1    2  502    0  0.64804106650E+03 -0.69897616031E+03 -0.12128660680E+03  0.13875318757E+04  0.10010041801E+04 0.  0.
   -9000010    2    1    2    0  501 -0.64804106650E+03  0.69897616031E+03  0.90040778157E+02  0.13957044372E+04  0.10155582887E+04 0.  0.
        -13    1    3    3    0    0  0.16080066752E+03  0.14708042369E+03 -0.32391652664E+03  0.39039906904E+03  0.10566000000E+00 0.  1.
          4    1    3    3  502    0  0.48724039897E+03 -0.84605658399E+03  0.20262991984E+03  0.99713280666E+03  0.00000000000E+00 0.  1.
         13    1    4    4    0    0 -0.33705417359E+03  0.57241604637E+03  0.52467278139E+03  0.84649110142E+03  0.10566000000E+00 0. -1.
         -4    1    4    4    0  501 -0.31098689291E+03  0.12656011393E+03 -0.43463200324E+03  0.54921333581E+03  0.00000000000E+00 0. -1.
<mgrwt>
<rscale>  2 0.13874988E+04</rscale>
<asrwt>0</asrwt>
<pdfrwt beam="1">  1        2 0.21169158E+00 0.13874988E+04</pdfrwt>
<pdfrwt beam="2">  1       -2 0.21649863E+00 0.13874988E+04</pdfrwt>
<totfact> 0.16696908E+00</totfact>
</mgrwt>
</event>
<event>
 8    1  0.7046235E-006  0.2988303E+04  0.7818608E-02  0.7854039E-01
          2   -1    0    0  502    0  0.00000000000E+00  0.00000000000E+00  0.30454620226E+04  0.30454620226E+04  0.00000000000E+00 0.  1.
         -2   -1    0    0    0  501 -0.00000000000E+00 -0.00000000000E+00 -0.36866879361E+04  0.36866879361E+04  0.00000000000E+00 0. -1.
    9000010    2    1    2  502    0 -0.26170189203E+04 -0.10283065726E+04 -0.18435121387E+04  0.35127547587E+04  0.10172052659E+04 0.  0.
   -9000010    2    1    2    0  501  0.26170189203E+04  0.10283065726E+04  0.12022862253E+04  0.32193952000E+04  0.10063850407E+04 0.  0.
        -13    1    3    3    0    0 -0.15952317792E+04 -0.25421201809E+03 -0.58972117770E+03  0.17196392814E+04  0.10566000000E+00 0.  1.
          4    1    3    3  502    0 -0.10217871410E+04 -0.77409455454E+03 -0.12537909610E+04  0.17931154773E+04  0.00000000000E+00 0.  1.
         13    1    4    4    0    0  0.21050669526E+04  0.88692952729E+03  0.49910009658E+03  0.23381727436E+04  0.10566000000E+00 0. -1.
         -4    1    4    4    0  501  0.51195196763E+03  0.14137704534E+03  0.70318612869E+03  0.88122245641E+03  0.00000000000E+00 0. -1.
<mgrwt>
<rscale>  2 0.29883029E+04</rscale>
<asrwt>0</asrwt>
<pdfrwt beam="1">  1        2 0.46853262E+00 0.29883029E+04</pdfrwt>
<pdfrwt beam="2">  1       -2 0.56718276E+00 0.29883029E+04</pdfrwt>
<totfact> 0.98232252E-03</totfact>
</mgrwt>
</event>
<event>
 8    1  0.7046235E-006  0.1197033E+04  0.7818608E-02  0.8608800E-01
         -1   -1    0    0    0  501 -0.00000000000E+00  0.00000000000E+00  0.58329607215E+03  0.58329607215E+03  0.00000000000E+00 0. -1.
          1   -1    0    0  502    0  0.00000000000E+00 -0.00000000000E+00 -0.25508334198E+04  0.25508334198E+04  0.00000000000E+00 0.  1.
    9000010    2    1    2  502    0  0.23971411108E+03 -0.61188469698E+03 -0.12798802600E+04  0.17480647003E+04  0.99285999970E+03 0.  0.
   -9000010    2    1    2    0  501 -0.23971411108E+03  0.61188469698E+03 -0.68765708771E+03  0.13860647917E+04  0.10081853000E+04 0.  0.
        -13    1    3    3    0    0 -0.29352924739E+03 -0.54200465991E+03 -0.89505157516E+03  0.10867593127E+04  0.10566000000E+00 0.  1.
          4    1    3    3  502    0  0.53324335847E+03 -0.69880037076E+02 -0.38482868481E+03  0.66130538754E+03  0.00000000000E+00 0.  1.
         13    1    4    4    0    0 -0.26285561347E+03  0.42628356419E+03 -0.94407151408E+03  0.10686822659E+04  0.10566000000E+00 0. -1.
         -4    1    4    4    0  501  0.23141502394E+02  0.18560113280E+03  0.25641442637E+03  0.31738252579E+03  0.00000000000E+00 0. -1.
<mgrwt>
<rscale>  2 0.11970330E+04</rscale>
<asrwt>0</asrwt>
<pdfrwt beam="2">  1        1 0.39243591E+00 0.11970330E+04</pdfrwt>
<pdfrwt beam="1">  1       -1 0.89737858E-01 0.11970330E+04</pdfrwt>
<totfact> 0.16508050E+00</totfact>
</mgrwt>
</event>
<event>
 8    1  0.7046235E-006  0.1363354E+04  0.7818608E-02  0.8492760E-01
          2   -1    0    0  502    0  0.00000000000E+00  0.00000000000E+00  0.29372104341E+04  0.29372104341E+04  0.00000000000E+00 0.  1.
         -2   -1    0    0    0  501 -0.00000000000E+00 -0.00000000000E+00 -0.63296184728E+03  0.63296184728E+03  0.00000000000E+00 0. -1.
    9000010    2    1    2  502    0  0.37063395580E+03 -0.84403850504E+03  0.11787892660E+04  0.18024872658E+04  0.10048112671E+04 0.  0.
   -9000010    2    1    2    0  501 -0.37063395580E+03  0.84403850504E+03  0.11254593208E+04  0.17676850156E+04  0.10041320154E+04 0.  0.
        -13    1    3    3    0    0 -0.29065969504E+02  0.14650731532E+02 -0.15958324140E+03  0.16286895536E+03  0.10566000000E+00 0.  1.
          4    1    3    3  502    0  0.39969992531E+03 -0.85868923658E+03  0.13383725074E+04  0.16396183104E+04  0.00000000000E+00 0.  1.
         13    1    4    4    0    0 -0.45497095342E+03  0.85324132178E+03  0.41513113764E+03  0.10523085072E+04  0.10566000000E+00 0. -1.
         -4    1    4    4    0  501  0.84336997617E+02 -0.92028167331E+01  0.71032818320E+03  0.71537650846E+03  0.00000000000E+00 0. -1.
<mgrwt>
<rscale>  2 0.13633539E+04</rscale>
<asrwt>0</asrwt>
<pdfrwt beam="1">  1        2 0.45187852E+00 0.13633539E+04</pdfrwt>
<pdfrwt beam="2">  1       -2 0.97378747E-01 0.13633539E+04</pdfrwt>
<totfact> 0.25763224E+00</totfact>
</mgrwt>
</event>
<event>
 8    1  0.7046235E-006  0.1128084E+04  0.7818608E-02  0.8662778E-01
         -2   -1    0    0    0  501 -0.00000000000E+00  0.00000000000E+00  0.47105708699E+04  0.47105708699E+04  0.00000000000E+00 0.  1.
          2   -1    0    0  502    0  0.00000000000E+00 -0.00000000000E+00 -0.27485005450E+03  0.27485005450E+03  0.00000000000E+00 0. -1.
    9000010    2    1    2  502    0  0.59815861062E+03  0.14171011307E-01  0.25968840399E+04  0.28441285213E+04  0.99371354283E+03 0.  0.
   -9000010    2    1    2    0  501 -0.59815861062E+03 -0.14171011307E-01  0.18388367755E+04  0.21412924031E+04  0.91979277287E+03 0.  0.
        -13    1    3    3    0    0  0.36315136179E+03  0.38814409740E+03  0.62381529577E+03  0.81956103269E+03  0.10566000000E+00 0.  1.
          4    1    3    3  502    0  0.23500724883E+03 -0.38812992639E+03  0.19730687441E+04  0.20245674886E+04  0.00000000000E+00 0.  1.
         13    1    4    4    0    0 -0.32329190702E+03  0.24237824162E+03  0.17032752547E+04  0.17505460501E+04  0.10566000000E+00 0. -1.
         -4    1    4    4    0  501 -0.27486670360E+03 -0.24239241263E+03  0.13556152078E+03  0.39074635297E+03  0.00000000000E+00 0. -1.
<mgrwt>
<rscale>  2 0.11280836E+04</rscale>
<asrwt>0</asrwt>
<pdfrwt beam="2">  1        2 0.42284627E-01 0.11280836E+04</pdfrwt>
<pdfrwt beam="1">  1       -2 0.72470315E+00 0.11280836E+04</pdfrwt>
<totfact> 0.95558442E-02</totfact>
</mgrwt>
</event>
<event>
 8    1  0.7046235E-006  0.1064149E+04  0.7818608E-02  0.8716546E-01
          2   -1    0    0  502    0  0.00000000000E+00  0.00000000000E+00  0.17892551312E+04  0.17892551312E+04  0.00000000000E+00 0. -1.
         -2   -1    0    0    0  501 -0.00000000000E+00 -0.00000000000E+00 -0.64241176373E+03  0.64241176373E+03  0.00000000000E+00 0.  1.
    9000010    2    1    2  502    0 -0.14295666249E+02  0.33080316290E+03  0.42635251357E+03  0.11479346632E+04  0.10130855968E+04 0.  0.
   -9000010    2    1    2    0  501  0.14295666249E+02 -0.33080316290E+03  0.72049085387E+03  0.12837322317E+04  0.10095673695E+04 0.  0.
        -13    1    3    3    0    0 -0.21785786774E+03  0.55130432625E+03 -0.39153864873E+02  0.59408042131E+03  0.10566000000E+00 0.  1.
          4    1    3    3  502    0  0.20356220149E+03 -0.22050116336E+03  0.46550637844E+03  0.55385424191E+03  0.00000000000E+00 0.  1.
         13    1    4    4    0    0 -0.26993539849E+02  0.11490739283E+03 -0.21578482147E+03  0.24595824943E+03  0.10566000000E+00 0. -1.
         -4    1    4    4    0  501  0.41289206098E+02 -0.44571055572E+03  0.93627567534E+03  0.10377739823E+04  0.00000000000E+00 0. -1.
<mgrwt>
<rscale>  2 0.10641494E+04</rscale>
<asrwt>0</asrwt>
<pdfrwt beam="1">  1        2 0.27527002E+00 0.10641494E+04</pdfrwt>
<pdfrwt beam="2">  1       -2 0.98832580E-01 0.10641494E+04</pdfrwt>
<totfact> 0.11360434E+01</totfact>
</mgrwt>
</event>
<event>
 8    1  0.7046235E-006  0.1147052E+04  0.7818608E-02  0.8647537E-01
          1   -1    0    0  502    0  0.00000000000E+00  0.00000000000E+00  0.29035983108E+04  0.29035983108E+04  0.00000000000E+00 0.  1.
         -1   -1    0    0    0  501 -0.00000000000E+00 -0.00000000000E+00 -0.49190960828E+03  0.49190960828E+03  0.00000000000E+00 0. -1.
    9000010    2    1    2  502    0  0.55009636748E+03  0.93458268669E+02  0.16847559805E+04  0.20394955042E+04  0.10048874246E+04 0.  0.
   -9000010    2    1    2    0  501 -0.55009636748E+03 -0.93458268669E+02  0.72693272199E+03  0.13560124149E+04  0.99949888725E+03 0.  0.
        -13    1    3    3    0    0  0.74852295434E+03  0.32880644174E+03  0.13940018963E+04  0.16160574208E+04  0.10566000000E+00 0.  1.
          4    1    3    3  502    0 -0.19842658686E+03 -0.23534817307E+03  0.29075408427E+03  0.42343808338E+03  0.00000000000E+00 0.  1.
         13    1    4    4    0    0 -0.24425746436E+03  0.34460600578E+03 -0.36762433392E+02  0.42398879206E+03  0.10566000000E+00 0. -1.
         -4    1    4    4    0  501 -0.30583890312E+03 -0.43806427445E+03  0.76369515538E+03  0.93202362286E+03  0.00000000000E+00 0. -1.
<mgrwt>
<rscale>  2 0.11470518E+04</rscale>
<asrwt>0</asrwt>
<pdfrwt beam="1">  1        1 0.44670742E+00 0.11470518E+04</pdfrwt>
<pdfrwt beam="2">  1       -1 0.75678403E-01 0.11470518E+04</pdfrwt>
<totfact> 0.10573098E+00</totfact>
</mgrwt>
</event>
<event>
 8    1  0.7046235E-006  0.1672666E+04  0.7818608E-02  0.8316517E-01
          2   -1    0    0  502    0  0.00000000000E+00  0.00000000000E+00  0.34268593013E+04  0.34268593013E+04  0.00000000000E+00 0. -1.
         -2   -1    0    0    0  501 -0.00000000000E+00 -0.00000000000E+00 -0.83578984319E+03  0.83578984319E+03  0.00000000000E+00 0.  1.
    9000010    2    1    2  502    0 -0.11534755817E+04  0.66756345294E+03  0.16210714266E+04  0.23304602406E+04  0.10134226569E+04 0.  0.
   -9000010    2    1    2    0  501  0.11534755817E+04 -0.66756345294E+03  0.96999803146E+03  0.19321889039E+04  0.10081224618E+04 0.  0.
        -13    1    3    3    0    0 -0.78101676642E+03  0.92611960153E+03  0.10656432503E+04  0.16134683925E+04  0.10566000000E+00 0.  1.
          4    1    3    3  502    0 -0.37245881528E+03 -0.25855614859E+03  0.55542817637E+03  0.71699184804E+03  0.00000000000E+00 0.  1.
         13    1    4    4    0    0  0.46148643025E+03 -0.43180110142E+03  0.10194617211E+04  0.11994682690E+04  0.10566000000E+00 0. -1.
         -4    1    4    4    0  501  0.69198915145E+03 -0.23576235152E+03 -0.49463689644E+02  0.73272063484E+03  0.00000000000E+00 0. -1.
<mgrwt>
<rscale>  2 0.16726655E+04</rscale>
<asrwt>0</asrwt>
<pdfrwt beam="1">  1        2 0.52720912E+00 0.16726655E+04</pdfrwt>
<pdfrwt beam="2">  1       -2 0.12858305E+00 0.16726655E+04</pdfrwt>
<totfact> 0.58442951E-01</totfact>
</mgrwt>
</event>
<event>
 8    1  0.7046235E-006  0.1521069E+04  0.7818608E-02  0.8397476E-01
         -2   -1    0    0    0  501 -0.00000000000E+00  0.00000000000E+00  0.31062098277E+04  0.31062098277E+04  0.00000000000E+00 0.  1.
          2   -1    0    0  502    0  0.00000000000E+00 -0.00000000000E+00 -0.11082352877E+04  0.11082352877E+04  0.00000000000E+00 0. -1.
    9000010    2    1    2  502    0 -0.55412100619E+01  0.11193878674E+04  0.22141479199E+04  0.26976869749E+04  0.10592469497E+04 0.  0.
   -9000010    2    1    2    0  501  0.55412100619E+01 -0.11193878674E+04 -0.21617337980E+03  0.15167581405E+04  0.10003821391E+04 0.  0.
        -13    1    3    3    0    0  0.47596474137E+02  0.11343424037E+04  0.10955530426E+04  0.15777308368E+04  0.10566000000E+00 0.  1.
          4    1    3    3  502    0 -0.53137684199E+02 -0.14954536311E+02  0.11185948773E+04  0.11199561380E+04  0.00000000000E+00 0.  1.
         13    1    4    4    0    0 -0.62726846073E+02 -0.24194249600E+02 -0.39872877886E+03  0.40435710602E+03  0.10566000000E+00 0. -1.
         -4    1    4    4    0  501  0.68268056134E+02 -0.10951936178E+04  0.18255539907E+03  0.11124010345E+04  0.00000000000E+00 0. -1.
<mgrwt>
<rscale>  2 0.15210688E+04</rscale>
<asrwt>0</asrwt>
<pdfrwt beam="2">  1        2 0.17049774E+00 0.15210688E+04</pdfrwt>
<pdfrwt beam="1">  1       -2 0.47787843E+00 0.15210688E+04</pdfrwt>
<totfact> 0.87697050E-02</totfact>
</mgrwt>
</event>
<event>
 8    1  0.7046235E-006  0.1037125E+04  0.7818608E-02  0.8740470E-01
         -2   -1    0    0    0  501 -0.00000000000E+00  0.00000000000E+00  0.37669485353E+03  0.37669485353E+03  0.00000000000E+00 0.  1.
          2   -1    0    0  502    0  0.00000000000E+00 -0.00000000000E+00 -0.29046395907E+04  0.29046395907E+04  0.00000000000E+00 0. -1.
    9000010    2    1    2  502    0 -0.19870579246E+03  0.17821003899E+03 -0.10532251850E+04  0.14797618524E+04  0.10045740588E+04 0.  0.
   -9000010    2    1    2    0  501  0.19870579246E+03 -0.17821003899E+03 -0.14747195522E+04  0.18015725918E+04  0.99981160031E+03 0.  0.
        -13    1    3    3    0    0 -0.36445167837E+02 -0.33233104763E+03 -0.83837703087E+03  0.90257865726E+03  0.10566000000E+00 0.  1.
          4    1    3    3  502    0 -0.16226062463E+03  0.51054108662E+03 -0.21484815413E+03  0.57718319515E+03  0.00000000000E+00 0.  1.
         13    1    4    4    0    0 -0.95800758054E+02 -0.55112792645E+03 -0.81700477370E+03  0.99015988000E+03  0.10566000000E+00 0. -1.
         -4    1    4    4    0  501  0.29450655052E+03  0.37291788746E+03 -0.65771477847E+03  0.81141271182E+03  0.00000000000E+00 0. -1.
<mgrwt>
<rscale>  2 0.10371250E+04</rscale>
<asrwt>0</asrwt>
<pdfrwt beam="2">  1        2 0.44686762E+00 0.10371250E+04</pdfrwt>
<pdfrwt beam="1">  1       -2 0.57953055E-01 0.10371250E+04</pdfrwt>
<totfact> 0.86158669E+00</totfact>
</mgrwt>
</event>
<event>
 8    1  0.7046235E-006  0.1451687E+04  0.7818608E-02  0.8437859E-01
         -2   -1    0    0    0  501 -0.00000000000E+00  0.00000000000E+00  0.12940400914E+04  0.12940400914E+04  0.00000000000E+00 0. -1.
          2   -1    0    0  502    0  0.00000000000E+00 -0.00000000000E+00 -0.16549746536E+04  0.16549746536E+04  0.00000000000E+00 0.  1.
    9000010    2    1    2  502    0  0.14270415760E+03  0.10003269415E+04 -0.36801752366E+03  0.15117627983E+04  0.10625306557E+04 0.  0.
   -9000010    2    1    2    0  501 -0.14270415760E+03 -0.10003269415E+04  0.70829615082E+01  0.14372519467E+04  0.10220687470E+04 0.  0.
        -13    1    3    3    0    0 -0.35093966781E+02 -0.22473859298E+03 -0.37867008830E+02  0.23059259138E+03  0.10566000000E+00 0.  1.
          4    1    3    3  502    0  0.17779812438E+03  0.12250655344E+04 -0.33015051483E+03  0.12811702069E+04  0.00000000000E+00 0.  1.
         13    1    4    4    0    0  0.38539159387E+03 -0.76446927724E+03 -0.39320376828E+02  0.85702162147E+03  0.10566000000E+00 0. -1.
         -4    1    4    4    0  501 -0.52809575147E+03 -0.23585766422E+03  0.46403338336E+02  0.58023032522E+03  0.00000000000E+00 0. -1.
<mgrwt>
<rscale>  2 0.14516868E+04</rscale>
<asrwt>0</asrwt>
<pdfrwt beam="2">  1        2 0.25461149E+00 0.14516868E+04</pdfrwt>
<pdfrwt beam="1">  1       -2 0.19908309E+00 0.14516868E+04</pdfrwt>
<totfact> 0.16208716E+00</totfact>
</mgrwt>
</event>
<event>
 8    1  0.7046235E-006  0.1234399E+04  0.7818608E-02  0.8581100E-01
          2   -1    0    0  502    0  0.00000000000E+00  0.00000000000E+00  0.19731861041E+04  0.19731861041E+04  0.00000000000E+00 0.  1.
         -2   -1    0    0    0  501 -0.00000000000E+00 -0.00000000000E+00 -0.82278245563E+03  0.82278245563E+03  0.00000000000E+00 0. -1.
    9000010    2    1    2  502    0  0.70437083398E+03  0.92392241609E+02  0.92459000003E+03  0.15476500349E+04  0.10176833321E+04 0.  0.
   -9000010    2    1    2    0  501 -0.70437083398E+03 -0.92392241609E+02  0.22581364841E+03  0.12483185248E+04  0.10013155034E+04 0.  0.
        -13    1    3    3    0    0  0.56346038364E+03  0.24523218179E+03  0.15094136370E+02  0.61469852044E+03  0.10566000000E+00 0.  1.
          4    1    3    3  502    0  0.14091045034E+03 -0.15283994018E+03  0.90949586367E+03  0.93295151447E+03  0.00000000000E+00 0.  1.
         13    1    4    4    0    0 -0.67318854642E+03  0.31399492474E+03  0.35151999523E+03  0.82179191405E+03  0.10566000000E+00 0. -1.
         -4    1    4    4    0  501 -0.31182287567E+02 -0.40638716635E+03 -0.12570634682E+03  0.42652661073E+03  0.00000000000E+00 0. -1.
<mgrwt>
<rscale>  2 0.12343991E+04</rscale>
<asrwt>0</asrwt>
<pdfrwt beam="1">  1        2 0.30356709E+00 0.12343991E+04</pdfrwt>
<pdfrwt beam="2">  1       -2 0.12658192E+00 0.12343991E+04</pdfrwt>
<totfact> 0.47237388E+00</totfact>
</mgrwt>
</event>
<event>
 8    1  0.7046235E-006  0.1329724E+04  0.7818608E-02  0.8514796E-01
          1   -1    0    0  502    0  0.00000000000E+00  0.00000000000E+00  0.10456423285E+04  0.10456423285E+04  0.00000000000E+00 0.  1.
         -1   -1    0    0    0  501 -0.00000000000E+00 -0.00000000000E+00 -0.29211446988E+04  0.29211446988E+04  0.00000000000E+00 0. -1.
    9000010    2    1    2  502    0 -0.86817961842E+03 -0.47960731358E+02  0.34840526849E+03  0.13768431181E+04  0.10090959613E+04 0.  0.
   -9000010    2    1    2    0  501  0.86817961842E+03  0.47960731358E+02 -0.22239076387E+04  0.25899439092E+04  0.10029995942E+04 0.  0.
        -13    1    3    3    0    0 -0.91352045431E+03  0.23016547001E+03  0.48954787793E+03  0.10616745735E+04  0.10566000000E+00 0.  1.
          4    1    3    3  502    0  0.45340835885E+02 -0.27812620137E+03 -0.14114260944E+03  0.31516854457E+03  0.00000000000E+00 0.  1.
         13    1    4    4    0    0 -0.10105852338E+03 -0.23324274157E+03 -0.18321839635E+03  0.31334325199E+03  0.10566000000E+00 0. -1.
         -4    1    4    4    0  501  0.96923814180E+03  0.28120347292E+03 -0.20406892424E+04  0.22766006572E+04  0.00000000000E+00 0. -1.
<mgrwt>
<rscale>  2 0.13297244E+04</rscale>
<asrwt>0</asrwt>
<pdfrwt beam="1">  1        1 0.16086805E+00 0.13297244E+04</pdfrwt>
<pdfrwt beam="2">  1       -1 0.44940688E+00 0.13297244E+04</pdfrwt>
<totfact> 0.20417798E-01</totfact>
</mgrwt>
</event>
<event>
 8    1  0.7046235E-006  0.1112401E+04  0.7818608E-02  0.8675618E-01
         -1   -1    0    0    0  501 -0.00000000000E+00  0.00000000000E+00  0.99645247852E+03  0.99645247852E+03  0.00000000000E+00 0. -1.
          1   -1    0    0  502    0  0.00000000000E+00 -0.00000000000E+00 -0.13114235964E+04  0.13114235964E+04  0.00000000000E+00 0.  1.
    9000010    2    1    2  502    0 -0.42469055116E+03  0.16924392684E+03 -0.42292144340E+03  0.11876117128E+04  0.10112138557E+04 0.  0.
   -9000010    2    1    2    0  501  0.42469055116E+03 -0.16924392684E+03  0.10795032550E+03  0.11202643622E+04  0.10170218274E+04 0.  0.
        -13    1    3    3    0    0 -0.33263172451E+03  0.32844785813E+03  0.22162759754E+03  0.51733998764E+03  0.10566000000E+00 0.  1.
          4    1    3    3  502    0 -0.92058826648E+02 -0.15920393129E+03 -0.64454904094E+03  0.67027172511E+03  0.00000000000E+00 0.  1.
         13    1    4    4    0    0 -0.37077988173E+02  0.28506982827E+03 -0.24928409735E+03  0.38050250532E+03  0.10566000000E+00 0. -1.
         -4    1    4    4    0  501  0.46176853933E+03 -0.45431375511E+03  0.35723442285E+03  0.73976185686E+03  0.00000000000E+00 0. -1.
<mgrwt>
<rscale>  2 0.11124005E+04</rscale>
<asrwt>0</asrwt>
<pdfrwt beam="2">  1        1 0.20175748E+00 0.11124005E+04</pdfrwt>
<pdfrwt beam="1">  1       -1 0.15330038E+00 0.11124005E+04</pdfrwt>
<totfact> 0.42105106E+00</totfact>
</mgrwt>
</event>
<event>
 8    1  0.7046235E-006  0.1144503E+04  0.7818608E-02  0.8649567E-01
         -2   -1    0    0    0  501 -0.00000000000E+00  0.00000000000E+00  0.60196755686E+03  0.60196755686E+03  0.00000000000E+00 0. -1.
          2   -1    0    0  502    0  0.00000000000E+00 -0.00000000000E+00 -0.24840610132E+04  0.24840610132E+04  0.00000000000E+00 0.  1.
    9000010    2    1    2  502    0 -0.35575672759E+03 -0.42682323060E+03 -0.14863600574E+04  0.18775940798E+04  0.10036694620E+04 0.  0.
   -9000010    2    1    2    0  501  0.35575672759E+03  0.42682323060E+03 -0.39573339892E+03  0.12084344902E+04  0.99748086433E+03 0.  0.
        -13    1    3    3    0    0 -0.13868257926E+03 -0.72683940843E+03 -0.75119236487E+03  0.10544279793E+04  0.10566000000E+00 0.  1.
          4    1    3    3  502    0 -0.21707414833E+03  0.30001617782E+03 -0.73516769256E+03  0.82316610050E+03  0.00000000000E+00 0.  1.
         13    1    4    4    0    0  0.39715384542E+03 -0.24538685108E+03 -0.19225252771E+03  0.50488308468E+03  0.10566000000E+00 0. -1.
         -4    1    4    4    0  501 -0.41397117837E+02  0.67221008168E+03 -0.20348087121E+03  0.70355140554E+03  0.00000000000E+00 0. -1.
<mgrwt>
<rscale>  2 0.11445027E+04</rscale>
<asrwt>0</asrwt>
<pdfrwt beam="2">  1        2 0.38216323E+00 0.11445027E+04</pdfrwt>
<pdfrwt beam="1">  1       -2 0.92610395E-01 0.11445027E+04</pdfrwt>
<totfact> 0.54767988E+00</totfact>
</mgrwt>
</event>
<event>
 8    1  0.7046235E-006  0.1583307E+04  0.7818608E-02  0.8363106E-01
          2   -1    0    0  502    0  0.00000000000E+00  0.00000000000E+00  0.26794283852E+04  0.26794283852E+04  0.00000000000E+00 0.  1.
         -2   -1    0    0    0  501 -0.00000000000E+00 -0.00000000000E+00 -0.94251110811E+03  0.94251110811E+03  0.00000000000E+00 0. -1.
    9000010    2    1    2  502    0  0.47151460951E+03  0.11356688478E+04  0.10223456307E+04  0.18828151529E+04  0.99384734865E+03 0.  0.
   -9000010    2    1    2    0  501 -0.47151460951E+03 -0.11356688478E+04  0.71457164635E+03  0.17391243404E+04  0.10009351001E+04 0.  0.
        -13    1    3    3    0    0  0.69562116315E+03  0.74198242400E+03  0.35701833218E+03  0.10779094678E+04  0.10566000000E+00 0.  1.
          4    1    3    3  502    0 -0.22410655364E+03  0.39368642384E+03  0.66532729852E+03  0.80490568507E+03  0.00000000000E+00 0.  1.
         13    1    4    4    0    0  0.26926990755E+03 -0.26613781236E+03  0.40758931533E+03  0.55629549648E+03  0.10566000000E+00 0. -1.
         -4    1    4    4    0  501 -0.74078451706E+03 -0.86953103548E+03  0.30698233103E+03  0.11828288439E+04  0.00000000000E+00 0. -1.
<mgrwt>
<rscale>  2 0.15833072E+04</rscale>
<asrwt>0</asrwt>
<pdfrwt beam="1">  1        2 0.41221975E+00 0.15833072E+04</pdfrwt>
<pdfrwt beam="2">  1       -2 0.14500171E+00 0.15833072E+04</pdfrwt>
<totfact> 0.12485204E+00</totfact>
</mgrwt>
</event>
<event>
 8    1  0.7046235E-006  0.1074535E+04  0.7818608E-02  0.8707548E-01
         -2   -1    0    0    0  501 -0.00000000000E+00  0.00000000000E+00  0.79217258012E+03  0.79217258012E+03  0.00000000000E+00 0.  1.
          2   -1    0    0  502    0  0.00000000000E+00 -0.00000000000E+00 -0.15045948528E+04  0.15045948528E+04  0.00000000000E+00 0. -1.
    9000010    2    1    2  502    0  0.48260203275E+03  0.11005025505E+03 -0.16202445251E+03  0.11097007361E+04  0.97988163561E+03 0.  0.
   -9000010    2    1    2    0  501 -0.48260203275E+03 -0.11005025505E+03 -0.55039782018E+03  0.11870666968E+04  0.92799450517E+03 0.  0.
        -13    1    3    3    0    0  0.97270791573E+02  0.45121465572E+03 -0.33102067759E+03  0.56800613780E+03  0.10566000000E+00 0.  1.
          4    1    3    3  502    0  0.38533124118E+03 -0.34116440067E+03  0.16899622509E+03  0.54169459828E+03  0.00000000000E+00 0.  1.
         13    1    4    4    0    0 -0.38540419415E+03 -0.47295633902E+03 -0.13101143126E+03  0.62400969366E+03  0.10566000000E+00 0. -1.
         -4    1    4    4    0  501 -0.97197838600E+02  0.36290608398E+03 -0.41938638892E+03  0.56305700318E+03  0.00000000000E+00 0. -1.
<mgrwt>
<rscale>  2 0.10745354E+04</rscale>
<asrwt>0</asrwt>
<pdfrwt beam="2">  1        2 0.23147613E+00 0.10745354E+04</pdfrwt>
<pdfrwt beam="1">  1       -2 0.12187271E+00 0.10745354E+04</pdfrwt>
<totfact> 0.95724642E+00</totfact>
</mgrwt>
</event>
<event>
 8    1  0.7046235E-006  0.2055610E+04  0.7818608E-02  0.8146119E-01
         -1   -1    0    0    0  501 -0.00000000000E+00  0.00000000000E+00  0.32087638318E+04  0.32087638318E+04  0.00000000000E+00 0.  1.
          1   -1    0    0  502    0  0.00000000000E+00 -0.00000000000E+00 -0.13192822377E+04  0.13192822377E+04  0.00000000000E+00 0. -1.
    9000010    2    1    2  502    0  0.17977325807E+04  0.21598106591E+03  0.10290280898E+04  0.22800951628E+04  0.92814055467E+03 0.  0.
   -9000010    2    1    2    0  501 -0.17977325807E+04 -0.21598106591E+03  0.86045350432E+03  0.22479509068E+04  0.10170608604E+04 0.  0.
        -13    1    3    3    0    0  0.13131521004E+04  0.34870895677E+03  0.29457238165E+03  0.13902299359E+04  0.10566000000E+00 0.  1.
          4    1    3    3  502    0  0.48458048028E+03 -0.13272789086E+03  0.73445570811E+03  0.88986522690E+03  0.00000000000E+00 0.  1.
         13    1    4    4    0    0 -0.56226163991E+02 -0.21884356089E+03  0.37878752245E+03  0.44105995510E+03  0.10566000000E+00 0. -1.
         -4    1    4    4    0  501 -0.17415064167E+04  0.28624949767E+01  0.48166598186E+03  0.18068909517E+04  0.00000000000E+00 0. -1.
<mgrwt>
<rscale>  2 0.20556104E+04</rscale>
<asrwt>0</asrwt>
<pdfrwt beam="2">  1        1 0.20296650E+00 0.20556104E+04</pdfrwt>
<pdfrwt beam="1">  1       -1 0.49365597E+00 0.20556104E+04</pdfrwt>
<totfact> 0.10108806E-01</totfact>
</mgrwt>
</event>
<event>
 8    1  0.7046235E-006  0.1711073E+04  0.7818608E-02  0.8297406E-01
          2   -1    0    0  502    0  0.00000000000E+00  0.00000000000E+00  0.21997675064E+04  0.21997675064E+04  0.00000000000E+00 0. -1.
         -2   -1    0    0    0  501 -0.00000000000E+00 -0.00000000000E+00 -0.14160891114E+04  0.14160891114E+04  0.00000000000E+00 0.  1.
    9000010    2    1    2  502    0  0.13879537637E+04  0.29940127012E+02 -0.51265272074E+02  0.17128182894E+04  0.10019013439E+04 0.  0.
   -9000010    2    1    2    0  501 -0.13879537637E+04 -0.29940127012E+02  0.83494366703E+03  0.19030383283E+04  0.99855490110E+03 0.  0.
        -13    1    3    3    0    0  0.77217804621E+02  0.31358944414E+03 -0.17274048711E+03  0.36625157458E+03  0.10566000000E+00 0.  1.
          4    1    3    3  502    0  0.13107359591E+04 -0.28364931713E+03  0.12147521503E+03  0.13465667148E+04  0.00000000000E+00 0.  1.
         13    1    4    4    0    0 -0.15454979382E+04 -0.60038247170E+02  0.78848349621E+03  0.17360514690E+04  0.10566000000E+00 0. -1.
         -4    1    4    4    0  501  0.15754417441E+03  0.30098120157E+02  0.46460170814E+02  0.16698685936E+03  0.00000000000E+00 0. -1.
<mgrwt>
<rscale>  2 0.17110725E+04</rscale>
<asrwt>0</asrwt>
<pdfrwt beam="1">  1        2 0.33842577E+00 0.17110725E+04</pdfrwt>
<pdfrwt beam="2">  1       -2 0.21785986E+00 0.17110725E+04</pdfrwt>
<totfact> 0.55570403E-01</totfact>
</mgrwt>
</event>
<event>
 8    1  0.7046235E-006  0.1889419E+04  0.7818608E-02  0.8214963E-01
          2   -1    0    0  502    0  0.00000000000E+00  0.00000000000E+00  0.48865401202E+04  0.48865401202E+04  0.00000000000E+00 0.  1.
         -2   -1    0    0    0  501 -0.00000000000E+00 -0.00000000000E+00 -0.73494510849E+03  0.73494510849E+03  0.00000000000E+00 0. -1.
    9000010    2    1    2  502    0  0.56636008537E+03 -0.15000119283E+04  0.22879913255E+04  0.29644632647E+04  0.99112996659E+03 0.  0.
   -9000010    2    1    2    0  501 -0.56636008537E+03  0.15000119283E+04  0.18636036862E+04  0.26570219640E+04  0.10079422039E+04 0.  0.
        -13    1    3    3    0    0  0.14173263123E+03 -0.13666908535E+04  0.20260970243E+04  0.24480607000E+04  0.10566000000E+00 0.  1.
          4    1    3    3  502    0  0.42462745414E+03 -0.13332107481E+03  0.26189430116E+03  0.51640256465E+03  0.00000000000E+00 0.  1.
         13    1    4    4    0    0  0.20581021018E+03  0.80837939946E+02  0.47289625055E+02  0.22611708240E+03  0.10566000000E+00 0. -1.
         -4    1    4    4    0  501 -0.77217029555E+03  0.14191739884E+04  0.18163140612E+04  0.24309048816E+04  0.00000000000E+00 0. -1.
<mgrwt>
<rscale>  2 0.18894187E+04</rscale>
<asrwt>0</asrwt>
<pdfrwt beam="1">  1        2 0.75177538E+00 0.18894187E+04</pdfrwt>
<pdfrwt beam="2">  1       -2 0.11306848E+00 0.18894187E+04</pdfrwt>
<totfact> 0.44465573E-02</totfact>
</mgrwt>
</event>
<event>
 8    1  0.7046235E-006  0.1044883E+04  0.7818608E-02  0.8733526E-01
         -2   -1    0    0    0  501 -0.00000000000E+00  0.00000000000E+00  0.79169191738E+03  0.79169191738E+03  0.00000000000E+00 0.  1.
          2   -1    0    0  502    0  0.00000000000E+00 -0.00000000000E+00 -0.15596559141E+04  0.15596559141E+04  0.00000000000E+00 0. -1.
    9000010    2    1    2  502    0  0.12158829518E+03 -0.28108573032E+03 -0.78410334354E+03  0.13064776055E+04  0.99913601628E+03 0.  0.
   -9000010    2    1    2    0  501 -0.12158829518E+03  0.28108573032E+03  0.16139346843E+02  0.10448702260E+04  0.99884954285E+03 0.  0.
        -13    1    3    3    0    0 -0.27304192354E+03 -0.29206811917E+03  0.30778004915E+02  0.40100246259E+03  0.10566000000E+00 0.  1.
          4    1    3    3  502    0  0.39463021872E+03  0.10982388850E+02 -0.81488134846E+03  0.90547514293E+03  0.00000000000E+00 0.  1.
         13    1    4    4    0    0 -0.13739048215E+03 -0.35660518072E+03 -0.10335900624E+03  0.39588697230E+03  0.10566000000E+00 0. -1.
         -4    1    4    4    0  501  0.15802186973E+02  0.63769091104E+03  0.11949835308E+03  0.64898325365E+03  0.00000000000E+00 0. -1.
<mgrwt>
<rscale>  2 0.10448825E+04</rscale>
<asrwt>0</asrwt>
<pdfrwt beam="2">  1        2 0.23994706E+00 0.10448825E+04</pdfrwt>
<pdfrwt beam="1">  1       -2 0.12179876E+00 0.10448825E+04</pdfrwt>
<totfact> 0.89768637E+00</totfact>
</mgrwt>
</event>
<event>
 8    1  0.7046235E-006  0.1190043E+04  0.7818608E-02  0.8614098E-01
          2   -1    0    0  502    0  0.00000000000E+00  0.00000000000E+00  0.20176032894E+04  0.20176032894E+04  0.00000000000E+00 0. -1.
         -2   -1    0    0    0  501 -0.00000000000E+00 -0.00000000000E+00 -0.82289571054E+03  0.82289571054E+03  0.00000000000E+00 0.  1.
    9000010    2    1    2  502    0  0.28900343883E+03  0.60783154069E+03  0.58388431281E+02  0.12040915573E+04  0.99671716148E+03 0.  0.
   -9000010    2    1    2    0  501 -0.28900343883E+03 -0.60783154069E+03  0.11363191476E+04  0.16364074426E+04  0.96624321139E+03 0.  0.
        -13    1    3    3    0    0  0.37837889872E+03 -0.15614617705E+03 -0.93922787410E+02  0.41996871403E+03  0.10566000000E+00 0.  1.
          4    1    3    3  502    0 -0.89375459888E+02  0.76397771774E+03  0.15231121869E+03  0.78412284329E+03  0.00000000000E+00 0.  1.
         13    1    4    4    0    0  0.12684715918E+02  0.18908890490E+03  0.60081805020E+03  0.62999829887E+03  0.10566000000E+00 0. -1.
         -4    1    4    4    0  501 -0.30168815475E+03 -0.79692044559E+03  0.53550109739E+03  0.10064091437E+04  0.00000000000E+00 0. -1.
<mgrwt>
<rscale>  2 0.11900428E+04</rscale>
<asrwt>0</asrwt>
<pdfrwt beam="1">  1        2 0.31040050E+00 0.11900428E+04</pdfrwt>
<pdfrwt beam="2">  1       -2 0.12659934E+00 0.11900428E+04</pdfrwt>
<totfact> 0.44878185E+00</totfact>
</mgrwt>
</event>
<event>
 8    1  0.7046235E-006  0.1120673E+04  0.7818608E-02  0.8668818E-01
          1   -1    0    0  502    0  0.00000000000E+00  0.00000000000E+00  0.11485039489E+04  0.11485039489E+04  0.00000000000E+00 0.  1.
         -1   -1    0    0    0  501 -0.00000000000E+00 -0.00000000000E+00 -0.11932433486E+04  0.11932433486E+04  0.00000000000E+00 0. -1.
    9000010    2    1    2  502    0 -0.33160521428E+03 -0.32326828730E+03 -0.36055669305E+03  0.11684733275E+04  0.10103783373E+04 0.  0.
   -9000010    2    1    2    0  501  0.33160521428E+03  0.32326828730E+03  0.31581729335E+03  0.11732739700E+04  0.10307118134E+04 0.  0.
        -13    1    3    3    0    0 -0.34437085244E+03 -0.45525676561E+03  0.19042667790E+03  0.60175770661E+03  0.10566000000E+00 0.  1.
          4    1    3    3  502    0  0.12765638161E+02  0.13198847831E+03 -0.55098337094E+03  0.56671562090E+03  0.00000000000E+00 0.  1.
         13    1    4    4    0    0  0.11358930729E+03  0.57481374277E+03 -0.14613969167E+03  0.60387928450E+03  0.10566000000E+00 0. -1.
         -4    1    4    4    0  501  0.21801590700E+03 -0.25154545547E+03  0.46195698502E+03  0.56939468550E+03  0.00000000000E+00 0. -1.
<mgrwt>
<rscale>  2 0.11206733E+04</rscale>
<asrwt>0</asrwt>
<pdfrwt beam="1">  1        1 0.17669292E+00 0.11206733E+04</pdfrwt>
<pdfrwt beam="2">  1       -1 0.18357590E+00 0.11206733E+04</pdfrwt>
<totfact> 0.30597010E+00</totfact>
</mgrwt>
</event>
<event>
 8    1  0.7046235E-006  0.1328217E+04  0.7818608E-02  0.8515799E-01
          2   -1    0    0  502    0  0.00000000000E+00  0.00000000000E+00  0.14944778068E+04  0.14944778068E+04  0.00000000000E+00 0. -1.
         -2   -1    0    0    0  501 -0.00000000000E+00 -0.00000000000E+00 -0.11887250846E+04  0.11887250846E+04  0.00000000000E+00 0.  1.
    9000010    2    1    2  502    0  0.27894005724E+03 -0.84130203094E+03  0.40588930187E+02  0.13250678576E+04  0.98415481672E+03 0.  0.
   -9000010    2    1    2    0  501 -0.27894005724E+03  0.84130203094E+03  0.26516379200E+03  0.13581350337E+04  0.99429486086E+03 0.  0.
        -13    1    3    3    0    0  0.57482531882E+03 -0.85194925800E+03  0.48573939247E+02  0.10288834356E+04  0.10566000000E+00 0.  1.
          4    1    3    3  502    0 -0.29588526159E+03  0.10647227063E+02 -0.79850090593E+01  0.29618442200E+03  0.00000000000E+00 0.  1.
         13    1    4    4    0    0  0.22143682906E+03  0.19836630001E+03  0.43405802909E+03  0.52610820373E+03  0.10566000000E+00 0. -1.
         -4    1    4    4    0  501 -0.50037688630E+03  0.64293573093E+03 -0.16889423709E+03  0.83202682996E+03  0.00000000000E+00 0. -1.
<mgrwt>
<rscale>  2 0.13282167E+04</rscale>
<asrwt>0</asrwt>
<pdfrwt beam="1">  1        2 0.22991966E+00 0.13282167E+04</pdfrwt>
<pdfrwt beam="2">  1       -2 0.18288078E+00 0.13282167E+04</pdfrwt>
<totfact> 0.27413494E+00</totfact>
</mgrwt>
</event>
<event>
 8    1  0.7046235E-006  0.1112415E+04  0.7818608E-02  0.8675606E-01
          2   -1    0    0  502    0  0.00000000000E+00  0.00000000000E+00  0.43986830407E+04  0.43986830407E+04  0.00000000000E+00 0.  1.
         -2   -1    0    0    0  501 -0.00000000000E+00 -0.00000000000E+00 -0.30253894240E+03  0.30253894240E+03  0.00000000000E+00 0. -1.
    9000010    2    1    2  502    0 -0.40682377967E+03  0.35333724166E+03  0.14711470990E+04  0.18598868437E+04  0.10022736603E+04 0.  0.
   -9000010    2    1    2    0  501  0.40682377967E+03 -0.35333724166E+03  0.26249969993E+04  0.28413351394E+04  0.94457574309E+03 0.  0.
        -13    1    3    3    0    0 -0.20084367723E+03  0.32008611833E+03  0.39216762419E+01  0.37790037911E+03  0.10566000000E+00 0.  1.
          4    1    3    3  502    0 -0.20598010245E+03  0.33251123338E+02  0.14672254228E+04  0.14819864645E+04  0.00000000000E+00 0.  1.
         13    1    4    4    0    0  0.39210271899E+03 -0.26763342483E+03  0.26907545514E+04  0.27323126211E+04  0.10566000000E+00 0. -1.
         -4    1    4    4    0  501  0.14721060687E+02 -0.85703816837E+02 -0.65757552129E+02  0.10902251836E+03  0.00000000000E+00 0. -1.
<mgrwt>
<rscale>  2 0.11124149E+04</rscale>
<asrwt>0</asrwt>
<pdfrwt beam="1">  1        2 0.67672042E+00 0.11124149E+04</pdfrwt>
<pdfrwt beam="2">  1       -2 0.46544456E-01 0.11124149E+04</pdfrwt>
<totfact> 0.90094513E-01</totfact>
</mgrwt>
</event>
<event>
 8    1  0.7046235E-006  0.1009889E+04  0.7818608E-02  0.8765355E-01
          2   -1    0    0  502    0  0.00000000000E+00  0.00000000000E+00  0.52614343777E+03  0.52614343777E+03  0.00000000000E+00 0. -1.
         -2   -1    0    0    0  501 -0.00000000000E+00 -0.00000000000E+00 -0.19972992360E+04  0.19972992360E+04  0.00000000000E+00 0.  1.
    9000010    2    1    2  502    0  0.22484885777E+03  0.14700169979E+03 -0.54258897132E+03  0.11725414383E+04  0.10041335191E+04 0.  0.
   -9000010    2    1    2    0  501 -0.22484885777E+03 -0.14700169979E+03 -0.92856682696E+03  0.13509012355E+04  0.94367965299E+03 0.  0.
        -13    1    3    3    0    0 -0.66331702094E+02  0.50597928949E+03 -0.76306955220E+02  0.51598226586E+03  0.10566000000E+00 0.  1.
          4    1    3    3  502    0  0.29118055986E+03 -0.35897758970E+03 -0.46628201610E+03  0.65655917242E+03  0.00000000000E+00 0.  1.
         13    1    4    4    0    0 -0.45580815830E+03 -0.39856370954E+03 -0.75505812621E+03  0.96784652340E+03  0.10566000000E+00 0. -1.
         -4    1    4    4    0  501  0.23095930054E+03  0.25156200975E+03 -0.17350870075E+03  0.38305471214E+03  0.00000000000E+00 0. -1.
<mgrwt>
<rscale>  2 0.10098892E+04</rscale>
<asrwt>0</asrwt>
<pdfrwt beam="1">  1        2 0.80945142E-01 0.10098892E+04</pdfrwt>
<pdfrwt beam="2">  1       -2 0.30727682E+00 0.10098892E+04</pdfrwt>
<totfact> 0.13303029E+00</totfact>
</mgrwt>
</event>
<event>
 8    1  0.7046235E-006  0.9121185E+03  0.7818608E-02  0.8861857E-01
         -2   -1    0    0    0  501 -0.00000000000E+00  0.00000000000E+00  0.59630529387E+03  0.59630529387E+03  0.00000000000E+00 0.  1.
          2   -1    0    0  502    0  0.00000000000E+00 -0.00000000000E+00 -0.15319337288E+04  0.15319337288E+04  0.00000000000E+00 0. -1.
    9000010    2    1    2  502    0 -0.34944636194E+02 -0.33045687934E+03 -0.67025465366E+03  0.10275008343E+04  0.70433925566E+03 0.  0.
   -9000010    2    1    2    0  501  0.34944636194E+02  0.33045687934E+03 -0.26537378132E+03  0.11007381884E+04  0.10152725934E+04 0.  0.
        -13    1    3    3    0    0 -0.32356026361E+03 -0.27955337409E+03 -0.19687850513E+03  0.47074673668E+03  0.10566000000E+00 0.  1.
          4    1    3    3  502    0  0.28861562742E+03 -0.50903505252E+02 -0.47337614853E+03  0.55675409763E+03  0.00000000000E+00 0.  1.
         13    1    4    4    0    0 -0.27624299219E+03 -0.21692237712E+03 -0.31140956086E+03  0.46940540494E+03  0.10566000000E+00 0. -1.
         -4    1    4    4    0  501  0.31118762838E+03  0.54737925646E+03  0.46035779540E+02  0.63133278345E+03  0.00000000000E+00 0. -1.
<mgrwt>
<rscale>  2 0.91211847E+03</rscale>
<asrwt>0</asrwt>
<pdfrwt beam="2">  1        2 0.23568211E+00 0.91211847E+03</pdfrwt>
<pdfrwt beam="1">  1       -2 0.91739278E-01 0.91211847E+03</pdfrwt>
<totfact> 0.18970664E+01</totfact>
</mgrwt>
</event>
<event>
 8    1  0.7046235E-006  0.1177567E+04  0.7818608E-02  0.8623649E-01
         -2   -1    0    0    0  501 -0.00000000000E+00  0.00000000000E+00  0.36307690643E+03  0.36307690643E+03  0.00000000000E+00 0.  1.
          2   -1    0    0  502    0  0.00000000000E+00 -0.00000000000E+00 -0.39134766454E+04  0.39134766454E+04  0.00000000000E+00 0. -1.
    9000010    2    1    2  502    0 -0.59728637591E+03  0.18433174131E+03 -0.14443426905E+04  0.18639820866E+04  0.99878636643E+03 0.  0.
   -9000010    2    1    2    0  501  0.59728637591E+03 -0.18433174131E+03 -0.21060570485E+04  0.24125714653E+04  0.99714370974E+03 0.  0.
        -13    1    3    3    0    0 -0.51244858211E+03  0.35322294356E+03 -0.27667314293E+03  0.68111528859E+03  0.10566000000E+00 0.  1.
          4    1    3    3  502    0 -0.84837793794E+02 -0.16889120225E+03 -0.11676695476E+04  0.11828667980E+04  0.00000000000E+00 0.  1.
         13    1    4    4    0    0  0.56989735777E+03 -0.55436636013E+03 -0.15808532727E+04  0.17695203137E+04  0.10566000000E+00 0. -1.
         -4    1    4    4    0  501  0.27389018137E+02  0.37003461882E+03 -0.52520377580E+03  0.64305115158E+03  0.00000000000E+00 0. -1.
<mgrwt>
<rscale>  2 0.11775666E+04</rscale>
<asrwt>0</asrwt>
<pdfrwt beam="2">  1        2 0.60207337E+00 0.11775666E+04</pdfrwt>
<pdfrwt beam="1">  1       -2 0.55857982E-01 0.11775666E+04</pdfrwt>
<totfact> 0.17221055E+00</totfact>
</mgrwt>
</event>
<event>
 8    1  0.7046235E-006  0.1283452E+04  0.7818608E-02  0.8546238E-01
         -4   -1    0    0    0  501 -0.00000000000E+00  0.00000000000E+00  0.37848044141E+04  0.37848044141E+04  0.00000000000E+00 0. -1.
          4   -1    0    0  502    0  0.00000000000E+00 -0.00000000000E+00 -0.46937519701E+03  0.46937519701E+03  0.00000000000E+00 0.  1.
    9000010    2    1    2  502    0  0.16690126866E+03  0.80198895900E+03  0.10721863284E+04  0.16647026079E+04  0.97499175688E+03 0.  0.
   -9000010    2    1    2    0  501 -0.16690126866E+03 -0.80198895900E+03  0.22432428887E+04  0.25894770032E+04  0.10011044745E+04 0.  0.
        -13    1    3    3    0    0  0.40347153350E+03  0.89018189260E+03  0.65322857231E+03  0.11755512150E+04  0.10566000000E+00 0.  1.
          4    1    3    3  502    0 -0.23657026484E+03 -0.88192933602E+02  0.41895775611E+03  0.48915139287E+03  0.00000000000E+00 0.  1.
         13    1    4    4    0    0 -0.48222913725E+03 -0.73726796681E+03  0.11429762192E+04  0.14430882317E+04  0.10566000000E+00 0. -1.
         -4    1    4    4    0  501  0.31532786858E+03 -0.64720992190E+02  0.11002666694E+04  0.11463887715E+04  0.00000000000E+00 0. -1.
<mgrwt>
<rscale>  2 0.12834523E+04</rscale>
<asrwt>0</asrwt>
<pdfrwt beam="2">  1        4 0.72211571E-01 0.12834523E+04</pdfrwt>
<pdfrwt beam="1">  1       -4 0.58227758E+00 0.12834523E+04</pdfrwt>
<totfact> 0.36253024E-02</totfact>
</mgrwt>
</event>
<event>
 8    1  0.7046235E-006  0.1140732E+04  0.7818608E-02  0.8652581E-01
         -2   -1    0    0    0  501 -0.00000000000E+00  0.00000000000E+00  0.10796634639E+04  0.10796634639E+04  0.00000000000E+00 0.  1.
          2   -1    0    0  502    0  0.00000000000E+00 -0.00000000000E+00 -0.13604033799E+04  0.13604033799E+04  0.00000000000E+00 0. -1.
    9000010    2    1    2  502    0 -0.11543411093E+03  0.59515974234E+03 -0.55039375385E+03  0.12528917797E+04  0.94829551015E+03 0.  0.
   -9000010    2    1    2    0  501  0.11543411093E+03 -0.59515974234E+03  0.26965383782E+03  0.11871750640E+04  0.98444465946E+03 0.  0.
        -13    1    3    3    0    0 -0.63961372363E+02  0.85648894629E+03 -0.40773570383E+03  0.95074328165E+03  0.10566000000E+00 0.  1.
          4    1    3    3  502    0 -0.51472738568E+02 -0.26132920395E+03 -0.14265805002E+03  0.30214849807E+03  0.00000000000E+00 0.  1.
         13    1    4    4    0    0  0.38224321819E+03 -0.41621491279E+03  0.52917192556E+03  0.77418839403E+03  0.10566000000E+00 0. -1.
         -4    1    4    4    0  501 -0.26680910726E+03 -0.17894482955E+03 -0.25951808774E+03  0.41298667000E+03  0.00000000000E+00 0. -1.
<mgrwt>
<rscale>  2 0.11407319E+04</rscale>
<asrwt>0</asrwt>
<pdfrwt beam="2">  1        2 0.20929283E+00 0.11407319E+04</pdfrwt>
<pdfrwt beam="1">  1       -2 0.16610207E+00 0.11407319E+04</pdfrwt>
<totfact> 0.45796529E+00</totfact>
</mgrwt>
</event>
<event>
 8    1  0.7046235E-006  0.1400372E+04  0.7818608E-02  0.8469248E-01
         -1   -1    0    0    0  501 -0.00000000000E+00  0.00000000000E+00  0.22429677980E+04  0.22429677980E+04  0.00000000000E+00 0. -1.
          1   -1    0    0  502    0  0.00000000000E+00 -0.00000000000E+00 -0.90522554789E+03  0.90522554789E+03  0.00000000000E+00 0.  1.
    9000010    2    1    2  502    0  0.60891413508E+03 -0.75814703224E+03  0.95767205751E+03  0.16928203805E+04  0.10014697822E+04 0.  0.
   -9000010    2    1    2    0  501 -0.60891413508E+03  0.75814703224E+03  0.38007019256E+03  0.14553729653E+04  0.10139495897E+04 0.  0.
        -13    1    3    3    0    0  0.62484660668E+03 -0.73136247436E+03  0.11492640797E+04  0.14987102078E+04  0.10566000000E+00 0.  1.
          4    1    3    3  502    0 -0.15932471605E+02 -0.26784557875E+02 -0.19159202221E+03  0.19411017276E+03  0.00000000000E+00 0.  1.
         13    1    4    4    0    0 -0.37887645387E+03 -0.79515622221E+02  0.43825175054E+03  0.58475183581E+03  0.10566000000E+00 0. -1.
         -4    1    4    4    0  501 -0.23003768121E+03  0.83766265446E+03 -0.58181557979E+02  0.87062112950E+03  0.00000000000E+00 0. -1.
<mgrwt>
<rscale>  2 0.14003717E+04</rscale>
<asrwt>0</asrwt>
<pdfrwt beam="2">  1        1 0.13926547E+00 0.14003717E+04</pdfrwt>
<pdfrwt beam="1">  1       -1 0.34507197E+00 0.14003717E+04</pdfrwt>
<totfact> 0.22884041E-01</totfact>
</mgrwt>
</event>
<event>
 8    1  0.7046235E-006  0.1010614E+04  0.7818608E-02  0.8764682E-01
         -2   -1    0    0    0  501 -0.00000000000E+00  0.00000000000E+00  0.41824900127E+03  0.41824900127E+03  0.00000000000E+00 0.  1.
          2   -1    0    0  502    0  0.00000000000E+00 -0.00000000000E+00 -0.24478002888E+04  0.24478002888E+04  0.00000000000E+00 0. -1.
    9000010    2    1    2  502    0 -0.24375024569E+03  0.20349323689E+03 -0.10855760959E+04  0.14836646346E+04  0.96018831914E+03 0.  0.
   -9000010    2    1    2    0  501  0.24375024569E+03 -0.20349323689E+03 -0.94397519168E+03  0.13823846555E+04  0.95868372970E+03 0.  0.
        -13    1    3    3    0    0 -0.19094183852E+03 -0.59591622849E+02 -0.11817945127E+04  0.11986026150E+04  0.10566000000E+00 0.  1.
          4    1    3    3  502    0 -0.52808407165E+02  0.26308485973E+03  0.96218416810E+02  0.28506201961E+03  0.00000000000E+00 0.  1.
         13    1    4    4    0    0  0.36600493377E+03 -0.42387775696E+03 -0.19639549024E+03  0.59346707082E+03  0.10566000000E+00 0. -1.
         -4    1    4    4    0  501 -0.12225468809E+03  0.22038452008E+03 -0.74757970144E+03  0.78891758470E+03  0.00000000000E+00 0. -1.
<mgrwt>
<rscale>  2 0.10106140E+04</rscale>
<asrwt>0</asrwt>
<pdfrwt beam="2">  1        2 0.37658467E+00 0.10106140E+04</pdfrwt>
<pdfrwt beam="1">  1       -2 0.64345999E-01 0.10106140E+04</pdfrwt>
<totfact> 0.12851367E+01</totfact>
</mgrwt>
</event>
<event>
 8    1  0.7046235E-006  0.1176029E+04  0.7818608E-02  0.8624835E-01
         -2   -1    0    0    0  501 -0.00000000000E+00  0.00000000000E+00  0.53772205511E+03  0.53772205511E+03  0.00000000000E+00 0. -1.
          2   -1    0    0  502    0  0.00000000000E+00 -0.00000000000E+00 -0.25833295028E+04  0.25833295028E+04  0.00000000000E+00 0.  1.
    9000010    2    1    2  502    0 -0.62036861936E+03 -0.15304567143E+02 -0.91714184468E+03  0.14890254160E+04  0.99546776578E+03 0.  0.
   -9000010    2    1    2    0  501  0.62036861936E+03  0.15304567143E+02 -0.11284656030E+04  0.16320261418E+04  0.10024885320E+04 0.  0.
        -13    1    3    3    0    0  0.20788100459E+03 -0.88374769756E+02 -0.52131133609E+03  0.56814622440E+03  0.10566000000E+00 0.  1.
          4    1    3    3  502    0 -0.82824962395E+03  0.73070202612E+02 -0.39583050859E+03  0.92087919165E+03  0.00000000000E+00 0.  1.
         13    1    4    4    0    0  0.74743609430E+03  0.13425500644E+02 -0.12498076943E+04  0.14563173566E+04  0.10566000000E+00 0. -1.
         -4    1    4    4    0  501 -0.12706747494E+03  0.18790664990E+01  0.12134209135E+03  0.17570878524E+03  0.00000000000E+00 0. -1.
<mgrwt>
<rscale>  2 0.11760286E+04</rscale>
<asrwt>0</asrwt>
<pdfrwt beam="2">  1        2 0.39743532E+00 0.11760286E+04</pdfrwt>
<pdfrwt beam="1">  1       -2 0.82726468E-01 0.11760286E+04</pdfrwt>
<totfact> 0.62026640E+00</totfact>
</mgrwt>
</event>
<event>
 8    1  0.7046235E-006  0.1170687E+04  0.7818608E-02  0.8628968E-01
         -2   -1    0    0    0  501 -0.00000000000E+00  0.00000000000E+00  0.10273205155E+04  0.10273205155E+04  0.00000000000E+00 0.  1.
          2   -1    0    0  502    0  0.00000000000E+00 -0.00000000000E+00 -0.13802773543E+04  0.13802773543E+04  0.00000000000E+00 0. -1.
    9000010    2    1    2  502    0  0.60910360131E+03 -0.69865209631E+02 -0.39706376420E+03  0.12382879301E+04  0.99990450556E+03 0.  0.
   -9000010    2    1    2    0  501 -0.60910360131E+03  0.69865209631E+02  0.44106925408E+02  0.11693099397E+04  0.99471200331E+03 0.  0.
        -13    1    3    3    0    0  0.47979904722E+03  0.14077526138E+02 -0.72869068849E+03  0.87257975745E+03  0.10566000000E+00 0.  1.
          4    1    3    3  502    0  0.12930455409E+03 -0.83942735768E+02  0.33162692429E+03  0.36570817261E+03  0.00000000000E+00 0.  1.
         13    1    4    4    0    0 -0.49639271599E+03  0.39241873372E+03  0.33910132682E+03  0.71790522500E+03  0.10566000000E+00 0. -1.
         -4    1    4    4    0  501 -0.11271088532E+03 -0.32255352409E+03 -0.29499440141E+03  0.45140471468E+03  0.00000000000E+00 0. -1.
<mgrwt>
<rscale>  2 0.11706874E+04</rscale>
<asrwt>0</asrwt>
<pdfrwt beam="2">  1        2 0.21235036E+00 0.11706874E+04</pdfrwt>
<pdfrwt beam="1">  1       -2 0.15804931E+00 0.11706874E+04</pdfrwt>
<totfact> 0.52182928E+00</totfact>
</mgrwt>
</event>
<event>
 8    1  0.7046235E-006  0.1707659E+04  0.7818608E-02  0.8299083E-01
          1   -1    0    0  502    0  0.00000000000E+00  0.00000000000E+00  0.14649529825E+04  0.14649529825E+04  0.00000000000E+00 0. -1.
         -1   -1    0    0    0  501 -0.00000000000E+00 -0.00000000000E+00 -0.25884491220E+04  0.25884491220E+04  0.00000000000E+00 0.  1.
    9000010    2    1    2  502    0  0.47250520848E+03 -0.12887473369E+04 -0.15345331523E+04  0.22922247019E+04  0.10076562996E+04 0.  0.
   -9000010    2    1    2    0  501 -0.47250520848E+03  0.12887473369E+04  0.41103701283E+03  0.17611774026E+04  0.10240427467E+04 0.  0.
        -13    1    3    3    0    0  0.52962756154E+03 -0.62623991663E+03 -0.26992993048E+03  0.86344887843E+03  0.10566000000E+00 0.  1.
          4    1    3    3  502    0 -0.57122353059E+02 -0.66250742027E+03 -0.12646032218E+04  0.14287758235E+04  0.00000000000E+00 0.  1.
         13    1    4    4    0    0 -0.50975313292E+02  0.10037594050E+04 -0.13584636356E+03  0.10141921275E+04  0.10566000000E+00 0. -1.
         -4    1    4    4    0  501 -0.42152989519E+03  0.28498793185E+03  0.54688337639E+03  0.74698527509E+03  0.00000000000E+00 0. -1.
<mgrwt>
<rscale>  2 0.17076594E+04</rscale>
<asrwt>0</asrwt>
<pdfrwt beam="1">  1        1 0.22537738E+00 0.17076594E+04</pdfrwt>
<pdfrwt beam="2">  1       -1 0.39822294E+00 0.17076594E+04</pdfrwt>
<totfact> 0.95877032E-02</totfact>
</mgrwt>
</event>
<event>
 8    1  0.7046235E-006  0.1279352E+04  0.7818608E-02  0.8549090E-01
          1   -1    0    0  502    0  0.00000000000E+00  0.00000000000E+00  0.14622143152E+04  0.14622143152E+04  0.00000000000E+00 0.  1.
         -1   -1    0    0    0  501 -0.00000000000E+00 -0.00000000000E+00 -0.12265472822E+04  0.12265472822E+04  0.00000000000E+00 0. -1.
    9000010    2    1    2  502    0  0.27332166183E+03  0.75324151773E+03  0.51540256565E+03  0.13808842531E+04  0.99956190453E+03 0.  0.
   -9000010    2    1    2    0  501 -0.27332166183E+03 -0.75324151773E+03 -0.27973553261E+03  0.13078773443E+04  0.99509480181E+03 0.  0.
        -13    1    3    3    0    0  0.75092109755E+02  0.16480715074E+03 -0.30335647510E+03  0.35330636002E+03  0.10566000000E+00 0.  1.
          4    1    3    3  502    0  0.19822955208E+03  0.58843436700E+03  0.81875904076E+03  0.10275778931E+04  0.00000000000E+00 0.  1.
         13    1    4    4    0    0 -0.32236492772E+03 -0.58970120269E+03 -0.62812828919E+03  0.91989771927E+03  0.10566000000E+00 0. -1.
         -4    1    4    4    0  501  0.49043265893E+02 -0.16354031505E+03  0.34839275658E+03  0.38797962500E+03  0.00000000000E+00 0. -1.
<mgrwt>
<rscale>  2 0.12793515E+04</rscale>
<asrwt>0</asrwt>
<pdfrwt beam="1">  1        1 0.22495605E+00 0.12793515E+04</pdfrwt>
<pdfrwt beam="2">  1       -1 0.18869958E+00 0.12793515E+04</pdfrwt>
<totfact> 0.15640876E+00</totfact>
</mgrwt>
</event>
<event>
 8    1  0.7046235E-006  0.1471084E+04  0.7818608E-02  0.8426338E-01
          2   -1    0    0  502    0  0.00000000000E+00  0.00000000000E+00  0.23212738604E+04  0.23212738604E+04  0.00000000000E+00 0. -1.
         -2   -1    0    0    0  501 -0.00000000000E+00 -0.00000000000E+00 -0.93459483730E+03  0.93459483730E+03  0.00000000000E+00 0.  1.
    9000010    2    1    2  502    0 -0.43215396038E+02 -0.10659943658E+04  0.60923064295E+03  0.15851443154E+04  0.10016531165E+04 0.  0.
   -9000010    2    1    2    0  501  0.43215396038E+02  0.10659943658E+04  0.77744838018E+03  0.16707243824E+04  0.10240519614E+04 0.  0.
        -13    1    3    3    0    0  0.44283963966E+03 -0.51904179341E+03  0.90607706044E+02  0.68827399872E+03  0.10566000000E+00 0.  1.
          4    1    3    3  502    0 -0.48605503569E+03 -0.54695257241E+03  0.51862293691E+03  0.89687031664E+03  0.00000000000E+00 0.  1.
         13    1    4    4    0    0 -0.28136450167E+03  0.45533716500E+03 -0.10918829890E+03  0.54627832871E+03  0.10566000000E+00 0. -1.
         -4    1    4    4    0  501  0.32457989771E+03  0.61065720081E+03  0.88663667908E+03  0.11244460537E+04  0.00000000000E+00 0. -1.
<mgrwt>
<rscale>  2 0.14710841E+04</rscale>
<asrwt>0</asrwt>
<pdfrwt beam="1">  1        2 0.35711905E+00 0.14710841E+04</pdfrwt>
<pdfrwt beam="2">  1       -2 0.14378382E+00 0.14710841E+04</pdfrwt>
<totfact> 0.20645662E+00</totfact>
</mgrwt>
</event>
<event>
 8    1  0.7046235E-006  0.2066077E+04  0.7818608E-02  0.8142006E-01
          1   -1    0    0  502    0  0.00000000000E+00  0.00000000000E+00  0.27989910670E+04  0.27989910670E+04  0.00000000000E+00 0. -1.
         -1   -1    0    0    0  501 -0.00000000000E+00 -0.00000000000E+00 -0.15817475127E+04  0.15817475127E+04  0.00000000000E+00 0.  1.
    9000010    2    1    2  502    0 -0.28791383902E+03  0.17810431229E+04  0.19427519726E+03  0.20760759480E+04  0.10086324926E+04 0.  0.
   -9000010    2    1    2    0  501  0.28791383902E+03 -0.17810431229E+04  0.10229683570E+04  0.23046626318E+04  0.10049858718E+04 0.  0.
        -13    1    3    3    0    0 -0.33851835591E+03  0.19000062846E+04  0.13731815890E+03  0.19348061522E+04  0.10566000000E+00 0.  1.
          4    1    3    3  502    0  0.50604516890E+02 -0.11896316168E+03  0.56957038361E+02  0.14126979573E+03  0.00000000000E+00 0.  1.
         13    1    4    4    0    0 -0.32097854676E+03 -0.23014328240E+03  0.14018726020E+03  0.41910098664E+03  0.10566000000E+00 0. -1.
         -4    1    4    4    0  501  0.60889238578E+03 -0.15508998405E+04  0.88278109680E+03  0.18855616451E+04  0.00000000000E+00 0. -1.
<mgrwt>
<rscale>  2 0.20660773E+04</rscale>
<asrwt>0</asrwt>
<pdfrwt beam="1">  1        1 0.43061401E+00 0.20660773E+04</pdfrwt>
<pdfrwt beam="2">  1       -1 0.24334577E+00 0.20660773E+04</pdfrwt>
<totfact> 0.34898845E-02</totfact>
</mgrwt>
</event>
<event>
 8    1  0.7046235E-006  0.1102757E+04  0.7818608E-02  0.8683623E-01
          4   -1    0    0  502    0  0.00000000000E+00  0.00000000000E+00  0.32236988944E+04  0.32236988944E+04  0.00000000000E+00 0.  1.
         -4   -1    0    0    0  501 -0.00000000000E+00 -0.00000000000E+00 -0.44726812419E+03  0.44726812419E+03  0.00000000000E+00 0. -1.
    9000010    2    1    2  502    0 -0.36958446481E+03 -0.30354492068E+03  0.21030301905E+04  0.23697137549E+04  0.98187326190E+03 0.  0.
   -9000010    2    1    2    0  501  0.36958446481E+03  0.30354492068E+03  0.67340057975E+03  0.13012532637E+04  0.10055145549E+04 0.  0.
        -13    1    3    3    0    0 -0.12650584521E+03 -0.86189956743E+01  0.19561765886E+04  0.19602818351E+04  0.10566000000E+00 0.  1.
          4    1    3    3  502    0 -0.24307861960E+03 -0.29492592500E+03  0.14685360185E+03  0.40943191977E+03  0.00000000000E+00 0.  1.
         13    1    4    4    0    0 -0.34400069733E+03  0.64193840187E+02  0.30063453773E+03  0.46134419399E+03  0.10566000000E+00 0. -1.
         -4    1    4    4    0  501  0.71358516215E+03  0.23935108049E+03  0.37276604202E+03  0.83990906975E+03  0.00000000000E+00 0. -1.
<mgrwt>
<rscale>  2 0.11027568E+04</rscale>
<asrwt>0</asrwt>
<pdfrwt beam="1">  1        4 0.49595366E+00 0.11027568E+04</pdfrwt>
<pdfrwt beam="2">  1       -4 0.68810483E-01 0.11027568E+04</pdfrwt>
<totfact> 0.11080386E-01</totfact>
</mgrwt>
</event>
<event>
 8    1  0.7046235E-006  0.1070783E+04  0.7818608E-02  0.8710787E-01
         -2   -1    0    0    0  501 -0.00000000000E+00  0.00000000000E+00  0.13632042481E+04  0.13632042481E+04  0.00000000000E+00 0. -1.
          2   -1    0    0  502    0  0.00000000000E+00 -0.00000000000E+00 -0.85940218336E+03  0.85940218336E+03  0.00000000000E+00 0.  1.
    9000010    2    1    2  502    0 -0.23511077005E+03 -0.31288394545E+03  0.41471199645E+03  0.11507523304E+04  0.99953561640E+03 0.  0.
   -9000010    2    1    2    0  501  0.23511077005E+03  0.31288394545E+03  0.89090068311E+02  0.10718541011E+04  0.99386152767E+03 0.  0.
        -13    1    3    3    0    0  0.14915817556E+03 -0.49480140698E+03  0.49780257957E+03  0.71755418825E+03  0.10566000000E+00 0.  1.
          4    1    3    3  502    0 -0.38426894561E+03  0.18191746153E+03 -0.83090583123E+02  0.43319814216E+03  0.00000000000E+00 0.  1.
         13    1    4    4    0    0  0.50921176661E+02 -0.14749531217E+03  0.43838134040E+03  0.46532359077E+03  0.10566000000E+00 0. -1.
         -4    1    4    4    0  501  0.18418959339E+03  0.46037925762E+03 -0.34929127209E+03  0.60653051030E+03  0.00000000000E+00 0. -1.
<mgrwt>
<rscale>  2 0.10707827E+04</rscale>
<asrwt>0</asrwt>
<pdfrwt beam="2">  1        2 0.13221572E+00 0.10707827E+04</pdfrwt>
<pdfrwt beam="1">  1       -2 0.20972373E+00 0.10707827E+04</pdfrwt>
<totfact> 0.39604824E+00</totfact>
</mgrwt>
</event>
<event>
 8    1  0.7046235E-006  0.1382907E+04  0.7818608E-02  0.8480246E-01
          2   -1    0    0  502    0  0.00000000000E+00  0.00000000000E+00  0.16989364275E+04  0.16989364275E+04  0.00000000000E+00 0. -1.
         -2   -1    0    0    0  501 -0.00000000000E+00 -0.00000000000E+00 -0.13294183714E+04  0.13294183714E+04  0.00000000000E+00 0.  1.
    9000010    2    1    2  502    0 -0.41785780580E+03 -0.80712585228E+03 -0.41060033762E+03  0.14129762709E+04  0.10009255805E+04 0.  0.
   -9000010    2    1    2    0  501  0.41785780580E+03  0.80712585228E+03  0.78011839373E+03  0.16153785280E+04  0.10838845848E+04 0.  0.
        -13    1    3    3    0    0  0.15924536440E+03 -0.23836566699E+03 -0.52155605501E+03  0.59514536624E+03  0.10566000000E+00 0.  1.
          4    1    3    3  502    0 -0.57710317020E+03 -0.56876018529E+03  0.11095571738E+03  0.81783090467E+03  0.00000000000E+00 0.  1.
         13    1    4    4    0    0 -0.18877457829E+03  0.22906643637E+03 -0.17516667053E+03  0.34466019107E+03  0.10566000000E+00 0. -1.
         -4    1    4    4    0  501  0.60663238409E+03  0.57805941591E+03  0.95528506426E+03  0.12707183369E+04  0.00000000000E+00 0. -1.
<mgrwt>
<rscale>  2 0.13829071E+04</rscale>
<asrwt>0</asrwt>
<pdfrwt beam="1">  1        2 0.26137484E+00 0.13829071E+04</pdfrwt>
<pdfrwt beam="2">  1       -2 0.20452590E+00 0.13829071E+04</pdfrwt>
<totfact> 0.13923362E+00</totfact>
</mgrwt>
</event>
<event>
 8    1  0.7046235E-006  0.1623247E+04  0.7818608E-02  0.8341900E-01
         -1   -1    0    0    0  501 -0.00000000000E+00  0.00000000000E+00  0.18383576832E+04  0.18383576832E+04  0.00000000000E+00 0. -1.
          1   -1    0    0  502    0  0.00000000000E+00 -0.00000000000E+00 -0.14618372589E+04  0.14618372589E+04  0.00000000000E+00 0.  1.
    9000010    2    1    2  502    0  0.12694386916E+04 -0.41591133321E+02 -0.42017894198E+02  0.16258515835E+04  0.10141121507E+04 0.  0.
   -9000010    2    1    2    0  501 -0.12694386916E+04  0.41591133321E+02  0.41853831844E+03  0.16743433585E+04  0.10074953817E+04 0.  0.
        -13    1    3    3    0    0  0.99078186671E+03  0.31722019066E+03 -0.32585708630E+03  0.10901652208E+04  0.10566000000E+00 0.  1.
          4    1    3    3  502    0  0.27865682489E+03 -0.35881132398E+03  0.28383919210E+03  0.53568636276E+03  0.00000000000E+00 0.  1.
         13    1    4    4    0    0 -0.35097743283E+03  0.25024742578E+02  0.63915698823E+03  0.72961158356E+03  0.10566000000E+00 0. -1.
         -4    1    4    4    0  501 -0.91846125876E+03  0.16566390742E+02 -0.22061866979E+03  0.94473177496E+03  0.00000000000E+00 0. -1.
<mgrwt>
<rscale>  2 0.16232471E+04</rscale>
<asrwt>0</asrwt>
<pdfrwt beam="2">  1        1 0.22489804E+00 0.16232471E+04</pdfrwt>
<pdfrwt beam="1">  1       -1 0.28282426E+00 0.16232471E+04</pdfrwt>
<totfact> 0.19473346E-01</totfact>
</mgrwt>
</event>
<event>
 8    1  0.7046235E-006  0.1210579E+04  0.7818608E-02  0.8598638E-01
         -2   -1    0    0    0  501 -0.00000000000E+00  0.00000000000E+00  0.25060692280E+04  0.25060692280E+04  0.00000000000E+00 0.  1.
          2   -1    0    0  502    0  0.00000000000E+00 -0.00000000000E+00 -0.58734811412E+03  0.58734811412E+03  0.00000000000E+00 0. -1.
    9000010    2    1    2  502    0 -0.41391447380E+01  0.67279714019E+03  0.86978967969E+03  0.15021564936E+04  0.10233606011E+04 0.  0.
   -9000010    2    1    2    0  501  0.41391447380E+01 -0.67279714019E+03  0.10489314342E+04  0.15912608486E+04  0.98953565382E+03 0.  0.
        -13    1    3    3    0    0  0.28538867000E+03 -0.13709277555E+03  0.43611215040E+03  0.53892016196E+03  0.10566000000E+00 0.  1.
          4    1    3    3  502    0 -0.28952781474E+03  0.80988991574E+03  0.43367752928E+03  0.96323633161E+03  0.00000000000E+00 0.  1.
         13    1    4    4    0    0 -0.55630527922E+02 -0.85833384910E+03  0.10935546737E+04  0.13912920570E+04  0.10566000000E+00 0. -1.
         -4    1    4    4    0  501  0.59769672660E+02  0.18553670891E+03 -0.44623239505E+02  0.19996879163E+03  0.00000000000E+00 0. -1.
<mgrwt>
<rscale>  2 0.12105791E+04</rscale>
<asrwt>0</asrwt>
<pdfrwt beam="2">  1        2 0.90361250E-01 0.12105791E+04</pdfrwt>
<pdfrwt beam="1">  1       -2 0.38554911E+00 0.12105791E+04</pdfrwt>
<totfact> 0.31342815E-01</totfact>
</mgrwt>
</event>
<event>
 8    1  0.7046235E-006  0.1398569E+04  0.7818608E-02  0.8470375E-01
          2   -1    0    0  502    0  0.00000000000E+00  0.00000000000E+00  0.29459148888E+04  0.29459148888E+04  0.00000000000E+00 0. -1.
         -2   -1    0    0    0  501 -0.00000000000E+00 -0.00000000000E+00 -0.66630135819E+03  0.66630135819E+03  0.00000000000E+00 0.  1.
    9000010    2    1    2  502    0  0.76113878049E+03  0.57936005530E+03  0.10467201477E+04  0.17588438254E+04  0.10406335655E+04 0.  0.
   -9000010    2    1    2    0  501 -0.76113878049E+03 -0.57936005530E+03  0.12328933829E+04  0.18533724216E+04  0.99998646121E+03 0.  0.
        -13    1    3    3    0    0 -0.20867686038E+03 -0.79085749116E+02  0.28040593118E+03  0.35836864424E+03  0.10566000000E+00 0.  1.
          4    1    3    3  502    0  0.96981564087E+03  0.65844580442E+03  0.76631421650E+03  0.14004751812E+04  0.00000000000E+00 0.  1.
         13    1    4    4    0    0  0.23383546667E+03 -0.23224985484E+03  0.31440537692E+03  0.45548849903E+03  0.10566000000E+00 0. -1.
         -4    1    4    4    0  501 -0.99497424716E+03 -0.34711020046E+03  0.91848800600E+03  0.13978839226E+04  0.00000000000E+00 0. -1.
<mgrwt>
<rscale>  2 0.13985694E+04</rscale>
<asrwt>0</asrwt>
<pdfrwt beam="1">  1        2 0.45321767E+00 0.13985694E+04</pdfrwt>
<pdfrwt beam="2">  1       -2 0.10250790E+00 0.13985694E+04</pdfrwt>
<totfact> 0.22395247E+00</totfact>
</mgrwt>
</event>
<event>
 8    1  0.7046235E-006  0.1141304E+04  0.7818608E-02  0.8652123E-01
          1   -1    0    0  502    0  0.00000000000E+00  0.00000000000E+00  0.17136724481E+04  0.17136724481E+04  0.00000000000E+00 0.  1.
         -1   -1    0    0    0  501 -0.00000000000E+00 -0.00000000000E+00 -0.83966074900E+03  0.83966074900E+03  0.00000000000E+00 0. -1.
    9000010    2    1    2  502    0 -0.22983679384E+03 -0.36774779458E+03  0.80521520506E+03  0.13519831803E+04  0.99570256657E+03 0.  0.
   -9000010    2    1    2    0  501  0.22983679384E+03  0.36774779458E+03  0.68796494079E+02  0.12013500169E+04  0.11182332106E+04 0.  0.
        -13    1    3    3    0    0 -0.20801413104E+03  0.20552959078E+03  0.71337762125E+03  0.77098633779E+03  0.10566000000E+00 0.  1.
          4    1    3    3  502    0 -0.21822662797E+02 -0.57327738536E+03  0.91837583813E+02  0.58099684249E+03  0.00000000000E+00 0.  1.
         13    1    4    4    0    0  0.27604284980E+03  0.11628407314E+03 -0.49710344375E+03  0.58037357412E+03  0.10566000000E+00 0. -1.
         -4    1    4    4    0  501 -0.46206055958E+02  0.25146372144E+03  0.56589993783E+03  0.62097644274E+03  0.00000000000E+00 0. -1.
<mgrwt>
<rscale>  2 0.11413042E+04</rscale>
<asrwt>0</asrwt>
<pdfrwt beam="1">  1        1 0.26364191E+00 0.11413042E+04</pdfrwt>
<pdfrwt beam="2">  1       -1 0.12917858E+00 0.11413042E+04</pdfrwt>
<totfact> 0.34115983E+00</totfact>
</mgrwt>
</event>
<event>
 8    1  0.7046235E-006  0.1332546E+04  0.7818608E-02  0.8512922E-01
         -2   -1    0    0    0  501 -0.00000000000E+00  0.00000000000E+00  0.26881266423E+04  0.26881266423E+04  0.00000000000E+00 0. -1.
          2   -1    0    0  502    0  0.00000000000E+00 -0.00000000000E+00 -0.72440698957E+03  0.72440698957E+03  0.00000000000E+00 0.  1.
    9000010    2    1    2  502    0 -0.86487786730E+02  0.86805522685E+03  0.47921441734E+03  0.14214890084E+04  0.10148815345E+04 0.  0.
   -9000010    2    1    2    0  501  0.86487786730E+02 -0.86805522685E+03  0.14845052354E+04  0.19910446235E+04  0.99975141139E+03 0.  0.
        -13    1    3    3    0    0  0.16699290641E+03  0.10228970871E+04  0.42167368878E+03  0.11189342218E+04  0.10566000000E+00 0.  1.
          4    1    3    3  502    0 -0.25348069314E+03 -0.15484186028E+03  0.57540728563E+02  0.30255478666E+03  0.00000000000E+00 0.  1.
         13    1    4    4    0    0  0.23206578128E+03 -0.50277417865E+03  0.11415348130E+03  0.56539139542E+03  0.10566000000E+00 0. -1.
         -4    1    4    4    0  501 -0.14557799455E+03 -0.36528104820E+03  0.13703517541E+04  0.14256532280E+04  0.00000000000E+00 0. -1.
<mgrwt>
<rscale>  2 0.13325458E+04</rscale>
<asrwt>0</asrwt>
<pdfrwt beam="2">  1        2 0.11144723E+00 0.13325458E+04</pdfrwt>
<pdfrwt beam="1">  1       -2 0.41355794E+00 0.13325458E+04</pdfrwt>
<totfact> 0.18835685E-01</totfact>
</mgrwt>
</event>
<event>
 8    1  0.7046235E-006  0.1092829E+04  0.7818608E-02  0.8691953E-01
          2   -1    0    0  502    0  0.00000000000E+00  0.00000000000E+00  0.16299239365E+04  0.16299239365E+04  0.00000000000E+00 0.  1.
         -2   -1    0    0    0  501 -0.00000000000E+00 -0.00000000000E+00 -0.79038353895E+03  0.79038353895E+03  0.00000000000E+00 0. -1.
    9000010    2    1    2  502    0 -0.82639340065E+02  0.47839258172E+03  0.73569011882E+03  0.12953995068E+04  0.94927931004E+03 0.  0.
   -9000010    2    1    2    0  501  0.82639340065E+02 -0.47839258172E+03  0.10385027873E+03  0.11249079687E+04  0.10094277264E+04 0.  0.
        -13    1    3    3    0    0  0.38395308326E+03 -0.16871896514E+02  0.23331536217E+03  0.44960060100E+03  0.10566000000E+00 0.  1.
          4    1    3    3  502    0 -0.46659242332E+03  0.49526447823E+03  0.50237475665E+03  0.84579890578E+03  0.00000000000E+00 0.  1.
         13    1    4    4    0    0  0.24786957198E+03 -0.75624805838E+03  0.52279800489E+02  0.79754851841E+03  0.10566000000E+00 0. -1.
         -4    1    4    4    0  501 -0.16523023191E+03  0.27785547666E+03  0.51570478242E+02  0.32735945026E+03  0.00000000000E+00 0. -1.
<mgrwt>
<rscale>  2 0.10928287E+04</rscale>
<asrwt>0</asrwt>
<pdfrwt beam="1">  1        2 0.25075753E+00 0.10928287E+04</pdfrwt>
<pdfrwt beam="2">  1       -2 0.12159747E+00 0.10928287E+04</pdfrwt>
<totfact> 0.82148986E+00</totfact>
</mgrwt>
</event>
<event>
 8    1  0.7046235E-006  0.1240738E+04  0.7818608E-02  0.8576501E-01
         -2   -1    0    0    0  501 -0.00000000000E+00  0.00000000000E+00  0.89962237949E+03  0.89962237949E+03  0.00000000000E+00 0.  1.
          2   -1    0    0  502    0  0.00000000000E+00 -0.00000000000E+00 -0.17715751348E+04  0.17715751348E+04  0.00000000000E+00 0. -1.
    9000010    2    1    2  502    0  0.77813932178E+02 -0.68915748818E+03 -0.67978290931E+03  0.14080094948E+04  0.10195061952E+04 0.  0.
   -9000010    2    1    2    0  501 -0.77813932178E+02  0.68915748818E+03 -0.19216984600E+03  0.12631880195E+04  0.10381337444E+04 0.  0.
        -13    1    3    3    0    0 -0.31260622546E+03 -0.65437545214E+03 -0.13626995265E+03  0.73790202312E+03  0.10566000000E+00 0.  1.
          4    1    3    3  502    0  0.39042015764E+03 -0.34782036035E+02 -0.54351295666E+03  0.67010747166E+03  0.00000000000E+00 0.  1.
         13    1    4    4    0    0  0.43866822880E+03  0.13401873050E+03  0.63373296789E+02  0.46304105757E+03  0.10566000000E+00 0. -1.
         -4    1    4    4    0  501 -0.51648216098E+03  0.55513875767E+03 -0.25554314278E+03  0.80014696194E+03  0.00000000000E+00 0. -1.
<mgrwt>
<rscale>  2 0.12407381E+04</rscale>
<asrwt>0</asrwt>
<pdfrwt beam="2">  1        2 0.27255002E+00 0.12407381E+04</pdfrwt>
<pdfrwt beam="1">  1       -2 0.13840344E+00 0.12407381E+04</pdfrwt>
<totfact> 0.47264889E+00</totfact>
</mgrwt>
</event>
<event>
 8    1  0.7046235E-006  0.1580312E+04  0.7818608E-02  0.8364722E-01
          4   -1    0    0  502    0  0.00000000000E+00  0.00000000000E+00  0.12224878407E+04  0.12224878407E+04  0.00000000000E+00 0.  1.
         -4   -1    0    0    0  501 -0.00000000000E+00 -0.00000000000E+00 -0.22369908526E+04  0.22369908526E+04  0.00000000000E+00 0. -1.
    9000010    2    1    2  502    0  0.12097047834E+04  0.67253007995E+02 -0.10144937672E+04  0.18715198802E+04  0.10027364699E+04 0.  0.
   -9000010    2    1    2    0  501 -0.12097047834E+04 -0.67253007995E+02 -0.92447018890E-02  0.15879588131E+04  0.10265011261E+04 0.  0.
        -13    1    3    3    0    0  0.75223649255E+03  0.12336916671E+03 -0.11601327217E+04  0.13881598017E+04  0.10566000000E+00 0.  1.
          4    1    3    3  502    0  0.45746829086E+03 -0.56116158720E+02  0.14563895445E+03  0.48336007848E+03  0.00000000000E+00 0.  1.
         13    1    4    4    0    0  0.33477706055E+02  0.21727197693E+03 -0.19981497755E+03  0.29707558832E+03  0.10566000000E+00 0. -1.
         -4    1    4    4    0  501 -0.12431824895E+04 -0.28452498492E+03  0.19980573285E+03  0.12908832248E+04  0.00000000000E+00 0. -1.
<mgrwt>
<rscale>  2 0.15803116E+04</rscale>
<asrwt>0</asrwt>
<pdfrwt beam="1">  1        4 0.18807505E+00 0.15803116E+04</pdfrwt>
<pdfrwt beam="2">  1       -4 0.34415244E+00 0.15803116E+04</pdfrwt>
<totfact> 0.80055234E-02</totfact>
</mgrwt>
</event>
<event>
 8    1  0.7046235E-006  0.1201507E+04  0.7818608E-02  0.8605429E-01
          1   -1    0    0  502    0  0.00000000000E+00  0.00000000000E+00  0.21638159826E+04  0.21638159826E+04  0.00000000000E+00 0. -1.
         -1   -1    0    0    0  501 -0.00000000000E+00 -0.00000000000E+00 -0.68003293235E+03  0.68003293235E+03  0.00000000000E+00 0.  1.
    9000010    2    1    2  502    0 -0.65267337749E+03 -0.15938528146E+03  0.93750778454E+03  0.15239926627E+04  0.99611574840E+03 0.  0.
   -9000010    2    1    2    0  501  0.65267337749E+03  0.15938528146E+03  0.54627526567E+03  0.13198562522E+04  0.99610122730E+03 0.  0.
        -13    1    3    3    0    0 -0.28535521357E+03  0.19938154586E+03  0.94855941257E+03  0.10104185118E+04  0.10566000000E+00 0.  1.
          4    1    3    3  502    0 -0.36731816392E+03 -0.35876682732E+03 -0.11051628027E+02  0.51357415084E+03  0.00000000000E+00 0.  1.
         13    1    4    4    0    0  0.55583454800E+03 -0.22575307996E+03  0.67435073711E+03  0.90258818166E+03  0.10566000000E+00 0. -1.
         -4    1    4    4    0  501  0.96838829482E+02  0.38513836142E+03 -0.12807547144E+03  0.41726807057E+03  0.00000000000E+00 0. -1.
<mgrwt>
<rscale>  2 0.12015067E+04</rscale>
<asrwt>0</asrwt>
<pdfrwt beam="1">  1        1 0.33289476E+00 0.12015067E+04</pdfrwt>
<pdfrwt beam="2">  1       -1 0.10462045E+00 0.12015067E+04</pdfrwt>
<totfact> 0.25558163E+00</totfact>
</mgrwt>
</event>
<event>
 8    1  0.7046235E-006  0.1311639E+04  0.7818608E-02  0.8526925E-01
          2   -1    0    0  502    0  0.00000000000E+00  0.00000000000E+00  0.20535160376E+04  0.20535160376E+04  0.00000000000E+00 0.  1.
         -2   -1    0    0    0  501 -0.00000000000E+00 -0.00000000000E+00 -0.86082798120E+03  0.86082798120E+03  0.00000000000E+00 0. -1.
    9000010    2    1    2  502    0  0.78390435858E+03  0.30804234860E+03  0.83010335964E+03  0.15438671484E+04  0.99250090790E+03 0.  0.
   -9000010    2    1    2    0  501 -0.78390435858E+03 -0.30804234860E+03  0.36258469680E+03  0.13704768705E+04  0.10185003968E+04 0.  0.
        -13    1    3    3    0    0  0.89123674986E+03  0.40049391357E+03  0.94662635438E+03  0.13604410259E+04  0.10566000000E+00 0.  1.
          4    1    3    3  502    0 -0.10733239128E+03 -0.92451564969E+02 -0.11652299474E+03  0.18342612242E+03  0.00000000000E+00 0.  1.
         13    1    4    4    0    0 -0.10220060346E+04 -0.18165266079E+03  0.36665937587E+03  0.11008783461E+04  0.10566000000E+00 0. -1.
         -4    1    4    4    0  501  0.23810167602E+03 -0.12638968781E+03 -0.40746790725E+01  0.26959852433E+03  0.00000000000E+00 0. -1.
<mgrwt>
<rscale>  2 0.13116395E+04</rscale>
<asrwt>0</asrwt>
<pdfrwt beam="1">  1        2 0.31592554E+00 0.13116395E+04</pdfrwt>
<pdfrwt beam="2">  1       -2 0.13243507E+00 0.13116395E+04</pdfrwt>
<totfact> 0.37357262E+00</totfact>
</mgrwt>
</event>
<event>
 8    1  0.7046235E-006  0.1286881E+04  0.7818608E-02  0.8543862E-01
         -2   -1    0    0    0  501 -0.00000000000E+00  0.00000000000E+00  0.67879906716E+03  0.67879906716E+03  0.00000000000E+00 0. -1.
          2   -1    0    0  502    0  0.00000000000E+00 -0.00000000000E+00 -0.35725680205E+04  0.35725680205E+04  0.00000000000E+00 0.  1.
    9000010    2    1    2  502    0 -0.59200256360E+03  0.54884148558E+03 -0.26501264832E+04  0.29496567295E+04  0.10127242633E+04 0.  0.
   -9000010    2    1    2    0  501  0.59200256360E+03 -0.54884148558E+03 -0.24364247015E+03  0.13017103581E+04  0.99166233749E+03 0.  0.
        -13    1    3    3    0    0 -0.69335148551E+02  0.18846611863E+03  0.23042801048E+02  0.20213318021E+03  0.10566000000E+00 0.  1.
          4    1    3    3  502    0 -0.52266741505E+03  0.36037536695E+03 -0.26731692842E+04  0.27475235493E+04  0.00000000000E+00 0.  1.
         13    1    4    4    0    0  0.58180167000E+03 -0.79062782996E+03 -0.34339711075E+03  0.10399553527E+04  0.10566000000E+00 0. -1.
         -4    1    4    4    0  501  0.10200893607E+02  0.24178634438E+03  0.99754640599E+02  0.26175500546E+03  0.00000000000E+00 0. -1.
<mgrwt>
<rscale>  2 0.12868807E+04</rscale>
<asrwt>0</asrwt>
<pdfrwt beam="2">  1        2 0.54962585E+00 0.12868807E+04</pdfrwt>
<pdfrwt beam="1">  1       -2 0.10443062E+00 0.12868807E+04</pdfrwt>
<totfact> 0.82196254E-01</totfact>
</mgrwt>
</event>
<event>
 8    1  0.7046235E-006  0.1676977E+04  0.7818608E-02  0.8314345E-01
         -2   -1    0    0    0  501 -0.00000000000E+00  0.00000000000E+00  0.13474672150E+04  0.13474672150E+04  0.00000000000E+00 0.  1.
          2   -1    0    0  502    0  0.00000000000E+00 -0.00000000000E+00 -0.37592125389E+04  0.37592125389E+04  0.00000000000E+00 0. -1.
    9000010    2    1    2  502    0  0.11260263425E+04  0.72770586854E+03  0.49890431050E+03  0.17451670864E+04  0.99960566897E+03 0.  0.
   -9000010    2    1    2    0  501 -0.11260263425E+04 -0.72770586854E+03 -0.29106496344E+04  0.33615126676E+04  0.10150837232E+04 0.  0.
        -13    1    3    3    0    0  0.11150128469E+04  0.19036751665E+03  0.28331348935E+03  0.11660874687E+04  0.10566000000E+00 0.  1.
          4    1    3    3  502    0  0.11013495525E+02  0.53733835189E+03  0.21559082115E+03  0.57907961772E+03  0.00000000000E+00 0.  1.
         13    1    4    4    0    0 -0.11853102177E+04 -0.28647708585E+03 -0.23302169988E+04  0.26300077387E+04  0.10566000000E+00 0. -1.
         -4    1    4    4    0  501  0.59283875226E+02 -0.44122878269E+03 -0.58043263555E+03  0.73150492886E+03  0.00000000000E+00 0. -1.
<mgrwt>
<rscale>  2 0.16769768E+04</rscale>
<asrwt>0</asrwt>
<pdfrwt beam="2">  1        2 0.57834039E+00 0.16769768E+04</pdfrwt>
<pdfrwt beam="1">  1       -2 0.20730265E+00 0.16769768E+04</pdfrwt>
<totfact> 0.67055064E-02</totfact>
</mgrwt>
</event>
<event>
 8    1  0.7046235E-006  0.1295622E+04  0.7818608E-02  0.8537838E-01
          2   -1    0    0  502    0  0.00000000000E+00  0.00000000000E+00  0.19950041878E+04  0.19950041878E+04  0.00000000000E+00 0. -1.
         -2   -1    0    0    0  501 -0.00000000000E+00 -0.00000000000E+00 -0.92989525151E+03  0.92989525151E+03  0.00000000000E+00 0.  1.
    9000010    2    1    2  502    0 -0.66519014306E+03  0.48000944704E+03  0.80854054978E+02  0.12965306972E+04  0.10007834305E+04 0.  0.
   -9000010    2    1    2    0  501  0.66519014306E+03 -0.48000944704E+03  0.98425488136E+03  0.16283687422E+04  0.10049577570E+04 0.  0.
        -13    1    3    3    0    0 -0.87492879345E+03  0.40445145164E+03  0.27344862359E+03  0.10019259111E+04  0.10566000000E+00 0.  1.
          4    1    3    3  502    0  0.20973865039E+03  0.75557995396E+02 -0.19259456861E+03  0.29460478610E+03  0.00000000000E+00 0.  1.
         13    1    4    4    0    0  0.84486499811E+03 -0.10252286977E+03  0.49392641114E+03  0.98400768017E+03  0.10566000000E+00 0. -1.
         -4    1    4    4    0  501 -0.17967485504E+03 -0.37748657727E+03  0.49032847021E+03  0.64436106202E+03  0.00000000000E+00 0. -1.
<mgrwt>
<rscale>  2 0.12956217E+04</rscale>
<asrwt>0</asrwt>
<pdfrwt beam="1">  1        2 0.30692372E+00 0.12956217E+04</pdfrwt>
<pdfrwt beam="2">  1       -2 0.14306081E+00 0.12956217E+04</pdfrwt>
<totfact> 0.32249110E+00</totfact>
</mgrwt>
</event>
<event>
 8    1  0.7046235E-006  0.1028118E+04  0.7818608E-02  0.8748612E-01
          1   -1    0    0  502    0  0.00000000000E+00  0.00000000000E+00  0.17001569192E+04  0.17001569192E+04  0.00000000000E+00 0. -1.
         -1   -1    0    0    0  501 -0.00000000000E+00 -0.00000000000E+00 -0.62853110978E+03  0.62853110978E+03  0.00000000000E+00 0.  1.
    9000010    2    1    2  502    0 -0.19396576183E+03  0.11839666873E+03  0.41297732270E+03  0.11048857242E+04  0.99929060164E+03 0.  0.
   -9000010    2    1    2    0  501  0.19396576183E+03 -0.11839666873E+03  0.65864848670E+03  0.12238023048E+04  0.10060982875E+04 0.  0.
        -13    1    3    3    0    0  0.24595988900E+03 -0.37798341141E+02  0.56217770049E+03  0.61479163924E+03  0.10566000000E+00 0.  1.
          4    1    3    3  502    0 -0.43992565083E+03  0.15619500987E+03 -0.14920037779E+03  0.49009408495E+03  0.00000000000E+00 0.  1.
         13    1    4    4    0    0  0.46040835403E+03  0.68462844499E+01 -0.43420422924E+02  0.46250196580E+03  0.10566000000E+00 0. -1.
         -4    1    4    4    0  501 -0.26644259220E+03 -0.12524295318E+03  0.70206890962E+03  0.76130033897E+03  0.00000000000E+00 0. -1.
<mgrwt>
<rscale>  2 0.10281178E+04</rscale>
<asrwt>0</asrwt>
<pdfrwt beam="1">  1        1 0.26156260E+00 0.10281178E+04</pdfrwt>
<pdfrwt beam="2">  1       -1 0.96697095E-01 0.10281178E+04</pdfrwt>
<totfact> 0.69697329E+00</totfact>
</mgrwt>
</event>
<event>
 8    1  0.7046235E-006  0.1140882E+04  0.7818608E-02  0.8652461E-01
          2   -1    0    0  502    0  0.00000000000E+00  0.00000000000E+00  0.10631219000E+04  0.10631219000E+04  0.00000000000E+00 0.  1.
         -2   -1    0    0    0  501 -0.00000000000E+00 -0.00000000000E+00 -0.13615113516E+04  0.13615113516E+04  0.00000000000E+00 0. -1.
    9000010    2    1    2  502    0 -0.51023561477E+03 -0.17800317661E+02 -0.53567389745E+03  0.12770723495E+04  0.10408218039E+04 0.  0.
   -9000010    2    1    2    0  501  0.51023561477E+03  0.17800317661E+02  0.23728444579E+03  0.11475609021E+04  0.99996744044E+03 0.  0.
        -13    1    3    3    0    0  0.61717108004E+02  0.38222450948E+03  0.15859851964E+02  0.38749983630E+03  0.10566000000E+00 0.  1.
          4    1    3    3  502    0 -0.57195272278E+03 -0.40002482714E+03 -0.55153374942E+03  0.88957251316E+03  0.00000000000E+00 0.  1.
         13    1    4    4    0    0  0.46607501883E+03  0.76699751295E+01  0.61245408438E+03  0.76966536126E+03  0.10566000000E+00 0. -1.
         -4    1    4    4    0  501  0.44160595944E+02  0.10130342531E+02 -0.37516963859E+03  0.37789554085E+03  0.00000000000E+00 0. -1.
<mgrwt>
<rscale>  2 0.11408822E+04</rscale>
<asrwt>0</asrwt>
<pdfrwt beam="1">  1        2 0.16355722E+00 0.11408822E+04</pdfrwt>
<pdfrwt beam="2">  1       -2 0.20946328E+00 0.11408822E+04</pdfrwt>
<totfact> 0.29525177E+00</totfact>
</mgrwt>
</event>
<event>
 8    1  0.7046235E-006  0.1463240E+04  0.7818608E-02  0.8430974E-01
         -2   -1    0    0    0  501 -0.00000000000E+00  0.00000000000E+00  0.88506194163E+03  0.88506194163E+03  0.00000000000E+00 0.  1.
          2   -1    0    0  502    0  0.00000000000E+00 -0.00000000000E+00 -0.25756829192E+04  0.25756829192E+04  0.00000000000E+00 0. -1.
    9000010    2    1    2  502    0 -0.38554954075E+03  0.10103883666E+04 -0.12761360636E+04  0.19475589377E+04  0.99746150960E+03 0.  0.
   -9000010    2    1    2    0  501  0.38554954075E+03 -0.10103883666E+04 -0.41448491389E+03  0.15131859231E+04  0.97385871369E+03 0.  0.
        -13    1    3    3    0    0 -0.94301103475E+02  0.50062636380E+03 -0.12612793972E+04  0.13602739368E+04  0.10566000000E+00 0.  1.
          4    1    3    3  502    0 -0.29124843728E+03  0.50976200281E+03 -0.14856666448E+02  0.58728500088E+03  0.00000000000E+00 0.  1.
         13    1    4    4    0    0  0.68383907747E+03 -0.51816197192E+03 -0.37478130062E+03  0.93626318281E+03  0.10566000000E+00 0. -1.
         -4    1    4    4    0  501 -0.29828953672E+03 -0.49222639469E+03 -0.39703613279E+02  0.57692274028E+03  0.00000000000E+00 0. -1.
<mgrwt>
<rscale>  2 0.14632402E+04</rscale>
<asrwt>0</asrwt>
<pdfrwt beam="2">  1        2 0.39625891E+00 0.14632402E+04</pdfrwt>
<pdfrwt beam="1">  1       -2 0.13616338E+00 0.14632402E+04</pdfrwt>
<totfact> 0.17442134E+00</totfact>
</mgrwt>
</event>
<event>
 8    1  0.7046235E-006  0.1202870E+04  0.7818608E-02  0.8604405E-01
          1   -1    0    0  502    0  0.00000000000E+00  0.00000000000E+00  0.17721320994E+04  0.17721320994E+04  0.00000000000E+00 0. -1.
         -1   -1    0    0    0  501 -0.00000000000E+00 -0.00000000000E+00 -0.85494959271E+03  0.85494959271E+03  0.00000000000E+00 0.  1.
    9000010    2    1    2  502    0 -0.48131080283E+03 -0.44138944290E+03  0.18247824489E+03  0.12233150078E+04  0.10181927957E+04 0.  0.
   -9000010    2    1    2    0  501  0.48131080283E+03  0.44138944290E+03  0.73470426183E+03  0.14037666843E+04  0.10021406201E+04 0.  0.
        -13    1    3    3    0    0 -0.53279707395E+03  0.19710912385E+03  0.61344213619E+02  0.57139115536E+03  0.10566000000E+00 0.  1.
          4    1    3    3  502    0  0.51486271125E+02 -0.63849856675E+03  0.12113403127E+03  0.65192385245E+03  0.00000000000E+00 0.  1.
         13    1    4    4    0    0 -0.82138539987E+02 -0.21274179269E+03  0.43271503469E+03  0.48912996486E+03  0.10566000000E+00 0. -1.
         -4    1    4    4    0  501  0.56344934282E+03  0.65413123559E+03  0.30198922714E+03  0.91463671947E+03  0.00000000000E+00 0. -1.
<mgrwt>
<rscale>  2 0.12028695E+04</rscale>
<asrwt>0</asrwt>
<pdfrwt beam="1">  1        1 0.27263571E+00 0.12028695E+04</pdfrwt>
<pdfrwt beam="2">  1       -1 0.13153071E+00 0.12028695E+04</pdfrwt>
<totfact> 0.29173911E+00</totfact>
</mgrwt>
</event>
<event>
 8    1  0.7046235E-006  0.1078429E+04  0.7818608E-02  0.8704201E-01
         -2   -1    0    0    0  501 -0.00000000000E+00  0.00000000000E+00  0.16220371909E+04  0.16220371909E+04  0.00000000000E+00 0. -1.
          2   -1    0    0  502    0  0.00000000000E+00 -0.00000000000E+00 -0.73710887788E+03  0.73710887788E+03  0.00000000000E+00 0.  1.
    9000010    2    1    2  502    0  0.35560745263E+03 -0.20176833137E+03  0.63323144309E+03  0.12425088610E+04  0.98776469329E+03 0.  0.
   -9000010    2    1    2    0  501 -0.35560745263E+03  0.20176833137E+03  0.25169686996E+03  0.11166372078E+04  0.10081469236E+04 0.  0.
        -13    1    3    3    0    0  0.64437070050E+03  0.78593113116E+02  0.27980583482E+03  0.70688173937E+03  0.10566000000E+00 0.  1.
          4    1    3    3  502    0 -0.28876324787E+03 -0.28036144449E+03  0.35342560828E+03  0.53562712166E+03  0.00000000000E+00 0.  1.
         13    1    4    4    0    0  0.25222799781E+03  0.77456864428E+02 -0.21494055871E+03  0.34032041324E+03  0.10566000000E+00 0. -1.
         -4    1    4    4    0  501 -0.60783545044E+03  0.12431146695E+03  0.46663742867E+03  0.77631679453E+03  0.00000000000E+00 0. -1.
<mgrwt>
<rscale>  2 0.10784289E+04</rscale>
<asrwt>0</asrwt>
<pdfrwt beam="2">  1        2 0.11340137E+00 0.10784289E+04</pdfrwt>
<pdfrwt beam="1">  1       -2 0.24954418E+00 0.10784289E+04</pdfrwt>
<totfact> 0.23115042E+00</totfact>
</mgrwt>
</event>
<event>
 8    1  0.7046235E-006  0.1161035E+04  0.7818608E-02  0.8636496E-01
          1   -1    0    0  502    0  0.00000000000E+00  0.00000000000E+00  0.15290159797E+04  0.15290159797E+04  0.00000000000E+00 0.  1.
         -1   -1    0    0    0  501 -0.00000000000E+00 -0.00000000000E+00 -0.11866596623E+04  0.11866596623E+04  0.00000000000E+00 0. -1.
    9000010    2    1    2  502    0 -0.18860633958E+03 -0.41893786092E+03 -0.50407499216E+03  0.13360401666E+04  0.11488387382E+04 0.  0.
   -9000010    2    1    2    0  501  0.18860633958E+03  0.41893786092E+03  0.84643130963E+03  0.13796354754E+04  0.98785970690E+03 0.  0.
        -13    1    3    3    0    0 -0.12743263586E+03 -0.50470429432E+03 -0.83765490798E+03  0.98622069407E+03  0.10566000000E+00 0.  1.
          4    1    3    3  502    0 -0.61173703722E+02  0.85766433401E+02  0.33357991581E+03  0.34981947253E+03  0.00000000000E+00 0.  1.
         13    1    4    4    0    0 -0.48135446381E+02  0.69358552186E+03  0.39158420262E+03  0.79794492055E+03  0.10566000000E+00 0. -1.
         -4    1    4    4    0  501  0.23674178596E+03 -0.27464766095E+03  0.45484710701E+03  0.58169055488E+03  0.00000000000E+00 0. -1.
<mgrwt>
<rscale>  2 0.11610354E+04</rscale>
<asrwt>0</asrwt>
<pdfrwt beam="1">  1        1 0.23523323E+00 0.11610354E+04</pdfrwt>
<pdfrwt beam="2">  1       -1 0.18256303E+00 0.11610354E+04</pdfrwt>
<totfact> 0.16035668E+00</totfact>
</mgrwt>
</event>
<event>
 8    1  0.7046235E-006  0.1009565E+04  0.7818608E-02  0.8765656E-01
         -2   -1    0    0    0  501 -0.00000000000E+00  0.00000000000E+00  0.56880835494E+03  0.56880835494E+03  0.00000000000E+00 0.  1.
          2   -1    0    0  502    0  0.00000000000E+00 -0.00000000000E+00 -0.18973325583E+04  0.18973325583E+04  0.00000000000E+00 0. -1.
    9000010    2    1    2  502    0 -0.13733201162E+03 -0.97937023446E+02 -0.96480033834E+03  0.14088592287E+04  0.10127156025E+04 0.  0.
   -9000010    2    1    2    0  501  0.13733201162E+03  0.97937023446E+02 -0.36372386499E+03  0.10572816845E+04  0.97831373721E+03 0.  0.
        -13    1    3    3    0    0 -0.22665153972E+03  0.29755107418E+03 -0.12963856913E+02  0.37426679649E+03  0.10566000000E+00 0.  1.
          4    1    3    3  502    0  0.89319528102E+02 -0.39548809763E+03 -0.95183648143E+03  0.10345924322E+04  0.00000000000E+00 0.  1.
         13    1    4    4    0    0  0.22489697549E+02 -0.25076153549E+03 -0.57922896918E+03  0.63158003775E+03  0.10566000000E+00 0. -1.
         -4    1    4    4    0  501  0.11484231407E+03  0.34869855894E+03  0.21550510419E+03  0.42570164674E+03  0.00000000000E+00 0. -1.
<mgrwt>
<rscale>  2 0.10095652E+04</rscale>
<asrwt>0</asrwt>
<pdfrwt beam="2">  1        2 0.29189732E+00 0.10095652E+04</pdfrwt>
<pdfrwt beam="1">  1       -2 0.87508977E-01 0.10095652E+04</pdfrwt>
<totfact> 0.13268764E+01</totfact>
</mgrwt>
</event>
<event>
 8    1  0.7046235E-006  0.1166620E+04  0.7818608E-02  0.8632131E-01
          2   -1    0    0  502    0  0.00000000000E+00  0.00000000000E+00  0.26884534528E+04  0.26884534528E+04  0.00000000000E+00 0.  1.
         -2   -1    0    0    0  501 -0.00000000000E+00 -0.00000000000E+00 -0.52839856376E+03  0.52839856376E+03  0.00000000000E+00 0. -1.
    9000010    2    1    2  502    0  0.13141067541E+03  0.57231227931E+03  0.75369507784E+03  0.13917600169E+04  0.10119928674E+04 0.  0.
   -9000010    2    1    2    0  501 -0.13141067541E+03 -0.57231227931E+03  0.14063598112E+04  0.18250919996E+04  0.10041428076E+04 0.  0.
        -13    1    3    3    0    0  0.29091781842E+03  0.64187473324E+03  0.91469632295E+03  0.11546885834E+04  0.10566000000E+00 0.  1.
          4    1    3    3  502    0 -0.15950714301E+03 -0.69562453934E+02 -0.16100124510E+03  0.23707143352E+03  0.00000000000E+00 0.  1.
         13    1    4    4    0    0  0.39399371371E+03 -0.26080284806E+03  0.95538748751E+03  0.10658397790E+04  0.10566000000E+00 0. -1.
         -4    1    4    4    0  501 -0.52540438912E+03 -0.31150943124E+03  0.45097232369E+03  0.75925222067E+03  0.00000000000E+00 0. -1.
<mgrwt>
<rscale>  2 0.11666205E+04</rscale>
<asrwt>0</asrwt>
<pdfrwt beam="1">  1        2 0.41360822E+00 0.11666205E+04</pdfrwt>
<pdfrwt beam="2">  1       -2 0.81292088E-01 0.11666205E+04</pdfrwt>
<totfact> 0.56156144E+00</totfact>
</mgrwt>
</event>
<event>
 8    1  0.7046235E-006  0.1146872E+04  0.7818608E-02  0.8647680E-01
         -2   -1    0    0    0  501 -0.00000000000E+00  0.00000000000E+00  0.80085254324E+03  0.80085254324E+03  0.00000000000E+00 0. -1.
          2   -1    0    0  502    0  0.00000000000E+00 -0.00000000000E+00 -0.16480100877E+04  0.16480100877E+04  0.00000000000E+00 0.  1.
    9000010    2    1    2  502    0  0.48316948685E+03 -0.29013797392E+03 -0.49678168365E+03  0.12546837511E+04  0.10048912763E+04 0.  0.
   -9000010    2    1    2    0  501 -0.48316948685E+03  0.29013797392E+03 -0.35037586085E+03  0.11941788799E+04  0.99280771367E+03 0.  0.
        -13    1    3    3    0    0  0.29516882810E+03 -0.22906172745E+02 -0.77241803084E+03  0.82721155418E+03  0.10566000000E+00 0.  1.
          4    1    3    3  502    0  0.18800065876E+03 -0.26723180117E+03  0.27563634720E+03  0.42747219693E+03  0.00000000000E+00 0.  1.
         13    1    4    4    0    0 -0.64980717987E+03  0.46466793150E+03 -0.46787875775E+03  0.92578410047E+03  0.10566000000E+00 0. -1.
         -4    1    4    4    0  501  0.16663769302E+03 -0.17452995758E+03  0.11750289690E+03  0.26839477940E+03  0.00000000000E+00 0. -1.
<mgrwt>
<rscale>  2 0.11468715E+04</rscale>
<asrwt>0</asrwt>
<pdfrwt beam="2">  1        2 0.25354001E+00 0.11468715E+04</pdfrwt>
<pdfrwt beam="1">  1       -2 0.12320808E+00 0.11468715E+04</pdfrwt>
<totfact> 0.77101159E+00</totfact>
</mgrwt>
</event>
<event>
 8    1  0.7046235E-006  0.1060048E+04  0.7818608E-02  0.8720129E-01
          2   -1    0    0  502    0  0.00000000000E+00  0.00000000000E+00  0.15808460591E+04  0.15808460591E+04  0.00000000000E+00 0. -1.
         -2   -1    0    0    0  501 -0.00000000000E+00 -0.00000000000E+00 -0.78445325668E+03  0.78445325668E+03  0.00000000000E+00 0.  1.
    9000010    2    1    2  502    0 -0.25399126688E+03  0.29806232180E+03  0.19398957456E+02  0.98053511443E+03  0.89873248509E+03 0.  0.
   -9000010    2    1    2    0  501  0.25399126688E+03 -0.29806232180E+03  0.77699384500E+03  0.13847642014E+04  0.10772649381E+04 0.  0.
        -13    1    3    3    0    0  0.21104566957E+03  0.39912685903E+03  0.16838408472E+03  0.48186692706E+03  0.10566000000E+00 0.  1.
          4    1    3    3  502    0 -0.46503693645E+03 -0.10106453723E+03 -0.14898512726E+03  0.49866818737E+03  0.00000000000E+00 0.  1.
         13    1    4    4    0    0 -0.31141874140E+03 -0.16056751472E+03  0.71920728586E+03  0.80001418142E+03  0.10566000000E+00 0. -1.
         -4    1    4    4    0  501  0.56541000827E+03 -0.13749480708E+03  0.57786559134E+02  0.58475001996E+03  0.00000000000E+00 0. -1.
<mgrwt>
<rscale>  2 0.10600485E+04</rscale>
<asrwt>0</asrwt>
<pdfrwt beam="1">  1        2 0.24320708E+00 0.10600485E+04</pdfrwt>
<pdfrwt beam="2">  1       -2 0.12068512E+00 0.10600485E+04</pdfrwt>
<totfact> 0.89417648E+00</totfact>
</mgrwt>
</event>
<event>
 8    1  0.7046235E-006  0.1239884E+04  0.7818608E-02  0.8577119E-01
          4   -1    0    0  502    0  0.00000000000E+00  0.00000000000E+00  0.10554575605E+04  0.10554575605E+04  0.00000000000E+00 0.  1.
         -4   -1    0    0    0  501 -0.00000000000E+00 -0.00000000000E+00 -0.16741528981E+04  0.16741528981E+04  0.00000000000E+00 0. -1.
    9000010    2    1    2  502    0  0.66172796456E+03 -0.32786073084E+03  0.17984629711E+03  0.12651542793E+04  0.10113822730E+04 0.  0.
   -9000010    2    1    2    0  501 -0.66172796456E+03  0.32786073084E+03 -0.79854163474E+03  0.14644561792E+04  0.98060522159E+03 0.  0.
        -13    1    3    3    0    0  0.32841660303E+03 -0.64665176302E+03  0.30571243262E+03  0.78706802145E+03  0.10566000000E+00 0.  1.
          4    1    3    3  502    0  0.33331136153E+03  0.31879103218E+03 -0.12586613551E+03  0.47808625790E+03  0.00000000000E+00 0.  1.
         13    1    4    4    0    0 -0.36476726503E+03  0.63825592960E+03 -0.26950795706E+03  0.78298169799E+03  0.10566000000E+00 0. -1.
         -4    1    4    4    0  501 -0.29696069953E+03 -0.31039519876E+03 -0.52903367768E+03  0.68147448126E+03  0.00000000000E+00 0. -1.
<mgrwt>
<rscale>  2 0.12398836E+04</rscale>
<asrwt>0</asrwt>
<pdfrwt beam="1">  1        4 0.16237809E+00 0.12398836E+04</pdfrwt>
<pdfrwt beam="2">  1       -4 0.25756198E+00 0.12398836E+04</pdfrwt>
<totfact> 0.17212408E-01</totfact>
</mgrwt>
</event>
<event>
 8    1  0.7046235E-006  0.1147420E+04  0.7818608E-02  0.8647244E-01
         -2   -1    0    0    0  501 -0.00000000000E+00  0.00000000000E+00  0.89281208320E+03  0.89281208320E+03  0.00000000000E+00 0. -1.
          2   -1    0    0  502    0  0.00000000000E+00 -0.00000000000E+00 -0.20044434325E+04  0.20044434325E+04  0.00000000000E+00 0.  1.
    9000010    2    1    2  502    0  0.32352764871E+03  0.42276135321E+03 -0.12943508663E+04  0.17187650367E+04  0.99770325505E+03 0.  0.
   -9000010    2    1    2    0  501 -0.32352764871E+03 -0.42276135321E+03  0.18271951694E+03  0.11784904790E+04  0.10354014130E+04 0.  0.
        -13    1    3    3    0    0 -0.15751036343E+02 -0.10387606119E+03 -0.10356849114E+04  0.10410002777E+04  0.10566000000E+00 0.  1.
          4    1    3    3  502    0  0.33927868505E+03  0.52663741440E+03 -0.25866595486E+03  0.67776475903E+03  0.00000000000E+00 0.  1.
         13    1    4    4    0    0  0.21584724110E+03  0.22774976158E+03  0.10038836380E+03  0.32945078561E+03  0.10566000000E+00 0. -1.
         -4    1    4    4    0  501 -0.53937488981E+03 -0.65051111479E+03  0.82331153141E+02  0.84903969342E+03  0.00000000000E+00 0. -1.
<mgrwt>
<rscale>  2 0.11474204E+04</rscale>
<asrwt>0</asrwt>
<pdfrwt beam="2">  1        2 0.30837591E+00 0.11474204E+04</pdfrwt>
<pdfrwt beam="1">  1       -2 0.13735571E+00 0.11474204E+04</pdfrwt>
<totfact> 0.36476316E+00</totfact>
</mgrwt>
</event>
<event>
 8    1  0.7046235E-006  0.1439899E+04  0.7818608E-02  0.8444950E-01
         -1   -1    0    0    0  501 -0.00000000000E+00  0.00000000000E+00  0.13810708209E+04  0.13810708209E+04  0.00000000000E+00 0.  1.
          1   -1    0    0  502    0  0.00000000000E+00 -0.00000000000E+00 -0.15691488317E+04  0.15691488317E+04  0.00000000000E+00 0. -1.
    9000010    2    1    2  502    0  0.84030921554E+03 -0.50129247217E+03 -0.39505606948E+03  0.14522624906E+04  0.99778921784E+03 0.  0.
   -9000010    2    1    2    0  501 -0.84030921554E+03  0.50129247217E+03  0.20697805871E+03  0.14979571620E+04  0.11151780226E+04 0.  0.
        -13    1    3    3    0    0  0.18013446148E+03  0.16085160425E+02  0.30843307444E+03  0.35754458347E+03  0.10566000000E+00 0.  1.
          4    1    3    3  502    0  0.66017475406E+03 -0.51737763259E+03 -0.70348914392E+03  0.10947179071E+04  0.00000000000E+00 0.  1.
         13    1    4    4    0    0 -0.18174445354E+03  0.70977373081E+03 -0.10470934085E+03  0.74011745863E+03  0.10566000000E+00 0. -1.
         -4    1    4    4    0  501 -0.65856476199E+03 -0.20848125864E+03  0.31168739956E+03  0.75783970336E+03  0.00000000000E+00 0. -1.
<mgrwt>
<rscale>  2 0.14398995E+04</rscale>
<asrwt>0</asrwt>
<pdfrwt beam="2">  1        1 0.24140751E+00 0.14398995E+04</pdfrwt>
<pdfrwt beam="1">  1       -1 0.21247243E+00 0.14398995E+04</pdfrwt>
<totfact> 0.77991229E-01</totfact>
</mgrwt>
</event>
<event>
 8    1  0.7046235E-006  0.1384617E+04  0.7818608E-02  0.8479162E-01
          1   -1    0    0  502    0  0.00000000000E+00  0.00000000000E+00  0.32168497408E+04  0.32168497408E+04  0.00000000000E+00 0. -1.
         -1   -1    0    0    0  501 -0.00000000000E+00 -0.00000000000E+00 -0.67403904682E+03  0.67403904682E+03  0.00000000000E+00 0.  1.
    9000010    2    1    2  502    0 -0.43954012983E+03 -0.68806050055E+03  0.18348844401E+04  0.22408194991E+04  0.99390559950E+03 0.  0.
   -9000010    2    1    2    0  501  0.43954012983E+03  0.68806050055E+03  0.70792625392E+03  0.16500692886E+04  0.12469748586E+04 0.  0.
        -13    1    3    3    0    0  0.14805117887E+02 -0.71467909763E+03  0.15419099124E+04  0.16995504091E+04  0.10566000000E+00 0.  1.
          4    1    3    3  502    0 -0.45434524771E+03  0.26618597082E+02  0.29297452774E+03  0.54126908995E+03  0.00000000000E+00 0.  1.
         13    1    4    4    0    0 -0.30052297908E+02 -0.32181544229E+03 -0.12835962164E+02  0.32347038905E+03  0.10566000000E+00 0. -1.
         -4    1    4    4    0  501  0.46959242774E+03  0.10098759428E+04  0.72076221608E+03  0.13265988995E+04  0.00000000000E+00 0. -1.
<mgrwt>
<rscale>  2 0.13846173E+04</rscale>
<asrwt>0</asrwt>
<pdfrwt beam="1">  1        1 0.49489995E+00 0.13846173E+04</pdfrwt>
<pdfrwt beam="2">  1       -1 0.10369832E+00 0.13846173E+04</pdfrwt>
<totfact> 0.23647825E-01</totfact>
</mgrwt>
</event>
<event>
 8    1  0.7046235E-006  0.1265350E+04  0.7818608E-02  0.8558913E-01
          2   -1    0    0  502    0  0.00000000000E+00  0.00000000000E+00  0.16838141194E+04  0.16838141194E+04  0.00000000000E+00 0.  1.
         -2   -1    0    0    0  501 -0.00000000000E+00 -0.00000000000E+00 -0.10235303650E+04  0.10235303650E+04  0.00000000000E+00 0. -1.
    9000010    2    1    2  502    0  0.65439960629E+03 -0.35020493083E+03 -0.22726401203E+02  0.12930614867E+04  0.10585882962E+04 0.  0.
   -9000010    2    1    2    0  501 -0.65439960629E+03  0.35020493083E+03  0.68301015561E+03  0.14142829977E+04  0.99136834047E+03 0.  0.
        -13    1    3    3    0    0  0.56316409207E+03 -0.54507682587E+03 -0.38384585554E+03  0.87269707956E+03  0.10566000000E+00 0.  1.
          4    1    3    3  502    0  0.91235514222E+02  0.19487189504E+03  0.36111945433E+03  0.42036440719E+03  0.00000000000E+00 0.  1.
         13    1    4    4    0    0  0.62632403660E+02 -0.24207460428E+03 -0.16459861464E+02  0.25058705120E+03  0.10566000000E+00 0. -1.
         -4    1    4    4    0  501 -0.71703200995E+03  0.59227953511E+03  0.69947001708E+03  0.11636959465E+04  0.00000000000E+00 0. -1.
<mgrwt>
<rscale>  2 0.12653501E+04</rscale>
<asrwt>0</asrwt>
<pdfrwt beam="1">  1        2 0.25904833E+00 0.12653501E+04</pdfrwt>
<pdfrwt beam="2">  1       -2 0.15746621E+00 0.12653501E+04</pdfrwt>
<totfact> 0.35653401E+00</totfact>
</mgrwt>
</event>
<event>
 8    1  0.7046235E-006  0.1693689E+04  0.7818608E-02  0.8305991E-01
         -2   -1    0    0    0  501 -0.00000000000E+00  0.00000000000E+00  0.11897282524E+04  0.11897282524E+04  0.00000000000E+00 0. -1.
          2   -1    0    0  502    0  0.00000000000E+00 -0.00000000000E+00 -0.24691730374E+04  0.24691730374E+04  0.00000000000E+00 0.  1.
    9000010    2    1    2  502    0  0.17049777925E+03 -0.13997601698E+04 -0.37609201490E+03  0.17721690637E+04  0.10053556391E+04 0.  0.
   -9000010    2    1    2    0  501 -0.17049777925E+03  0.13997601698E+04 -0.90335277012E+03  0.18867322260E+04  0.86908816565E+03 0.  0.
        -13    1    3    3    0    0 -0.21113722969E+03 -0.96210388434E+03 -0.59596220094E+03  0.11512574734E+04  0.10566000000E+00 0.  1.
          4    1    3    3  502    0  0.38163500894E+03 -0.43765628547E+03  0.21987018604E+03  0.62091159030E+03  0.00000000000E+00 0.  1.
         13    1    4    4    0    0 -0.46490261109E+03  0.10494865902E+04 -0.42294928203E+03  0.12232917261E+04  0.10566000000E+00 0. -1.
         -4    1    4    4    0  501  0.29440483183E+03  0.35027357964E+03 -0.48040348808E+03  0.66344049994E+03  0.00000000000E+00 0. -1.
<mgrwt>
<rscale>  2 0.16936893E+04</rscale>
<asrwt>0</asrwt>
<pdfrwt beam="2">  1        2 0.37987278E+00 0.16936893E+04</pdfrwt>
<pdfrwt beam="1">  1       -2 0.18303512E+00 0.16936893E+04</pdfrwt>
<totfact> 0.76721198E-01</totfact>
</mgrwt>
</event>
<event>
 8    1  0.7046235E-006  0.1388831E+04  0.7818608E-02  0.8476497E-01
         -1   -1    0    0    0  501 -0.00000000000E+00  0.00000000000E+00  0.80537610758E+03  0.80537610758E+03  0.00000000000E+00 0. -1.
          1   -1    0    0  502    0  0.00000000000E+00 -0.00000000000E+00 -0.24675712163E+04  0.24675712163E+04  0.00000000000E+00 0.  1.
    9000010    2    1    2  502    0  0.81202728413E+03  0.51021377378E+03 -0.11148523671E+04  0.17851461522E+04  0.10120002861E+04 0.  0.
   -9000010    2    1    2    0  501 -0.81202728413E+03 -0.51021377378E+03 -0.54734274161E+03  0.14878011717E+04  0.99712679463E+03 0.  0.
        -13    1    3    3    0    0  0.39165667706E+03  0.62566111700E+02  0.11290490304E+03  0.41237967859E+03  0.10566000000E+00 0.  1.
          4    1    3    3  502    0  0.42037060706E+03  0.44764766208E+03 -0.12277572701E+04  0.13727664736E+04  0.00000000000E+00 0.  1.
         13    1    4    4    0    0 -0.71313783683E+03 -0.45005151739E+02 -0.68789743887E+03  0.99186386947E+03  0.10566000000E+00 0. -1.
         -4    1    4    4    0  501 -0.98889447298E+02 -0.46520862204E+03  0.14055469726E+03  0.49593730221E+03  0.00000000000E+00 0. -1.
<mgrwt>
<rscale>  2 0.13888311E+04</rscale>
<asrwt>0</asrwt>
<pdfrwt beam="2">  1        1 0.37962634E+00 0.13888311E+04</pdfrwt>
<pdfrwt beam="1">  1       -1 0.12390402E+00 0.13888311E+04</pdfrwt>
<totfact> 0.92310378E-01</totfact>
</mgrwt>
</event>
<event>
 8    1  0.7046235E-006  0.1074142E+04  0.7818608E-02  0.8707886E-01
          1   -1    0    0  502    0  0.00000000000E+00  0.00000000000E+00  0.36746700164E+03  0.36746700164E+03  0.00000000000E+00 0.  1.
         -1   -1    0    0    0  501 -0.00000000000E+00 -0.00000000000E+00 -0.36439758547E+04  0.36439758547E+04  0.00000000000E+00 0. -1.
    9000010    2    1    2  502    0 -0.29842678351E+03  0.21183899369E+03 -0.88192009103E+03  0.13837014747E+04  0.10014551512E+04 0.  0.
   -9000010    2    1    2    0  501  0.29842678351E+03 -0.21183899369E+03 -0.23945887621E+04  0.26277413817E+04  0.10183492157E+04 0.  0.
        -13    1    3    3    0    0 -0.96409405121E+02  0.37774757196E+03 -0.10172065139E+04  0.10893562799E+04  0.10566000000E+00 0.  1.
          4    1    3    3  502    0 -0.20201737839E+03 -0.16590857827E+03  0.13528642284E+03  0.29434519484E+03  0.00000000000E+00 0.  1.
         13    1    4    4    0    0  0.14685048795E+03  0.40942555161E+02 -0.23182699374E+04  0.23232771837E+04  0.10566000000E+00 0. -1.
         -4    1    4    4    0  501  0.15157629556E+03 -0.25278154885E+03 -0.76318824666E+02  0.30446419791E+03  0.00000000000E+00 0. -1.
<mgrwt>
<rscale>  2 0.10741424E+04</rscale>
<asrwt>0</asrwt>
<pdfrwt beam="1">  1        1 0.56533382E-01 0.10741424E+04</pdfrwt>
<pdfrwt beam="2">  1       -1 0.56061170E+00 0.10741424E+04</pdfrwt>
<totfact> 0.47402921E-01</totfact>
</mgrwt>
</event>
<event>
 8    1  0.7046235E-006  0.1725322E+04  0.7818608E-02  0.8290447E-01
          2   -1    0    0  502    0  0.00000000000E+00  0.00000000000E+00  0.44906198016E+04  0.44906198016E+04  0.00000000000E+00 0. -1.
         -2   -1    0    0    0  501 -0.00000000000E+00 -0.00000000000E+00 -0.67697058576E+03  0.67697058576E+03  0.00000000000E+00 0.  1.
    9000010    2    1    2  502    0  0.19870146668E+03  0.13799607178E+04  0.22797264797E+04  0.28590635511E+04  0.10165223617E+04 0.  0.
   -9000010    2    1    2    0  501 -0.19870146668E+03 -0.13799607178E+04  0.15339227361E+04  0.23085268362E+04  0.10161709195E+04 0.  0.
        -13    1    3    3    0    0 -0.33889390271E+03  0.15872518266E+03  0.34607561890E+03  0.50971669196E+03  0.10566000000E+00 0.  1.
          4    1    3    3  502    0  0.53759536938E+03  0.12212355351E+04  0.19336508608E+04  0.23493468592E+04  0.00000000000E+00 0.  1.
         13    1    4    4    0    0  0.10987135482E+02 -0.34506912179E+02 -0.14348916083E+03  0.14798849474E+03  0.10566000000E+00 0. -1.
         -4    1    4    4    0  501 -0.20968860216E+03 -0.13454538056E+04  0.16774118970E+04  0.21605383415E+04  0.00000000000E+00 0. -1.
<mgrwt>
<rscale>  2 0.17253215E+04</rscale>
<asrwt>0</asrwt>
<pdfrwt beam="1">  1        2 0.69086457E+00 0.17253215E+04</pdfrwt>
<pdfrwt beam="2">  1       -2 0.10414932E+00 0.17253215E+04</pdfrwt>
<totfact> 0.12272527E-01</totfact>
</mgrwt>
</event>
<event>
 8    1  0.7046235E-006  0.1365099E+04  0.7818608E-02  0.8491635E-01
          2   -1    0    0  502    0  0.00000000000E+00  0.00000000000E+00  0.24352144790E+04  0.24352144790E+04  0.00000000000E+00 0.  1.
         -2   -1    0    0    0  501 -0.00000000000E+00 -0.00000000000E+00 -0.80643361092E+03  0.80643361092E+03  0.00000000000E+00 0. -1.
    9000010    2    1    2  502    0  0.12417560829E+03  0.89204178897E+03  0.11934999541E+04  0.18319753218E+04  0.10585524570E+04 0.  0.
   -9000010    2    1    2    0  501 -0.12417560829E+03 -0.89204178897E+03  0.43528091394E+03  0.14096727681E+04  0.99325208487E+03 0.  0.
        -13    1    3    3    0    0 -0.11040638565E+03 -0.16788818217E+03 -0.22160472817E+02  0.20215615109E+03  0.10566000000E+00 0.  1.
          4    1    3    3  502    0  0.23458199394E+03  0.10599299711E+04  0.12156604269E+04  0.16298191707E+04  0.00000000000E+00 0.  1.
         13    1    4    4    0    0  0.98699731011E+02  0.19938734116E+03  0.31008488312E+02  0.22462966462E+03  0.10566000000E+00 0. -1.
         -4    1    4    4    0  501 -0.22287533930E+03 -0.10914291301E+04  0.40427242562E+03  0.11850431035E+04  0.00000000000E+00 0. -1.
<mgrwt>
<rscale>  2 0.13650992E+04</rscale>
<asrwt>0</asrwt>
<pdfrwt beam="1">  1        2 0.37464838E+00 0.13650992E+04</pdfrwt>
<pdfrwt beam="2">  1       -2 0.12406671E+00 0.13650992E+04</pdfrwt>
<totfact> 0.27432436E+00</totfact>
</mgrwt>
</event>
<event>
 8    1  0.7046235E-006  0.1514349E+04  0.7818608E-02  0.8401289E-01
          2   -1    0    0  502    0  0.00000000000E+00  0.00000000000E+00  0.12082387918E+04  0.12082387918E+04  0.00000000000E+00 0. -1.
         -2   -1    0    0    0  501 -0.00000000000E+00 -0.00000000000E+00 -0.19669330970E+04  0.19669330970E+04  0.00000000000E+00 0.  1.
    9000010    2    1    2  502    0 -0.32297326227E+03 -0.10877377366E+04 -0.67449089685E+03  0.16505392670E+04  0.99088687055E+03 0.  0.
   -9000010    2    1    2    0  501  0.32297326227E+03  0.10877377366E+04 -0.84203408313E+02  0.15246326218E+04  0.10148543273E+04 0.  0.
        -13    1    3    3    0    0  0.74358837711E+02 -0.92034768403E+03 -0.77768112606E+03  0.12072104378E+04  0.10566000000E+00 0.  1.
          4    1    3    3  502    0 -0.39733209998E+03 -0.16739005260E+03  0.10319022920E+03  0.44332882919E+03  0.00000000000E+00 0.  1.
         13    1    4    4    0    0 -0.10704300438E+03  0.11359886825E+03 -0.38724770093E+03  0.41752089851E+03  0.10566000000E+00 0. -1.
         -4    1    4    4    0  501  0.43001626664E+03  0.97413886838E+03  0.30304429262E+03  0.11071117233E+04  0.00000000000E+00 0. -1.
<mgrwt>
<rscale>  2 0.15143488E+04</rscale>
<asrwt>0</asrwt>
<pdfrwt beam="1">  1        2 0.18588289E+00 0.15143488E+04</pdfrwt>
<pdfrwt beam="2">  1       -2 0.30260509E+00 0.15143488E+04</pdfrwt>
<totfact> 0.45686790E-01</totfact>
</mgrwt>
</event>
<event>
 8    1  0.7046235E-006  0.1127738E+04  0.7818608E-02  0.8663059E-01
         -2   -1    0    0    0  501 -0.00000000000E+00  0.00000000000E+00  0.20990407450E+04  0.20990407450E+04  0.00000000000E+00 0.  1.
          2   -1    0    0  502    0  0.00000000000E+00 -0.00000000000E+00 -0.61164485968E+03  0.61164485968E+03  0.00000000000E+00 0. -1.
    9000010    2    1    2  502    0  0.19584884645E+03  0.42762255091E+03  0.62792275731E+03  0.13088150633E+04  0.10476125544E+04 0.  0.
   -9000010    2    1    2    0  501 -0.19584884645E+03 -0.42762255091E+03  0.85947312795E+03  0.14018705413E+04  0.10026610296E+04 0.  0.
        -13    1    3    3    0    0 -0.33676148857E+03 -0.78268174646E+02  0.51500215347E+01  0.34577556483E+03  0.10566000000E+00 0.  1.
          4    1    3    3  502    0  0.53261033502E+03  0.50589072556E+03  0.62277273578E+03  0.96303949847E+03  0.00000000000E+00 0.  1.
         13    1    4    4    0    0  0.20983417734E+03 -0.40848204065E+03  0.88276503903E+03  0.99506888446E+03  0.10566000000E+00 0. -1.
         -4    1    4    4    0  501 -0.40568302379E+03 -0.19140510259E+02 -0.23291911078E+02  0.40680165689E+03  0.00000000000E+00 0. -1.
<mgrwt>
<rscale>  2 0.11277384E+04</rscale>
<asrwt>0</asrwt>
<pdfrwt beam="2">  1        2 0.94099210E-01 0.11277384E+04</pdfrwt>
<pdfrwt beam="1">  1       -2 0.32292934E+00 0.11277384E+04</pdfrwt>
<totfact> 0.86348212E-01</totfact>
</mgrwt>
</event>
<event>
 8    1  0.7046235E-006  0.1361592E+04  0.7818608E-02  0.8493898E-01
         -2   -1    0    0    0  501 -0.00000000000E+00  0.00000000000E+00  0.56373622046E+03  0.56373622046E+03  0.00000000000E+00 0. -1.
          2   -1    0    0  502    0  0.00000000000E+00 -0.00000000000E+00 -0.34021407179E+04  0.34021407179E+04  0.00000000000E+00 0.  1.
    9000010    2    1    2  502    0  0.41722063166E+03  0.82080323424E+03 -0.17795896740E+04  0.22396642551E+04  0.10006825486E+04 0.  0.
   -9000010    2    1    2    0  501 -0.41722063166E+03 -0.82080323424E+03 -0.10588148235E+04  0.17262126833E+04  0.10054503432E+04 0.  0.
        -13    1    3    3    0    0  0.67275673382E+03  0.83749857459E+03 -0.12282044097E+04  0.16317143036E+04  0.10566000000E+00 0.  1.
          4    1    3    3  502    0 -0.25553610216E+03 -0.16695340347E+02 -0.55138526422E+03  0.60794995147E+03  0.00000000000E+00 0.  1.
         13    1    4    4    0    0 -0.16154445877E+03  0.86981737874E+02  0.11798410146E+03  0.21813457829E+03  0.10566000000E+00 0. -1.
         -4    1    4    4    0  501 -0.25567617288E+03 -0.90778497212E+03 -0.11767989249E+04  0.15080781050E+04  0.00000000000E+00 0. -1.
<mgrwt>
<rscale>  2 0.13615920E+04</rscale>
<asrwt>0</asrwt>
<pdfrwt beam="2">  1        2 0.52340626E+00 0.13615920E+04</pdfrwt>
<pdfrwt beam="1">  1       -2 0.86728650E-01 0.13615920E+04</pdfrwt>
<totfact> 0.16837427E+00</totfact>
</mgrwt>
</event>
<event>
 8    1  0.7046235E-006  0.1114531E+04  0.7818608E-02  0.8673861E-01
         -2   -1    0    0    0  501 -0.00000000000E+00  0.00000000000E+00  0.56226963248E+03  0.56226963248E+03  0.00000000000E+00 0. -1.
          2   -1    0    0  502    0  0.00000000000E+00 -0.00000000000E+00 -0.22621005022E+04  0.22621005022E+04  0.00000000000E+00 0.  1.
    9000010    2    1    2  502    0 -0.28486142517E+03 -0.40697454289E+03 -0.10644067142E+04  0.15397850024E+04  0.99559122644E+03 0.  0.
   -9000010    2    1    2    0  501  0.28486142517E+03  0.40697454289E+03 -0.63542415545E+03  0.12845851323E+04  0.99981037931E+03 0.  0.
        -13    1    3    3    0    0  0.11636652481E+03  0.16987131889E+03 -0.73582427740E+03  0.76409083979E+03  0.10566000000E+00 0.  1.
          4    1    3    3  502    0 -0.40122794998E+03 -0.57684586178E+03 -0.32858243684E+03  0.77569416261E+03  0.00000000000E+00 0.  1.
         13    1    4    4    0    0 -0.18501045539E+01  0.70366542959E+03 -0.41118450475E+03  0.81499764896E+03  0.10566000000E+00 0. -1.
         -4    1    4    4    0  501  0.28671152972E+03 -0.29669088670E+03 -0.22423965070E+03  0.46958748330E+03  0.00000000000E+00 0. -1.
<mgrwt>
<rscale>  2 0.11145306E+04</rscale>
<asrwt>0</asrwt>
<pdfrwt beam="2">  1        2 0.34801545E+00 0.11145306E+04</pdfrwt>
<pdfrwt beam="1">  1       -2 0.86503022E-01 0.11145306E+04</pdfrwt>
<totfact> 0.85202223E+00</totfact>
</mgrwt>
</event>
<event>
 8    1  0.7046235E-006  0.1526112E+04  0.7818608E-02  0.8394628E-01
          2   -1    0    0  502    0  0.00000000000E+00  0.00000000000E+00  0.33738574632E+04  0.33738574632E+04  0.00000000000E+00 0.  1.
         -2   -1    0    0    0  501 -0.00000000000E+00 -0.00000000000E+00 -0.70167864766E+03  0.70167864766E+03  0.00000000000E+00 0. -1.
    9000010    2    1    2  502    0  0.54340606474E+01 -0.10699046240E+04  0.15209987160E+04  0.21083414322E+04  0.99344907625E+03 0.  0.
   -9000010    2    1    2    0  501 -0.54340606474E+01  0.10699046240E+04  0.11511800996E+04  0.19671946787E+04  0.11831795505E+04 0.  0.
        -13    1    3    3    0    0  0.22404910587E+03 -0.11627370642E+04  0.14234396714E+04  0.18515766232E+04  0.10566000000E+00 0.  1.
          4    1    3    3  502    0 -0.21861504522E+03  0.92832440179E+02  0.97559044562E+02  0.25676480896E+03  0.00000000000E+00 0.  1.
         13    1    4    4    0    0  0.25069620772E+03  0.39902808477E+03 -0.13840535767E+03  0.49114972788E+03  0.10566000000E+00 0. -1.
         -4    1    4    4    0  501 -0.25613026837E+03  0.67087653925E+03  0.12895854573E+04  0.14760449508E+04  0.00000000000E+00 0. -1.
<mgrwt>
<rscale>  2 0.15261119E+04</rscale>
<asrwt>0</asrwt>
<pdfrwt beam="1">  1        2 0.51905498E+00 0.15261119E+04</pdfrwt>
<pdfrwt beam="2">  1       -2 0.10795056E+00 0.15261119E+04</pdfrwt>
<totfact> 0.10252552E+00</totfact>
</mgrwt>
</event>
<event>
 8    1  0.7046235E-006  0.1075682E+04  0.7818608E-02  0.8706560E-01
          2   -1    0    0  502    0  0.00000000000E+00  0.00000000000E+00  0.33678053779E+04  0.33678053779E+04  0.00000000000E+00 0.  1.
         -2   -1    0    0    0  501 -0.00000000000E+00 -0.00000000000E+00 -0.34424624618E+03  0.34424624618E+03  0.00000000000E+00 0. -1.
    9000010    2    1    2  502    0 -0.22983442131E+03  0.38673975332E+03  0.14069079501E+04  0.17559990170E+04  0.94960574433E+03 0.  0.
   -9000010    2    1    2    0  501  0.22983442131E+03 -0.38673975332E+03  0.16166511817E+04  0.19560526071E+04  0.10050817184E+04 0.  0.
        -13    1    3    3    0    0 -0.36536188981E+03  0.34931286812E+02  0.13186770734E+04  0.13688019361E+04  0.10566000000E+00 0.  1.
          4    1    3    3  502    0  0.13552746850E+03  0.35180846651E+03  0.88230876702E+02  0.38719708086E+03  0.00000000000E+00 0.  1.
         13    1    4    4    0    0  0.62352701943E+03 -0.20676286382E+03  0.11083752358E+04  0.12884224852E+04  0.10566000000E+00 0. -1.
         -4    1    4    4    0  501 -0.39369259812E+03 -0.17997688950E+03  0.50827594581E+03  0.66763012189E+03  0.00000000000E+00 0. -1.
<mgrwt>
<rscale>  2 0.10756821E+04</rscale>
<asrwt>0</asrwt>
<pdfrwt beam="1">  1        2 0.51812388E+00 0.10756821E+04</pdfrwt>
<pdfrwt beam="2">  1       -2 0.52960963E-01 0.10756821E+04</pdfrwt>
<totfact> 0.51749807E+00</totfact>
</mgrwt>
</event>
<event>
 8    1  0.7046235E-006  0.1375035E+04  0.7818608E-02  0.8485258E-01
          2   -1    0    0  502    0  0.00000000000E+00  0.00000000000E+00  0.26579114919E+04  0.26579114919E+04  0.00000000000E+00 0.  1.
         -2   -1    0    0    0  501 -0.00000000000E+00 -0.00000000000E+00 -0.79662071631E+03  0.79662071631E+03  0.00000000000E+00 0. -1.
    9000010    2    1    2  502    0  0.65333667562E+03 -0.68128773660E+03  0.36432071051E+03  0.14204973250E+04  0.99703624731E+03 0.  0.
   -9000010    2    1    2    0  501 -0.65333667562E+03  0.68128773660E+03  0.14969700651E+04  0.20340348832E+04  0.10026847654E+04 0.  0.
        -13    1    3    3    0    0 -0.16186858405E+03 -0.35130976537E+03 -0.13437903438E+03  0.40948470764E+03  0.10566000000E+00 0.  1.
          4    1    3    3  502    0  0.81520525967E+03 -0.32997797123E+03  0.49869974489E+03  0.10110126174E+04  0.00000000000E+00 0.  1.
         13    1    4    4    0    0 -0.61558956437E+03 -0.62386413676E+02  0.53815735253E+03  0.82003409906E+03  0.10566000000E+00 0. -1.
         -4    1    4    4    0  501 -0.37747111247E+02  0.74367415027E+03  0.95881271258E+03  0.12140007842E+04  0.00000000000E+00 0. -1.
<mgrwt>
<rscale>  2 0.13750354E+04</rscale>
<asrwt>0</asrwt>
<pdfrwt beam="1">  1        2 0.40890946E+00 0.13750354E+04</pdfrwt>
<pdfrwt beam="2">  1       -2 0.12255703E+00 0.13750354E+04</pdfrwt>
<totfact> 0.21152917E+00</totfact>
</mgrwt>
</event>
<event>
 8    1  0.7046235E-006  0.1103300E+04  0.7818608E-02  0.8683169E-01
         -2   -1    0    0    0  501 -0.00000000000E+00  0.00000000000E+00  0.67049442085E+03  0.67049442085E+03  0.00000000000E+00 0.  1.
          2   -1    0    0  502    0  0.00000000000E+00 -0.00000000000E+00 -0.19379918795E+04  0.19379918795E+04  0.00000000000E+00 0. -1.
    9000010    2    1    2  502    0  0.19298754339E+02  0.45676503351E+03 -0.96223639615E+03  0.14647590323E+04  0.10052926951E+04 0.  0.
   -9000010    2    1    2    0  501 -0.19298754339E+02 -0.45676503351E+03 -0.30526106248E+03  0.11437272681E+04  0.10029561355E+04 0.  0.
        -13    1    3    3    0    0  0.42234200162E+03  0.77866902220E+02 -0.76530852476E+03  0.87757231613E+03  0.10566000000E+00 0.  1.
          4    1    3    3  502    0 -0.40304324728E+03  0.37889813129E+03 -0.19692787139E+03  0.58718671613E+03  0.00000000000E+00 0.  1.
         13    1    4    4    0    0  0.37888195893E+03 -0.42929496279E+03 -0.44038585834E+03  0.72234715980E+03  0.10566000000E+00 0. -1.
         -4    1    4    4    0  501 -0.39818071327E+03 -0.27470070719E+02  0.13512479585E+03  0.42138010829E+03  0.00000000000E+00 0. -1.
<mgrwt>
<rscale>  2 0.11033004E+04</rscale>
<asrwt>0</asrwt>
<pdfrwt beam="2">  1        2 0.29815259E+00 0.11033004E+04</pdfrwt>
<pdfrwt beam="1">  1       -2 0.10315299E+00 0.11033004E+04</pdfrwt>
<totfact> 0.84747080E+00</totfact>
</mgrwt>
</event>
<event>
 8    1  0.7046235E-006  0.1029586E+04  0.7818608E-02  0.8747279E-01
          2   -1    0    0  502    0  0.00000000000E+00  0.00000000000E+00  0.14301834145E+04  0.14301834145E+04  0.00000000000E+00 0.  1.
         -2   -1    0    0    0  501 -0.00000000000E+00 -0.00000000000E+00 -0.81033764181E+03  0.81033764181E+03  0.00000000000E+00 0. -1.
    9000010    2    1    2  502    0  0.54402975763E+03  0.26105797398E+03  0.59856642377E+03  0.11187207758E+04  0.72741650208E+03 0.  0.
   -9000010    2    1    2    0  501 -0.54402975763E+03 -0.26105797398E+03  0.21279348942E+02  0.11218002806E+04  0.94544350217E+03 0.  0.
        -13    1    3    3    0    0 -0.51081292495E+02  0.14466853921E+02  0.45584024587E+03  0.45892148482E+03  0.10566000000E+00 0.  1.
          4    1    3    3  502    0  0.59511105013E+03  0.24659112006E+03  0.14272617790E+03  0.65979929095E+03  0.00000000000E+00 0.  1.
         13    1    4    4    0    0 -0.49236428163E+03 -0.11901562226E+02  0.42102408400E+03  0.64793944430E+03  0.10566000000E+00 0. -1.
         -4    1    4    4    0  501 -0.51665476006E+02 -0.24915641176E+03 -0.39974473506E+03  0.47386083626E+03  0.00000000000E+00 0. -1.
<mgrwt>
<rscale>  2 0.10295857E+04</rscale>
<asrwt>0</asrwt>
<pdfrwt beam="1">  1        2 0.22002822E+00 0.10295857E+04</pdfrwt>
<pdfrwt beam="2">  1       -2 0.12466733E+00 0.10295857E+04</pdfrwt>
<totfact> 0.99427938E+00</totfact>
</mgrwt>
</event>
<event>
 8    1  0.7046235E-006  0.1260769E+04  0.7818608E-02  0.8562155E-01
         -2   -1    0    0    0  501 -0.00000000000E+00  0.00000000000E+00  0.64905393714E+03  0.64905393714E+03  0.00000000000E+00 0. -1.
          2   -1    0    0  502    0  0.00000000000E+00 -0.00000000000E+00 -0.25054740402E+04  0.25054740402E+04  0.00000000000E+00 0.  1.
    9000010    2    1    2  502    0 -0.71750375902E+03  0.30335626103E+03 -0.11690144086E+04  0.17235640507E+04  0.99861988963E+03 0.  0.
   -9000010    2    1    2    0  501  0.71750375902E+03 -0.30335626103E+03 -0.68740569447E+03  0.14309639267E+04  0.98401956551E+03 0.  0.
        -13    1    3    3    0    0 -0.27500914711E+03 -0.21809077237E+03  0.20368506435E+02  0.35158000968E+03  0.10566000000E+00 0.  1.
          4    1    3    3  502    0 -0.44249461191E+03  0.52144703340E+03 -0.11893829150E+04  0.13719840410E+04  0.00000000000E+00 0.  1.
         13    1    4    4    0    0 -0.88067837364E+02  0.21708860493E+03  0.25925875974E+02  0.23570228802E+03  0.10566000000E+00 0. -1.
         -4    1    4    4    0  501  0.80557159638E+03 -0.52044486596E+03 -0.71333157045E+03  0.11952616386E+04  0.00000000000E+00 0. -1.
<mgrwt>
<rscale>  2 0.12607692E+04</rscale>
<asrwt>0</asrwt>
<pdfrwt beam="2">  1        2 0.38545753E+00 0.12607692E+04</pdfrwt>
<pdfrwt beam="1">  1       -2 0.99854455E-01 0.12607692E+04</pdfrwt>
<totfact> 0.43985198E+00</totfact>
</mgrwt>
</event>
<event>
 8    1  0.7046235E-006  0.1307593E+04  0.7818608E-02  0.8529667E-01
          2   -1    0    0  502    0  0.00000000000E+00  0.00000000000E+00  0.12435295108E+04  0.12435295108E+04  0.00000000000E+00 0. -1.
         -2   -1    0    0    0  501 -0.00000000000E+00 -0.00000000000E+00 -0.14303015939E+04  0.14303015939E+04  0.00000000000E+00 0.  1.
    9000010    2    1    2  502    0 -0.91530439686E+01 -0.85532579620E+03 -0.35632680679E+03  0.13546708163E+04  0.98817925062E+03 0.  0.
   -9000010    2    1    2    0  501  0.91530439686E+01  0.85532579620E+03  0.16955472365E+03  0.13191602884E+04  0.98983284767E+03 0.  0.
        -13    1    3    3    0    0  0.33594053659E+03 -0.89319824292E+03 -0.20551827972E+03  0.97616439176E+03  0.10566000000E+00 0.  1.
          4    1    3    3  502    0 -0.34509358056E+03  0.37872446714E+02 -0.15080852707E+03  0.37850642451E+03  0.00000000000E+00 0.  1.
         13    1    4    4    0    0 -0.11609952189E+01  0.47425598718E+02  0.45860079578E+03  0.46104797622E+03  0.10566000000E+00 0. -1.
         -4    1    4    4    0  501  0.10314039188E+02  0.80790019748E+03 -0.28904607213E+03  0.85811231218E+03  0.00000000000E+00 0. -1.
<mgrwt>
<rscale>  2 0.13075928E+04</rscale>
<asrwt>0</asrwt>
<pdfrwt beam="1">  1        2 0.19131223E+00 0.13075928E+04</pdfrwt>
<pdfrwt beam="2">  1       -2 0.22004640E+00 0.13075928E+04</pdfrwt>
<totfact> 0.18686671E+00</totfact>
</mgrwt>
</event>
<event>
 8    1  0.7046235E-006  0.1092454E+04  0.7818608E-02  0.8692269E-01
          1   -1    0    0  502    0  0.00000000000E+00  0.00000000000E+00  0.10543224198E+04  0.10543224198E+04  0.00000000000E+00 0. -1.
         -1   -1    0    0    0  501 -0.00000000000E+00 -0.00000000000E+00 -0.12062031866E+04  0.12062031866E+04  0.00000000000E+00 0.  1.
    9000010    2    1    2  502    0 -0.35614094496E+03  0.93740587352E+02 -0.35439583372E+03  0.11304620656E+04  0.10083275284E+04 0.  0.
   -9000010    2    1    2    0  501  0.35614094496E+03 -0.93740587352E+02  0.20251506690E+03  0.11300635407E+04  0.10490031379E+04 0.  0.
        -13    1    3    3    0    0 -0.25909520301E+03 -0.15530447279E+03  0.29868090703E+03  0.42480595439E+03  0.10566000000E+00 0.  1.
          4    1    3    3  502    0 -0.97045741956E+02  0.24904506015E+03 -0.65307674076E+03  0.70565611124E+03  0.00000000000E+00 0.  1.
         13    1    4    4    0    0  0.30741450492E+03  0.34020727721E+03 -0.23213927804E+03  0.51393902836E+03  0.10566000000E+00 0. -1.
         -4    1    4    4    0  501  0.48726440042E+02 -0.43394786456E+03  0.43465434494E+03  0.61612451233E+03  0.00000000000E+00 0. -1.
<mgrwt>
<rscale>  2 0.10924543E+04</rscale>
<asrwt>0</asrwt>
<pdfrwt beam="1">  1        1 0.16220345E+00 0.10924543E+04</pdfrwt>
<pdfrwt beam="2">  1       -1 0.18556972E+00 0.10924543E+04</pdfrwt>
<totfact> 0.34987025E+00</totfact>
</mgrwt>
</event>
<event>
 8    1  0.7046235E-006  0.1455991E+04  0.7818608E-02  0.8435286E-01
         -4   -1    0    0    0  501 -0.00000000000E+00  0.00000000000E+00  0.25144768011E+04  0.25144768011E+04  0.00000000000E+00 0. -1.
          4   -1    0    0  502    0  0.00000000000E+00 -0.00000000000E+00 -0.91737242407E+03  0.91737242407E+03  0.00000000000E+00 0.  1.
    9000010    2    1    2  502    0 -0.10019005375E+04  0.88875226429E+02  0.33553209261E+03  0.15382769559E+04  0.11144553445E+04 0.  0.
   -9000010    2    1    2    0  501  0.10019005375E+04 -0.88875226429E+02  0.12615722844E+04  0.18935722693E+04  0.99113461113E+03 0.  0.
        -13    1    3    3    0    0  0.19390796435E+03 -0.16300990679E+03 -0.47227270143E+02  0.25768770743E+03  0.10566000000E+00 0.  1.
          4    1    3    3  502    0 -0.11958085019E+04  0.25188513322E+03  0.38275936276E+03  0.12805892484E+04  0.00000000000E+00 0.  1.
         13    1    4    4    0    0  0.96059652207E+03 -0.36603016245E+03  0.63781854813E+03  0.12097670311E+04  0.10566000000E+00 0. -1.
         -4    1    4    4    0  501  0.41304015426E+02  0.27715493603E+03  0.62375373632E+03  0.68380523823E+03  0.00000000000E+00 0. -1.
<mgrwt>
<rscale>  2 0.14559913E+04</rscale>
<asrwt>0</asrwt>
<pdfrwt beam="2">  1        4 0.14113422E+00 0.14559913E+04</pdfrwt>
<pdfrwt beam="1">  1       -4 0.38684258E+00 0.14559913E+04</pdfrwt>
<totfact> 0.85173081E-02</totfact>
</mgrwt>
</event>
<event>
 8    1  0.7046235E-006  0.1248094E+04  0.7818608E-02  0.8571201E-01
          1   -1    0    0  502    0  0.00000000000E+00  0.00000000000E+00  0.20103786105E+04  0.20103786105E+04  0.00000000000E+00 0.  1.
         -1   -1    0    0    0  501 -0.00000000000E+00 -0.00000000000E+00 -0.86347345275E+03  0.86347345275E+03  0.00000000000E+00 0. -1.
    9000010    2    1    2  502    0  0.63064078063E+03  0.40952694441E+03  0.10332532438E+04  0.16192703350E+04  0.99448682232E+03 0.  0.
   -9000010    2    1    2    0  501 -0.63064078063E+03 -0.40952694441E+03  0.11365191393E+03  0.12545817282E+04  0.99781683826E+03 0.  0.
        -13    1    3    3    0    0 -0.24559047064E+03 -0.50920052526E+02  0.14743135332E+03  0.29093563915E+03  0.10566000000E+00 0.  1.
          4    1    3    3  502    0  0.87623125128E+03  0.46044699694E+03  0.88582189045E+03  0.13283346959E+04  0.00000000000E+00 0.  1.
         13    1    4    4    0    0 -0.26968639515E+03 -0.47917923512E+03 -0.35834355044E+03  0.65631821734E+03  0.10566000000E+00 0. -1.
         -4    1    4    4    0  501 -0.36095438548E+03  0.69652290711E+02  0.47199546437E+03  0.59826351083E+03  0.00000000000E+00 0. -1.
<mgrwt>
<rscale>  2 0.12480937E+04</rscale>
<asrwt>0</asrwt>
<pdfrwt beam="1">  1        1 0.30928902E+00 0.12480937E+04</pdfrwt>
<pdfrwt beam="2">  1       -1 0.13284207E+00 0.12480937E+04</pdfrwt>
<totfact> 0.18685074E+00</totfact>
</mgrwt>
</event>
<event>
 8    1  0.7046235E-006  0.1035385E+04  0.7818608E-02  0.8742036E-01
         -2   -1    0    0    0  501 -0.00000000000E+00  0.00000000000E+00  0.11885116396E+04  0.11885116396E+04  0.00000000000E+00 0. -1.
          2   -1    0    0  502    0  0.00000000000E+00 -0.00000000000E+00 -0.93316765545E+03  0.93316765545E+03  0.00000000000E+00 0.  1.
    9000010    2    1    2  502    0 -0.11050323343E+01  0.27588071588E+03 -0.66693258194E+02  0.10333647134E+04  0.99362128086E+03 0.  0.
   -9000010    2    1    2    0  501  0.11050323343E+01 -0.27588071588E+03  0.32203724239E+03  0.10883145817E+04  0.10023019768E+04 0.  0.
        -13    1    3    3    0    0  0.38280163083E+03 -0.14087738727E+03  0.13842513960E+03  0.43074941352E+03  0.10566000000E+00 0.  1.
          4    1    3    3  502    0 -0.38390666317E+03  0.41675810315E+03 -0.20511839779E+03  0.60261529991E+03  0.00000000000E+00 0.  1.
         13    1    4    4    0    0  0.31932257091E+03  0.84677669658E+02 -0.19385933728E+03  0.38303872630E+03  0.10566000000E+00 0. -1.
         -4    1    4    4    0  501 -0.31821753857E+03 -0.36055838554E+03  0.51589657967E+03  0.70527585536E+03  0.00000000000E+00 0. -1.
<mgrwt>
<rscale>  2 0.10353853E+04</rscale>
<asrwt>0</asrwt>
<pdfrwt beam="2">  1        2 0.14356425E+00 0.10353853E+04</pdfrwt>
<pdfrwt beam="1">  1       -2 0.18284795E+00 0.10353853E+04</pdfrwt>
<totfact> 0.59456085E+00</totfact>
</mgrwt>
</event>
<event>
 8    1  0.7046235E-006  0.1175347E+04  0.7818608E-02  0.8625361E-01
          1   -1    0    0  502    0  0.00000000000E+00  0.00000000000E+00  0.18988380598E+04  0.18988380598E+04  0.00000000000E+00 0.  1.
         -1   -1    0    0    0  501 -0.00000000000E+00 -0.00000000000E+00 -0.72764588693E+03  0.72764588693E+03  0.00000000000E+00 0. -1.
    9000010    2    1    2  502    0  0.59905362619E+03 -0.49710325613E+02  0.56659558058E+03  0.12992235040E+04  0.10028034692E+04 0.  0.
   -9000010    2    1    2    0  501 -0.59905362619E+03  0.49710325613E+02  0.60459659233E+03  0.13272604428E+04  0.10172250882E+04 0.  0.
        -13    1    3    3    0    0  0.20604947258E+03  0.29182561862E+02  0.80592979742E+03  0.83236461758E+03  0.10566000000E+00 0.  1.
          4    1    3    3  502    0  0.39300415361E+03 -0.78892887475E+02 -0.23933421683E+03  0.46685888639E+03  0.00000000000E+00 0.  1.
         13    1    4    4    0    0 -0.82651131309E+03 -0.17338473297E+03  0.53936652498E+03  0.10020476414E+04  0.10566000000E+00 0. -1.
         -4    1    4    4    0  501  0.22745768690E+03  0.22309505858E+03  0.65230067354E+02  0.32521280138E+03  0.00000000000E+00 0. -1.
<mgrwt>
<rscale>  2 0.11753469E+04</rscale>
<asrwt>0</asrwt>
<pdfrwt beam="1">  1        1 0.29212893E+00 0.11753469E+04</pdfrwt>
<pdfrwt beam="2">  1       -1 0.11194552E+00 0.11753469E+04</pdfrwt>
<totfact> 0.35111447E+00</totfact>
</mgrwt>
</event>
<event>
 8    1  0.7046235E-006  0.1132454E+04  0.7818608E-02  0.8659239E-01
         -2   -1    0    0    0  501 -0.00000000000E+00  0.00000000000E+00  0.63023446113E+03  0.63023446113E+03  0.00000000000E+00 0. -1.
          2   -1    0    0  502    0  0.00000000000E+00 -0.00000000000E+00 -0.20381170199E+04  0.20381170199E+04  0.00000000000E+00 0.  1.
    9000010    2    1    2  502    0  0.18101030929E+02  0.49521804876E+03 -0.64416372161E+03  0.12814171797E+04  0.99071414898E+03 0.  0.
   -9000010    2    1    2    0  501 -0.18101030929E+02 -0.49521804876E+03 -0.76371883720E+03  0.13869343014E+04  0.10463038426E+04 0.  0.
        -13    1    3    3    0    0 -0.42920645034E+03  0.49539542514E+03 -0.32281947055E+03  0.73064849688E+03  0.10566000000E+00 0.  1.
          4    1    3    3  502    0  0.44730748126E+03 -0.17737638568E+00 -0.32134425106E+03  0.55076868279E+03  0.00000000000E+00 0.  1.
         13    1    4    4    0    0  0.51095762026E+03 -0.26587858107E+03 -0.44667210303E+03  0.72889305688E+03  0.10566000000E+00 0. -1.
         -4    1    4    4    0  501 -0.52905865119E+03 -0.22933946768E+03 -0.31704673417E+03  0.65804124452E+03  0.00000000000E+00 0. -1.
<mgrwt>
<rscale>  2 0.11324542E+04</rscale>
<asrwt>0</asrwt>
<pdfrwt beam="2">  1        2 0.31355647E+00 0.11324542E+04</pdfrwt>
<pdfrwt beam="1">  1       -2 0.96959146E-01 0.11324542E+04</pdfrwt>
<totfact> 0.86480981E+00</totfact>
</mgrwt>
</event>
<event>
 8    1  0.7046235E-006  0.1112694E+04  0.7818608E-02  0.8675375E-01
         -2   -1    0    0    0  501 -0.00000000000E+00  0.00000000000E+00  0.45457324061E+03  0.45457324061E+03  0.00000000000E+00 0.  1.
          2   -1    0    0  502    0  0.00000000000E+00 -0.00000000000E+00 -0.27644081689E+04  0.27644081689E+04  0.00000000000E+00 0. -1.
    9000010    2    1    2  502    0 -0.19583284206E+03 -0.46891035727E+03 -0.13361749482E+04  0.17305513220E+04  0.97530352232E+03 0.  0.
   -9000010    2    1    2    0  501  0.19583284206E+03  0.46891035727E+03 -0.97365998008E+03  0.14884300875E+04  0.10045809790E+04 0.  0.
        -13    1    3    3    0    0  0.14149342823E+03 -0.55063389454E+02 -0.11576831100E+04  0.11675969174E+04  0.10566000000E+00 0.  1.
          4    1    3    3  502    0 -0.33732627030E+03 -0.41384696782E+03 -0.17849183824E+03  0.56295440466E+03  0.00000000000E+00 0.  1.
         13    1    4    4    0    0  0.67937614109E+02  0.44544621108E+03  0.52878265754E+02  0.45368928633E+03  0.10566000000E+00 0. -1.
         -4    1    4    4    0  501  0.12789522795E+03  0.23464146196E+02 -0.10265382458E+04  0.10347408012E+04  0.00000000000E+00 0. -1.
<mgrwt>
<rscale>  2 0.11126941E+04</rscale>
<asrwt>0</asrwt>
<pdfrwt beam="2">  1        2 0.42529357E+00 0.11126941E+04</pdfrwt>
<pdfrwt beam="1">  1       -2 0.69934344E-01 0.11126941E+04</pdfrwt>
<totfact> 0.70462398E+00</totfact>
</mgrwt>
</event>
<event>
 8    1  0.7046235E-006  0.1007778E+04  0.7818608E-02  0.8767317E-01
          1   -1    0    0  502    0  0.00000000000E+00  0.00000000000E+00  0.14995486213E+04  0.14995486213E+04  0.00000000000E+00 0. -1.
         -1   -1    0    0    0  501 -0.00000000000E+00 -0.00000000000E+00 -0.68567643245E+03  0.68567643245E+03  0.00000000000E+00 0.  1.
    9000010    2    1    2  502    0 -0.12404135742E+03 -0.10790748260E+03  0.52533528734E+03  0.11313245628E+04  0.98837635497E+03 0.  0.
   -9000010    2    1    2    0  501  0.12404135742E+03  0.10790748260E+03  0.28853690154E+03  0.10539004910E+04  0.10002111868E+04 0.  0.
        -13    1    3    3    0    0 -0.81650728294E+02  0.31926097027E+03 -0.12469942496E+03  0.35234126401E+03  0.10566000000E+00 0.  1.
          4    1    3    3  502    0 -0.42390629123E+02 -0.42716845287E+03  0.65003471230E+03  0.77898329877E+03  0.00000000000E+00 0.  1.
         13    1    4    4    0    0 -0.35061949141E+03  0.24397720088E+03  0.35532998843E+03  0.55562425626E+03  0.10566000000E+00 0. -1.
         -4    1    4    4    0  501  0.47466084883E+03 -0.13606971828E+03 -0.66793086886E+02  0.49827623473E+03  0.00000000000E+00 0. -1.
<mgrwt>
<rscale>  2 0.10077784E+04</rscale>
<asrwt>0</asrwt>
<pdfrwt beam="1">  1        1 0.23069979E+00 0.10077784E+04</pdfrwt>
<pdfrwt beam="2">  1       -1 0.10548868E+00 0.10077784E+04</pdfrwt>
<totfact> 0.81420185E+00</totfact>
</mgrwt>
</event>
<event>
 8    1  0.7046235E-006  0.1471568E+04  0.7818608E-02  0.8426052E-01
          2   -1    0    0  502    0  0.00000000000E+00  0.00000000000E+00  0.48635402656E+03  0.48635402656E+03  0.00000000000E+00 0.  1.
         -2   -1    0    0    0  501 -0.00000000000E+00 -0.00000000000E+00 -0.47117338727E+04  0.47117338727E+04  0.00000000000E+00 0. -1.
    9000010    2    1    2  502    0  0.39348994685E+02 -0.10875732213E+04 -0.15078446303E+04  0.21093462413E+04  0.99568181750E+03 0.  0.
   -9000010    2    1    2    0  501 -0.39348994685E+02  0.10875732213E+04 -0.27175352159E+04  0.30887416579E+04  0.98537481441E+03 0.  0.
        -13    1    3    3    0    0  0.29255536622E+02 -0.77362602647E+03 -0.25100950657E+03  0.81385434742E+03  0.10566000000E+00 0.  1.
          4    1    3    3  502    0  0.10093458062E+02 -0.31394719482E+03 -0.12568351237E+04  0.12954918939E+04  0.00000000000E+00 0.  1.
         13    1    4    4    0    0  0.31702732099E+03  0.65223300768E+03 -0.75381265126E+03  0.10460151734E+04  0.10566000000E+00 0. -1.
         -4    1    4    4    0  501 -0.35637631567E+03  0.43534021362E+03 -0.19637225646E+04  0.20427264846E+04  0.00000000000E+00 0. -1.
<mgrwt>
<rscale>  2 0.14715681E+04</rscale>
<asrwt>0</asrwt>
<pdfrwt beam="1">  1        2 0.74823696E-01 0.14715681E+04</pdfrwt>
<pdfrwt beam="2">  1       -2 0.72488213E+00 0.14715681E+04</pdfrwt>
<totfact> 0.44179120E-02</totfact>
</mgrwt>
</event>
<event>
 8    1  0.7046235E-006  0.1275374E+04  0.7818608E-02  0.8551867E-01
          1   -1    0    0  502    0  0.00000000000E+00  0.00000000000E+00  0.16699842863E+04  0.16699842863E+04  0.00000000000E+00 0.  1.
         -1   -1    0    0    0  501 -0.00000000000E+00 -0.00000000000E+00 -0.11726245158E+04  0.11726245158E+04  0.00000000000E+00 0. -1.
    9000010    2    1    2  502    0 -0.27583899869E+03 -0.72104700907E+03 -0.33850118429E+03  0.13048391188E+04  0.99600508615E+03 0.  0.
   -9000010    2    1    2    0  501  0.27583899869E+03  0.72104700907E+03  0.83586095480E+03  0.15377696833E+04  0.10344448370E+04 0.  0.
        -13    1    3    3    0    0 -0.12316573337E+03 -0.65315231938E+03  0.23693759643E+03  0.70563247229E+03  0.10566000000E+00 0.  1.
          4    1    3    3  502    0 -0.15267326531E+03 -0.67894689693E+02 -0.57543878072E+03  0.59920664648E+03  0.00000000000E+00 0.  1.
         13    1    4    4    0    0  0.38081631189E+03  0.89499150194E+03  0.39021571775E+03  0.10479976954E+04  0.10566000000E+00 0. -1.
         -4    1    4    4    0  501 -0.10497731321E+03 -0.17394449287E+03  0.44564523705E+03  0.48977198797E+03  0.00000000000E+00 0. -1.
<mgrwt>
<rscale>  2 0.12753741E+04</rscale>
<asrwt>0</asrwt>
<pdfrwt beam="1">  1        1 0.25692066E+00 0.12753741E+04</pdfrwt>
<pdfrwt beam="2">  1       -1 0.18040377E+00 0.12753741E+04</pdfrwt>
<totfact> 0.12956489E+00</totfact>
</mgrwt>
</event>
<event>
 8    1  0.7046235E-006  0.1106194E+04  0.7818608E-02  0.8680759E-01
          1   -1    0    0  502    0  0.00000000000E+00  0.00000000000E+00  0.89435248734E+03  0.89435248734E+03  0.00000000000E+00 0.  1.
         -1   -1    0    0    0  501 -0.00000000000E+00 -0.00000000000E+00 -0.14983486143E+04  0.14983486143E+04  0.00000000000E+00 0. -1.
    9000010    2    1    2  502    0 -0.49965363603E+03  0.34261106315E+02 -0.65800514793E+03  0.13003940294E+04  0.10036066349E+04 0.  0.
   -9000010    2    1    2    0  501  0.49965363603E+03 -0.34261106315E+02  0.54009020958E+02  0.10923070722E+04  0.96922143307E+03 0.  0.
        -13    1    3    3    0    0 -0.66870092034E+03  0.25438359646E+03 -0.72106190319E+03  0.10157766558E+04  0.10566000000E+00 0.  1.
          4    1    3    3  502    0  0.16904728431E+03 -0.22012249015E+03  0.63056755255E+02  0.28461737365E+03  0.00000000000E+00 0.  1.
         13    1    4    4    0    0  0.49586061791E+03 -0.72125014926E+02  0.46258878609E+03  0.68195906501E+03  0.10566000000E+00 0. -1.
         -4    1    4    4    0  501  0.37930181226E+01  0.37863908611E+02 -0.40857976513E+03  0.41034800723E+03  0.00000000000E+00 0. -1.
<mgrwt>
<rscale>  2 0.11061943E+04</rscale>
<asrwt>0</asrwt>
<pdfrwt beam="1">  1        1 0.13759269E+00 0.11061943E+04</pdfrwt>
<pdfrwt beam="2">  1       -1 0.23051517E+00 0.11061943E+04</pdfrwt>
<totfact> 0.18505622E+00</totfact>
</mgrwt>
</event>
<event>
 8    1  0.7046235E-006  0.1244729E+04  0.7818608E-02  0.8573621E-01
         -2   -1    0    0    0  501 -0.00000000000E+00  0.00000000000E+00  0.65585120117E+03  0.65585120117E+03  0.00000000000E+00 0. -1.
          2   -1    0    0  502    0  0.00000000000E+00 -0.00000000000E+00 -0.23652652517E+04  0.23652652517E+04  0.00000000000E+00 0.  1.
    9000010    2    1    2  502    0 -0.21526740377E+03  0.75287684523E+03 -0.86295792936E+03  0.14865443902E+04  0.92301367109E+03 0.  0.
   -9000010    2    1    2    0  501  0.21526740377E+03 -0.75287684523E+03 -0.84645612115E+03  0.15345720626E+04  0.10125511598E+04 0.  0.
        -13    1    3    3    0    0  0.20360797887E+03 -0.12066156827E+03 -0.11799897158E+03  0.26446018901E+03  0.10566000000E+00 0.  1.
          4    1    3    3  502    0 -0.41887538264E+03  0.87353841350E+03 -0.74495895778E+03  0.12220842012E+04  0.00000000000E+00 0.  1.
         13    1    4    4    0    0  0.58974439073E+03 -0.66729218627E+03 -0.65420279351E+03  0.11050152101E+04  0.10566000000E+00 0. -1.
         -4    1    4    4    0  501 -0.37447698696E+03 -0.85584658962E+02 -0.19225332764E+03  0.42955685258E+03  0.00000000000E+00 0. -1.
<mgrwt>
<rscale>  2 0.12447286E+04</rscale>
<asrwt>0</asrwt>
<pdfrwt beam="2">  1        2 0.36388696E+00 0.12447286E+04</pdfrwt>
<pdfrwt beam="1">  1       -2 0.10090018E+00 0.12447286E+04</pdfrwt>
<totfact> 0.51410248E+00</totfact>
</mgrwt>
</event>
<event>
 8    1  0.7046235E-006  0.1404731E+04  0.7818608E-02  0.8466527E-01
          2   -1    0    0  502    0  0.00000000000E+00  0.00000000000E+00  0.19320678676E+04  0.19320678676E+04  0.00000000000E+00 0. -1.
         -2   -1    0    0    0  501 -0.00000000000E+00 -0.00000000000E+00 -0.13948168517E+04  0.13948168517E+04  0.00000000000E+00 0.  1.
    9000010    2    1    2  502    0  0.69616563606E+03 -0.66969010184E+03 -0.59013437134E+03  0.15360920862E+04  0.10383587510E+04 0.  0.
   -9000010    2    1    2    0  501 -0.69616563606E+03  0.66969010184E+03  0.11273853873E+04  0.17907926331E+04  0.10014035241E+04 0.  0.
        -13    1    3    3    0    0  0.10862624634E+03 -0.76222886347E+03 -0.53749440775E+03  0.93898495793E+03  0.10566000000E+00 0.  1.
          4    1    3    3  502    0  0.58753938972E+03  0.92538761629E+02 -0.52639963593E+02  0.59710712828E+03  0.00000000000E+00 0.  1.
         13    1    4    4    0    0  0.19158497983E+03 -0.38087702728E+02  0.39229583451E+03  0.43823682015E+03  0.10566000000E+00 0. -1.
         -4    1    4    4    0  501 -0.88775061589E+03  0.70777780457E+03  0.73508955277E+03  0.13525558130E+04  0.00000000000E+00 0. -1.
<mgrwt>
<rscale>  2 0.14047315E+04</rscale>
<asrwt>0</asrwt>
<pdfrwt beam="1">  1        2 0.29724121E+00 0.14047315E+04</pdfrwt>
<pdfrwt beam="2">  1       -2 0.21458721E+00 0.14047315E+04</pdfrwt>
<totfact> 0.85615713E-01</totfact>
</mgrwt>
</event>
<event>
 8    1  0.7046235E-006  0.2023502E+04  0.7818608E-02  0.8158890E-01
          4   -1    0    0  502    0  0.00000000000E+00  0.00000000000E+00  0.16642697317E+04  0.16642697317E+04  0.00000000000E+00 0. -1.
         -4   -1    0    0    0  501 -0.00000000000E+00 -0.00000000000E+00 -0.26555908819E+04  0.26555908819E+04  0.00000000000E+00 0.  1.
    9000010    2    1    2  502    0 -0.12497310739E+04 -0.12338847075E+04  0.92129799093E+02  0.20163617160E+04  0.98637084365E+03 0.  0.
   -9000010    2    1    2    0  501  0.12497310739E+04  0.12338847075E+04 -0.10834509493E+04  0.23034988977E+04  0.10236903749E+04 0.  0.
        -13    1    3    3    0    0 -0.13983971202E+04 -0.96771740629E+03  0.99748565083E+01  0.17006148868E+04  0.10566000000E+00 0.  1.
          4    1    3    3  502    0  0.14866604627E+03 -0.26616730125E+03  0.82154942585E+02  0.31574682921E+03  0.00000000000E+00 0.  1.
         13    1    4    4    0    0  0.75759598903E+03  0.99389704263E+03 -0.20214274936E+03  0.12659560483E+04  0.10566000000E+00 0. -1.
         -4    1    4    4    0  501  0.49213508488E+03  0.23998766491E+03 -0.88130819994E+03  0.10375428494E+04  0.00000000000E+00 0. -1.
<mgrwt>
<rscale>  2 0.20235024E+04</rscale>
<asrwt>0</asrwt>
<pdfrwt beam="1">  1        4 0.25604150E+00 0.20235024E+04</pdfrwt>
<pdfrwt beam="2">  1       -4 0.40855244E+00 0.20235024E+04</pdfrwt>
<totfact> 0.29197768E-02</totfact>
</mgrwt>
</event>
<event>
 8    1  0.7046235E-006  0.1322413E+04  0.7818608E-02  0.8519676E-01
         -2   -1    0    0    0  501 -0.00000000000E+00  0.00000000000E+00  0.11864324635E+04  0.11864324635E+04  0.00000000000E+00 0.  1.
          2   -1    0    0  502    0  0.00000000000E+00 -0.00000000000E+00 -0.20242484241E+04  0.20242484241E+04  0.00000000000E+00 0. -1.
    9000010    2    1    2  502    0  0.70818409976E+03 -0.46282604977E+03  0.41599347956E+03  0.13947289390E+04  0.10278548374E+04 0.  0.
   -9000010    2    1    2    0  501 -0.70818409976E+03  0.46282604977E+03 -0.12538094402E+04  0.18159519485E+04  0.10049431305E+04 0.  0.
        -13    1    3    3    0    0 -0.26953098134E+03 -0.92212292166E+02  0.69652527832E+02  0.29326019595E+03  0.10566000000E+00 0.  1.
          4    1    3    3  502    0  0.97771508110E+03 -0.37061375760E+03  0.34634095173E+03  0.11014687431E+04  0.00000000000E+00 0.  1.
         13    1    4    4    0    0 -0.78555812203E+03  0.40921895608E+03 -0.42611468360E+03  0.98292189509E+03  0.10566000000E+00 0. -1.
         -4    1    4    4    0  501  0.77374022265E+02  0.53607093690E+02 -0.82769475662E+03  0.83303005345E+03  0.00000000000E+00 0. -1.
<mgrwt>
<rscale>  2 0.13224129E+04</rscale>
<asrwt>0</asrwt>
<pdfrwt beam="2">  1        2 0.31142283E+00 0.13224129E+04</pdfrwt>
<pdfrwt beam="1">  1       -2 0.18252807E+00 0.13224129E+04</pdfrwt>
<totfact> 0.14183070E+00</totfact>
</mgrwt>
</event>
<event>
 8    1  0.7046235E-006  0.1222979E+04  0.7818608E-02  0.8589456E-01
         -1   -1    0    0    0  501 -0.00000000000E+00  0.00000000000E+00  0.65294101321E+03  0.65294101321E+03  0.00000000000E+00 0. -1.
          1   -1    0    0  502    0  0.00000000000E+00 -0.00000000000E+00 -0.24593674481E+04  0.24593674481E+04  0.00000000000E+00 0.  1.
    9000010    2    1    2  502    0  0.34681433914E+03 -0.61487689132E+03 -0.13122697115E+04  0.17953064346E+04  0.10013588872E+04 0.  0.
   -9000010    2    1    2    0  501 -0.34681433914E+03  0.61487689132E+03 -0.49415672344E+03  0.13170020268E+04  0.99596671325E+03 0.  0.
        -13    1    3    3    0    0  0.78287017257E+02 -0.29860162813E+03 -0.13441957291E+04  0.13791859769E+04  0.10566000000E+00 0.  1.
          4    1    3    3  502    0  0.26852732188E+03 -0.31627526320E+03  0.31926017664E+02  0.41612045769E+03  0.00000000000E+00 0.  1.
         13    1    4    4    0    0  0.19128286300E+03 -0.17881777423E+03 -0.10252449785E+03  0.28120493217E+03  0.10566000000E+00 0. -1.
         -4    1    4    4    0  501 -0.53809720213E+03  0.79369466555E+03 -0.39163222560E+03  0.10357970946E+04  0.00000000000E+00 0. -1.
<mgrwt>
<rscale>  2 0.12229795E+04</rscale>
<asrwt>0</asrwt>
<pdfrwt beam="2">  1        1 0.37836422E+00 0.12229795E+04</pdfrwt>
<pdfrwt beam="1">  1       -1 0.10045246E+00 0.12229795E+04</pdfrwt>
<totfact> 0.15666801E+00</totfact>
</mgrwt>
</event>
<event>
 8    1  0.7046235E-006  0.1215411E+04  0.7818608E-02  0.8595047E-01
         -2   -1    0    0    0  501 -0.00000000000E+00  0.00000000000E+00  0.91112156784E+03  0.91112156784E+03  0.00000000000E+00 0. -1.
          2   -1    0    0  502    0  0.00000000000E+00 -0.00000000000E+00 -0.16712982642E+04  0.16712982642E+04  0.00000000000E+00 0.  1.
    9000010    2    1    2  502    0  0.67573726201E+03 -0.13198637857E+03 -0.15531757910E+03  0.12202024570E+04  0.99535382362E+03 0.  0.
   -9000010    2    1    2    0  501 -0.67573726201E+03  0.13198637857E+03 -0.60485911727E+03  0.13622173751E+04  0.10078394584E+04 0.  0.
        -13    1    3    3    0    0  0.99905621447E+02  0.38262458960E+03  0.98053072648E+02  0.40742744873E+03  0.10566000000E+00 0.  1.
          4    1    3    3  502    0  0.57583164056E+03 -0.51461096817E+03 -0.25337065174E+03  0.81277500823E+03  0.00000000000E+00 0.  1.
         13    1    4    4    0    0  0.26672482632E+03  0.66704086669E+02 -0.15853681801E+03  0.31737281229E+03  0.10566000000E+00 0. -1.
         -4    1    4    4    0  501 -0.94246208833E+03  0.65282291901E+02 -0.44632229925E+03  0.10448445628E+04  0.00000000000E+00 0. -1.
<mgrwt>
<rscale>  2 0.12154107E+04</rscale>
<asrwt>0</asrwt>
<pdfrwt beam="2">  1        2 0.25712281E+00 0.12154107E+04</pdfrwt>
<pdfrwt beam="1">  1       -2 0.14017255E+00 0.12154107E+04</pdfrwt>
<totfact> 0.51827949E+00</totfact>
</mgrwt>
</event>
<event>
 8    1  0.7046235E-006  0.1176825E+04  0.7818608E-02  0.8624221E-01
          2   -1    0    0  502    0  0.00000000000E+00  0.00000000000E+00  0.14036283024E+04  0.14036283024E+04  0.00000000000E+00 0.  1.
         -2   -1    0    0    0  501 -0.00000000000E+00 -0.00000000000E+00 -0.10243896294E+04  0.10243896294E+04  0.00000000000E+00 0. -1.
    9000010    2    1    2  502    0  0.22257050536E+03  0.58309097368E+03  0.42249959909E+03  0.12499015228E+04  0.99710340082E+03 0.  0.
   -9000010    2    1    2    0  501 -0.22257050536E+03 -0.58309097368E+03 -0.43260926076E+02  0.11781164091E+04  0.99827553918E+03 0.  0.
        -13    1    3    3    0    0  0.28802857296E+03  0.18925499437E+03 -0.27855465252E+03  0.44313724436E+03  0.10566000000E+00 0.  1.
          4    1    3    3  502    0 -0.65458067599E+02  0.39383597931E+03  0.70105425161E+03  0.80676427841E+03  0.00000000000E+00 0.  1.
         13    1    4    4    0    0  0.36840132081E+03 -0.38373606057E+03  0.92204150217E+02  0.53988379660E+03  0.10566000000E+00 0. -1.
         -4    1    4    4    0  501 -0.59097182617E+03 -0.19935491311E+03 -0.13546507629E+03  0.63823261246E+03  0.00000000000E+00 0. -1.
<mgrwt>
<rscale>  2 0.11768249E+04</rscale>
<asrwt>0</asrwt>
<pdfrwt beam="1">  1        2 0.21594282E+00 0.11768249E+04</pdfrwt>
<pdfrwt beam="2">  1       -2 0.15759840E+00 0.11768249E+04</pdfrwt>
<totfact> 0.51082288E+00</totfact>
</mgrwt>
</event>
<event>
 8    1  0.7046235E-006  0.1476232E+04  0.7818608E-02  0.8423311E-01
         -4   -1    0    0    0  501 -0.00000000000E+00  0.00000000000E+00  0.42956892614E+04  0.42956892614E+04  0.00000000000E+00 0. -1.
          4   -1    0    0  502    0  0.00000000000E+00 -0.00000000000E+00 -0.76266749260E+03  0.76266749260E+03  0.00000000000E+00 0.  1.
    9000010    2    1    2  502    0  0.90728954851E+03 -0.51405865500E+03  0.28014544399E+03  0.14736548827E+04  0.10028691929E+04 0.  0.
   -9000010    2    1    2    0  501 -0.90728954851E+03  0.51405865500E+03  0.32528763248E+04  0.35847018712E+04  0.10869464089E+04 0.  0.
        -13    1    3    3    0    0  0.79050139897E+03 -0.80497395593E+03  0.16768822543E+03  0.11406116270E+04  0.10566000000E+00 0.  1.
          4    1    3    3  502    0  0.11678814954E+03  0.29091530093E+03  0.11245721856E+03  0.33304325575E+03  0.00000000000E+00 0.  1.
         13    1    4    4    0    0 -0.77311458848E+03  0.81763637655E+03  0.20693180836E+04  0.23554856725E+04  0.10566000000E+00 0. -1.
         -4    1    4    4    0  501 -0.13417496003E+03 -0.30357772156E+03  0.11835582412E+04  0.12292161987E+04  0.00000000000E+00 0. -1.
<mgrwt>
<rscale>  2 0.14762317E+04</rscale>
<asrwt>0</asrwt>
<pdfrwt beam="2">  1        4 0.11733346E+00 0.14762317E+04</pdfrwt>
<pdfrwt beam="1">  1       -4 0.66087526E+00 0.14762317E+04</pdfrwt>
<totfact> 0.52038869E-03</totfact>
</mgrwt>
</event>
<event>
 8    1  0.7046235E-006  0.1113663E+04  0.7818608E-02  0.8674576E-01
          1   -1    0    0  502    0  0.00000000000E+00  0.00000000000E+00  0.15602180505E+04  0.15602180505E+04  0.00000000000E+00 0.  1.
         -1   -1    0    0    0  501 -0.00000000000E+00 -0.00000000000E+00 -0.15639617514E+04  0.15639617514E+04  0.00000000000E+00 0. -1.
    9000010    2    1    2  502    0  0.47830170792E+01 -0.53856544709E+03 -0.10968651627E+04  0.15810574864E+04  0.10032716342E+04 0.  0.
   -9000010    2    1    2    0  501 -0.47830170792E+01  0.53856544709E+03  0.10931214619E+04  0.15431223155E+04  0.94669759281E+03 0.  0.
        -13    1    3    3    0    0 -0.39174061625E+03  0.79693591503E+02 -0.32117112746E+03  0.51279887209E+03  0.10566000000E+00 0.  1.
          4    1    3    3  502    0  0.39652363333E+03 -0.61825903860E+03 -0.77569403527E+03  0.10682586143E+04  0.00000000000E+00 0.  1.
         13    1    4    4    0    0 -0.48869350045E+02  0.68560165048E+03  0.32588964958E+03  0.76068515918E+03  0.10566000000E+00 0. -1.
         -4    1    4    4    0  501  0.44086332965E+02 -0.14703620339E+03  0.76723181228E+03  0.78243715635E+03  0.00000000000E+00 0. -1.
<mgrwt>
<rscale>  2 0.11136628E+04</rscale>
<asrwt>0</asrwt>
<pdfrwt beam="1">  1        1 0.24003355E+00 0.11136628E+04</pdfrwt>
<pdfrwt beam="2">  1       -1 0.24060950E+00 0.11136628E+04</pdfrwt>
<totfact> 0.45185407E-01</totfact>
</mgrwt>
</event>
<event>
 8    1  0.7046235E-006  0.1581145E+04  0.7818608E-02  0.8364272E-01
         -2   -1    0    0    0  501 -0.00000000000E+00  0.00000000000E+00  0.84555802206E+03  0.84555802206E+03  0.00000000000E+00 0.  1.
          2   -1    0    0  502    0  0.00000000000E+00 -0.00000000000E+00 -0.31659302338E+04  0.31659302338E+04  0.00000000000E+00 0. -1.
    9000010    2    1    2  502    0  0.91958233269E+03  0.76979469182E+03 -0.65264448757E+03  0.17212970243E+04  0.10481903856E+04 0.  0.
   -9000010    2    1    2    0  501 -0.91958233269E+03 -0.76979469182E+03 -0.16677277242E+04  0.22901912316E+04  0.10126423757E+04 0.  0.
        -13    1    3    3    0    0 -0.14799092163E+03  0.13362484392E+03  0.14326828570E+03  0.24552540531E+03  0.10566000000E+00 0.  1.
          4    1    3    3  502    0  0.10675732543E+04  0.63616984790E+03 -0.79591277327E+03  0.14757716190E+04  0.00000000000E+00 0.  1.
         13    1    4    4    0    0 -0.61107135655E+03 -0.31413005001E+03 -0.15930007328E+04  0.17348594286E+04  0.10566000000E+00 0. -1.
         -4    1    4    4    0  501 -0.30851097614E+03 -0.45566464181E+03 -0.74726991387E+02  0.55533180301E+03  0.00000000000E+00 0. -1.
<mgrwt>
<rscale>  2 0.15811455E+04</rscale>
<asrwt>0</asrwt>
<pdfrwt beam="2">  1        2 0.48706619E+00 0.15811455E+04</pdfrwt>
<pdfrwt beam="1">  1       -2 0.13008585E+00 0.15811455E+04</pdfrwt>
<totfact> 0.85927880E-01</totfact>
</mgrwt>
</event>
<event>
 8    1  0.7046235E-006  0.1304713E+04  0.7818608E-02  0.8531624E-01
         -1   -1    0    0    0  501 -0.00000000000E+00  0.00000000000E+00  0.79788108506E+03  0.79788108506E+03  0.00000000000E+00 0.  1.
          1   -1    0    0  502    0  0.00000000000E+00 -0.00000000000E+00 -0.21347932273E+04  0.21347932273E+04  0.00000000000E+00 0. -1.
    9000010    2    1    2  502    0 -0.50799132631E+03 -0.69414160306E+03 -0.66330225342E+03  0.14882698068E+04  0.10173934273E+04 0.  0.
   -9000010    2    1    2    0  501  0.50799132631E+03  0.69414160306E+03 -0.67360988882E+03  0.14444045055E+04  0.94481021406E+03 0.  0.
        -13    1    3    3    0    0 -0.74285591107E+03 -0.74420745532E+03 -0.67211669234E+03  0.12479665462E+04  0.10566000000E+00 0.  1.
          4    1    3    3  502    0  0.23486458476E+03  0.50065852253E+02  0.88144389166E+01  0.24030326063E+03  0.00000000000E+00 0.  1.
         13    1    4    4    0    0  0.48392971844E+03  0.60871876289E+02 -0.64682953777E+03  0.81011222668E+03  0.10566000000E+00 0. -1.
         -4    1    4    4    0  501  0.24061607871E+02  0.63326972678E+03 -0.26780351053E+02  0.63429227886E+03  0.00000000000E+00 0. -1.
<mgrwt>
<rscale>  2 0.13047133E+04</rscale>
<asrwt>0</asrwt>
<pdfrwt beam="2">  1        1 0.32842973E+00 0.13047133E+04</pdfrwt>
<pdfrwt beam="1">  1       -1 0.12275094E+00 0.13047133E+04</pdfrwt>
<totfact> 0.18250280E+00</totfact>
</mgrwt>
</event>
<event>
 8    1  0.7046235E-006  0.1321165E+04  0.7818608E-02  0.8520512E-01
          4   -1    0    0  502    0  0.00000000000E+00  0.00000000000E+00  0.34895442412E+04  0.34895442412E+04  0.00000000000E+00 0.  1.
         -4   -1    0    0    0  501 -0.00000000000E+00 -0.00000000000E+00 -0.69028348460E+03  0.69028348460E+03  0.00000000000E+00 0. -1.
    9000010    2    1    2  502    0  0.23421240855E+02 -0.86336184613E+03  0.25010193434E+04  0.28314231326E+04  0.10079270648E+04 0.  0.
   -9000010    2    1    2    0  501 -0.23421240855E+02  0.86336184613E+03  0.29824141322E+03  0.13484045932E+04  0.99161725203E+03 0.  0.
        -13    1    3    3    0    0  0.12055881393E+03 -0.45630770692E+03  0.23333435884E+04  0.23805972913E+04  0.10566000000E+00 0.  1.
          4    1    3    3  502    0 -0.97137573078E+02 -0.40705413921E+03  0.16767575505E+03  0.45082584130E+03  0.00000000000E+00 0.  1.
         13    1    4    4    0    0  0.35728561147E+03  0.12822227868E+03  0.35348216578E+03  0.51869414263E+03  0.10566000000E+00 0. -1.
         -4    1    4    4    0  501 -0.38070685232E+03  0.73513956745E+03 -0.55240752568E+02  0.82971045057E+03  0.00000000000E+00 0. -1.
<mgrwt>
<rscale>  2 0.13211650E+04</rscale>
<asrwt>0</asrwt>
<pdfrwt beam="1">  1        4 0.53685295E+00 0.13211650E+04</pdfrwt>
<pdfrwt beam="2">  1       -4 0.10619746E+00 0.13211650E+04</pdfrwt>
<totfact> 0.29260302E-02</totfact>
</mgrwt>
</event>
<event>
 8    1  0.7046235E-006  0.1486199E+04  0.7818608E-02  0.8417486E-01
          1   -1    0    0  502    0  0.00000000000E+00  0.00000000000E+00  0.27344894203E+04  0.27344894203E+04  0.00000000000E+00 0. -1.
         -1   -1    0    0    0  501 -0.00000000000E+00 -0.00000000000E+00 -0.81512956118E+03  0.81512956118E+03  0.00000000000E+00 0.  1.
    9000010    2    1    2  502    0  0.39396903027E+03 -0.10222778037E+04  0.11324308429E+04  0.18735374068E+04  0.10136465340E+04 0.  0.
   -9000010    2    1    2    0  501 -0.39396903027E+03  0.10222778037E+04  0.78692901615E+03  0.16760815746E+04  0.99485107606E+03 0.  0.
        -13    1    3    3    0    0  0.95419972006E+02 -0.11231447639E+04  0.66169086735E+03  0.13070554491E+04  0.10566000000E+00 0.  1.
          4    1    3    3  502    0  0.29854905826E+03  0.10086696020E+03  0.47073997557E+03  0.56648195775E+03  0.00000000000E+00 0.  1.
         13    1    4    4    0    0 -0.97414361237E+02  0.78331290883E+03 -0.13719410794E+02  0.78946621480E+03  0.10566000000E+00 0. -1.
         -4    1    4    4    0  501 -0.29655466903E+03  0.23896489491E+03  0.80064842695E+03  0.88661535983E+03  0.00000000000E+00 0. -1.
<mgrwt>
<rscale>  2 0.14861988E+04</rscale>
<asrwt>0</asrwt>
<pdfrwt beam="1">  1        1 0.42069068E+00 0.14861988E+04</pdfrwt>
<pdfrwt beam="2">  1       -1 0.12540455E+00 0.14861988E+04</pdfrwt>
<totfact> 0.49812631E-01</totfact>
</mgrwt>
</event>
<event>
 8    1  0.7046235E-006  0.1084364E+04  0.7818608E-02  0.8699129E-01
          1   -1    0    0  502    0  0.00000000000E+00  0.00000000000E+00  0.17917365374E+04  0.17917365374E+04  0.00000000000E+00 0. -1.
         -1   -1    0    0    0  501 -0.00000000000E+00 -0.00000000000E+00 -0.66978172722E+03  0.66978172722E+03  0.00000000000E+00 0.  1.
    9000010    2    1    2  502    0  0.43175111328E+03 -0.40200533694E+02  0.73101604171E+03  0.13003797301E+04  0.98416354464E+03 0.  0.
   -9000010    2    1    2    0  501 -0.43175111328E+03  0.40200533694E+02  0.39093876843E+03  0.11611385344E+04  0.10036854431E+04 0.  0.
        -13    1    3    3    0    0  0.49116821112E+03 -0.39091527909E+03  0.70461953101E+03  0.94368938835E+03  0.10566000000E+00 0.  1.
          4    1    3    3  502    0 -0.59417097844E+02  0.35071474539E+03  0.26396510704E+02  0.35669034180E+03  0.00000000000E+00 0.  1.
         13    1    4    4    0    0  0.37922880369E+02 -0.42256392061E+03  0.78324344627E+02  0.43143148469E+03  0.10566000000E+00 0. -1.
         -4    1    4    4    0  501 -0.46967399365E+03  0.46276445430E+03  0.31261442380E+03  0.72970704974E+03  0.00000000000E+00 0. -1.
<mgrwt>
<rscale>  2 0.10843644E+04</rscale>
<asrwt>0</asrwt>
<pdfrwt beam="1">  1        1 0.27565177E+00 0.10843644E+04</pdfrwt>
<pdfrwt beam="2">  1       -1 0.10304334E+00 0.10843644E+04</pdfrwt>
<totfact> 0.51540607E+00</totfact>
</mgrwt>
</event>
<event>
 8    1  0.7046235E-006  0.1539819E+04  0.7818608E-02  0.8386945E-01
         -2   -1    0    0    0  501 -0.00000000000E+00  0.00000000000E+00  0.10598949872E+04  0.10598949872E+04  0.00000000000E+00 0. -1.
          2   -1    0    0  502    0  0.00000000000E+00 -0.00000000000E+00 -0.26927702479E+04  0.26927702479E+04  0.00000000000E+00 0.  1.
    9000010    2    1    2  502    0  0.95147365033E+03 -0.72835723196E+03 -0.15830729513E+04  0.22003542778E+04  0.94848964881E+03 0.  0.
   -9000010    2    1    2    0  501 -0.95147365033E+03  0.72835723196E+03 -0.49802309361E+02  0.15523109573E+04  0.98558747638E+03 0.  0.
        -13    1    3    3    0    0 -0.69574004851E+02 -0.14171416800E+03  0.68391315997E+02  0.17204891988E+03  0.10566000000E+00 0.  1.
          4    1    3    3  502    0  0.10210476552E+04 -0.58664306395E+03 -0.16514642673E+04  0.20283053579E+04  0.00000000000E+00 0.  1.
         13    1    4    4    0    0 -0.90500434888E+03  0.40535042418E+03 -0.40393341572E+03  0.10707492953E+04  0.10566000000E+00 0. -1.
         -4    1    4    4    0  501 -0.46469301448E+02  0.32300680777E+03  0.35413110636E+03  0.48156166203E+03  0.00000000000E+00 0. -1.
<mgrwt>
<rscale>  2 0.15398190E+04</rscale>
<asrwt>0</asrwt>
<pdfrwt beam="2">  1        2 0.41427235E+00 0.15398190E+04</pdfrwt>
<pdfrwt beam="1">  1       -2 0.16306077E+00 0.15398190E+04</pdfrwt>
<totfact> 0.85398588E-01</totfact>
</mgrwt>
</event>
<event>
 8    1  0.7046235E-006  0.1119817E+04  0.7818608E-02  0.8669518E-01
         -2   -1    0    0    0  501 -0.00000000000E+00  0.00000000000E+00  0.70353972164E+03  0.70353972164E+03  0.00000000000E+00 0. -1.
          2   -1    0    0  502    0  0.00000000000E+00 -0.00000000000E+00 -0.17830457519E+04  0.17830457519E+04  0.00000000000E+00 0.  1.
    9000010    2    1    2  502    0  0.29713113363E+03 -0.39833059996E+03 -0.51494822959E+03  0.12204584382E+04  0.98863185404E+03 0.  0.
   -9000010    2    1    2    0  501 -0.29713113363E+03  0.39833059996E+03 -0.56455780071E+03  0.12661270354E+04  0.10185273594E+04 0.  0.
        -13    1    3    3    0    0  0.28802756436E+03  0.25180179090E+03  0.13173775795E+02  0.38280227176E+03  0.10566000000E+00 0.  1.
          4    1    3    3  502    0  0.91035692689E+01 -0.65013239087E+03 -0.52812200538E+03  0.83765616646E+03  0.00000000000E+00 0.  1.
         13    1    4    4    0    0 -0.60286762518E+03  0.34001610344E+03 -0.64345289594E+03  0.94503543032E+03  0.10566000000E+00 0. -1.
         -4    1    4    4    0  501  0.30573649156E+03  0.58314496526E+02  0.78895095232E+02  0.32109160504E+03  0.00000000000E+00 0. -1.
<mgrwt>
<rscale>  2 0.11198173E+04</rscale>
<asrwt>0</asrwt>
<pdfrwt beam="2">  1        2 0.27431472E+00 0.11198173E+04</pdfrwt>
<pdfrwt beam="1">  1       -2 0.10823688E+00 0.11198173E+04</pdfrwt>
<totfact> 0.91177502E+00</totfact>
</mgrwt>
</event>
<event>
 8    1  0.7046235E-006  0.1127557E+04  0.7818608E-02  0.8663206E-01
         -2   -1    0    0    0  501 -0.00000000000E+00  0.00000000000E+00  0.61146730789E+03  0.61146730789E+03  0.00000000000E+00 0. -1.
          2   -1    0    0  502    0  0.00000000000E+00 -0.00000000000E+00 -0.21616930317E+04  0.21616930317E+04  0.00000000000E+00 0.  1.
    9000010    2    1    2  502    0  0.49671007763E+03 -0.20439404092E+03 -0.48012037098E+03  0.11848502504E+04  0.94066823057E+03 0.  0.
   -9000010    2    1    2    0  501 -0.49671007763E+03  0.20439404092E+03 -0.10701053528E+04  0.15883100892E+04  0.10436022461E+04 0.  0.
        -13    1    3    3    0    0  0.99129208001E+02 -0.87038623294E+01  0.28433512921E+03  0.30124547127E+03  0.10566000000E+00 0.  1.
          4    1    3    3  502    0  0.39758086963E+03 -0.19569017859E+03 -0.76445550019E+03  0.88360477910E+03  0.00000000000E+00 0.  1.
         13    1    4    4    0    0 -0.42902065797E+03 -0.21392983121E+02  0.60143242625E+02  0.43374370945E+03  0.10566000000E+00 0. -1.
         -4    1    4    4    0  501 -0.67689419657E+02  0.22578702404E+03 -0.11302485954E+04  0.11545663797E+04  0.00000000000E+00 0. -1.
<mgrwt>
<rscale>  2 0.11275567E+04</rscale>
<asrwt>0</asrwt>
<pdfrwt beam="2">  1        2 0.33256816E+00 0.11275567E+04</pdfrwt>
<pdfrwt beam="1">  1       -2 0.94071894E-01 0.11275567E+04</pdfrwt>
<totfact> 0.79537571E+00</totfact>
</mgrwt>
</event>
<event>
 8    1  0.7046235E-006  0.1376193E+04  0.7818608E-02  0.8484519E-01
          1   -1    0    0  502    0  0.00000000000E+00  0.00000000000E+00  0.13967337422E+04  0.13967337422E+04  0.00000000000E+00 0. -1.
         -1   -1    0    0    0  501 -0.00000000000E+00 -0.00000000000E+00 -0.14022787267E+04  0.14022787267E+04  0.00000000000E+00 0.  1.
    9000010    2    1    2  502    0 -0.39795893903E+03 -0.84707306982E+03 -0.25712847310E+03  0.14030192359E+04  0.10131356384E+04 0.  0.
   -9000010    2    1    2    0  501  0.39795893903E+03  0.84707306982E+03  0.25158348868E+03  0.13959932330E+04  0.10047879140E+04 0.  0.
        -13    1    3    3    0    0  0.26486483021E+02 -0.94295997382E+03 -0.19787602323E+03  0.96386201178E+03  0.10566000000E+00 0.  1.
          4    1    3    3  502    0 -0.42444542205E+03  0.95886903997E+02 -0.59252449869E+02  0.43915722409E+03  0.00000000000E+00 0.  1.
         13    1    4    4    0    0  0.34318497657E+03 -0.34385426823E+02 -0.20558080354E+03  0.40152430022E+03  0.10566000000E+00 0. -1.
         -4    1    4    4    0  501  0.54773962465E+02  0.88145849665E+03  0.45716429222E+03  0.99446893283E+03  0.00000000000E+00 0. -1.
<mgrwt>
<rscale>  2 0.13761928E+04</rscale>
<asrwt>0</asrwt>
<pdfrwt beam="1">  1        1 0.21488211E+00 0.13761928E+04</pdfrwt>
<pdfrwt beam="2">  1       -1 0.21573519E+00 0.13761928E+04</pdfrwt>
<totfact> 0.98719175E-01</totfact>
</mgrwt>
</event>
<event>
 8    1  0.7046235E-006  0.1061274E+04  0.7818608E-02  0.8719056E-01
         -2   -1    0    0    0  501 -0.00000000000E+00  0.00000000000E+00  0.16025290370E+04  0.16025290370E+04  0.00000000000E+00 0. -1.
          2   -1    0    0  502    0  0.00000000000E+00 -0.00000000000E+00 -0.10811477243E+04  0.10811477243E+04  0.00000000000E+00 0.  1.
    9000010    2    1    2  502    0  0.29323534638E+03  0.22789999593E+03  0.10543052862E+04  0.14953221584E+04  0.99322874723E+03 0.  0.
   -9000010    2    1    2    0  501 -0.29323534638E+03 -0.22789999593E+03 -0.53292397338E+03  0.11883546029E+04  0.99511472927E+03 0.  0.
        -13    1    3    3    0    0  0.62369417480E+03  0.23053188091E+03  0.43867737730E+03  0.79660355530E+03  0.10566000000E+00 0.  1.
          4    1    3    3  502    0 -0.33045882841E+03 -0.26318849784E+01  0.61562790885E+03  0.69871860305E+03  0.00000000000E+00 0.  1.
         13    1    4    4    0    0  0.69961896977E+02 -0.56330618547E+03 -0.29464721978E+03  0.63955103073E+03  0.10566000000E+00 0. -1.
         -4    1    4    4    0  501 -0.36319724336E+03  0.33540618954E+03 -0.23827675360E+03  0.54880357221E+03  0.00000000000E+00 0. -1.
<mgrwt>
<rscale>  2 0.10612738E+04</rscale>
<asrwt>0</asrwt>
<pdfrwt beam="2">  1        2 0.16633042E+00 0.10612738E+04</pdfrwt>
<pdfrwt beam="1">  1       -2 0.24654293E+00 0.10612738E+04</pdfrwt>
<totfact> 0.14662447E+00</totfact>
</mgrwt>
</event>
<event>
 8    1  0.7046235E-006  0.1029441E+04  0.7818608E-02  0.8747411E-01
         -2   -1    0    0    0  501 -0.00000000000E+00  0.00000000000E+00  0.88309015498E+03  0.88309015498E+03  0.00000000000E+00 0. -1.
          2   -1    0    0  502    0  0.00000000000E+00 -0.00000000000E+00 -0.14652994340E+04  0.14652994340E+04  0.00000000000E+00 0.  1.
    9000010    2    1    2  502    0 -0.20332014371E+03 -0.17823353178E+03  0.20607947188E+03  0.10595526654E+04  0.10035321765E+04 0.  0.
   -9000010    2    1    2    0  501  0.20332014371E+03  0.17823353178E+03 -0.78828875093E+03  0.12888369236E+04  0.98315572933E+03 0.  0.
        -13    1    3    3    0    0 -0.23395874370E+03 -0.55817919890E+03 -0.38837032853E+02  0.60647261943E+03  0.10566000000E+00 0.  1.
          4    1    3    3  502    0  0.30638599996E+02  0.37994566712E+03  0.24491650473E+03  0.45308004598E+03  0.00000000000E+00 0.  1.
         13    1    4    4    0    0  0.30947729246E+03 -0.27981426791E+03 -0.59363492560E+02  0.42142170624E+03  0.10566000000E+00 0. -1.
         -4    1    4    4    0  501 -0.10615714875E+03  0.45804779969E+03 -0.72892525837E+03  0.86741521736E+03  0.00000000000E+00 0. -1.
<mgrwt>
<rscale>  2 0.10294411E+04</rscale>
<asrwt>0</asrwt>
<pdfrwt beam="2">  1        2 0.22543068E+00 0.10294411E+04</pdfrwt>
<pdfrwt beam="1">  1       -2 0.13586002E+00 0.10294411E+04</pdfrwt>
<totfact> 0.74925367E+00</totfact>
</mgrwt>
</event>
<event>
 8    1  0.7046235E-006  0.1200910E+04  0.7818608E-02  0.8605878E-01
         -1   -1    0    0    0  501 -0.00000000000E+00  0.00000000000E+00  0.95356891225E+03  0.95356891225E+03  0.00000000000E+00 0.  1.
          1   -1    0    0  502    0  0.00000000000E+00 -0.00000000000E+00 -0.15169090036E+04  0.15169090036E+04  0.00000000000E+00 0. -1.
    9000010    2    1    2  502    0  0.59481059129E+03  0.29995313287E+03 -0.21462872312E+03  0.12209711116E+04  0.10004666137E+04 0.  0.
   -9000010    2    1    2    0  501 -0.59481059129E+03 -0.29995313287E+03 -0.34871136821E+03  0.12495068042E+04  0.99794594747E+03 0.  0.
        -13    1    3    3    0    0  0.68973000687E+03  0.11743040629E+03 -0.50659540118E+03  0.86380338872E+03  0.10566000000E+00 0.  1.
          4    1    3    3  502    0 -0.94919415581E+02  0.18252272658E+03  0.29196667806E+03  0.35716772289E+03  0.00000000000E+00 0.  1.
         13    1    4    4    0    0 -0.58289522393E+03 -0.59742208305E+03 -0.63271740920E+02  0.83706828381E+03  0.10566000000E+00 0. -1.
         -4    1    4    4    0  501 -0.11915367359E+02  0.29746895018E+03 -0.28543962729E+03  0.41243852042E+03  0.00000000000E+00 0. -1.
<mgrwt>
<rscale>  2 0.12009097E+04</rscale>
<asrwt>0</asrwt>
<pdfrwt beam="2">  1        1 0.23337062E+00 0.12009097E+04</pdfrwt>
<pdfrwt beam="1">  1       -1 0.14670291E+00 0.12009097E+04</pdfrwt>
<totfact> 0.33335466E+00</totfact>
</mgrwt>
</event>
<event>
 8    1  0.7046235E-006  0.1118474E+04  0.7818608E-02  0.8670619E-01
          1   -1    0    0  502    0  0.00000000000E+00  0.00000000000E+00  0.15677700927E+04  0.15677700927E+04  0.00000000000E+00 0. -1.
         -1   -1    0    0    0  501 -0.00000000000E+00 -0.00000000000E+00 -0.84397145625E+03  0.84397145625E+03  0.00000000000E+00 0.  1.
    9000010    2    1    2  502    0 -0.31282037987E+03 -0.47522421697E+03  0.63403539182E+03  0.12631116654E+04  0.93260685973E+03 0.  0.
   -9000010    2    1    2    0  501  0.31282037987E+03  0.47522421697E+03  0.89763244685E+02  0.11486298836E+04  0.99377991672E+03 0.  0.
        -13    1    3    3    0    0 -0.18720338675E+03 -0.36960279756E+03  0.87698356018E+03  0.96992345675E+03  0.10566000000E+00 0.  1.
          4    1    3    3  502    0 -0.12561699312E+03 -0.10562141941E+03 -0.24294816836E+03  0.29318820868E+03  0.00000000000E+00 0.  1.
         13    1    4    4    0    0  0.10679550770E+03  0.12260379958E+03 -0.44614266069E+03  0.47484761449E+03  0.10566000000E+00 0. -1.
         -4    1    4    4    0  501  0.20602487217E+03  0.35262041739E+03  0.53590590537E+03  0.67378226908E+03  0.00000000000E+00 0. -1.
<mgrwt>
<rscale>  2 0.11184743E+04</rscale>
<asrwt>0</asrwt>
<pdfrwt beam="1">  1        1 0.24119540E+00 0.11184743E+04</pdfrwt>
<pdfrwt beam="2">  1       -1 0.12984176E+00 0.11184743E+04</pdfrwt>
<totfact> 0.43320674E+00</totfact>
</mgrwt>
</event>
<event>
 8    1  0.7046235E-006  0.1115022E+04  0.7818608E-02  0.8673457E-01
          2   -1    0    0  502    0  0.00000000000E+00  0.00000000000E+00  0.10119776972E+04  0.10119776972E+04  0.00000000000E+00 0. -1.
         -2   -1    0    0    0  501 -0.00000000000E+00 -0.00000000000E+00 -0.13086340741E+04  0.13086340741E+04  0.00000000000E+00 0.  1.
    9000010    2    1    2  502    0  0.45232985146E+03 -0.76724468454E+02  0.13804500175E+03  0.11283518659E+04  0.10215833653E+04 0.  0.
   -9000010    2    1    2    0  501 -0.45232985146E+03  0.76724468454E+02 -0.43470137868E+03  0.11922599054E+04  0.10109547244E+04 0.  0.
        -13    1    3    3    0    0  0.26105589264E+03  0.36627253534E+03  0.37976551760E+03  0.58866595685E+03  0.10566000000E+00 0.  1.
          4    1    3    3  502    0  0.19127395882E+03 -0.44299700380E+03 -0.24172051585E+03  0.53968590909E+03  0.00000000000E+00 0.  1.
         13    1    4    4    0    0  0.96341018657E+02 -0.31634975104E+03 -0.39640476074E+03  0.51623202377E+03  0.10566000000E+00 0. -1.
         -4    1    4    4    0  501 -0.54867087011E+03  0.39307421950E+03 -0.38296617945E+02  0.67602788159E+03  0.00000000000E+00 0. -1.
<mgrwt>
<rscale>  2 0.11150215E+04</rscale>
<asrwt>0</asrwt>
<pdfrwt beam="1">  1        2 0.15568888E+00 0.11150215E+04</pdfrwt>
<pdfrwt beam="2">  1       -2 0.20132832E+00 0.11150215E+04</pdfrwt>
<totfact> 0.37052386E+00</totfact>
</mgrwt>
</event>
<event>
 8    1  0.7046235E-006  0.1291981E+04  0.7818608E-02  0.8540341E-01
         -2   -1    0    0    0  501 -0.00000000000E+00  0.00000000000E+00  0.11301699653E+04  0.11301699653E+04  0.00000000000E+00 0. -1.
          2   -1    0    0  502    0  0.00000000000E+00 -0.00000000000E+00 -0.15165429401E+04  0.15165429401E+04  0.00000000000E+00 0.  1.
    9000010    2    1    2  502    0  0.49115318570E+02 -0.81371963094E+03  0.20762080683E+02  0.12911068414E+04  0.10009864432E+04 0.  0.
   -9000010    2    1    2    0  501 -0.49115318570E+02  0.81371963094E+03 -0.40713505556E+03  0.13556060640E+04  0.10036717068E+04 0.  0.
        -13    1    3    3    0    0  0.35282592896E+03 -0.19723407470E+03 -0.32789785400E+03  0.52048480303E+03  0.10566000000E+00 0.  1.
          4    1    3    3  502    0 -0.30371061039E+03 -0.61648555624E+03  0.34865993468E+03  0.77062203833E+03  0.00000000000E+00 0.  1.
         13    1    4    4    0    0  0.40007501546E+03  0.71928992213E+03 -0.17594140172E+03  0.84166109455E+03  0.10566000000E+00 0. -1.
         -4    1    4    4    0  501 -0.44919033403E+03  0.94429708805E+02 -0.23119365384E+03  0.51394496949E+03  0.00000000000E+00 0. -1.
<mgrwt>
<rscale>  2 0.12919811E+04</rscale>
<asrwt>0</asrwt>
<pdfrwt beam="2">  1        2 0.23331430E+00 0.12919811E+04</pdfrwt>
<pdfrwt beam="1">  1       -2 0.17387230E+00 0.12919811E+04</pdfrwt>
<totfact> 0.31806920E+00</totfact>
</mgrwt>
</event>
<event>
 8    1  0.7046235E-006  0.1227197E+04  0.7818608E-02  0.8586359E-01
          2   -1    0    0  502    0  0.00000000000E+00  0.00000000000E+00  0.23605986959E+04  0.23605986959E+04  0.00000000000E+00 0. -1.
         -2   -1    0    0    0  501 -0.00000000000E+00 -0.00000000000E+00 -0.70746319719E+03  0.70746319719E+03  0.00000000000E+00 0.  1.
    9000010    2    1    2  502    0 -0.72305143009E+03 -0.24913355485E+03  0.33493258287E+03  0.12540474501E+04  0.93572660174E+03 0.  0.
   -9000010    2    1    2    0  501  0.72305143009E+03  0.24913355485E+03  0.13182029158E+04  0.18140144430E+04  0.98393016695E+03 0.  0.
        -13    1    3    3    0    0  0.22710866267E+03 -0.38638127501E+02  0.20348031285E+02  0.23126889782E+03  0.10566000000E+00 0.  1.
          4    1    3    3  502    0 -0.95016009276E+03 -0.21049542735E+03  0.31458455159E+03  0.10227785522E+04  0.00000000000E+00 0.  1.
         13    1    4    4    0    0 -0.81452463036E+02 -0.24764685899E+03  0.11814460515E+03  0.28621954753E+03  0.10566000000E+00 0. -1.
         -4    1    4    4    0  501  0.80450389312E+03  0.49678041384E+03  0.12000583106E+04  0.15277948954E+04  0.00000000000E+00 0. -1.
<mgrwt>
<rscale>  2 0.12271967E+04</rscale>
<asrwt>0</asrwt>
<pdfrwt beam="1">  1        2 0.36316902E+00 0.12271967E+04</pdfrwt>
<pdfrwt beam="2">  1       -2 0.10884049E+00 0.12271967E+04</pdfrwt>
<totfact> 0.43012335E+00</totfact>
</mgrwt>
</event>
<event>
 8    1  0.7046235E-006  0.1286801E+04  0.7818608E-02  0.8543917E-01
          1   -1    0    0  502    0  0.00000000000E+00  0.00000000000E+00  0.26423764003E+04  0.26423764003E+04  0.00000000000E+00 0.  1.
         -1   -1    0    0    0  501 -0.00000000000E+00 -0.00000000000E+00 -0.67345101920E+03  0.67345101920E+03  0.00000000000E+00 0. -1.
    9000010    2    1    2  502    0 -0.76412141681E+03  0.27070837767E+03  0.54347427539E+03  0.13916809965E+04  0.99209230548E+03 0.  0.
   -9000010    2    1    2    0  501  0.76412141681E+03 -0.27070837767E+03  0.14254511057E+04  0.19241464231E+04  0.10066101714E+04 0.  0.
        -13    1    3    3    0    0 -0.63571792740E+03 -0.21456230755E+03  0.27051779508E+02  0.67149540354E+03  0.10566000000E+00 0.  1.
          4    1    3    3  502    0 -0.12840348940E+03  0.48527068522E+03  0.51642249588E+03  0.72018559294E+03  0.00000000000E+00 0.  1.
         13    1    4    4    0    0  0.53144809871E+03 -0.62758169970E+03  0.68679423497E+03  0.10714393141E+04  0.10566000000E+00 0. -1.
         -4    1    4    4    0  501  0.23267331810E+03  0.35687332203E+03  0.73865687077E+03  0.85270710896E+03  0.00000000000E+00 0. -1.
<mgrwt>
<rscale>  2 0.12868009E+04</rscale>
<asrwt>0</asrwt>
<pdfrwt beam="1">  1        1 0.40651944E+00 0.12868009E+04</pdfrwt>
<pdfrwt beam="2">  1       -1 0.10360785E+00 0.12868009E+04</pdfrwt>
<totfact> 0.98831406E-01</totfact>
</mgrwt>
</event>
<event>
 8    1  0.7046235E-006  0.1179843E+04  0.7818608E-02  0.8621898E-01
         -4   -1    0    0    0  501 -0.00000000000E+00  0.00000000000E+00  0.14263133330E+04  0.14263133330E+04  0.00000000000E+00 0. -1.
          4   -1    0    0  502    0  0.00000000000E+00 -0.00000000000E+00 -0.97641043111E+03  0.97641043111E+03  0.00000000000E+00 0.  1.
    9000010    2    1    2  502    0 -0.37104582154E+03  0.50856485164E+03  0.19880427281E+03  0.11926199318E+04  0.99323006036E+03 0.  0.
   -9000010    2    1    2    0  501  0.37104582154E+03 -0.50856485164E+03  0.25109862910E+03  0.12101038323E+04  0.10024906750E+04 0.  0.
        -13    1    3    3    0    0  0.66495584471E+02 -0.26354302322E+03  0.13333082603E+03  0.30274363441E+03  0.10566000000E+00 0.  1.
          4    1    3    3  502    0 -0.43754140602E+03  0.77210787486E+03  0.65473446785E+02  0.88987629738E+03  0.00000000000E+00 0.  1.
         13    1    4    4    0    0  0.31196483459E+02 -0.32707014315E+03 -0.36019090608E+03  0.48753010072E+03  0.10566000000E+00 0. -1.
         -4    1    4    4    0  501  0.33984933808E+03 -0.18149470849E+03  0.61128953519E+03  0.72257373163E+03  0.00000000000E+00 0. -1.
<mgrwt>
<rscale>  2 0.11798429E+04</rscale>
<asrwt>0</asrwt>
<pdfrwt beam="2">  1        4 0.15021699E+00 0.11798429E+04</pdfrwt>
<pdfrwt beam="1">  1       -4 0.21943282E+00 0.11798429E+04</pdfrwt>
<totfact> 0.23938882E-01</totfact>
</mgrwt>
</event>
<event>
 8    1  0.7046235E-006  0.1994560E+04  0.7818608E-02  0.8170611E-01
          1   -1    0    0  502    0  0.00000000000E+00  0.00000000000E+00  0.12865419733E+04  0.12865419733E+04  0.00000000000E+00 0. -1.
         -1   -1    0    0    0  501 -0.00000000000E+00 -0.00000000000E+00 -0.33167272527E+04  0.33167272527E+04  0.00000000000E+00 0.  1.
    9000010    2    1    2  502    0 -0.95112106019E+03 -0.14529201901E+04 -0.41597674527E+03  0.20368669504E+04  0.97988875431E+03 0.  0.
   -9000010    2    1    2    0  501  0.95112106019E+03  0.14529201901E+04 -0.16142085341E+04  0.25664022756E+04  0.98241696781E+03 0.  0.
        -13    1    3    3    0    0 -0.11943140431E+03 -0.19157083136E+03 -0.47386789180E+03  0.52489430727E+03  0.10566000000E+00 0.  1.
          4    1    3    3  502    0 -0.83168965588E+03 -0.12613493588E+04  0.57891146530E+02  0.15119726431E+04  0.00000000000E+00 0.  1.
         13    1    4    4    0    0  0.34591839425E+02  0.94819502279E+03 -0.77599461243E+03  0.12257397955E+04  0.10566000000E+00 0. -1.
         -4    1    4    4    0  501  0.91652922076E+03  0.50472516734E+03 -0.83821392170E+03  0.13406624801E+04  0.00000000000E+00 0. -1.
<mgrwt>
<rscale>  2 0.19945601E+04</rscale>
<asrwt>0</asrwt>
<pdfrwt beam="1">  1        1 0.19792953E+00 0.19945601E+04</pdfrwt>
<pdfrwt beam="2">  1       -1 0.51026574E+00 0.19945601E+04</pdfrwt>
<totfact> 0.96429932E-02</totfact>
</mgrwt>
</event>
<event>
 8    1  0.7046235E-006  0.1268744E+04  0.7818608E-02  0.8556519E-01
          2   -1    0    0  502    0  0.00000000000E+00  0.00000000000E+00  0.14374681361E+04  0.14374681361E+04  0.00000000000E+00 0. -1.
         -2   -1    0    0    0  501 -0.00000000000E+00 -0.00000000000E+00 -0.12141394082E+04  0.12141394082E+04  0.00000000000E+00 0.  1.
    9000010    2    1    2  502    0  0.76321205707E+03 -0.19741989238E+03  0.48158202199E+03  0.13621957010E+04  0.10010937149E+04 0.  0.
   -9000010    2    1    2    0  501 -0.76321205707E+03  0.19741989238E+03 -0.25825329410E+03  0.12894118432E+04  0.98712759029E+03 0.  0.
        -13    1    3    3    0    0  0.94044708958E+02  0.86362973969E+01 -0.29902359158E+03  0.31358270425E+03  0.10566000000E+00 0.  1.
          4    1    3    3  502    0  0.66916734811E+03 -0.20605618978E+03  0.78060561357E+03  0.10486129968E+04  0.00000000000E+00 0.  1.
         13    1    4    4    0    0 -0.90647714881E+03  0.36873199945E+03 -0.43473665697E+02  0.97956831283E+03  0.10566000000E+00 0. -1.
         -4    1    4    4    0  501  0.14326509174E+03 -0.17131210706E+03 -0.21477962840E+03  0.30984353037E+03  0.00000000000E+00 0. -1.
<mgrwt>
<rscale>  2 0.12687443E+04</rscale>
<asrwt>0</asrwt>
<pdfrwt beam="1">  1        2 0.22114895E+00 0.12687443E+04</pdfrwt>
<pdfrwt beam="2">  1       -2 0.18679068E+00 0.12687443E+04</pdfrwt>
<totfact> 0.27508261E+00</totfact>
</mgrwt>
</event>
<event>
 8    1  0.7046235E-006  0.1260040E+04  0.7818608E-02  0.8562672E-01
         -2   -1    0    0    0  501 -0.00000000000E+00  0.00000000000E+00  0.12418340705E+04  0.12418340705E+04  0.00000000000E+00 0. -1.
          2   -1    0    0  502    0  0.00000000000E+00 -0.00000000000E+00 -0.13234615232E+04  0.13234615232E+04  0.00000000000E+00 0.  1.
    9000010    2    1    2  502    0 -0.34268627919E+03  0.68516536937E+03 -0.27702961475E+03  0.12861440104E+04  0.99525651908E+03 0.  0.
   -9000010    2    1    2    0  501  0.34268627919E+03 -0.68516536937E+03  0.19540216202E+03  0.12791515833E+04  0.10055651638E+04 0.  0.
        -13    1    3    3    0    0  0.14297215441E+03 -0.94848842209E+02 -0.32343217656E+03  0.36612255299E+03  0.10566000000E+00 0.  1.
          4    1    3    3  502    0 -0.48565843360E+03  0.78001421158E+03  0.46402561812E+02  0.92002145743E+03  0.00000000000E+00 0.  1.
         13    1    4    4    0    0  0.26835560117E+03 -0.67145379163E+03  0.55510348281E+03  0.91159465266E+03  0.10566000000E+00 0. -1.
         -4    1    4    4    0  501  0.74330678019E+02 -0.13711577745E+02 -0.35970132079E+03  0.36755693060E+03  0.00000000000E+00 0. -1.
<mgrwt>
<rscale>  2 0.12600398E+04</rscale>
<asrwt>0</asrwt>
<pdfrwt beam="2">  1        2 0.20360946E+00 0.12600398E+04</pdfrwt>
<pdfrwt beam="1">  1       -2 0.19105140E+00 0.12600398E+04</pdfrwt>
<totfact> 0.29351255E+00</totfact>
</mgrwt>
</event>
<event>
 8    1  0.7046235E-006  0.1336645E+04  0.7818608E-02  0.8510207E-01
          2   -1    0    0  502    0  0.00000000000E+00  0.00000000000E+00  0.16644020763E+04  0.16644020763E+04  0.00000000000E+00 0. -1.
         -2   -1    0    0    0  501 -0.00000000000E+00 -0.00000000000E+00 -0.10774036443E+04  0.10774036443E+04  0.00000000000E+00 0.  1.
    9000010    2    1    2  502    0 -0.87075259601E+03 -0.34823280062E+02  0.20841142885E+03  0.13386453672E+04  0.99454177946E+03 0.  0.
   -9000010    2    1    2    0  501  0.87075259601E+03  0.34823280062E+02  0.37858700315E+03  0.14031603534E+04  0.10325251155E+04 0.  0.
        -13    1    3    3    0    0 -0.33346321242E+03  0.46361178564E+03  0.20194034033E+03  0.60573386404E+03  0.10566000000E+00 0.  1.
          4    1    3    3  502    0 -0.53728938359E+03 -0.49843506571E+03  0.64710885259E+01  0.73291150314E+03  0.00000000000E+00 0.  1.
         13    1    4    4    0    0  0.18130304278E+03 -0.44518550344E+03 -0.24570495051E+01  0.48069426255E+03  0.10566000000E+00 0. -1.
         -4    1    4    4    0  501  0.68944955323E+03  0.48000878350E+03  0.38104405266E+03  0.92246609084E+03  0.00000000000E+00 0. -1.
<mgrwt>
<rscale>  2 0.13366446E+04</rscale>
<asrwt>0</asrwt>
<pdfrwt beam="1">  1        2 0.25606186E+00 0.13366446E+04</pdfrwt>
<pdfrwt beam="2">  1       -2 0.16575441E+00 0.13366446E+04</pdfrwt>
<totfact> 0.30771927E+00</totfact>
</mgrwt>
</event>
<event>
 8    1  0.7046235E-006  0.1000328E+04  0.7818608E-02  0.8774284E-01
          4   -1    0    0  502    0  0.00000000000E+00  0.00000000000E+00  0.17130678969E+04  0.17130678969E+04  0.00000000000E+00 0.  1.
         -4   -1    0    0    0  501 -0.00000000000E+00 -0.00000000000E+00 -0.95376932037E+03  0.95376932037E+03  0.00000000000E+00 0. -1.
    9000010    2    1    2  502    0 -0.11593721210E+03  0.11473054433E+03  0.12080199705E+04  0.15638259018E+04  0.97960944621E+03 0.  0.
   -9000010    2    1    2    0  501  0.11593721210E+03 -0.11473054433E+03 -0.44872139398E+03  0.11030113154E+04  0.99432315553E+03 0.  0.
        -13    1    3    3    0    0 -0.37034001237E+03  0.60215259577E+02  0.12456586317E+04  0.13009392915E+04  0.10566000000E+00 0.  1.
          4    1    3    3  502    0  0.25440280027E+03  0.54515284757E+02 -0.37638661237E+02  0.26288661030E+03  0.00000000000E+00 0.  1.
         13    1    4    4    0    0 -0.27520447854E+03  0.31887657017E+03 -0.22608213468E+03  0.47805116337E+03  0.10566000000E+00 0. -1.
         -4    1    4    4    0  501  0.39114169063E+03 -0.43360711451E+03 -0.22263925930E+03  0.62496015208E+03  0.00000000000E+00 0. -1.
<mgrwt>
<rscale>  2 0.10003278E+04</rscale>
<asrwt>0</asrwt>
<pdfrwt beam="1">  1        4 0.26354891E+00 0.10003278E+04</pdfrwt>
<pdfrwt beam="2">  1       -4 0.14673374E+00 0.10003278E+04</pdfrwt>
<totfact> 0.19530497E-01</totfact>
</mgrwt>
</event>
<event>
 8    1  0.7046235E-006  0.1163572E+04  0.7818608E-02  0.8634510E-01
          2   -1    0    0  502    0  0.00000000000E+00  0.00000000000E+00  0.11662365534E+04  0.11662365534E+04  0.00000000000E+00 0. -1.
         -2   -1    0    0    0  501 -0.00000000000E+00 -0.00000000000E+00 -0.11741901480E+04  0.11741901480E+04  0.00000000000E+00 0.  1.
    9000010    2    1    2  502    0  0.12632346390E+03 -0.56486072183E+03 -0.12841150251E+03  0.11713028432E+04  0.10101661170E+04 0.  0.
   -9000010    2    1    2    0  501 -0.12632346390E+03  0.56486072183E+03  0.12045790793E+03  0.11691238583E+04  0.10086204617E+04 0.  0.
        -13    1    3    3    0    0 -0.10870769009E+03 -0.69772454347E+03 -0.38031902685E+03  0.80204705211E+03  0.10566000000E+00 0.  1.
          4    1    3    3  502    0  0.23503115398E+03  0.13286382164E+03  0.25190752434E+03  0.36925579110E+03  0.00000000000E+00 0.  1.
         13    1    4    4    0    0 -0.40641465199E+02 -0.11270327902E+02  0.48182312247E+03  0.48366546445E+03  0.10566000000E+00 0. -1.
         -4    1    4    4    0  501 -0.85681998697E+02  0.57613104973E+03 -0.36136521454E+03  0.68545839382E+03  0.00000000000E+00 0. -1.
<mgrwt>
<rscale>  2 0.11635720E+04</rscale>
<asrwt>0</asrwt>
<pdfrwt beam="1">  1        2 0.17942101E+00 0.11635720E+04</pdfrwt>
<pdfrwt beam="2">  1       -2 0.18064464E+00 0.11635720E+04</pdfrwt>
<totfact> 0.44423524E+00</totfact>
</mgrwt>
</event>
<event>
 8    1  0.7046235E-006  0.1085904E+04  0.7818608E-02  0.8697819E-01
          1   -1    0    0  502    0  0.00000000000E+00  0.00000000000E+00  0.21604002283E+04  0.21604002283E+04  0.00000000000E+00 0. -1.
         -1   -1    0    0    0  501 -0.00000000000E+00 -0.00000000000E+00 -0.60616085923E+03  0.60616085923E+03  0.00000000000E+00 0.  1.
    9000010    2    1    2  502    0 -0.26272846952E+03 -0.30687126784E+03  0.34759577789E+03  0.11501594977E+04  0.10192388442E+04 0.  0.
   -9000010    2    1    2    0  501  0.26272846952E+03  0.30687126784E+03  0.12066435912E+04  0.16164015899E+04  0.99677937368E+03 0.  0.
        -13    1    3    3    0    0 -0.24305614605E+03 -0.28201555675E+03 -0.31446703589E+03  0.48733827287E+03  0.10566000000E+00 0.  1.
          4    1    3    3  502    0 -0.19672323478E+02 -0.24855711092E+02  0.66206281378E+03  0.66282122482E+03  0.00000000000E+00 0.  1.
         13    1    4    4    0    0  0.55157839769E+03  0.11999476003E+03  0.11311653386E+04  0.12641884771E+04  0.10566000000E+00 0. -1.
         -4    1    4    4    0  501 -0.28884992816E+03  0.18687650781E+03  0.75478252579E+02  0.35221311273E+03  0.00000000000E+00 0. -1.
<mgrwt>
<rscale>  2 0.10859039E+04</rscale>
<asrwt>0</asrwt>
<pdfrwt beam="1">  1        1 0.33236926E+00 0.10859039E+04</pdfrwt>
<pdfrwt beam="2">  1       -1 0.93255518E-01 0.10859039E+04</pdfrwt>
<totfact> 0.33445479E+00</totfact>
</mgrwt>
</event>
<event>
 8    1  0.7046235E-006  0.1030030E+04  0.7818608E-02  0.8746877E-01
          4   -1    0    0  502    0  0.00000000000E+00  0.00000000000E+00  0.66115606732E+03  0.66115606732E+03  0.00000000000E+00 0.  1.
         -4   -1    0    0    0  501 -0.00000000000E+00 -0.00000000000E+00 -0.17718744684E+04  0.17718744684E+04  0.00000000000E+00 0. -1.
    9000010    2    1    2  502    0  0.16674293256E+03 -0.36102211970E+03 -0.20874047071E+03  0.10980725742E+04  0.10020232620E+04 0.  0.
   -9000010    2    1    2    0  501 -0.16674293256E+03  0.36102211970E+03 -0.90197793040E+03  0.13349579616E+04  0.90022685798E+03 0.  0.
        -13    1    3    3    0    0  0.73524897768E+02 -0.64810189177E+03 -0.37612141121E+03  0.75293379513E+03  0.10566000000E+00 0.  1.
          4    1    3    3  502    0  0.93218034791E+02  0.28707977207E+03  0.16738094050E+03  0.34513877903E+03  0.00000000000E+00 0.  1.
         13    1    4    4    0    0 -0.18598313315E+03  0.46674372279E+03 -0.83341324839E+02  0.50929874943E+03  0.10566000000E+00 0. -1.
         -4    1    4    4    0  501  0.19240200592E+02 -0.10572160309E+03 -0.81863660556E+03  0.82565921217E+03  0.00000000000E+00 0. -1.
<mgrwt>
<rscale>  2 0.10300296E+04</rscale>
<asrwt>0</asrwt>
<pdfrwt beam="1">  1        4 0.10171632E+00 0.10300296E+04</pdfrwt>
<pdfrwt beam="2">  1       -4 0.27259607E+00 0.10300296E+04</pdfrwt>
<totfact> 0.34297552E-01</totfact>
</mgrwt>
</event>
<event>
 8    1  0.7046235E-006  0.1645759E+04  0.7818608E-02  0.8330223E-01
          2   -1    0    0  502    0  0.00000000000E+00  0.00000000000E+00  0.18342717207E+04  0.18342717207E+04  0.00000000000E+00 0. -1.
         -2   -1    0    0    0  501 -0.00000000000E+00 -0.00000000000E+00 -0.17022798994E+04  0.17022798994E+04  0.00000000000E+00 0.  1.
    9000010    2    1    2  502    0  0.99467641229E+03 -0.85429176324E+03  0.70995377536E+03  0.17966176166E+04  0.10022998131E+04 0.  0.
   -9000010    2    1    2    0  501 -0.99467641229E+03  0.85429176324E+03 -0.57796195406E+03  0.17399340035E+04  0.98698264126E+03 0.  0.
        -13    1    3    3    0    0  0.94300394970E+03 -0.92025704732E+03  0.26520930102E+03  0.13440481639E+04  0.10566000000E+00 0.  1.
          4    1    3    3  502    0  0.51672462586E+02  0.65965284080E+02  0.44474447434E+03  0.45256945273E+03  0.00000000000E+00 0.  1.
         13    1    4    4    0    0 -0.72904970652E+03  0.80662017167E+03  0.16165316941E+02  0.10873871916E+04  0.10566000000E+00 0. -1.
         -4    1    4    4    0  501 -0.26562670577E+03  0.47671591567E+02 -0.59412727100E+03  0.65254681181E+03  0.00000000000E+00 0. -1.
<mgrwt>
<rscale>  2 0.16457590E+04</rscale>
<asrwt>0</asrwt>
<pdfrwt beam="1">  1        2 0.28219565E+00 0.16457590E+04</pdfrwt>
<pdfrwt beam="2">  1       -2 0.26188921E+00 0.16457590E+04</pdfrwt>
<totfact> 0.39988394E-01</totfact>
</mgrwt>
</event>
<event>
 8    1  0.7046235E-006  0.1218158E+04  0.7818608E-02  0.8593013E-01
         -2   -1    0    0    0  501 -0.00000000000E+00  0.00000000000E+00  0.59105411986E+03  0.59105411986E+03  0.00000000000E+00 0. -1.
          2   -1    0    0  502    0  0.00000000000E+00 -0.00000000000E+00 -0.25131609530E+04  0.25131609530E+04  0.00000000000E+00 0.  1.
    9000010    2    1    2  502    0 -0.60267989296E+03 -0.36598940540E+03 -0.10133897595E+04  0.15877117295E+04  0.99834785169E+03 0.  0.
   -9000010    2    1    2    0  501  0.60267989296E+03  0.36598940540E+03 -0.90871707362E+03  0.15165033434E+04  0.98835437589E+03 0.  0.
        -13    1    3    3    0    0 -0.74285183756E+03 -0.40229207088E+03 -0.35970216060E+03  0.91817940424E+03  0.10566000000E+00 0.  1.
          4    1    3    3  502    0  0.14017194460E+03  0.36302665473E+02 -0.65368759891E+03  0.66953232524E+03  0.00000000000E+00 0.  1.
         13    1    4    4    0    0  0.20512877843E+03 -0.29280870629E+03 -0.57657991975E+03  0.67842403352E+03  0.10566000000E+00 0. -1.
         -4    1    4    4    0  501  0.39755111453E+03  0.65879811170E+03 -0.33213715386E+03  0.83807930986E+03  0.00000000000E+00 0. -1.
<mgrwt>
<rscale>  2 0.12181582E+04</rscale>
<asrwt>0</asrwt>
<pdfrwt beam="2">  1        2 0.38664014E+00 0.12181582E+04</pdfrwt>
<pdfrwt beam="1">  1       -2 0.90931406E-01 0.12181582E+04</pdfrwt>
<totfact> 0.54566297E+00</totfact>
</mgrwt>
</event>
<event>
 8    1  0.7046235E-006  0.1164950E+04  0.7818608E-02  0.8633434E-01
         -4   -1    0    0    0  501 -0.00000000000E+00  0.00000000000E+00  0.29139815474E+04  0.29139815474E+04  0.00000000000E+00 0. -1.
          4   -1    0    0  502    0  0.00000000000E+00 -0.00000000000E+00 -0.48205676771E+03  0.48205676771E+03  0.00000000000E+00 0.  1.
    9000010    2    1    2  502    0  0.60364656768E+03 -0.72930386270E+02  0.89667115662E+03  0.14646855721E+04  0.98568587394E+03 0.  0.
   -9000010    2    1    2    0  501 -0.60364656768E+03  0.72930386270E+02  0.15352536231E+04  0.19313527430E+04  0.10017044029E+04 0.  0.
        -13    1    3    3    0    0 -0.13425432103E+03  0.70445847017E+02  0.65913423604E+03  0.67634665103E+03  0.10566000000E+00 0.  1.
          4    1    3    3  502    0  0.73790088871E+03 -0.14337623329E+03  0.23753692058E+03  0.78833892107E+03  0.00000000000E+00 0.  1.
         13    1    4    4    0    0 -0.72547961807E+03 -0.51720439315E+02  0.50257753954E+03  0.88407006198E+03  0.10566000000E+00 0. -1.
         -4    1    4    4    0  501  0.12183305038E+03  0.12465082559E+03  0.10326760835E+04  0.10472826810E+04  0.00000000000E+00 0. -1.
<mgrwt>
<rscale>  2 0.11649501E+04</rscale>
<asrwt>0</asrwt>
<pdfrwt beam="2">  1        4 0.74162582E-01 0.11649501E+04</pdfrwt>
<pdfrwt beam="1">  1       -4 0.44830484E+00 0.11649501E+04</pdfrwt>
<totfact> 0.15806566E-01</totfact>
</mgrwt>
</event>
<event>
 8    1  0.7046235E-006  0.1206235E+04  0.7818608E-02  0.8601882E-01
          2   -1    0    0  502    0  0.00000000000E+00  0.00000000000E+00  0.17139946164E+04  0.17139946164E+04  0.00000000000E+00 0.  1.
         -2   -1    0    0    0  501 -0.00000000000E+00 -0.00000000000E+00 -0.87384425519E+03  0.87384425519E+03  0.00000000000E+00 0. -1.
    9000010    2    1    2  502    0 -0.20222613887E+03  0.65331980996E+03  0.64179420177E+03  0.13751170268E+04  0.10056464859E+04 0.  0.
   -9000010    2    1    2    0  501  0.20222613887E+03 -0.65331980996E+03  0.19835615944E+03  0.12127218448E+04  0.98164500789E+03 0.  0.
        -13    1    3    3    0    0 -0.31982150364E+03 -0.14024492889E+03  0.41309029534E+03  0.54092331946E+03  0.10566000000E+00 0.  1.
          4    1    3    3  502    0  0.11759536477E+03  0.79356473885E+03  0.22870390643E+03  0.83419370734E+03  0.00000000000E+00 0.  1.
         13    1    4    4    0    0 -0.34224244976E+03 -0.88925046710E+02 -0.10961320841E+03  0.37020619251E+03  0.10566000000E+00 0. -1.
         -4    1    4    4    0  501  0.54446858863E+03 -0.56439476325E+03  0.30796936785E+03  0.84251565228E+03  0.00000000000E+00 0. -1.
<mgrwt>
<rscale>  2 0.12062349E+04</rscale>
<asrwt>0</asrwt>
<pdfrwt beam="1">  1        2 0.26369148E+00 0.12062349E+04</pdfrwt>
<pdfrwt beam="2">  1       -2 0.13443758E+00 0.12062349E+04</pdfrwt>
<totfact> 0.55426428E+00</totfact>
</mgrwt>
</event>
<event>
 8    1  0.7046235E-006  0.1074250E+04  0.7818608E-02  0.8707794E-01
          2   -1    0    0  502    0  0.00000000000E+00  0.00000000000E+00  0.23839583542E+04  0.23839583542E+04  0.00000000000E+00 0. -1.
         -2   -1    0    0    0  501 -0.00000000000E+00 -0.00000000000E+00 -0.53477663009E+03  0.53477663009E+03  0.00000000000E+00 0.  1.
    9000010    2    1    2  502    0 -0.25843155554E+03 -0.33453612771E+03  0.13849886039E+04  0.17619028289E+04  0.10036965956E+04 0.  0.
   -9000010    2    1    2    0  501  0.25843155554E+03  0.33453612771E+03  0.46419312021E+03  0.11568321554E+04  0.97163989895E+03 0.  0.
        -13    1    3    3    0    0  0.17549912449E+03 -0.18492025904E+03 -0.46038599384E+02  0.25906564554E+03  0.10566000000E+00 0.  1.
          4    1    3    3  502    0 -0.43393068002E+03 -0.14961586867E+03  0.14310272033E+04  0.15028371834E+04  0.00000000000E+00 0.  1.
         13    1    4    4    0    0  0.17925945518E+03  0.11318798438E+03 -0.29432003495E+03  0.36272546949E+03  0.10566000000E+00 0. -1.
         -4    1    4    4    0  501  0.79172100359E+02  0.22134814333E+03  0.75851315516E+03  0.79410668589E+03  0.00000000000E+00 0. -1.
<mgrwt>
<rscale>  2 0.10742497E+04</rscale>
<asrwt>0</asrwt>
<pdfrwt beam="1">  1        2 0.36676282E+00 0.10742497E+04</pdfrwt>
<pdfrwt beam="2">  1       -2 0.82273329E-01 0.10742497E+04</pdfrwt>
<totfact> 0.82140783E+00</totfact>
</mgrwt>
</event>
<event>
 8    1  0.7046235E-006  0.1170151E+04  0.7818608E-02  0.8629385E-01
          2   -1    0    0  502    0  0.00000000000E+00  0.00000000000E+00  0.17151553964E+04  0.17151553964E+04  0.00000000000E+00 0. -1.
         -2   -1    0    0    0  501 -0.00000000000E+00 -0.00000000000E+00 -0.82006102845E+03  0.82006102845E+03  0.00000000000E+00 0.  1.
    9000010    2    1    2  502    0 -0.64425940171E+03 -0.54886770456E+01  0.64109757475E+03  0.13098279211E+04  0.94315575613E+03 0.  0.
   -9000010    2    1    2    0  501  0.64425940171E+03  0.54886770456E+01  0.25399679318E+03  0.12253885037E+04  0.10109215161E+04 0.  0.
        -13    1    3    3    0    0 -0.22942660882E+03 -0.39264507094E+03  0.14408013866E+01  0.45476236393E+03  0.10566000000E+00 0.  1.
          4    1    3    3  502    0 -0.41483279289E+03  0.38715639390E+03  0.63965677336E+03  0.85506555719E+03  0.00000000000E+00 0.  1.
         13    1    4    4    0    0  0.32510054859E+02  0.38637312075E+03 -0.12984927780E+03  0.40890333603E+03  0.10566000000E+00 0. -1.
         -4    1    4    4    0  501  0.61174934685E+03 -0.38088444371E+03  0.38384607098E+03  0.81648516768E+03  0.00000000000E+00 0. -1.
<mgrwt>
<rscale>  2 0.11701508E+04</rscale>
<asrwt>0</asrwt>
<pdfrwt beam="1">  1        2 0.26387006E+00 0.11701508E+04</pdfrwt>
<pdfrwt beam="2">  1       -2 0.12616324E+00 0.11701508E+04</pdfrwt>
<totfact> 0.66306131E+00</totfact>
</mgrwt>
</event>
<event>
 8    1  0.7046235E-006  0.1226209E+04  0.7818608E-02  0.8587084E-01
         -1   -1    0    0    0  501 -0.00000000000E+00  0.00000000000E+00  0.16688654337E+04  0.16688654337E+04  0.00000000000E+00 0.  1.
          1   -1    0    0  502    0  0.00000000000E+00 -0.00000000000E+00 -0.94266233454E+03  0.94266233454E+03  0.00000000000E+00 0. -1.
    9000010    2    1    2  502    0  0.64167973029E+03 -0.35259187145E+03  0.86860224677E+02  0.12233561694E+04  0.97620782342E+03 0.  0.
   -9000010    2    1    2    0  501 -0.64167973029E+03  0.35259187145E+03  0.63934287448E+03  0.13881715988E+04  0.99105356695E+03 0.  0.
        -13    1    3    3    0    0  0.26079518019E+03 -0.64850588685E+03  0.20179225925E+03  0.72752603963E+03  0.10566000000E+00 0.  1.
          4    1    3    3  502    0  0.38088455010E+03  0.29591401540E+03 -0.11493203457E+03  0.49583012977E+03  0.00000000000E+00 0.  1.
         13    1    4    4    0    0 -0.30253257165E+02 -0.30936706649E+03  0.59157193207E+02  0.31642191149E+03  0.10566000000E+00 0. -1.
         -4    1    4    4    0  501 -0.61142647313E+03  0.66195893794E+03  0.58018568128E+03  0.10717496873E+04  0.00000000000E+00 0. -1.
<mgrwt>
<rscale>  2 0.12262086E+04</rscale>
<asrwt>0</asrwt>
<pdfrwt beam="2">  1        1 0.14502497E+00 0.12262086E+04</pdfrwt>
<pdfrwt beam="1">  1       -1 0.25674853E+00 0.12262086E+04</pdfrwt>
<totfact> 0.92560988E-01</totfact>
</mgrwt>
</event>
<event>
 8    1  0.7046235E-006  0.1266571E+04  0.7818608E-02  0.8558051E-01
          2   -1    0    0  502    0  0.00000000000E+00  0.00000000000E+00  0.33528861250E+04  0.33528861250E+04  0.00000000000E+00 0. -1.
         -2   -1    0    0    0  501 -0.00000000000E+00 -0.00000000000E+00 -0.56626914988E+03  0.56626914988E+03  0.00000000000E+00 0.  1.
    9000010    2    1    2  502    0 -0.44860775245E+03  0.68132698012E+03  0.21421040263E+04  0.24766699078E+04  0.93799189944E+03 0.  0.
   -9000010    2    1    2    0  501  0.44860775245E+03 -0.68132698012E+03  0.64451294880E+03  0.14424853670E+04  0.99995586080E+03 0.  0.
        -13    1    3    3    0    0  0.88872494716E+02 -0.19210598992E+03  0.28226674278E+03  0.35281377088E+03  0.10566000000E+00 0.  1.
          4    1    3    3  502    0 -0.53748024717E+03  0.87343297004E+03  0.18598372835E+04  0.21238561369E+04  0.00000000000E+00 0.  1.
         13    1    4    4    0    0 -0.32165986764E+03 -0.25223171927E+03  0.20633947112E+03  0.45788852264E+03  0.10566000000E+00 0. -1.
         -4    1    4    4    0  501  0.77026762010E+03 -0.42909526085E+03  0.43817347768E+03  0.98459684440E+03  0.00000000000E+00 0. -1.
<mgrwt>
<rscale>  2 0.12665711E+04</rscale>
<asrwt>0</asrwt>
<pdfrwt beam="1">  1        2 0.51582862E+00 0.12665711E+04</pdfrwt>
<pdfrwt beam="2">  1       -2 0.87118333E-01 0.12665711E+04</pdfrwt>
<totfact> 0.18248693E+00</totfact>
</mgrwt>
</event>
<event>
 8    1  0.7046235E-006  0.1075429E+04  0.7818608E-02  0.8706778E-01
         -2   -1    0    0    0  501 -0.00000000000E+00  0.00000000000E+00  0.54975973625E+03  0.54975973625E+03  0.00000000000E+00 0. -1.
          2   -1    0    0  502    0  0.00000000000E+00 -0.00000000000E+00 -0.23553999376E+04  0.23553999376E+04  0.00000000000E+00 0.  1.
    9000010    2    1    2  502    0 -0.27393108210E+03  0.31694555108E+03 -0.41572243090E+03  0.11371519867E+04  0.97200657470E+03 0.  0.
   -9000010    2    1    2    0  501  0.27393108210E+03 -0.31694555108E+03 -0.13899177704E+04  0.17680076871E+04  0.10092011955E+04 0.  0.
        -13    1    3    3    0    0 -0.61326773129E+03  0.36580046578E+03 -0.25210102540E+03  0.75727288950E+03  0.10566000000E+00 0.  1.
          4    1    3    3  502    0  0.33933664918E+03 -0.48854914703E+02 -0.16362140550E+03  0.37987909722E+03  0.00000000000E+00 0.  1.
         13    1    4    4    0    0  0.37923531646E+03 -0.20306870834E+03 -0.15111241619E+04  0.15711628081E+04  0.10566000000E+00 0. -1.
         -4    1    4    4    0  501 -0.10530423436E+03 -0.11387684275E+03  0.12120639145E+03  0.19684487907E+03  0.00000000000E+00 0. -1.
<mgrwt>
<rscale>  2 0.10754292E+04</rscale>
<asrwt>0</asrwt>
<pdfrwt beam="2">  1        2 0.36236921E+00 0.10754292E+04</pdfrwt>
<pdfrwt beam="1">  1       -2 0.84578424E-01 0.10754292E+04</pdfrwt>
<totfact> 0.80054470E+00</totfact>
</mgrwt>
</event>
<event>
 8    1  0.7046235E-006  0.1092979E+04  0.7818608E-02  0.8691826E-01
          1   -1    0    0  502    0  0.00000000000E+00  0.00000000000E+00  0.14050962171E+04  0.14050962171E+04  0.00000000000E+00 0.  1.
         -1   -1    0    0    0  501 -0.00000000000E+00 -0.00000000000E+00 -0.85345410444E+03  0.85345410444E+03  0.00000000000E+00 0. -1.
    9000010    2    1    2  502    0 -0.11223251612E+03  0.40728029195E+03  0.20665586140E+03  0.11146694755E+04  0.10105978531E+04 0.  0.
   -9000010    2    1    2    0  501  0.11223251612E+03 -0.40728029195E+03  0.34498625123E+03  0.11438808460E+04  0.10054722783E+04 0.  0.
        -13    1    3    3    0    0  0.28407409404E+03  0.59292172874E+03  0.13579399221E+03  0.67133768463E+03  0.10566000000E+00 0.  1.
          4    1    3    3  502    0 -0.39630661016E+03 -0.18564143679E+03  0.70861869184E+02  0.44333179089E+03  0.00000000000E+00 0.  1.
         13    1    4    4    0    0 -0.34801907410E+03 -0.28083731821E+03 -0.13483968732E+03  0.46708524669E+03  0.10566000000E+00 0. -1.
         -4    1    4    4    0  501  0.46025159021E+03 -0.12644297374E+03  0.47982593855E+03  0.67679559929E+03  0.00000000000E+00 0. -1.
<mgrwt>
<rscale>  2 0.10929792E+04</rscale>
<asrwt>0</asrwt>
<pdfrwt beam="1">  1        1 0.21616865E+00 0.10929792E+04</pdfrwt>
<pdfrwt beam="2">  1       -1 0.13130063E+00 0.10929792E+04</pdfrwt>
<totfact> 0.55743423E+00</totfact>
</mgrwt>
</event>
<event>
 8    1  0.7046235E-006  0.1363652E+04  0.7818608E-02  0.8492568E-01
          2   -1    0    0  502    0  0.00000000000E+00  0.00000000000E+00  0.28632132215E+04  0.28632132215E+04  0.00000000000E+00 0. -1.
         -2   -1    0    0    0  501 -0.00000000000E+00 -0.00000000000E+00 -0.77335752829E+03  0.77335752829E+03  0.00000000000E+00 0.  1.
    9000010    2    1    2  502    0  0.52851849393E+03  0.74702479079E+03  0.17770101728E+04  0.22440740962E+04  0.10201595749E+04 0.  0.
   -9000010    2    1    2    0  501 -0.52851849393E+03 -0.74702479079E+03  0.31284552043E+03  0.13924966537E+04  0.10018965886E+04 0.  0.
        -13    1    3    3    0    0  0.43000811637E+03  0.11872200399E+03  0.14731921148E+04  0.15392520628E+04  0.10566000000E+00 0.  1.
          4    1    3    3  502    0  0.98510377564E+02  0.62830278680E+03  0.30381805796E+03  0.70482203337E+03  0.00000000000E+00 0.  1.
         13    1    4    4    0    0  0.17959233776E+03 -0.15073418346E+03  0.39897024089E+03  0.46276502258E+03  0.10566000000E+00 0. -1.
         -4    1    4    4    0  501 -0.70811083169E+03 -0.59629060733E+03 -0.86124720456E+02  0.92973163108E+03  0.00000000000E+00 0. -1.
<mgrwt>
<rscale>  2 0.13636522E+04</rscale>
<asrwt>0</asrwt>
<pdfrwt beam="1">  1        2 0.44049434E+00 0.13636522E+04</pdfrwt>
<pdfrwt beam="2">  1       -2 0.11897808E+00 0.13636522E+04</pdfrwt>
<totfact> 0.17331069E+00</totfact>
</mgrwt>
</event>
<event>
 8    1  0.7046235E-006  0.1485250E+04  0.7818608E-02  0.8418039E-01
         -1   -1    0    0    0  501 -0.00000000000E+00  0.00000000000E+00  0.13946677772E+04  0.13946677772E+04  0.00000000000E+00 0. -1.
          1   -1    0    0  502    0  0.00000000000E+00 -0.00000000000E+00 -0.15952292028E+04  0.15952292028E+04  0.00000000000E+00 0.  1.
    9000010    2    1    2  502    0 -0.30147482908E+03 -0.94278881894E+03 -0.21677732770E+03  0.15831516754E+04  0.12164041220E+04 0.  0.
   -9000010    2    1    2    0  501  0.30147482908E+03  0.94278881894E+03  0.16215902119E+02  0.14067453046E+04  0.99946564061E+03 0.  0.
        -13    1    3    3    0    0 -0.42677316480E+03 -0.11332123084E+04 -0.41603855075E+03  0.12803880494E+04  0.10566000000E+00 0.  1.
          4    1    3    3  502    0  0.12529833572E+03  0.19042348944E+03  0.19926122305E+03  0.30276362608E+03  0.00000000000E+00 0.  1.
         13    1    4    4    0    0 -0.11085091638E+03  0.98164599738E+03  0.63378362169E+02  0.98991596501E+03  0.10566000000E+00 0. -1.
         -4    1    4    4    0  501  0.41232574545E+03 -0.38857178438E+02 -0.47162460051E+02  0.41682933956E+03  0.00000000000E+00 0. -1.
<mgrwt>
<rscale>  2 0.14852501E+04</rscale>
<asrwt>0</asrwt>
<pdfrwt beam="2">  1        1 0.24541988E+00 0.14852501E+04</pdfrwt>
<pdfrwt beam="1">  1       -1 0.21456427E+00 0.14852501E+04</pdfrwt>
<totfact> 0.70963847E-01</totfact>
</mgrwt>
</event>
<event>
 8    1  0.7046235E-006  0.1595236E+04  0.7818608E-02  0.8356705E-01
         -2   -1    0    0    0  501 -0.00000000000E+00  0.00000000000E+00  0.84218150059E+03  0.84218150059E+03  0.00000000000E+00 0.  1.
          2   -1    0    0  502    0  0.00000000000E+00 -0.00000000000E+00 -0.30341242619E+04  0.30341242619E+04  0.00000000000E+00 0. -1.
    9000010    2    1    2  502    0  0.93238763694E+03  0.83422917599E+03 -0.12144006579E+04  0.19985404227E+04  0.97678546253E+03 0.  0.
   -9000010    2    1    2    0  501 -0.93238763694E+03 -0.83422917599E+03 -0.97754210345E+03  0.18777653398E+04  0.10025612618E+04 0.  0.
        -13    1    3    3    0    0  0.80113638301E+03  0.47496092045E+03 -0.13071079996E+04  0.16049731193E+04  0.10566000000E+00 0.  1.
          4    1    3    3  502    0  0.13125125392E+03  0.35926825554E+03  0.92707341669E+02  0.39356730338E+03  0.00000000000E+00 0.  1.
         13    1    4    4    0    0 -0.10436539931E+04 -0.97128054620E+03 -0.89041364319E+03  0.16809033357E+04  0.10566000000E+00 0. -1.
         -4    1    4    4    0  501  0.11126635614E+03  0.13705137021E+03 -0.87128460254E+02  0.19686200413E+03  0.00000000000E+00 0. -1.
<mgrwt>
<rscale>  2 0.15952356E+04</rscale>
<asrwt>0</asrwt>
<pdfrwt beam="2">  1        2 0.46678834E+00 0.15952356E+04</pdfrwt>
<pdfrwt beam="1">  1       -2 0.12956639E+00 0.15952356E+04</pdfrwt>
<totfact> 0.10516642E+00</totfact>
</mgrwt>
</event>
<event>
 8    1  0.7046235E-006  0.1336822E+04  0.7818608E-02  0.8510089E-01
          1   -1    0    0  502    0  0.00000000000E+00  0.00000000000E+00  0.12505147414E+04  0.12505147414E+04  0.00000000000E+00 0. -1.
         -1   -1    0    0    0  501 -0.00000000000E+00 -0.00000000000E+00 -0.15418305529E+04  0.15418305529E+04  0.00000000000E+00 0.  1.
    9000010    2    1    2  502    0  0.50431961743E+00  0.88830683301E+03 -0.52426261308E+03  0.14479895002E+04  0.10162347275E+04 0.  0.
   -9000010    2    1    2    0  501 -0.50431961743E+00 -0.88830683301E+03  0.23294680165E+03  0.13443557941E+04  0.98180395436E+03 0.  0.
        -13    1    3    3    0    0 -0.27074743691E+03  0.46130483902E+03  0.19441336483E+03  0.56912467587E+03  0.10566000000E+00 0.  1.
          4    1    3    3  502    0  0.27125175652E+03  0.42700199399E+03 -0.71867597791E+03  0.87886482437E+03  0.00000000000E+00 0.  1.
         13    1    4    4    0    0 -0.46924800132E+03 -0.60619761626E+03  0.21829453834E+03  0.79707073296E+03  0.10566000000E+00 0. -1.
         -4    1    4    4    0  501  0.46874368171E+03 -0.28210921675E+03  0.14652263303E+02  0.54728506113E+03  0.00000000000E+00 0. -1.
<mgrwt>
<rscale>  2 0.13368225E+04</rscale>
<asrwt>0</asrwt>
<pdfrwt beam="1">  1        1 0.19238688E+00 0.13368225E+04</pdfrwt>
<pdfrwt beam="2">  1       -1 0.23720470E+00 0.13368225E+04</pdfrwt>
<totfact> 0.80584713E-01</totfact>
</mgrwt>
</event>
<event>
 8    1  0.7046235E-006  0.1717296E+04  0.7818608E-02  0.8294358E-01
          1   -1    0    0  502    0  0.00000000000E+00  0.00000000000E+00  0.20853157194E+04  0.20853157194E+04  0.00000000000E+00 0.  1.
         -1   -1    0    0    0  501 -0.00000000000E+00 -0.00000000000E+00 -0.14899122069E+04  0.14899122069E+04  0.00000000000E+00 0. -1.
    9000010    2    1    2  502    0  0.12998241414E+04 -0.48691921980E+03 -0.10517460289E+03  0.17206952259E+04  0.10114826930E+04 0.  0.
   -9000010    2    1    2    0  501 -0.12998241414E+04  0.48691921980E+03  0.70057811540E+03  0.18545327004E+04  0.10108653304E+04 0.  0.
        -13    1    3    3    0    0  0.13822482965E+04 -0.26214271575E+03 -0.26662966786E+03  0.14319289603E+04  0.10566000000E+00 0.  1.
          4    1    3    3  502    0 -0.82424155120E+02 -0.22477650405E+03  0.16145506497E+03  0.28876626556E+03  0.00000000000E+00 0.  1.
         13    1    4    4    0    0  0.12840213244E+03  0.21385831646E+03  0.18940931167E+03  0.31320661814E+03  0.10566000000E+00 0. -1.
         -4    1    4    4    0  501 -0.14282262738E+04  0.27306090333E+03  0.51116880373E+03  0.15413260823E+04  0.00000000000E+00 0. -1.
<mgrwt>
<rscale>  2 0.17172961E+04</rscale>
<asrwt>0</asrwt>
<pdfrwt beam="1">  1        1 0.32081780E+00 0.17172961E+04</pdfrwt>
<pdfrwt beam="2">  1       -1 0.22921726E+00 0.17172961E+04</pdfrwt>
<totfact> 0.21455596E-01</totfact>
</mgrwt>
</event>
<event>
 8    1  0.7046235E-006  0.1181027E+04  0.7818608E-02  0.8620988E-01
          1   -1    0    0  502    0  0.00000000000E+00  0.00000000000E+00  0.18772620153E+04  0.18772620153E+04  0.00000000000E+00 0. -1.
         -1   -1    0    0    0  501 -0.00000000000E+00 -0.00000000000E+00 -0.80440997499E+03  0.80440997499E+03  0.00000000000E+00 0.  1.
    9000010    2    1    2  502    0 -0.59048765209E+03  0.21376058765E+03  0.16327148482E+03  0.11856894021E+04  0.99238728550E+03 0.  0.
   -9000010    2    1    2    0  501  0.59048765209E+03 -0.21376058765E+03  0.90958055546E+03  0.14959825882E+04  0.10080961567E+04 0.  0.
        -13    1    3    3    0    0 -0.12548066565E+03  0.56395867701E+03  0.17426743504E+03  0.60345997126E+03  0.10566000000E+00 0.  1.
          4    1    3    3  502    0 -0.46500698644E+03 -0.35019808936E+03 -0.10995950222E+02  0.58222943085E+03  0.00000000000E+00 0.  1.
         13    1    4    4    0    0  0.50805804883E+03 -0.29772846401E+03  0.10218984056E+02  0.58895641440E+03  0.10566000000E+00 0. -1.
         -4    1    4    4    0  501  0.82429603255E+02  0.83967876360E+02  0.89936157140E+03  0.90702617375E+03  0.00000000000E+00 0. -1.
<mgrwt>
<rscale>  2 0.11810275E+04</rscale>
<asrwt>0</asrwt>
<pdfrwt beam="1">  1        1 0.28880954E+00 0.11810275E+04</pdfrwt>
<pdfrwt beam="2">  1       -1 0.12375538E+00 0.11810275E+04</pdfrwt>
<totfact> 0.28586534E+00</totfact>
</mgrwt>
</event>
<event>
 8    1  0.7046235E-006  0.1922037E+04  0.7818608E-02  0.8200894E-01
          2   -1    0    0  502    0  0.00000000000E+00  0.00000000000E+00  0.32228264742E+04  0.32228264742E+04  0.00000000000E+00 0.  1.
         -2   -1    0    0    0  501 -0.00000000000E+00 -0.00000000000E+00 -0.11604430102E+04  0.11604430102E+04  0.00000000000E+00 0. -1.
    9000010    2    1    2  502    0  0.10326993439E+04 -0.12657044200E+04  0.78556959769E+03  0.20702351138E+04  0.10001391002E+04 0.  0.
   -9000010    2    1    2    0  501 -0.10326993439E+04  0.12657044200E+04  0.12768138663E+04  0.23130343706E+04  0.10253773633E+04 0.  0.
        -13    1    3    3    0    0  0.92874068734E+03 -0.13783569644E+04  0.48261427514E+03  0.17307061378E+04  0.10566000000E+00 0.  1.
          4    1    3    3  502    0  0.10395865655E+03  0.11265254446E+03  0.30295532254E+03  0.33952897594E+03  0.00000000000E+00 0.  1.
         13    1    4    4    0    0 -0.84457547473E+03  0.10469982772E+04  0.14489386079E+04  0.19771029881E+04  0.10566000000E+00 0. -1.
         -4    1    4    4    0  501 -0.18812386916E+03  0.21870614282E+03 -0.17212474169E+03  0.33593138251E+03  0.00000000000E+00 0. -1.
<mgrwt>
<rscale>  2 0.19220369E+04</rscale>
<asrwt>0</asrwt>
<pdfrwt beam="1">  1        2 0.49581945E+00 0.19220369E+04</pdfrwt>
<pdfrwt beam="2">  1       -2 0.17852970E+00 0.19220369E+04</pdfrwt>
<totfact> 0.28523237E-01</totfact>
</mgrwt>
</event>
<event>
 8    1  0.7046235E-006  0.1155135E+04  0.7818608E-02  0.8641135E-01
          1   -1    0    0  502    0  0.00000000000E+00  0.00000000000E+00  0.16139508958E+04  0.16139508958E+04  0.00000000000E+00 0.  1.
         -1   -1    0    0    0  501 -0.00000000000E+00 -0.00000000000E+00 -0.95935396496E+03  0.95935396496E+03  0.00000000000E+00 0. -1.
    9000010    2    1    2  502    0 -0.22751395542E+03  0.50280886624E+03  0.80502481599E+03  0.14059078359E+04  0.10118955148E+04 0.  0.
   -9000010    2    1    2    0  501  0.22751395542E+03 -0.50280886624E+03 -0.15042788514E+03  0.11673970249E+04  0.10176482247E+04 0.  0.
        -13    1    3    3    0    0  0.37161078649E+03  0.37217328794E+03  0.47925841866E+03  0.71154492192E+03  0.10566000000E+00 0.  1.
          4    1    3    3  502    0 -0.59912474191E+03  0.13063557830E+03  0.32576639733E+03  0.69436291398E+03  0.00000000000E+00 0.  1.
         13    1    4    4    0    0  0.56757521344E+03 -0.47254454010E+03 -0.29678840632E+03  0.79594179095E+03  0.10566000000E+00 0. -1.
         -4    1    4    4    0  501 -0.34006125802E+03 -0.30264326143E+02  0.14636052118E+03  0.37145523391E+03  0.00000000000E+00 0. -1.
<mgrwt>
<rscale>  2 0.11551350E+04</rscale>
<asrwt>0</asrwt>
<pdfrwt beam="1">  1        1 0.24830014E+00 0.11551350E+04</pdfrwt>
<pdfrwt beam="2">  1       -1 0.14759292E+00 0.11551350E+04</pdfrwt>
<totfact> 0.27901375E+00</totfact>
</mgrwt>
</event>
<event>
 8    1  0.7046235E-006  0.1187761E+04  0.7818608E-02  0.8615836E-01
         -2   -1    0    0    0  501 -0.00000000000E+00  0.00000000000E+00  0.81241811646E+03  0.81241811646E+03  0.00000000000E+00 0.  1.
          2   -1    0    0  502    0  0.00000000000E+00 -0.00000000000E+00 -0.17369026157E+04  0.17369026157E+04  0.00000000000E+00 0. -1.
    9000010    2    1    2  502    0  0.63373501281E+03 -0.15628577273E+03 -0.44697119539E+03  0.12750766378E+04  0.99999593679E+03 0.  0.
   -9000010    2    1    2    0  501 -0.63373501281E+03  0.15628577273E+03 -0.47751330389E+03  0.12742440944E+04  0.98469982607E+03 0.  0.
        -13    1    3    3    0    0  0.72715418435E+03  0.22265170700E+03 -0.12831179896E+03  0.77122689227E+03  0.10566000000E+00 0.  1.
          4    1    3    3  502    0 -0.93419171538E+02 -0.37893747973E+03 -0.31865939644E+03  0.50384974555E+03  0.00000000000E+00 0.  1.
         13    1    4    4    0    0 -0.24736174944E+03  0.44129703029E+03 -0.59395935042E+03  0.78020422015E+03  0.10566000000E+00 0. -1.
         -4    1    4    4    0  501 -0.38637326337E+03 -0.28501125755E+03  0.11644604653E+03  0.49403987423E+03  0.00000000000E+00 0. -1.
<mgrwt>
<rscale>  2 0.11877611E+04</rscale>
<asrwt>0</asrwt>
<pdfrwt beam="2">  1        2 0.26721578E+00 0.11877611E+04</pdfrwt>
<pdfrwt beam="1">  1       -2 0.12498740E+00 0.11877611E+04</pdfrwt>
<totfact> 0.66051615E+00</totfact>
</mgrwt>
</event>
<event>
 8    1  0.7046235E-006  0.1431066E+04  0.7818608E-02  0.8450310E-01
          2   -1    0    0  502    0  0.00000000000E+00  0.00000000000E+00  0.23727895821E+04  0.23727895821E+04  0.00000000000E+00 0. -1.
         -2   -1    0    0    0  501 -0.00000000000E+00 -0.00000000000E+00 -0.86733847786E+03  0.86733847786E+03  0.00000000000E+00 0.  1.
    9000010    2    1    2  502    0 -0.91402967931E+03  0.44631679788E+03  0.64421010196E+03  0.15770200685E+04  0.10184972765E+04 0.  0.
   -9000010    2    1    2    0  501  0.91402967931E+03 -0.44631679788E+03  0.86124100224E+03  0.16631079914E+04  0.99475785417E+03 0.  0.
        -13    1    3    3    0    0 -0.11360143213E+04  0.40065393215E+03  0.47798782044E+03  0.12959646906E+04  0.10566000000E+00 0.  1.
          4    1    3    3  502    0  0.22198464200E+03  0.45662865734E+02  0.16622228152E+03  0.28105537793E+03  0.00000000000E+00 0.  1.
         13    1    4    4    0    0  0.91128403480E+03 -0.42906755816E+03  0.10607819106E+04  0.14628040999E+04  0.10566000000E+00 0. -1.
         -4    1    4    4    0  501  0.27456445055E+01 -0.17249239720E+02 -0.19954090840E+03  0.20030389152E+03  0.00000000000E+00 0. -1.
<mgrwt>
<rscale>  2 0.14310659E+04</rscale>
<asrwt>0</asrwt>
<pdfrwt beam="1">  1        2 0.36504455E+00 0.14310659E+04</pdfrwt>
<pdfrwt beam="2">  1       -2 0.13343669E+00 0.14310659E+04</pdfrwt>
<totfact> 0.24111476E+00</totfact>
</mgrwt>
</event>
<event>
 8    1  0.7046235E-006  0.1098753E+04  0.7818608E-02  0.8686971E-01
          2   -1    0    0  502    0  0.00000000000E+00  0.00000000000E+00  0.17095940024E+04  0.17095940024E+04  0.00000000000E+00 0. -1.
         -2   -1    0    0    0  501 -0.00000000000E+00 -0.00000000000E+00 -0.72129042960E+03  0.72129042960E+03  0.00000000000E+00 0.  1.
    9000010    2    1    2  502    0 -0.31359187572E+03 -0.36267985990E+03  0.31351242670E+03  0.11315210574E+04  0.97579368529E+03 0.  0.
   -9000010    2    1    2    0  501  0.31359187572E+03  0.36267985990E+03  0.67479114607E+03  0.12993633746E+04  0.10015615524E+04 0.  0.
        -13    1    3    3    0    0 -0.20024199339E+03 -0.70054997604E+03  0.24440430446E+03  0.76850543268E+03  0.10566000000E+00 0.  1.
          4    1    3    3  502    0 -0.11334988233E+03  0.33787011614E+03  0.69108122237E+02  0.36301562468E+03  0.00000000000E+00 0.  1.
         13    1    4    4    0    0 -0.75863818891E+02  0.18332766446E+03  0.82232548478E+03  0.84592172549E+03  0.10566000000E+00 0. -1.
         -4    1    4    4    0  501  0.38945569461E+03  0.17935219543E+03 -0.14753433871E+03  0.45344164913E+03  0.00000000000E+00 0. -1.
<mgrwt>
<rscale>  2 0.10987526E+04</rscale>
<asrwt>0</asrwt>
<pdfrwt beam="1">  1        2 0.26301446E+00 0.10987526E+04</pdfrwt>
<pdfrwt beam="2">  1       -2 0.11096776E+00 0.10987526E+04</pdfrwt>
<totfact> 0.94126022E+00</totfact>
</mgrwt>
</event>
<event>
 8    1  0.7046235E-006  0.1163911E+04  0.7818608E-02  0.8634245E-01
          1   -1    0    0  502    0  0.00000000000E+00  0.00000000000E+00  0.12292937415E+04  0.12292937415E+04  0.00000000000E+00 0.  1.
         -1   -1    0    0    0  501 -0.00000000000E+00 -0.00000000000E+00 -0.11025788037E+04  0.11025788037E+04  0.00000000000E+00 0. -1.
    9000010    2    1    2  502    0 -0.46464661886E+03  0.32615350249E+03  0.88571501209E+02  0.11772005861E+04  0.10274647057E+04 0.  0.
   -9000010    2    1    2    0  501  0.46464661886E+03 -0.32615350249E+03  0.38143436638E+02  0.11546719591E+04  0.10047585898E+04 0.  0.
        -13    1    3    3    0    0 -0.22604495667E+03  0.63984371617E+03 -0.17780036887E+03  0.70150501487E+03  0.10566000000E+00 0.  1.
          4    1    3    3  502    0 -0.23860166219E+03 -0.31369021367E+03  0.26637187007E+03  0.47569557126E+03  0.00000000000E+00 0.  1.
         13    1    4    4    0    0  0.70847506275E+03 -0.38545897457E+03  0.23010894020E+03  0.83872860398E+03  0.10566000000E+00 0. -1.
         -4    1    4    4    0  501 -0.24382844388E+03  0.59305472076E+02 -0.19196550356E+03  0.31594335509E+03  0.00000000000E+00 0. -1.
<mgrwt>
<rscale>  2 0.11639106E+04</rscale>
<asrwt>0</asrwt>
<pdfrwt beam="1">  1        1 0.18912211E+00 0.11639106E+04</pdfrwt>
<pdfrwt beam="2">  1       -1 0.16962751E+00 0.11639106E+04</pdfrwt>
<totfact> 0.34869217E+00</totfact>
</mgrwt>
</event>
<event>
 8    1  0.7046235E-006  0.1564974E+04  0.7818608E-02  0.8373058E-01
          2   -1    0    0  502    0  0.00000000000E+00  0.00000000000E+00  0.21394397327E+04  0.21394397327E+04  0.00000000000E+00 0.  1.
         -2   -1    0    0    0  501 -0.00000000000E+00 -0.00000000000E+00 -0.15629615823E+04  0.15629615823E+04  0.00000000000E+00 0. -1.
    9000010    2    1    2  502    0 -0.95361199400E+03  0.78446010257E+03 -0.67026169839E+03  0.16959406947E+04  0.94984767626E+03 0.  0.
   -9000010    2    1    2    0  501  0.95361199400E+03 -0.78446010257E+03  0.12467398488E+04  0.20064606202E+04  0.97302131649E+03 0.  0.
        -13    1    3    3    0    0 -0.18493096665E+03  0.57754290944E+03 -0.66485080034E+03  0.89987880992E+03  0.10566000000E+00 0.  1.
          4    1    3    3  502    0 -0.76868102736E+03  0.20691719313E+03 -0.54108980461E+01  0.79606188481E+03  0.00000000000E+00 0.  1.
         13    1    4    4    0    0  0.48671618818E+01 -0.54223467300E+03  0.21300051400E+03  0.58259021619E+03  0.10566000000E+00 0. -1.
         -4    1    4    4    0  501  0.94874483212E+03 -0.24222542957E+03  0.10337393348E+04  0.14238704040E+04  0.00000000000E+00 0. -1.
<mgrwt>
<rscale>  2 0.15649737E+04</rscale>
<asrwt>0</asrwt>
<pdfrwt beam="1">  1        2 0.32914458E+00 0.15649737E+04</pdfrwt>
<pdfrwt beam="2">  1       -2 0.24045563E+00 0.15649737E+04</pdfrwt>
<totfact> 0.40090757E-01</totfact>
</mgrwt>
</event>
<event>
 8    1  0.7046235E-006  0.1381889E+04  0.7818608E-02  0.8480893E-01
         -2   -1    0    0    0  501 -0.00000000000E+00  0.00000000000E+00  0.14022640848E+04  0.14022640848E+04  0.00000000000E+00 0. -1.
          2   -1    0    0  502    0  0.00000000000E+00 -0.00000000000E+00 -0.13618301668E+04  0.13618301668E+04  0.00000000000E+00 0.  1.
    9000010    2    1    2  502    0  0.90821068623E+03 -0.32257939007E+03  0.19604865049E+02  0.13874233290E+04  0.99782514988E+03 0.  0.
   -9000010    2    1    2    0  501 -0.90821068623E+03  0.32257939007E+03  0.20829052898E+02  0.13766709225E+04  0.98279441697E+03 0.  0.
        -13    1    3    3    0    0  0.55223731686E+03 -0.66705203847E+03  0.14105718464E+03  0.87739478951E+03  0.10566000000E+00 0.  1.
          4    1    3    3  502    0  0.35597336937E+03  0.34447264840E+03 -0.12145231960E+03  0.51002853952E+03  0.00000000000E+00 0.  1.
         13    1    4    4    0    0 -0.10056435553E+04  0.23412945886E+03 -0.26153740583E+03  0.10651466517E+04  0.10566000000E+00 0. -1.
         -4    1    4    4    0  501  0.97432869066E+02  0.88449931204E+02  0.28236645873E+03  0.31152427083E+03  0.00000000000E+00 0. -1.
<mgrwt>
<rscale>  2 0.13818886E+04</rscale>
<asrwt>0</asrwt>
<pdfrwt beam="2">  1        2 0.20951233E+00 0.13818886E+04</pdfrwt>
<pdfrwt beam="1">  1       -2 0.21573294E+00 0.13818886E+04</pdfrwt>
<totfact> 0.17260216E+00</totfact>
</mgrwt>
</event>
<event>
 8    1  0.7046235E-006  0.1431452E+04  0.7818608E-02  0.8450075E-01
          4   -1    0    0  502    0  0.00000000000E+00  0.00000000000E+00  0.17436106618E+04  0.17436106618E+04  0.00000000000E+00 0.  1.
         -4   -1    0    0    0  501 -0.00000000000E+00 -0.00000000000E+00 -0.30110091475E+04  0.30110091475E+04  0.00000000000E+00 0. -1.
    9000010    2    1    2  502    0 -0.61068650552E+03 -0.82685109549E+03  0.12217112534E+04  0.18857542178E+04  0.10034290413E+04 0.  0.
   -9000010    2    1    2    0  501  0.61068650552E+03  0.82685109549E+03 -0.24891097391E+04  0.28688655915E+04  0.98899026615E+03 0.  0.
        -13    1    3    3    0    0 -0.67023676899E+03 -0.97658473610E+03  0.12501169811E+04  0.17221287846E+04  0.10566000000E+00 0.  1.
          4    1    3    3  502    0  0.59550263471E+02  0.14973364061E+03 -0.28405727665E+02  0.16362543315E+03  0.00000000000E+00 0.  1.
         13    1    4    4    0    0 -0.37063015477E+02  0.33237391171E+03 -0.10686431709E+03  0.35109269109E+03  0.10566000000E+00 0. -1.
         -4    1    4    4    0  501  0.64774952100E+03  0.49447718378E+03 -0.23822454220E+04  0.25177729004E+04  0.00000000000E+00 0. -1.
<mgrwt>
<rscale>  2 0.14314524E+04</rscale>
<asrwt>0</asrwt>
<pdfrwt beam="1">  1        4 0.26824780E+00 0.14314524E+04</pdfrwt>
<pdfrwt beam="2">  1       -4 0.46323217E+00 0.14314524E+04</pdfrwt>
<totfact> 0.16336334E-02</totfact>
</mgrwt>
</event>
<event>
 8    1  0.7046235E-006  0.1663964E+04  0.7818608E-02  0.8320920E-01
          2   -1    0    0  502    0  0.00000000000E+00  0.00000000000E+00  0.34779143271E+04  0.34779143271E+04  0.00000000000E+00 0. -1.
         -2   -1    0    0    0  501 -0.00000000000E+00 -0.00000000000E+00 -0.79785076854E+03  0.79785076854E+03  0.00000000000E+00 0.  1.
    9000010    2    1    2  502    0  0.72880715303E+03 -0.11642132109E+04  0.12699334835E+04  0.21162091558E+04  0.98947353263E+03 0.  0.
   -9000010    2    1    2    0  501 -0.72880715303E+03  0.11642132109E+04  0.14101300751E+04  0.21595559398E+04  0.88806686791E+03 0.  0.
        -13    1    3    3    0    0 -0.48679317370E+02  0.15041147988E+03  0.65530978732E+02  0.17113623099E+03  0.10566000000E+00 0.  1.
          4    1    3    3  502    0  0.77748647040E+03 -0.13146246908E+04  0.12044025047E+04  0.19450729248E+04  0.00000000000E+00 0.  1.
         13    1    4    4    0    0 -0.74139380271E+03  0.11266583599E+04  0.15263026062E+04  0.20368169990E+04  0.10566000000E+00 0. -1.
         -4    1    4    4    0  501  0.12586649681E+02  0.37554851072E+02 -0.11617253118E+03  0.12273894081E+03  0.00000000000E+00 0. -1.
<mgrwt>
<rscale>  2 0.16639641E+04</rscale>
<asrwt>0</asrwt>
<pdfrwt beam="1">  1        2 0.53506374E+00 0.16639641E+04</pdfrwt>
<pdfrwt beam="2">  1       -2 0.12274627E+00 0.16639641E+04</pdfrwt>
<totfact> 0.61030788E-01</totfact>
</mgrwt>
</event>
<event>
 8    1  0.7046235E-006  0.1238467E+04  0.7818608E-02  0.8578145E-01
          1   -1    0    0  502    0  0.00000000000E+00  0.00000000000E+00  0.21363141732E+04  0.21363141732E+04  0.00000000000E+00 0.  1.
         -1   -1    0    0    0  501 -0.00000000000E+00 -0.00000000000E+00 -0.96805169218E+03  0.96805169218E+03  0.00000000000E+00 0. -1.
    9000010    2    1    2  502    0 -0.63794100222E+03 -0.31320937870E+03  0.13785062843E+04  0.18641120017E+04  0.10341978253E+04 0.  0.
   -9000010    2    1    2    0  501  0.63794100222E+03  0.31320937870E+03 -0.21024380324E+03  0.12402538637E+04  0.99446385174E+03 0.  0.
        -13    1    3    3    0    0 -0.27012565766E+03 -0.30501338880E+03  0.14351562294E+04  0.14918694487E+04  0.10566000000E+00 0.  1.
          4    1    3    3  502    0 -0.36781534456E+03 -0.81959899005E+01 -0.56649945080E+02  0.37224255295E+03  0.00000000000E+00 0.  1.
         13    1    4    4    0    0  0.31343765558E+02  0.30703224114E+03  0.31268669916E+03  0.43934520793E+03  0.10566000000E+00 0. -1.
         -4    1    4    4    0  501  0.60659723666E+03  0.61771375632E+01 -0.52293050240E+03  0.80090865577E+03  0.00000000000E+00 0. -1.
<mgrwt>
<rscale>  2 0.12384673E+04</rscale>
<asrwt>0</asrwt>
<pdfrwt beam="1">  1        1 0.32866372E+00 0.12384673E+04</pdfrwt>
<pdfrwt beam="2">  1       -1 0.14893103E+00 0.12384673E+04</pdfrwt>
<totfact> 0.10825217E+00</totfact>
</mgrwt>
</event>
<event>
 8    1  0.7046235E-006  0.1427079E+04  0.7818608E-02  0.8452742E-01
         -4   -1    0    0    0  501 -0.00000000000E+00  0.00000000000E+00  0.18468752155E+04  0.18468752155E+04  0.00000000000E+00 0. -1.
          4   -1    0    0  502    0  0.00000000000E+00 -0.00000000000E+00 -0.13956306408E+04  0.13956306408E+04  0.00000000000E+00 0.  1.
    9000010    2    1    2  502    0 -0.35188342943E+02  0.10269277323E+04 -0.51572649302E+03  0.15273447980E+04  0.10054797509E+04 0.  0.
   -9000010    2    1    2    0  501  0.35188342943E+02 -0.10269277323E+04  0.96697106771E+03  0.17151610583E+04  0.97515415355E+03 0.  0.
        -13    1    3    3    0    0 -0.13813729203E+03 -0.44194814219E+02  0.19109886143E+03  0.23990389546E+03  0.10566000000E+00 0.  1.
          4    1    3    3  502    0  0.10294894909E+03  0.10711225465E+04 -0.70682535445E+03  0.12874409025E+04  0.00000000000E+00 0.  1.
         13    1    4    4    0    0  0.11973389893E+03 -0.40106663633E+03  0.99865446371E+03  0.10828210389E+04  0.10566000000E+00 0. -1.
         -4    1    4    4    0  501 -0.84545555991E+02 -0.62586109594E+03 -0.31683395995E+02  0.63234001932E+03  0.00000000000E+00 0. -1.
<mgrwt>
<rscale>  2 0.14270792E+04</rscale>
<asrwt>0</asrwt>
<pdfrwt beam="2">  1        4 0.21471241E+00 0.14270792E+04</pdfrwt>
<pdfrwt beam="1">  1       -4 0.28413465E+00 0.14270792E+04</pdfrwt>
<totfact> 0.10063771E-01</totfact>
</mgrwt>
</event>
<event>
 8    1  0.7046235E-006  0.2143089E+04  0.7818608E-02  0.8112497E-01
          2   -1    0    0  502    0  0.00000000000E+00  0.00000000000E+00  0.27595350500E+04  0.27595350500E+04  0.00000000000E+00 0. -1.
         -2   -1    0    0    0  501 -0.00000000000E+00 -0.00000000000E+00 -0.16667829101E+04  0.16667829101E+04  0.00000000000E+00 0.  1.
    9000010    2    1    2  502    0 -0.10116128244E+04  0.16041391128E+04  0.46085190510E+03  0.21880183536E+04  0.98914965373E+03 0.  0.
   -9000010    2    1    2    0  501  0.10116128244E+04 -0.16041391128E+04  0.63190023486E+03  0.22382996065E+04  0.10070076573E+04 0.  0.
        -13    1    3    3    0    0 -0.38627027475E+03  0.80713928561E+02 -0.16310952857E+03  0.42699437103E+03  0.10566000000E+00 0.  1.
          4    1    3    3  502    0 -0.62534254961E+03  0.15234251843E+04  0.62396143366E+03  0.17610239826E+04  0.00000000000E+00 0.  1.
         13    1    4    4    0    0  0.48655445503E+03 -0.13755141345E+04  0.76922847591E+03  0.16493898360E+04  0.10566000000E+00 0. -1.
         -4    1    4    4    0  501  0.52505836933E+03 -0.22862497832E+03 -0.13732824105E+03  0.58890977043E+03  0.00000000000E+00 0. -1.
<mgrwt>
<rscale>  2 0.21430886E+04</rscale>
<asrwt>0</asrwt>
<pdfrwt beam="1">  1        2 0.42454385E+00 0.21430886E+04</pdfrwt>
<pdfrwt beam="2">  1       -2 0.25642814E+00 0.21430886E+04</pdfrwt>
<totfact> 0.12718013E-01</totfact>
</mgrwt>
</event>
<event>
 8    1  0.7046235E-006  0.1122261E+04  0.7818608E-02  0.8667520E-01
          2   -1    0    0  502    0  0.00000000000E+00  0.00000000000E+00  0.19317312583E+04  0.19317312583E+04  0.00000000000E+00 0. -1.
         -2   -1    0    0    0  501 -0.00000000000E+00 -0.00000000000E+00 -0.79807012514E+03  0.79807012514E+03  0.00000000000E+00 0.  1.
    9000010    2    1    2  502    0  0.40807382241E+03 -0.27726425446E+03  0.11483994900E+04  0.16017524402E+04  0.10016934560E+04 0.  0.
   -9000010    2    1    2    0  501 -0.40807382241E+03  0.27726425446E+03 -0.14738356928E+02  0.11280489432E+04  0.10143359836E+04 0.  0.
        -13    1    3    3    0    0 -0.18945193826E+03 -0.45484152456E+03  0.48271229065E+03  0.68977098814E+03  0.10566000000E+00 0.  1.
          4    1    3    3  502    0  0.59752576066E+03  0.17757727010E+03  0.66568719939E+03  0.91198145209E+03  0.00000000000E+00 0.  1.
         13    1    4    4    0    0 -0.21351178075E+03 -0.37147904609E+03  0.10282146950E+03  0.44063162387E+03  0.10566000000E+00 0. -1.
         -4    1    4    4    0  501 -0.19456204166E+03  0.64874330055E+03 -0.11755982643E+03  0.68741731929E+03  0.00000000000E+00 0. -1.
<mgrwt>
<rscale>  2 0.11222606E+04</rscale>
<asrwt>0</asrwt>
<pdfrwt beam="1">  1        2 0.29718942E+00 0.11222606E+04</pdfrwt>
<pdfrwt beam="2">  1       -2 0.12278002E+00 0.11222606E+04</pdfrwt>
<totfact> 0.54717492E+00</totfact>
</mgrwt>
</event>
<event>
 8    1  0.7046235E-006  0.1214070E+04  0.7818608E-02  0.8596042E-01
          2   -1    0    0  502    0  0.00000000000E+00  0.00000000000E+00  0.25345819345E+04  0.25345819345E+04  0.00000000000E+00 0.  1.
         -2   -1    0    0    0  501 -0.00000000000E+00 -0.00000000000E+00 -0.69243504729E+03  0.69243504729E+03  0.00000000000E+00 0. -1.
    9000010    2    1    2  502    0  0.45169178508E+03  0.54140621583E+03  0.26830629493E+03  0.12323313422E+04  0.97442604122E+03 0.  0.
   -9000010    2    1    2    0  501 -0.45169178508E+03 -0.54140621583E+03  0.15738405923E+04  0.19946856396E+04  0.10023225188E+04 0.  0.
        -13    1    3    3    0    0  0.20972144020E+03 -0.17372815202E+03 -0.20535894571E+03  0.34108189784E+03  0.10566000000E+00 0.  1.
          4    1    3    3  502    0  0.24197034488E+03  0.71513436785E+03  0.47366524065E+03  0.89124944436E+03  0.00000000000E+00 0.  1.
         13    1    4    4    0    0  0.63081163015E+02 -0.66790534153E+03  0.67835122320E+03  0.95406350499E+03  0.10566000000E+00 0. -1.
         -4    1    4    4    0  501 -0.51477294810E+03  0.12649912570E+03  0.89548936906E+03  0.10406221346E+04  0.00000000000E+00 0. -1.
<mgrwt>
<rscale>  2 0.12140702E+04</rscale>
<asrwt>0</asrwt>
<pdfrwt beam="1">  1        2 0.38993568E+00 0.12140702E+04</pdfrwt>
<pdfrwt beam="2">  1       -2 0.10652847E+00 0.12140702E+04</pdfrwt>
<totfact> 0.36356646E+00</totfact>
</mgrwt>
</event>
<event>
 8    1  0.7046235E-006  0.1658204E+04  0.7818608E-02  0.8323850E-01
          2   -1    0    0  502    0  0.00000000000E+00  0.00000000000E+00  0.15035225342E+04  0.15035225342E+04  0.00000000000E+00 0. -1.
         -2   -1    0    0    0  501 -0.00000000000E+00 -0.00000000000E+00 -0.20477361596E+04  0.20477361596E+04  0.00000000000E+00 0.  1.
    9000010    2    1    2  502    0  0.10821202794E+04  0.75088145895E+03 -0.85318025948E+03  0.18677824567E+04  0.10128610397E+04 0.  0.
   -9000010    2    1    2    0  501 -0.10821202794E+04 -0.75088145895E+03  0.30896663411E+03  0.16834762371E+04  0.10019104728E+04 0.  0.
        -13    1    3    3    0    0  0.55602239856E+03  0.19908682791E+03  0.14849248490E+03  0.60897167584E+03  0.10566000000E+00 0.  1.
          4    1    3    3  502    0  0.52609788084E+03  0.55179463103E+03 -0.10016727444E+04  0.12588107808E+04  0.00000000000E+00 0.  1.
         13    1    4    4    0    0 -0.10323783094E+04 -0.21330287563E+03  0.41563969355E+03  0.11331634729E+04  0.10566000000E+00 0. -1.
         -4    1    4    4    0  501 -0.49741970030E+02 -0.53757858332E+03 -0.10667305943E+03  0.55031276419E+03  0.00000000000E+00 0. -1.
<mgrwt>
<rscale>  2 0.16582042E+04</rscale>
<asrwt>0</asrwt>
<pdfrwt beam="1">  1        2 0.23131116E+00 0.16582042E+04</pdfrwt>
<pdfrwt beam="2">  1       -2 0.31503633E+00 0.16582042E+04</pdfrwt>
<totfact> 0.25374844E-01</totfact>
</mgrwt>
</event>
<event>
 8    1  0.7046235E-006  0.1235706E+04  0.7818608E-02  0.8580149E-01
         -1   -1    0    0    0  501 -0.00000000000E+00  0.00000000000E+00  0.12735854528E+04  0.12735854528E+04  0.00000000000E+00 0.  1.
          1   -1    0    0  502    0  0.00000000000E+00 -0.00000000000E+00 -0.12043898430E+04  0.12043898430E+04  0.00000000000E+00 0. -1.
    9000010    2    1    2  502    0 -0.71425808561E+03 -0.75355619393E+02  0.11634281480E+03  0.12277052483E+04  0.98887888228E+03 0.  0.
   -9000010    2    1    2    0  501  0.71425808561E+03  0.75355619393E+02 -0.47147204980E+02  0.12502700476E+04  0.10223058499E+04 0.  0.
        -13    1    3    3    0    0 -0.75346282224E+03  0.18350758751E+03 -0.21563453189E+03  0.80490963572E+03  0.10566000000E+00 0.  1.
          4    1    3    3  502    0  0.39204736631E+02 -0.25886320690E+03  0.33197734670E+03  0.42279561254E+03  0.00000000000E+00 0.  1.
         13    1    4    4    0    0 -0.17688348331E+03 -0.18164634497E+03 -0.18331069636E+03  0.31286735828E+03  0.10566000000E+00 0. -1.
         -4    1    4    4    0  501  0.89114156892E+03  0.25700196436E+03  0.13616349138E+03  0.93740268931E+03  0.00000000000E+00 0. -1.
<mgrwt>
<rscale>  2 0.12357057E+04</rscale>
<asrwt>0</asrwt>
<pdfrwt beam="2">  1        1 0.18529074E+00 0.12357057E+04</pdfrwt>
<pdfrwt beam="1">  1       -1 0.19593622E+00 0.12357057E+04</pdfrwt>
<totfact> 0.21252491E+00</totfact>
</mgrwt>
</event>
<event>
 8    1  0.7046235E-006  0.1485378E+04  0.7818608E-02  0.8417964E-01
          1   -1    0    0  502    0  0.00000000000E+00  0.00000000000E+00  0.24494309346E+04  0.24494309346E+04  0.00000000000E+00 0. -1.
         -1   -1    0    0    0  501 -0.00000000000E+00 -0.00000000000E+00 -0.11121643127E+04  0.11121643127E+04  0.00000000000E+00 0.  1.
    9000010    2    1    2  502    0  0.81789133164E+03  0.72945191258E+03 -0.10915180820E+03  0.14855712907E+04  0.99697623811E+03 0.  0.
   -9000010    2    1    2    0  501 -0.81789133164E+03 -0.72945191258E+03  0.14464184301E+04  0.20760239567E+04  0.10083168503E+04 0.  0.
        -13    1    3    3    0    0  0.56694429194E+03  0.72321514272E+03 -0.48077034967E+03  0.10371143202E+04  0.10566000000E+00 0.  1.
          4    1    3    3  502    0  0.25094703970E+03  0.62367698554E+01  0.37161854148E+03  0.44845697051E+03  0.00000000000E+00 0.  1.
         13    1    4    4    0    0  0.17060671849E+03 -0.77334403371E+02 -0.23096976140E+02  0.18873458562E+03  0.10566000000E+00 0. -1.
         -4    1    4    4    0  501 -0.98849805013E+03 -0.65211750921E+03  0.14695154062E+04  0.18872893711E+04  0.00000000000E+00 0. -1.
<mgrwt>
<rscale>  2 0.14853785E+04</rscale>
<asrwt>0</asrwt>
<pdfrwt beam="1">  1        1 0.37683553E+00 0.14853785E+04</pdfrwt>
<pdfrwt beam="2">  1       -1 0.17110220E+00 0.14853785E+04</pdfrwt>
<totfact> 0.36576812E-01</totfact>
</mgrwt>
</event>
<event>
 8    1  0.7046235E-006  0.1152298E+04  0.7818608E-02  0.8643375E-01
         -2   -1    0    0    0  501 -0.00000000000E+00  0.00000000000E+00  0.11574406842E+04  0.11574406842E+04  0.00000000000E+00 0.  1.
          2   -1    0    0  502    0  0.00000000000E+00 -0.00000000000E+00 -0.11495323645E+04  0.11495323645E+04  0.00000000000E+00 0. -1.
    9000010    2    1    2  502    0 -0.38610742960E+03  0.41793274019E+03 -0.48122355711E+02  0.11496876740E+04  0.99785733659E+03 0.  0.
   -9000010    2    1    2    0  501  0.38610742960E+03 -0.41793274019E+03  0.56030675434E+02  0.11572853747E+04  0.10061924664E+04 0.  0.
        -13    1    3    3    0    0 -0.61946488947E+03  0.11763388118E+03  0.23779981502E+03  0.67388666887E+03  0.10566000000E+00 0.  1.
          4    1    3    3  502    0  0.23335745988E+03  0.30029885901E+03 -0.28592217073E+03  0.47580100516E+03  0.00000000000E+00 0.  1.
         13    1    4    4    0    0  0.17639704514E+03 -0.64318454767E+03 -0.26031157244E+03  0.71593603472E+03  0.10566000000E+00 0. -1.
         -4    1    4    4    0  501  0.20971038445E+03  0.22525180748E+03  0.31634224787E+03  0.44134933999E+03  0.00000000000E+00 0. -1.
<mgrwt>
<rscale>  2 0.11522985E+04</rscale>
<asrwt>0</asrwt>
<pdfrwt beam="2">  1        2 0.17685113E+00 0.11522985E+04</pdfrwt>
<pdfrwt beam="1">  1       -2 0.17806780E+00 0.11522985E+04</pdfrwt>
<totfact> 0.47767875E+00</totfact>
</mgrwt>
</event>
<event>
 8    1  0.7046235E-006  0.1118356E+04  0.7818608E-02  0.8670717E-01
         -2   -1    0    0    0  501 -0.00000000000E+00  0.00000000000E+00  0.31814166445E+03  0.31814166445E+03  0.00000000000E+00 0. -1.
          2   -1    0    0  502    0  0.00000000000E+00 -0.00000000000E+00 -0.39403899747E+04  0.39403899747E+04  0.00000000000E+00 0.  1.
    9000010    2    1    2  502    0  0.46478841134E+03 -0.20102156039E+03 -0.19137928873E+04  0.22167755133E+04  0.99752319568E+03 0.  0.
   -9000010    2    1    2    0  501 -0.46478841134E+03  0.20102156039E+03 -0.17084554230E+04  0.20417561259E+04  0.99674982321E+03 0.  0.
        -13    1    3    3    0    0  0.18429464952E+03 -0.92840949050E+02 -0.19048655889E+04  0.19160106687E+04  0.10566000000E+00 0.  1.
          4    1    3    3  502    0  0.28049376182E+03 -0.10818061134E+03 -0.89272983820E+01  0.30076484460E+03  0.00000000000E+00 0.  1.
         13    1    4    4    0    0 -0.17588791338E+03 -0.40679056996E+03 -0.62156172464E+03  0.76338333397E+03  0.10566000000E+00 0. -1.
         -4    1    4    4    0  501 -0.28890049796E+03  0.60781213035E+03 -0.10868936983E+04  0.12783727919E+04  0.00000000000E+00 0. -1.
<mgrwt>
<rscale>  2 0.11183555E+04</rscale>
<asrwt>0</asrwt>
<pdfrwt beam="2">  1        2 0.60621388E+00 0.11183555E+04</pdfrwt>
<pdfrwt beam="1">  1       -2 0.48944869E-01 0.11183555E+04</pdfrwt>
<totfact> 0.21317811E+00</totfact>
</mgrwt>
</event>
<event>
 8    1  0.7046235E-006  0.1412364E+04  0.7818608E-02  0.8461790E-01
         -2   -1    0    0    0  501 -0.00000000000E+00  0.00000000000E+00  0.39785168361E+04  0.39785168361E+04  0.00000000000E+00 0.  1.
          2   -1    0    0  502    0  0.00000000000E+00 -0.00000000000E+00 -0.50891885901E+03  0.50891885901E+03  0.00000000000E+00 0. -1.
    9000010    2    1    2  502    0  0.86124954315E+03 -0.62559452383E+03  0.14226880122E+04  0.19785581208E+04  0.87036301256E+03 0.  0.
   -9000010    2    1    2    0  501 -0.86124954315E+03  0.62559452383E+03  0.20469099649E+04  0.25088775743E+04  0.98565054383E+03 0.  0.
        -13    1    3    3    0    0 -0.43553300167E+01 -0.36204506594E+03  0.80589606272E+03  0.88349537279E+03  0.10566000000E+00 0.  1.
          4    1    3    3  502    0  0.86560487316E+03 -0.26354945788E+03  0.61679194947E+03  0.10950627480E+04  0.00000000000E+00 0.  1.
         13    1    4    4    0    0  0.18744558068E+03 -0.98561818336E+01  0.11330341092E+03  0.21925023176E+03  0.10566000000E+00 0. -1.
         -4    1    4    4    0  501 -0.10486951238E+04  0.63545070566E+03  0.19336065540E+04  0.22896273426E+04  0.00000000000E+00 0. -1.
<mgrwt>
<rscale>  2 0.14123638E+04</rscale>
<asrwt>0</asrwt>
<pdfrwt beam="2">  1        2 0.78295211E-01 0.14123638E+04</pdfrwt>
<pdfrwt beam="1">  1       -2 0.61207949E+00 0.14123638E+04</pdfrwt>
<totfact> 0.37495099E-01</totfact>
</mgrwt>
</event>
<event>
 8    1  0.7046235E-006  0.1215851E+04  0.7818608E-02  0.8594721E-01
         -1   -1    0    0    0  501 -0.00000000000E+00  0.00000000000E+00  0.13917061390E+04  0.13917061390E+04  0.00000000000E+00 0.  1.
          1   -1    0    0  502    0  0.00000000000E+00 -0.00000000000E+00 -0.10740988223E+04  0.10740988223E+04  0.00000000000E+00 0. -1.
    9000010    2    1    2  502    0 -0.21490510125E+03  0.67256910315E+03  0.28918152920E+03  0.12565615704E+04  0.99839251918E+03 0.  0.
   -9000010    2    1    2    0  501  0.21490510125E+03 -0.67256910315E+03  0.28425787558E+02  0.12092433909E+04  0.98128902566E+03 0.  0.
        -13    1    3    3    0    0  0.14421451334E+03  0.16878816676E+03 -0.31923654407E+03  0.38884348179E+03  0.10566000000E+00 0.  1.
          4    1    3    3  502    0 -0.35911961459E+03  0.50378093638E+03  0.60841807327E+03  0.86771808862E+03  0.00000000000E+00 0.  1.
         13    1    4    4    0    0  0.20482583311E+03 -0.50251111760E+03  0.48132866624E+03  0.72536083526E+03  0.10566000000E+00 0. -1.
         -4    1    4    4    0  501  0.10079268134E+02 -0.17005798554E+03 -0.45290287868E+03  0.48388255559E+03  0.00000000000E+00 0. -1.
<mgrwt>
<rscale>  2 0.12158513E+04</rscale>
<asrwt>0</asrwt>
<pdfrwt beam="2">  1        1 0.16524597E+00 0.12158513E+04</pdfrwt>
<pdfrwt beam="1">  1       -1 0.21410864E+00 0.12158513E+04</pdfrwt>
<totfact> 0.18434245E+00</totfact>
</mgrwt>
</event>
<event>
 8    1  0.7046235E-006  0.1213986E+04  0.7818608E-02  0.8596104E-01
          2   -1    0    0  502    0  0.00000000000E+00  0.00000000000E+00  0.28899192530E+04  0.28899192530E+04  0.00000000000E+00 0. -1.
         -2   -1    0    0    0  501 -0.00000000000E+00 -0.00000000000E+00 -0.58105610029E+03  0.58105610029E+03  0.00000000000E+00 0.  1.
    9000010    2    1    2  502    0 -0.48544491711E+03  0.47742734233E+03  0.54257963681E+03  0.13244064601E+04  0.99803114902E+03 0.  0.
   -9000010    2    1    2    0  501  0.48544491711E+03 -0.47742734233E+03  0.17662835159E+04  0.21465688933E+04  0.10121298929E+04 0.  0.
        -13    1    3    3    0    0 -0.30431054107E+02 -0.62619188359E+02 -0.25195921310E+03  0.26140135431E+03  0.10566000000E+00 0.  1.
          4    1    3    3  502    0 -0.45501386300E+03  0.54004653069E+03  0.79453884991E+03  0.10630051057E+04  0.00000000000E+00 0.  1.
         13    1    4    4    0    0 -0.11282702743E+03  0.15235823112E+03  0.90011129391E+03  0.91986049012E+03  0.10566000000E+00 0. -1.
         -4    1    4    4    0  501  0.59827194453E+03 -0.62978557345E+03  0.86617222203E+03  0.12267084031E+04  0.00000000000E+00 0. -1.
<mgrwt>
<rscale>  2 0.12139860E+04</rscale>
<asrwt>0</asrwt>
<pdfrwt beam="1">  1        2 0.44460295E+00 0.12139860E+04</pdfrwt>
<pdfrwt beam="2">  1       -2 0.89393248E-01 0.12139860E+04</pdfrwt>
<totfact> 0.34242888E+00</totfact>
</mgrwt>
</event>
<event>
 8    1  0.7046235E-006  0.1325276E+04  0.7818608E-02  0.8517761E-01
          1   -1    0    0  502    0  0.00000000000E+00  0.00000000000E+00  0.10129988806E+04  0.10129988806E+04  0.00000000000E+00 0. -1.
         -1   -1    0    0    0  501 -0.00000000000E+00 -0.00000000000E+00 -0.17797705440E+04  0.17797705440E+04  0.00000000000E+00 0.  1.
    9000010    2    1    2  502    0 -0.55307563703E+03  0.67806188988E+03 -0.15662427431E+03  0.13253742473E+04  0.98306924746E+03 0.  0.
   -9000010    2    1    2    0  501  0.55307563703E+03 -0.67806188988E+03 -0.61014738907E+03  0.14673951773E+04  0.10076250211E+04 0.  0.
        -13    1    3    3    0    0 -0.41084528177E+03  0.60888111644E+03  0.33618537140E+03  0.80780608726E+03  0.10566000000E+00 0.  1.
          4    1    3    3  502    0 -0.14223035526E+03  0.69180773435E+02 -0.49280964571E+03  0.51756816003E+03  0.00000000000E+00 0.  1.
         13    1    4    4    0    0 -0.19072763234E+02 -0.34552726106E+03 -0.71786465683E+03  0.79692065799E+03  0.10566000000E+00 0. -1.
         -4    1    4    4    0  501  0.57214840026E+03 -0.33253462882E+03  0.10771726776E+03  0.67047451932E+03  0.00000000000E+00 0. -1.
<mgrwt>
<rscale>  2 0.13252763E+04</rscale>
<asrwt>0</asrwt>
<pdfrwt beam="1">  1        1 0.15584598E+00 0.13252763E+04</pdfrwt>
<pdfrwt beam="2">  1       -1 0.27381085E+00 0.13252763E+04</pdfrwt>
<totfact> 0.54284904E-01</totfact>
</mgrwt>
</event>
<event>
 8    1  0.7046235E-006  0.1599328E+04  0.7818608E-02  0.8354523E-01
         -1   -1    0    0    0  501 -0.00000000000E+00  0.00000000000E+00  0.16782934805E+04  0.16782934805E+04  0.00000000000E+00 0.  1.
          1   -1    0    0  502    0  0.00000000000E+00 -0.00000000000E+00 -0.15613931313E+04  0.15613931313E+04  0.00000000000E+00 0. -1.
    9000010    2    1    2  502    0 -0.13437160660E+04  0.51075947744E+02 -0.18241481232E+03  0.15354471351E+04  0.71842962240E+03 0.  0.
   -9000010    2    1    2    0  501  0.13437160660E+04 -0.51075947744E+02  0.29931516153E+03  0.17042394767E+04  0.10033249769E+04 0.  0.
        -13    1    3    3    0    0 -0.10756960878E+04 -0.26466765822E+03 -0.92451979615E+02  0.11116287250E+04  0.10566000000E+00 0.  1.
          4    1    3    3  502    0 -0.26801997825E+03  0.31574360596E+03 -0.89962832701E+02  0.42381841007E+03  0.00000000000E+00 0.  1.
         13    1    4    4    0    0  0.84992996002E+03 -0.51053070260E+03  0.27677939648E+03  0.10293830097E+04  0.10566000000E+00 0. -1.
         -4    1    4    4    0  501  0.49378610602E+03  0.45945475485E+03  0.22535765054E+02  0.67485646693E+03  0.00000000000E+00 0. -1.
<mgrwt>
<rscale>  2 0.15993284E+04</rscale>
<asrwt>0</asrwt>
<pdfrwt beam="2">  1        1 0.24021433E+00 0.15993284E+04</pdfrwt>
<pdfrwt beam="1">  1       -1 0.25819900E+00 0.15993284E+04</pdfrwt>
<totfact> 0.28501728E-01</totfact>
</mgrwt>
</event>
<event>
 8    1  0.7046235E-006  0.1334714E+04  0.7818608E-02  0.8511484E-01
         -2   -1    0    0    0  501 -0.00000000000E+00  0.00000000000E+00  0.14348810671E+04  0.14348810671E+04  0.00000000000E+00 0. -1.
          2   -1    0    0  502    0  0.00000000000E+00 -0.00000000000E+00 -0.18639769552E+04  0.18639769552E+04  0.00000000000E+00 0.  1.
    9000010    2    1    2  502    0  0.23382313958E+03  0.86227000737E+03  0.73778442479E+03  0.15314471549E+04  0.10014098584E+04 0.  0.
   -9000010    2    1    2    0  501 -0.23382313958E+03 -0.86227000737E+03 -0.11668803129E+04  0.17674108675E+04  0.98180888348E+03 0.  0.
        -13    1    3    3    0    0  0.28802995436E+03  0.21445086312E+03 -0.18399529358E+03  0.40349065234E+03  0.10566000000E+00 0.  1.
          4    1    3    3  502    0 -0.54206814777E+02  0.64781914425E+03  0.92177971836E+03  0.11279565025E+04  0.00000000000E+00 0.  1.
         13    1    4    4    0    0  0.23786293759E+03 -0.94269457058E+02 -0.71457217444E+03  0.75899862401E+03  0.10566000000E+00 0. -1.
         -4    1    4    4    0  501 -0.47168607717E+03 -0.76800055031E+03 -0.45230813845E+03  0.10084122435E+04  0.00000000000E+00 0. -1.
<mgrwt>
<rscale>  2 0.13347142E+04</rscale>
<asrwt>0</asrwt>
<pdfrwt beam="2">  1        2 0.28676568E+00 0.13347142E+04</pdfrwt>
<pdfrwt beam="1">  1       -2 0.22075093E+00 0.13347142E+04</pdfrwt>
<totfact> 0.83719486E-01</totfact>
</mgrwt>
</event>
<event>
 8    1  0.7046235E-006  0.1340497E+04  0.7818608E-02  0.8507665E-01
          2   -1    0    0  502    0  0.00000000000E+00  0.00000000000E+00  0.43599223107E+04  0.43599223107E+04  0.00000000000E+00 0. -1.
         -2   -1    0    0    0  501 -0.00000000000E+00 -0.00000000000E+00 -0.43055159484E+03  0.43055159484E+03  0.00000000000E+00 0.  1.
    9000010    2    1    2  502    0  0.80678109102E+03 -0.22776832707E+03  0.15011907700E+04  0.20271130439E+04  0.10737036020E+04 0.  0.
   -9000010    2    1    2    0  501 -0.80678109102E+03  0.22776832707E+03  0.24281799459E+04  0.27633608617E+04  0.10184946062E+04 0.  0.
        -13    1    3    3    0    0  0.23601175430E+03 -0.42419400318E+03  0.13050747201E+04  0.13924302987E+04  0.10566000000E+00 0.  1.
          4    1    3    3  502    0  0.57076933672E+03  0.19642567611E+03  0.19611604991E+03  0.63468274517E+03  0.00000000000E+00 0.  1.
         13    1    4    4    0    0  0.92892894879E+02  0.21796736035E+03  0.82239344366E+02  0.25080307220E+03  0.10566000000E+00 0. -1.
         -4    1    4    4    0  501 -0.89967398590E+03  0.98009667186E+01  0.23459406015E+04  0.25125577895E+04  0.00000000000E+00 0. -1.
<mgrwt>
<rscale>  2 0.13404968E+04</rscale>
<asrwt>0</asrwt>
<pdfrwt beam="1">  1        2 0.67075725E+00 0.13404968E+04</pdfrwt>
<pdfrwt beam="2">  1       -2 0.66238710E-01 0.13404968E+04</pdfrwt>
<totfact> 0.47153847E-01</totfact>
</mgrwt>
</event>
<event>
 8    1  0.7046235E-006  0.1339515E+04  0.7818608E-02  0.8508312E-01
         -1   -1    0    0    0  501 -0.00000000000E+00  0.00000000000E+00  0.10406857320E+04  0.10406857320E+04  0.00000000000E+00 0.  1.
          1   -1    0    0  502    0  0.00000000000E+00 -0.00000000000E+00 -0.21003775642E+04  0.21003775642E+04  0.00000000000E+00 0. -1.
    9000010    2    1    2  502    0 -0.55083259006E+03  0.70270485547E+03 -0.11891388642E+04  0.17794286597E+04  0.97729445937E+03 0.  0.
   -9000010    2    1    2    0  501  0.55083259006E+03 -0.70270485547E+03  0.12944703200E+03  0.13616346366E+04  0.10198439553E+04 0.  0.
        -13    1    3    3    0    0 -0.55789620000E+03  0.86106422080E+03 -0.64320475425E+03  0.12109467905E+04  0.10566000000E+00 0.  1.
          4    1    3    3  502    0  0.70636099404E+01 -0.15835936533E+03 -0.54593411000E+03  0.56848186922E+03  0.00000000000E+00 0.  1.
         13    1    4    4    0    0  0.77736886297E+03 -0.60318272506E+03 -0.14223503290E+03  0.99416425438E+03  0.10566000000E+00 0. -1.
         -4    1    4    4    0  501 -0.22653627292E+03 -0.99522130410E+02  0.27168206491E+03  0.36747038218E+03  0.00000000000E+00 0. -1.
<mgrwt>
<rscale>  2 0.13395151E+04</rscale>
<asrwt>0</asrwt>
<pdfrwt beam="2">  1        1 0.32313501E+00 0.13395151E+04</pdfrwt>
<pdfrwt beam="1">  1       -1 0.16010550E+00 0.13395151E+04</pdfrwt>
<totfact> 0.91178630E-01</totfact>
</mgrwt>
</event>
<event>
 8    1  0.7046235E-006  0.2134920E+04  0.7818608E-02  0.8115567E-01
          2   -1    0    0  502    0  0.00000000000E+00  0.00000000000E+00  0.20694735673E+04  0.20694735673E+04  0.00000000000E+00 0.  1.
         -2   -1    0    0    0  501 -0.00000000000E+00 -0.00000000000E+00 -0.24769958617E+04  0.24769958617E+04  0.00000000000E+00 0. -1.
    9000010    2    1    2  502    0 -0.17872945346E+04 -0.61828507877E+03  0.55280534184E+03  0.22082932774E+04  0.99712951054E+03 0.  0.
   -9000010    2    1    2    0  501  0.17872945346E+04  0.61828507877E+03 -0.96032763624E+03  0.23381761517E+04  0.98394123569E+03 0.  0.
        -13    1    3    3    0    0 -0.11126974606E+04  0.70848955452E+02  0.55159506508E+03  0.12439342186E+04  0.10566000000E+00 0.  1.
          4    1    3    3  502    0 -0.67459707405E+03 -0.68913403422E+03  0.12102767617E+01  0.96435905876E+03  0.00000000000E+00 0.  1.
         13    1    4    4    0    0  0.10439838357E+04  0.26153107909E+03 -0.49953731428E+01  0.10762554156E+04  0.10566000000E+00 0. -1.
         -4    1    4    4    0  501  0.74331069890E+03  0.35675399968E+03 -0.95533226310E+03  0.12619207361E+04  0.00000000000E+00 0. -1.
<mgrwt>
<rscale>  2 0.21349200E+04</rscale>
<asrwt>0</asrwt>
<pdfrwt beam="1">  1        2 0.31838055E+00 0.21349200E+04</pdfrwt>
<pdfrwt beam="2">  1       -2 0.38107628E+00 0.21349200E+04</pdfrwt>
<totfact> 0.40024953E-02</totfact>
</mgrwt>
</event>
<event>
 8    1  0.7046235E-006  0.1385881E+04  0.7818608E-02  0.8478362E-01
         -2   -1    0    0    0  501 -0.00000000000E+00  0.00000000000E+00  0.10114500525E+04  0.10114500525E+04  0.00000000000E+00 0.  1.
          2   -1    0    0  502    0  0.00000000000E+00 -0.00000000000E+00 -0.19054304894E+04  0.19054304894E+04  0.00000000000E+00 0. -1.
    9000010    2    1    2  502    0  0.84286368947E+03  0.46674938074E+03 -0.36064149108E+03  0.14283843338E+04  0.99093154985E+03 0.  0.
   -9000010    2    1    2    0  501 -0.84286368947E+03 -0.46674938074E+03 -0.53333894579E+03  0.14884962081E+04  0.10014471264E+04 0.  0.
        -13    1    3    3    0    0  0.86188394265E+03  0.58242563405E+03  0.93503416077E+01  0.10402648652E+04  0.10566000000E+00 0.  1.
          4    1    3    3  502    0 -0.19020253186E+02 -0.11567625331E+03 -0.36999183269E+03  0.38811946855E+03  0.00000000000E+00 0.  1.
         13    1    4    4    0    0  0.12932622940E+02 -0.45787989544E+02 -0.53264780161E+03  0.53476862703E+03  0.10566000000E+00 0. -1.
         -4    1    4    4    0  501 -0.85579631241E+03 -0.42096139119E+03 -0.69114417933E+00  0.95372758107E+03  0.00000000000E+00 0. -1.
<mgrwt>
<rscale>  2 0.13858811E+04</rscale>
<asrwt>0</asrwt>
<pdfrwt beam="2">  1        2 0.29314315E+00 0.13858811E+04</pdfrwt>
<pdfrwt beam="1">  1       -2 0.15560770E+00 0.13858811E+04</pdfrwt>
<totfact> 0.27676195E+00</totfact>
</mgrwt>
</event>
<event>
 8    1  0.7046235E-006  0.1318988E+04  0.7818608E-02  0.8521973E-01
          2   -1    0    0  502    0  0.00000000000E+00  0.00000000000E+00  0.32854949592E+04  0.32854949592E+04  0.00000000000E+00 0. -1.
         -2   -1    0    0    0  501 -0.00000000000E+00 -0.00000000000E+00 -0.53204438927E+03  0.53204438927E+03  0.00000000000E+00 0.  1.
    9000010    2    1    2  502    0  0.61373472653E+03  0.47005894590E+03  0.13146206328E+04  0.18025709215E+04  0.96094161730E+03 0.  0.
   -9000010    2    1    2    0  501 -0.61373472653E+03 -0.47005894590E+03  0.14388299372E+04  0.20149684270E+04  0.11799323906E+04 0.  0.
        -13    1    3    3    0    0  0.83127459561E+03  0.20406208017E+03  0.73249356156E+03  0.11265902604E+04  0.10566000000E+00 0.  1.
          4    1    3    3  502    0 -0.21753986909E+03  0.26599686573E+03  0.58212707119E+03  0.67598066114E+03  0.00000000000E+00 0.  1.
         13    1    4    4    0    0 -0.47145135516E+03 -0.31539822491E+03  0.64561495729E+01  0.56726018156E+03  0.10566000000E+00 0. -1.
         -4    1    4    4    0  501 -0.14228337137E+03 -0.15466072099E+03  0.14323737876E+04  0.14477082454E+04  0.00000000000E+00 0. -1.
<mgrwt>
<rscale>  2 0.13189877E+04</rscale>
<asrwt>0</asrwt>
<pdfrwt beam="1">  1        2 0.50546075E+00 0.13189877E+04</pdfrwt>
<pdfrwt beam="2">  1       -2 0.81852985E-01 0.13189877E+04</pdfrwt>
<totfact> 0.23190630E+00</totfact>
</mgrwt>
</event>
<event>
 8    1  0.7046235E-006  0.1080518E+04  0.7818608E-02  0.8702412E-01
         -2   -1    0    0    0  501 -0.00000000000E+00  0.00000000000E+00  0.10549697129E+04  0.10549697129E+04  0.00000000000E+00 0.  1.
          2   -1    0    0  502    0  0.00000000000E+00 -0.00000000000E+00 -0.11066864389E+04  0.11066864389E+04  0.00000000000E+00 0. -1.
    9000010    2    1    2  502    0 -0.12843299655E+03 -0.37945834129E+03 -0.24792659591E+02  0.10813223112E+04  0.10040715101E+04 0.  0.
   -9000010    2    1    2    0  501  0.12843299655E+03  0.37945834129E+03 -0.26924066410E+02  0.10803338406E+04  0.10029519602E+04 0.  0.
        -13    1    3    3    0    0 -0.12977618778E+03  0.13462844935E+03 -0.40221960909E+03  0.44356206261E+03  0.10566000000E+00 0.  1.
          4    1    3    3  502    0  0.13431912302E+01 -0.51408679064E+03  0.37742694950E+03  0.63776024859E+03  0.00000000000E+00 0.  1.
         13    1    4    4    0    0  0.45184759054E+03 -0.12980675046E+03  0.47331743568E+02  0.47250009805E+03  0.10566000000E+00 0. -1.
         -4    1    4    4    0  501 -0.32341459399E+03  0.50926509175E+03 -0.74255809977E+02  0.60783374256E+03  0.00000000000E+00 0. -1.
<mgrwt>
<rscale>  2 0.10805180E+04</rscale>
<asrwt>0</asrwt>
<pdfrwt beam="2">  1        2 0.17025945E+00 0.10805180E+04</pdfrwt>
<pdfrwt beam="1">  1       -2 0.16230303E+00 0.10805180E+04</pdfrwt>
<totfact> 0.69135912E+00</totfact>
</mgrwt>
</event>
<event>
 8    1  0.7046235E-006  0.1344858E+04  0.7818608E-02  0.8504797E-01
          2   -1    0    0  502    0  0.00000000000E+00  0.00000000000E+00  0.72591789436E+03  0.72591789436E+03  0.00000000000E+00 0. -1.
         -2   -1    0    0    0  501 -0.00000000000E+00 -0.00000000000E+00 -0.25651794344E+04  0.25651794344E+04  0.00000000000E+00 0.  1.
    9000010    2    1    2  502    0 -0.82981605641E+03  0.43712183435E+03 -0.65307741340E+03  0.15107076411E+04  0.98795611412E+03 0.  0.
   -9000010    2    1    2    0  501  0.82981605641E+03 -0.43712183435E+03 -0.11861841267E+04  0.17803896877E+04  0.93972574304E+03 0.  0.
        -13    1    3    3    0    0 -0.62017060919E+03  0.26793845195E+03  0.12523988519E+03  0.68708633995E+03  0.10566000000E+00 0.  1.
          4    1    3    3  502    0 -0.20964544722E+03  0.16918338241E+03 -0.77831729859E+03  0.82362130115E+03  0.00000000000E+00 0.  1.
         13    1    4    4    0    0  0.40417140113E+02  0.14732847714E+03  0.84314803389E+02  0.17449419081E+03  0.10566000000E+00 0. -1.
         -4    1    4    4    0  501  0.78939891630E+03 -0.58445031149E+03 -0.12704989300E+04  0.16058954969E+04  0.00000000000E+00 0. -1.
<mgrwt>
<rscale>  2 0.13448583E+04</rscale>
<asrwt>0</asrwt>
<pdfrwt beam="1">  1        2 0.11167967E+00 0.13448583E+04</pdfrwt>
<pdfrwt beam="2">  1       -2 0.39464299E+00 0.13448583E+04</pdfrwt>
<totfact> 0.21870901E-01</totfact>
</mgrwt>
</event>
<event>
 8    1  0.7046235E-006  0.1148328E+04  0.7818608E-02  0.8646522E-01
          2   -1    0    0  502    0  0.00000000000E+00  0.00000000000E+00  0.31397509873E+04  0.31397509873E+04  0.00000000000E+00 0. -1.
         -2   -1    0    0    0  501 -0.00000000000E+00 -0.00000000000E+00 -0.42060148131E+03  0.42060148131E+03  0.00000000000E+00 0.  1.
    9000010    2    1    2  502    0 -0.25940293863E+03  0.41051040808E+03  0.13029884186E+04  0.17087022361E+04  0.99301351087E+03 0.  0.
   -9000010    2    1    2    0  501  0.25940293863E+03 -0.41051040808E+03  0.14161610873E+04  0.18516502325E+04  0.10896273117E+04 0.  0.
        -13    1    3    3    0    0 -0.56112233218E+03  0.53837187409E+03  0.92537442581E+03  0.12087267622E+04  0.10566000000E+00 0.  1.
          4    1    3    3  502    0  0.30171939355E+03 -0.12786146601E+03  0.37761399281E+03  0.49997547390E+03  0.00000000000E+00 0.  1.
         13    1    4    4    0    0 -0.15749355244E+03 -0.20234250308E+03  0.13580701408E+04  0.13820641179E+04  0.10566000000E+00 0. -1.
         -4    1    4    4    0  501  0.41689649107E+03 -0.20816790500E+03  0.58090946577E+02  0.46958611459E+03  0.00000000000E+00 0. -1.
<mgrwt>
<rscale>  2 0.11483284E+04</rscale>
<asrwt>0</asrwt>
<pdfrwt beam="1">  1        2 0.48303860E+00 0.11483284E+04</pdfrwt>
<pdfrwt beam="2">  1       -2 0.64707922E-01 0.11483284E+04</pdfrwt>
<totfact> 0.48572758E+00</totfact>
</mgrwt>
</event>
<event>
 8    1  0.7046235E-006  0.1091618E+04  0.7818608E-02  0.8692976E-01
         -2   -1    0    0    0  501 -0.00000000000E+00  0.00000000000E+00  0.66597950531E+03  0.66597950531E+03  0.00000000000E+00 0.  1.
          2   -1    0    0  502    0  0.00000000000E+00 -0.00000000000E+00 -0.22748778305E+04  0.22748778305E+04  0.00000000000E+00 0. -1.
    9000010    2    1    2  502    0  0.18782759888E+03 -0.39795271879E+03 -0.14836016166E+04  0.18417182224E+04  0.99860236352E+03 0.  0.
   -9000010    2    1    2    0  501 -0.18782759888E+03  0.39795271879E+03 -0.12529670852E+03  0.10991391134E+04  0.99938078437E+03 0.  0.
        -13    1    3    3    0    0  0.47973288878E+03  0.71465186651E+02 -0.98214055940E+03  0.10953771072E+04  0.10566000000E+00 0.  1.
          4    1    3    3  502    0 -0.29190528990E+03 -0.46941790544E+03 -0.50146105724E+03  0.74634111514E+03  0.00000000000E+00 0.  1.
         13    1    4    4    0    0  0.24846676177E+03  0.50982283923E+02  0.30373338419E+03  0.39571315977E+03  0.10566000000E+00 0. -1.
         -4    1    4    4    0  501 -0.43629436065E+03  0.34697043486E+03 -0.42903009271E+03  0.70342595364E+03  0.00000000000E+00 0. -1.
<mgrwt>
<rscale>  2 0.10916179E+04</rscale>
<asrwt>0</asrwt>
<pdfrwt beam="2">  1        2 0.34998120E+00 0.10916179E+04</pdfrwt>
<pdfrwt beam="1">  1       -2 0.10245839E+00 0.10916179E+04</pdfrwt>
<totfact> 0.56503585E+00</totfact>
</mgrwt>
</event>
<event>
 8    1  0.7046235E-006  0.1166142E+04  0.7818608E-02  0.8632504E-01
          2   -1    0    0  502    0  0.00000000000E+00  0.00000000000E+00  0.13000243647E+04  0.13000243647E+04  0.00000000000E+00 0. -1.
         -2   -1    0    0    0  501 -0.00000000000E+00 -0.00000000000E+00 -0.11443189650E+04  0.11443189650E+04  0.00000000000E+00 0.  1.
    9000010    2    1    2  502    0  0.36631299761E+02 -0.55654956722E+03  0.43653000693E+03  0.12567450283E+04  0.10381523715E+04 0.  0.
   -9000010    2    1    2    0  501 -0.36631299761E+02  0.55654956722E+03 -0.28082460725E+03  0.11875983013E+04  0.10101673091E+04 0.  0.
        -13    1    3    3    0    0 -0.40823905616E+03 -0.18790882740E+03 -0.10866776191E+03  0.46236084180E+03  0.10566000000E+00 0.  1.
          4    1    3    3  502    0  0.44487035592E+03 -0.36864073982E+03  0.54519776884E+03  0.79438418652E+03  0.00000000000E+00 0.  1.
         13    1    4    4    0    0 -0.81048058248E+02  0.27416428129E+03 -0.65619790344E+03  0.71577268775E+03  0.10566000000E+00 0. -1.
         -4    1    4    4    0  501  0.44416758486E+02  0.28238528593E+03  0.37537329620E+03  0.47182561359E+03  0.00000000000E+00 0. -1.
<mgrwt>
<rscale>  2 0.11661417E+04</rscale>
<asrwt>0</asrwt>
<pdfrwt beam="1">  1        2 0.20000375E+00 0.11661417E+04</pdfrwt>
<pdfrwt beam="2">  1       -2 0.17604907E+00 0.11661417E+04</pdfrwt>
<totfact> 0.40721099E+00</totfact>
</mgrwt>
</event>
<event>
 8    1  0.7046235E-006  0.1361878E+04  0.7818608E-02  0.8493713E-01
          2   -1    0    0  502    0  0.00000000000E+00  0.00000000000E+00  0.20526644269E+04  0.20526644269E+04  0.00000000000E+00 0.  1.
         -2   -1    0    0    0  501 -0.00000000000E+00 -0.00000000000E+00 -0.91671145981E+03  0.91671145981E+03  0.00000000000E+00 0. -1.
    9000010    2    1    2  502    0  0.63424686515E+03 -0.62708017316E+03  0.74695169912E+03  0.15558292074E+04  0.10330387468E+04 0.  0.
   -9000010    2    1    2    0  501 -0.63424686515E+03  0.62708017316E+03  0.38900126793E+03  0.14135466792E+04  0.10253260937E+04 0.  0.
        -13    1    3    3    0    0  0.16118367323E+03 -0.57719403593E+03  0.87744905968E+03  0.10625676426E+04  0.10566000000E+00 0.  1.
          4    1    3    3  502    0  0.47306319192E+03 -0.49886137227E+02 -0.13049736055E+03  0.49326156484E+03  0.00000000000E+00 0.  1.
         13    1    4    4    0    0  0.19832799278E+03 -0.10179072399E+03  0.18205888947E+03  0.28782076820E+03  0.10566000000E+00 0. -1.
         -4    1    4    4    0  501 -0.83257485793E+03  0.72887089715E+03  0.20694237846E+03  0.11257259110E+04  0.00000000000E+00 0. -1.
<mgrwt>
<rscale>  2 0.13618785E+04</rscale>
<asrwt>0</asrwt>
<pdfrwt beam="1">  1        2 0.31579453E+00 0.13618785E+04</pdfrwt>
<pdfrwt beam="2">  1       -2 0.14103253E+00 0.13618785E+04</pdfrwt>
<totfact> 0.31059605E+00</totfact>
</mgrwt>
</event>
<event>
 8    1  0.7046235E-006  0.1377109E+04  0.7818608E-02  0.8483935E-01
          2   -1    0    0  502    0  0.00000000000E+00  0.00000000000E+00  0.29768298466E+04  0.29768298466E+04  0.00000000000E+00 0. -1.
         -2   -1    0    0    0  501 -0.00000000000E+00 -0.00000000000E+00 -0.81304849105E+03  0.81304849105E+03  0.00000000000E+00 0.  1.
    9000010    2    1    2  502    0  0.20415121749E+03  0.94735583537E+03  0.19727392815E+04  0.24147538184E+04  0.10000874624E+04 0.  0.
   -9000010    2    1    2    0  501 -0.20415121749E+03 -0.94735583537E+03  0.19104207408E+03  0.13751245192E+04  0.95671812512E+03 0.  0.
        -13    1    3    3    0    0 -0.31991134655E+03  0.57380142680E+03  0.14269308447E+04  0.15708987853E+04  0.10566000000E+00 0.  1.
          4    1    3    3  502    0  0.52406256404E+03  0.37355440858E+03  0.54580843679E+03  0.84385503309E+03  0.00000000000E+00 0.  1.
         13    1    4    4    0    0  0.24328004366E+03 -0.75520515629E+03 -0.11243808915E+03  0.80135032463E+03  0.10566000000E+00 0. -1.
         -4    1    4    4    0  501 -0.44743126115E+03 -0.19215067908E+03  0.30348016323E+03  0.57377419461E+03  0.00000000000E+00 0. -1.
<mgrwt>
<rscale>  2 0.13771087E+04</rscale>
<asrwt>0</asrwt>
<pdfrwt beam="1">  1        2 0.45797382E+00 0.13771087E+04</pdfrwt>
<pdfrwt beam="2">  1       -2 0.12508438E+00 0.13771087E+04</pdfrwt>
<totfact> 0.12894006E+00</totfact>
</mgrwt>
</event>
<event>
 8    1  0.7046235E-006  0.1623846E+04  0.7818608E-02  0.8341586E-01
         -1   -1    0    0    0  501 -0.00000000000E+00  0.00000000000E+00  0.24049286021E+04  0.24049286021E+04  0.00000000000E+00 0. -1.
          1   -1    0    0  502    0  0.00000000000E+00 -0.00000000000E+00 -0.11112119823E+04  0.11112119823E+04  0.00000000000E+00 0.  1.
    9000010    2    1    2  502    0 -0.31577337675E+03 -0.12437369693E+04  0.84844766295E+03  0.18297910273E+04  0.99079629212E+03 0.  0.
   -9000010    2    1    2    0  501  0.31577337675E+03  0.12437369693E+04  0.44526895679E+03  0.16863495572E+04  0.99945780846E+03 0.  0.
        -13    1    3    3    0    0 -0.63735924787E+03 -0.10812556478E+04  0.72183292294E+03  0.14478892798E+04  0.10566000000E+00 0.  1.
          4    1    3    3  502    0  0.32158587112E+03 -0.16248132147E+03  0.12661474001E+03  0.38190174746E+03  0.00000000000E+00 0.  1.
         13    1    4    4    0    0 -0.24609589365E+03  0.11919695705E+03 -0.13130689005E+03  0.30333581058E+03  0.10566000000E+00 0. -1.
         -4    1    4    4    0  501  0.56186927040E+03  0.11245400122E+04  0.57657584684E+03  0.13830137466E+04  0.00000000000E+00 0. -1.
<mgrwt>
<rscale>  2 0.16238464E+04</rscale>
<asrwt>0</asrwt>
<pdfrwt beam="2">  1        1 0.17095569E+00 0.16238464E+04</pdfrwt>
<pdfrwt beam="1">  1       -1 0.36998902E+00 0.16238464E+04</pdfrwt>
<totfact> 0.16700562E-01</totfact>
</mgrwt>
</event>
<event>
 8    1  0.7046235E-006  0.1024236E+04  0.7818608E-02  0.8752147E-01
         -2   -1    0    0    0  501 -0.00000000000E+00  0.00000000000E+00  0.72596106626E+03  0.72596106626E+03  0.00000000000E+00 0. -1.
          2   -1    0    0  502    0  0.00000000000E+00 -0.00000000000E+00 -0.27470728701E+04  0.27470728701E+04  0.00000000000E+00 0.  1.
    9000010    2    1    2  502    0  0.32477184429E+03  0.12029275816E+03  0.16802209554E+03  0.10688748235E+04  0.99715338101E+03 0.  0.
   -9000010    2    1    2    0  501 -0.32477184429E+03 -0.12029275816E+03 -0.21891338994E+04  0.24041591128E+04  0.93151849787E+03 0.  0.
        -13    1    3    3    0    0 -0.21118028456E+03 -0.25513729054E+03 -0.12222141521E+03  0.35303007679E+03  0.10566000000E+00 0.  1.
          4    1    3    3  502    0  0.53595212886E+03  0.37543004870E+03  0.29024351075E+03  0.71584474674E+03  0.00000000000E+00 0.  1.
         13    1    4    4    0    0 -0.22302540242E+02  0.54108339791E+01  0.94452658350E+02  0.97200803798E+02  0.10566000000E+00 0. -1.
         -4    1    4    4    0  501 -0.30246930405E+03 -0.12570359214E+03 -0.22835865577E+04  0.23069583090E+04  0.00000000000E+00 0. -1.
<mgrwt>
<rscale>  2 0.10242364E+04</rscale>
<asrwt>0</asrwt>
<pdfrwt beam="2">  1        2 0.42262660E+00 0.10242364E+04</pdfrwt>
<pdfrwt beam="1">  1       -2 0.11168632E+00 0.10242364E+04</pdfrwt>
<totfact> 0.25015037E+00</totfact>
</mgrwt>
</event>
<event>
 8    1  0.7046235E-006  0.1210866E+04  0.7818608E-02  0.8598425E-01
         -2   -1    0    0    0  501 -0.00000000000E+00  0.00000000000E+00  0.49598015179E+03  0.49598015179E+03  0.00000000000E+00 0. -1.
          2   -1    0    0  502    0  0.00000000000E+00 -0.00000000000E+00 -0.30032830242E+04  0.30032830242E+04  0.00000000000E+00 0.  1.
    9000010    2    1    2  502    0  0.53829602065E+03  0.46201750387E+03 -0.14584758813E+04  0.18872238818E+04  0.96500741132E+03 0.  0.
   -9000010    2    1    2    0  501 -0.53829602065E+03 -0.46201750387E+03 -0.10488269912E+04  0.16120392943E+04  0.99770228481E+03 0.  0.
        -13    1    3    3    0    0 -0.10508756332E+03  0.94849599323E+01 -0.93824767261E+03  0.94416209771E+03  0.10566000000E+00 0.  1.
          4    1    3    3  502    0  0.64338358397E+03  0.45253254394E+03 -0.52022820865E+03  0.94306178404E+03  0.00000000000E+00 0.  1.
         13    1    4    4    0    0  0.16275571353E+03  0.19252474806E+03 -0.32028886492E+03  0.40760295516E+03  0.10566000000E+00 0. -1.
         -4    1    4    4    0  501 -0.70105173417E+03 -0.65454225193E+03 -0.72853812625E+03  0.12044363391E+04  0.00000000000E+00 0. -1.
<mgrwt>
<rscale>  2 0.12108659E+04</rscale>
<asrwt>0</asrwt>
<pdfrwt beam="2">  1        2 0.46204355E+00 0.12108659E+04</pdfrwt>
<pdfrwt beam="1">  1       -2 0.76304637E-01 0.12108659E+04</pdfrwt>
<totfact> 0.41487675E+00</totfact>
</mgrwt>
</event>
<event>
 8    1  0.7046235E-006  0.1227133E+04  0.7818608E-02  0.8586406E-01
          2   -1    0    0  502    0  0.00000000000E+00  0.00000000000E+00  0.15286931436E+04  0.15286931436E+04  0.00000000000E+00 0.  1.
         -2   -1    0    0    0  501 -0.00000000000E+00 -0.00000000000E+00 -0.10062705288E+04  0.10062705288E+04  0.00000000000E+00 0. -1.
    9000010    2    1    2  502    0  0.38217051317E+03 -0.59769728064E+03  0.78403428434E+02  0.12350183970E+04  0.10078824350E+04 0.  0.
   -9000010    2    1    2    0  501 -0.38217051317E+03  0.59769728064E+03  0.44401918628E+03  0.12999452754E+04  0.99469007277E+03 0.  0.
        -13    1    3    3    0    0  0.27697635101E+03 -0.68889506782E+03 -0.32333641743E+03  0.80983872684E+03  0.10566000000E+00 0.  1.
          4    1    3    3  502    0  0.10519416216E+03  0.91197787187E+02  0.40173984587E+03  0.42517967014E+03  0.00000000000E+00 0.  1.
         13    1    4    4    0    0 -0.24876523638E+03 -0.30877523856E+02  0.58995818095E+03  0.64100564018E+03  0.10566000000E+00 0. -1.
         -4    1    4    4    0  501 -0.13340527678E+03  0.62857480449E+03 -0.14593899467E+03  0.65893963523E+03  0.00000000000E+00 0. -1.
<mgrwt>
<rscale>  2 0.12271333E+04</rscale>
<asrwt>0</asrwt>
<pdfrwt beam="1">  1        2 0.23518356E+00 0.12271333E+04</pdfrwt>
<pdfrwt beam="2">  1       -2 0.15481085E+00 0.12271333E+04</pdfrwt>
<totfact> 0.45889433E+00</totfact>
</mgrwt>
</event>
<event>
 8    1  0.7046235E-006  0.1626497E+04  0.7818608E-02  0.8340202E-01
         -2   -1    0    0    0  501 -0.00000000000E+00  0.00000000000E+00  0.45157422782E+04  0.45157422782E+04  0.00000000000E+00 0.  1.
          2   -1    0    0  502    0  0.00000000000E+00 -0.00000000000E+00 -0.59374215450E+03  0.59374215450E+03  0.00000000000E+00 0. -1.
    9000010    2    1    2  502    0  0.84567011767E+03 -0.98381595573E+03  0.22452709666E+04  0.27674921784E+04  0.96680890638E+03 0.  0.
   -9000010    2    1    2    0  501 -0.84567011767E+03  0.98381595573E+03  0.16767291571E+04  0.23419922543E+04  0.99521619269E+03 0.  0.
        -13    1    3    3    0    0  0.57507789763E+03 -0.93125814115E+03  0.22385065567E+04  0.24917600064E+04  0.10566000000E+00 0.  1.
          4    1    3    3  502    0  0.27059222004E+03 -0.52557814578E+02  0.67644098141E+01  0.27573217197E+03  0.00000000000E+00 0.  1.
         13    1    4    4    0    0 -0.15791678932E+03 -0.51688459344E+02 -0.84376050110E+02  0.18635648144E+03  0.10566000000E+00 0. -1.
         -4    1    4    4    0  501 -0.68775332834E+03  0.10355044151E+04  0.17611052072E+04  0.21556357729E+04  0.00000000000E+00 0. -1.
<mgrwt>
<rscale>  2 0.16264970E+04</rscale>
<asrwt>0</asrwt>
<pdfrwt beam="2">  1        2 0.91344950E-01 0.16264970E+04</pdfrwt>
<pdfrwt beam="1">  1       -2 0.69472956E+00 0.16264970E+04</pdfrwt>
<totfact> 0.91788928E-02</totfact>
</mgrwt>
</event>
<event>
 8    1  0.7046235E-006  0.1784653E+04  0.7818608E-02  0.8262196E-01
          2   -1    0    0  502    0  0.00000000000E+00  0.00000000000E+00  0.26949885688E+04  0.26949885688E+04  0.00000000000E+00 0.  1.
         -2   -1    0    0    0  501 -0.00000000000E+00 -0.00000000000E+00 -0.12179956791E+04  0.12179956791E+04  0.00000000000E+00 0. -1.
    9000010    2    1    2  502    0 -0.91255116620E+03  0.11686702529E+04  0.10752448655E+04  0.20826032631E+04  0.99123409926E+03 0.  0.
   -9000010    2    1    2    0  501  0.91255116620E+03 -0.11686702529E+04  0.40174802415E+03  0.18303809848E+04  0.99516495302E+03 0.  0.
        -13    1    3    3    0    0  0.18217297812E+02  0.31293183431E+03 -0.12670124243E+03  0.33809971734E+03  0.10566000000E+00 0.  1.
          4    1    3    3  502    0 -0.93076846401E+03  0.85573841863E+03  0.12019461079E+04  0.17445035457E+04  0.00000000000E+00 0.  1.
         13    1    4    4    0    0  0.97308562217E+02 -0.13627935002E+03 -0.29692252969E+03  0.34088710349E+03  0.10566000000E+00 0. -1.
         -4    1    4    4    0  501  0.81524260398E+03 -0.10323909029E+04  0.69867055384E+03  0.14894938813E+04  0.00000000000E+00 0. -1.
<mgrwt>
<rscale>  2 0.17846531E+04</rscale>
<asrwt>0</asrwt>
<pdfrwt beam="1">  1        2 0.41461362E+00 0.17846531E+04</pdfrwt>
<pdfrwt beam="2">  1       -2 0.18738395E+00 0.17846531E+04</pdfrwt>
<totfact> 0.51831695E-01</totfact>
</mgrwt>
</event>
<event>
 8    1  0.7046235E-006  0.1278361E+04  0.7818608E-02  0.8549781E-01
          1   -1    0    0  502    0  0.00000000000E+00  0.00000000000E+00  0.14495130728E+04  0.14495130728E+04  0.00000000000E+00 0. -1.
         -1   -1    0    0    0  501 -0.00000000000E+00 -0.00000000000E+00 -0.11847475375E+04  0.11847475375E+04  0.00000000000E+00 0.  1.
    9000010    2    1    2  502    0 -0.47107538717E+03 -0.64112155021E+03 -0.15589129195E+03  0.12999412783E+04  0.10161674909E+04 0.  0.
   -9000010    2    1    2    0  501  0.47107538717E+03  0.64112155021E+03  0.42065682730E+03  0.13343193320E+04  0.98514316263E+03 0.  0.
        -13    1    3    3    0    0  0.83827216055E+02  0.23428533927E+03  0.15901794168E+02  0.24933812499E+03  0.10566000000E+00 0.  1.
          4    1    3    3  502    0 -0.55490260322E+03 -0.87540688948E+03 -0.17179308611E+03  0.10506031533E+04  0.00000000000E+00 0.  1.
         13    1    4    4    0    0 -0.29421528933E+03  0.23942400076E+03  0.15187400331E+02  0.37962765562E+03  0.10566000000E+00 0. -1.
         -4    1    4    4    0  501  0.76529067650E+03  0.40169754944E+03  0.40546942697E+03  0.95469167639E+03  0.00000000000E+00 0. -1.
<mgrwt>
<rscale>  2 0.12783606E+04</rscale>
<asrwt>0</asrwt>
<pdfrwt beam="1">  1        1 0.22300201E+00 0.12783606E+04</pdfrwt>
<pdfrwt beam="2">  1       -1 0.18226885E+00 0.12783606E+04</pdfrwt>
<totfact> 0.18203882E+00</totfact>
</mgrwt>
</event>
<event>
 8    1  0.7046235E-006  0.1485339E+04  0.7818608E-02  0.8417987E-01
         -2   -1    0    0    0  501 -0.00000000000E+00  0.00000000000E+00  0.79507306055E+03  0.79507306055E+03  0.00000000000E+00 0. -1.
          2   -1    0    0  502    0  0.00000000000E+00 -0.00000000000E+00 -0.28285350790E+04  0.28285350790E+04  0.00000000000E+00 0.  1.
    9000010    2    1    2  502    0 -0.98885760739E+03 -0.48959213542E+03 -0.76900612551E+03  0.16749763534E+04  0.99831635100E+03 0.  0.
   -9000010    2    1    2    0  501  0.98885760739E+03  0.48959213542E+03 -0.12644558929E+04  0.19486317861E+04  0.99034201464E+03 0.  0.
        -13    1    3    3    0    0 -0.59546370252E+02 -0.91025147907E+02 -0.64744755526E+03  0.65652090274E+03  0.10566000000E+00 0.  1.
          4    1    3    3  502    0 -0.92931123714E+03 -0.39856698751E+03 -0.12155857025E+03  0.10184554507E+04  0.00000000000E+00 0.  1.
         13    1    4    4    0    0  0.32526048285E+03  0.53875844614E+03 -0.14417556409E+03  0.64563275121E+03  0.10566000000E+00 0. -1.
         -4    1    4    4    0  501  0.66359712454E+03 -0.49166310718E+02 -0.11202803288E+04  0.13029990349E+04  0.00000000000E+00 0. -1.
<mgrwt>
<rscale>  2 0.14853390E+04</rscale>
<asrwt>0</asrwt>
<pdfrwt beam="2">  1        2 0.43515925E+00 0.14853390E+04</pdfrwt>
<pdfrwt beam="1">  1       -2 0.12231893E+00 0.14853390E+04</pdfrwt>
<totfact> 0.16670193E+00</totfact>
</mgrwt>
</event>
<event>
 8    1  0.7046235E-006  0.1136990E+04  0.7818608E-02  0.8655583E-01
         -2   -1    0    0    0  501 -0.00000000000E+00  0.00000000000E+00  0.78157943447E+03  0.78157943447E+03  0.00000000000E+00 0. -1.
          2   -1    0    0  502    0  0.00000000000E+00 -0.00000000000E+00 -0.16596814207E+04  0.16596814207E+04  0.00000000000E+00 0.  1.
    9000010    2    1    2  502    0 -0.46446918615E+03 -0.28875231984E+03 -0.50830912743E+03  0.12410621272E+04  0.99133622317E+03 0.  0.
   -9000010    2    1    2    0  501  0.46446918615E+03  0.28875231984E+03 -0.36979285881E+03  0.12001987280E+04  0.10023076879E+04 0.  0.
        -13    1    3    3    0    0 -0.46925209420E+03 -0.62463899333E+03 -0.26021635070E+03  0.82345853583E+03  0.10566000000E+00 0.  1.
          4    1    3    3  502    0  0.47829080446E+01  0.33588667348E+03 -0.24809277673E+03  0.41760359134E+03  0.00000000000E+00 0.  1.
         13    1    4    4    0    0 -0.37640780561E+02 -0.33722538756E+03 -0.11295247673E+03  0.35762559128E+03  0.10566000000E+00 0. -1.
         -4    1    4    4    0  501  0.50210996671E+03  0.62597770741E+03 -0.25684038208E+03  0.84257313671E+03  0.00000000000E+00 0. -1.
<mgrwt>
<rscale>  2 0.11369905E+04</rscale>
<asrwt>0</asrwt>
<pdfrwt beam="2">  1        2 0.25533560E+00 0.11369905E+04</pdfrwt>
<pdfrwt beam="1">  1       -2 0.12024299E+00 0.11369905E+04</pdfrwt>
<totfact> 0.81150930E+00</totfact>
</mgrwt>
</event>
<event>
 8    1  0.7046235E-006  0.1250884E+04  0.7818608E-02  0.8569199E-01
         -1   -1    0    0    0  501 -0.00000000000E+00  0.00000000000E+00  0.26589938228E+04  0.26589938228E+04  0.00000000000E+00 0. -1.
          1   -1    0    0  502    0  0.00000000000E+00 -0.00000000000E+00 -0.60784075920E+03  0.60784075920E+03  0.00000000000E+00 0.  1.
    9000010    2    1    2  502    0  0.55703560365E+03 -0.52839395746E+03  0.72304191726E+03  0.14323881496E+04  0.96925608537E+03 0.  0.
   -9000010    2    1    2    0  501 -0.55703560365E+03  0.52839395746E+03  0.13281111463E+04  0.18344464323E+04  0.10058954509E+04 0.  0.
        -13    1    3    3    0    0  0.34484309453E+03 -0.53136095930E+03 -0.45501823780E+02  0.63508397559E+03  0.10566000000E+00 0.  1.
          4    1    3    3  502    0  0.21219250912E+03  0.29670018460E+01  0.76854374104E+03  0.79730417403E+03  0.00000000000E+00 0.  1.
         13    1    4    4    0    0 -0.84676908770E+03  0.45809368469E+03  0.94542552859E+03  0.13493321137E+04  0.10566000000E+00 0. -1.
         -4    1    4    4    0  501  0.28973348405E+03  0.70300272764E+02  0.38268561771E+03  0.48511431863E+03  0.00000000000E+00 0. -1.
<mgrwt>
<rscale>  2 0.12508845E+04</rscale>
<asrwt>0</asrwt>
<pdfrwt beam="2">  1        1 0.93513965E-01 0.12508845E+04</pdfrwt>
<pdfrwt beam="1">  1       -1 0.40907596E+00 0.12508845E+04</pdfrwt>
<totfact> 0.52415368E-01</totfact>
</mgrwt>
</event>
<event>
 8    1  0.7046235E-006  0.1071573E+04  0.7818608E-02  0.8710104E-01
          1   -1    0    0  502    0  0.00000000000E+00  0.00000000000E+00  0.81513217258E+03  0.81513217258E+03  0.00000000000E+00 0.  1.
         -1   -1    0    0    0  501 -0.00000000000E+00 -0.00000000000E+00 -0.15949498991E+04  0.15949498991E+04  0.00000000000E+00 0. -1.
    9000010    2    1    2  502    0 -0.25962193266E+03  0.35410721014E+03  0.29278863368E+02  0.10460883835E+04  0.94902486270E+03 0.  0.
   -9000010    2    1    2    0  501  0.25962193266E+03 -0.35410721014E+03 -0.80909658993E+03  0.13639936882E+04  0.10065018756E+04 0.  0.
        -13    1    3    3    0    0  0.21302033768E+03  0.11252445781E+03  0.35075708784E+03  0.42552316471E+03  0.10566000000E+00 0.  1.
          4    1    3    3  502    0 -0.47264227035E+03  0.24158275233E+03 -0.32147822447E+03  0.62056521877E+03  0.00000000000E+00 0.  1.
         13    1    4    4    0    0  0.50534428536E+03  0.14458872096E+03 -0.27567012923E+03  0.59352571662E+03  0.10566000000E+00 0. -1.
         -4    1    4    4    0  501 -0.24572235270E+03 -0.49869593111E+03 -0.53342646070E+03  0.77046797162E+03  0.00000000000E+00 0. -1.
<mgrwt>
<rscale>  2 0.10715727E+04</rscale>
<asrwt>0</asrwt>
<pdfrwt beam="1">  1        1 0.12540495E+00 0.10715727E+04</pdfrwt>
<pdfrwt beam="2">  1       -1 0.24537691E+00 0.10715727E+04</pdfrwt>
<totfact> 0.15725932E+00</totfact>
</mgrwt>
</event>
<event>
 8    1  0.7046235E-006  0.1233038E+04  0.7818608E-02  0.8582090E-01
          1   -1    0    0  502    0  0.00000000000E+00  0.00000000000E+00  0.20552066413E+04  0.20552066413E+04  0.00000000000E+00 0.  1.
         -1   -1    0    0    0  501 -0.00000000000E+00 -0.00000000000E+00 -0.94843581797E+03  0.94843581797E+03  0.00000000000E+00 0. -1.
    9000010    2    1    2  502    0  0.53648621949E+03 -0.45590379900E+03 -0.14717605978E+03  0.12524852299E+04  0.10253744296E+04 0.  0.
   -9000010    2    1    2    0  501 -0.53648621949E+03  0.45590379900E+03  0.12539468831E+04  0.17511572294E+04  0.99925127901E+03 0.  0.
        -13    1    3    3    0    0 -0.22928170899E+03 -0.16903981704E+03  0.21623471536E+03  0.35763392612E+03  0.10566000000E+00 0.  1.
          4    1    3    3  502    0  0.76576792848E+03 -0.28686398196E+03 -0.36341077514E+03  0.89485130380E+03  0.00000000000E+00 0.  1.
         13    1    4    4    0    0 -0.22420047177E+02  0.53816469019E+03  0.10719304010E+04  0.11996494021E+04  0.10566000000E+00 0. -1.
         -4    1    4    4    0  501 -0.51406617231E+03 -0.82260891196E+02  0.18201648214E+03  0.55150782724E+03  0.00000000000E+00 0. -1.
<mgrwt>
<rscale>  2 0.12330384E+04</rscale>
<asrwt>0</asrwt>
<pdfrwt beam="1">  1        1 0.31618564E+00 0.12330384E+04</pdfrwt>
<pdfrwt beam="2">  1       -1 0.14591320E+00 0.12330384E+04</pdfrwt>
<totfact> 0.13298012E+00</totfact>
</mgrwt>
</event>
<event>
 8    1  0.7046235E-006  0.1659026E+04  0.7818608E-02  0.8323431E-01
         -1   -1    0    0    0  501 -0.00000000000E+00  0.00000000000E+00  0.11468289110E+04  0.11468289110E+04  0.00000000000E+00 0. -1.
          1   -1    0    0  502    0  0.00000000000E+00 -0.00000000000E+00 -0.25796048299E+04  0.25796048299E+04  0.00000000000E+00 0.  1.
    9000010    2    1    2  502    0 -0.29670918092E+03  0.12849801361E+04 -0.22331329496E+03  0.16704725569E+04  0.10006994791E+04 0.  0.
   -9000010    2    1    2    0  501  0.29670918092E+03 -0.12849801361E+04 -0.12094626239E+04  0.20559611841E+04  0.10124061752E+04 0.  0.
        -13    1    3    3    0    0 -0.11358618289E+03  0.14216012524E+04 -0.21113855580E+03  0.14416766082E+04  0.10566000000E+00 0.  1.
          4    1    3    3  502    0 -0.18312299803E+03 -0.13662111637E+03 -0.12174739159E+02  0.22879594865E+03  0.00000000000E+00 0.  1.
         13    1    4    4    0    0 -0.15198455801E+03 -0.33231027102E+02  0.10381377522E+03  0.18703186393E+03  0.10566000000E+00 0. -1.
         -4    1    4    4    0  501  0.44869373893E+03 -0.12517491090E+04 -0.13132763991E+04  0.18689293201E+04  0.00000000000E+00 0. -1.
<mgrwt>
<rscale>  2 0.16590262E+04</rscale>
<asrwt>0</asrwt>
<pdfrwt beam="2">  1        1 0.39686228E+00 0.16590262E+04</pdfrwt>
<pdfrwt beam="1">  1       -1 0.17643522E+00 0.16590262E+04</pdfrwt>
<totfact> 0.24500736E-01</totfact>
</mgrwt>
</event>
<event>
 8    1  0.7046235E-006  0.1356668E+04  0.7818608E-02  0.8497089E-01
          2   -1    0    0  502    0  0.00000000000E+00  0.00000000000E+00  0.21356200130E+04  0.21356200130E+04  0.00000000000E+00 0. -1.
         -2   -1    0    0    0  501 -0.00000000000E+00 -0.00000000000E+00 -0.10178044502E+04  0.10178044502E+04  0.00000000000E+00 0.  1.
    9000010    2    1    2  502    0 -0.10107102505E+04  0.51650448742E+02  0.11449475729E+04  0.17215902392E+04  0.79294705240E+03 0.  0.
   -9000010    2    1    2    0  501  0.10107102505E+04 -0.51650448742E+02 -0.27132010110E+02  0.14318342239E+04  0.10125266019E+04 0.  0.
        -13    1    3    3    0    0 -0.98741191850E+03 -0.41155940386E+02  0.12407190255E+04  0.15862092610E+04  0.10566000000E+00 0.  1.
          4    1    3    3  502    0 -0.23298331982E+02  0.92806389128E+02 -0.95771452621E+02  0.13538097825E+03  0.00000000000E+00 0.  1.
         13    1    4    4    0    0  0.71273547348E+03  0.52988212663E+02 -0.49354828368E+03  0.86855600011E+03  0.10566000000E+00 0. -1.
         -4    1    4    4    0  501  0.29797477700E+03 -0.10463866140E+03  0.46641627357E+03  0.56327822383E+03  0.00000000000E+00 0. -1.
<mgrwt>
<rscale>  2 0.13566677E+04</rscale>
<asrwt>0</asrwt>
<pdfrwt beam="1">  1        2 0.32855692E+00 0.13566677E+04</pdfrwt>
<pdfrwt beam="2">  1       -2 0.15658530E+00 0.13566677E+04</pdfrwt>
<totfact> 0.20358649E+00</totfact>
</mgrwt>
</event>
<event>
 8    1  0.7046235E-006  0.1061002E+04  0.7818608E-02  0.8719294E-01
         -2   -1    0    0    0  501 -0.00000000000E+00  0.00000000000E+00  0.55387794184E+03  0.55387794184E+03  0.00000000000E+00 0.  1.
          2   -1    0    0  502    0  0.00000000000E+00 -0.00000000000E+00 -0.21814147241E+04  0.21814147241E+04  0.00000000000E+00 0. -1.
    9000010    2    1    2  502    0 -0.99879579602E+02  0.32283444135E+03 -0.45418959407E+03  0.11513055787E+04  0.10025060306E+04 0.  0.
   -9000010    2    1    2    0  501  0.99879579602E+02 -0.32283444135E+03 -0.11733471882E+04  0.15839870872E+04  0.10089962643E+04 0.  0.
        -13    1    3    3    0    0  0.18490033497E+03  0.15268138708E+03 -0.69901842368E+03  0.73900372641E+03  0.10566000000E+00 0.  1.
          4    1    3    3  502    0 -0.28477991457E+03  0.17015305427E+03  0.24482882961E+03  0.41230185233E+03  0.00000000000E+00 0.  1.
         13    1    4    4    0    0  0.29216674483E+03 -0.18306475796E+03 -0.12784099557E+04  0.13240869074E+04  0.10566000000E+00 0. -1.
         -4    1    4    4    0  501 -0.19228716523E+03 -0.13976968339E+03  0.10506276756E+03  0.25990017975E+03  0.00000000000E+00 0. -1.
<mgrwt>
<rscale>  2 0.10610019E+04</rscale>
<asrwt>0</asrwt>
<pdfrwt beam="2">  1        2 0.33560226E+00 0.10610019E+04</pdfrwt>
<pdfrwt beam="1">  1       -2 0.85211992E-01 0.10610019E+04</pdfrwt>
<totfact> 0.98166862E+00</totfact>
</mgrwt>
</event>
<event>
 8    1  0.7046235E-006  0.1372038E+04  0.7818608E-02  0.8487176E-01
         -4   -1    0    0    0  501 -0.00000000000E+00  0.00000000000E+00  0.15142112249E+04  0.15142112249E+04  0.00000000000E+00 0. -1.
          4   -1    0    0  502    0  0.00000000000E+00 -0.00000000000E+00 -0.15310576640E+04  0.15310576640E+04  0.00000000000E+00 0.  1.
    9000010    2    1    2  502    0 -0.57860076822E+03  0.76625364102E+03  0.65158357618E+03  0.15028696469E+04  0.95505629542E+03 0.  0.
   -9000010    2    1    2    0  501  0.57860076822E+03 -0.76625364102E+03 -0.66843001529E+03  0.15423992420E+04  0.10051234975E+04 0.  0.
        -13    1    3    3    0    0 -0.42407997549E+03  0.51799050614E+03 -0.11785161095E+03  0.67974039414E+03  0.10566000000E+00 0.  1.
          4    1    3    3  502    0 -0.15452079274E+03  0.24826313488E+03  0.76943518713E+03  0.82312925275E+03  0.00000000000E+00 0.  1.
         13    1    4    4    0    0  0.93076940480E+02 -0.27630205698E+03 -0.78992014739E+03  0.84200949754E+03  0.10566000000E+00 0. -1.
         -4    1    4    4    0  501  0.48552382774E+03 -0.48995158404E+03  0.12149013209E+03  0.70038974450E+03  0.00000000000E+00 0. -1.
<mgrwt>
<rscale>  2 0.13720375E+04</rscale>
<asrwt>0</asrwt>
<pdfrwt beam="2">  1        4 0.23554733E+00 0.13720375E+04</pdfrwt>
<pdfrwt beam="1">  1       -4 0.23295557E+00 0.13720375E+04</pdfrwt>
<totfact> 0.11898859E-01</totfact>
</mgrwt>
</event>
<event>
 8    1  0.7046235E-006  0.1131762E+04  0.7818608E-02  0.8659799E-01
         -1   -1    0    0    0  501 -0.00000000000E+00  0.00000000000E+00  0.70111356554E+03  0.70111356554E+03  0.00000000000E+00 0. -1.
          1   -1    0    0  502    0  0.00000000000E+00 -0.00000000000E+00 -0.18341679279E+04  0.18341679279E+04  0.00000000000E+00 0.  1.
    9000010    2    1    2  502    0 -0.15755248460E+03  0.49493014172E+03 -0.48992745747E+03  0.12384074804E+04  0.10118525305E+04 0.  0.
   -9000010    2    1    2    0  501  0.15755248460E+03 -0.49493014172E+03 -0.64312690491E+03  0.12968740130E+04  0.99924539491E+03 0.  0.
        -13    1    3    3    0    0  0.13263748383E+03 -0.27920511712E+03 -0.16221136556E+03  0.34908557379E+03  0.10566000000E+00 0.  1.
          4    1    3    3  502    0 -0.29018996844E+03  0.77413525883E+03 -0.32771609191E+03  0.88932190665E+03  0.00000000000E+00 0.  1.
         13    1    4    4    0    0  0.54746548039E+03 -0.45364411008E+03 -0.28547045596E+03  0.76616240003E+03  0.10566000000E+00 0. -1.
         -4    1    4    4    0  501 -0.38991299579E+03 -0.41286031636E+02 -0.35765644895E+03  0.53071161300E+03  0.00000000000E+00 0. -1.
<mgrwt>
<rscale>  2 0.11317616E+04</rscale>
<asrwt>0</asrwt>
<pdfrwt beam="2">  1        1 0.28217968E+00 0.11317616E+04</pdfrwt>
<pdfrwt beam="1">  1       -1 0.10786363E+00 0.11317616E+04</pdfrwt>
<totfact> 0.43005520E+00</totfact>
</mgrwt>
</event>
<event>
 8    1  0.7046235E-006  0.1165043E+04  0.7818608E-02  0.8633361E-01
          4   -1    0    0  502    0  0.00000000000E+00  0.00000000000E+00  0.55273652538E+03  0.55273652538E+03  0.00000000000E+00 0.  1.
         -4   -1    0    0    0  501 -0.00000000000E+00 -0.00000000000E+00 -0.25775470093E+04  0.25775470093E+04  0.00000000000E+00 0. -1.
    9000010    2    1    2  502    0 -0.53002686909E+02 -0.60350244966E+03 -0.66430811410E+03  0.13328102708E+04  0.98389707582E+03 0.  0.
   -9000010    2    1    2    0  501  0.53002686909E+02  0.60350244966E+03 -0.13605023698E+04  0.17974732640E+04  0.10064387436E+04 0.  0.
        -13    1    3    3    0    0 -0.88960959240E+02  0.25858444067E+03 -0.26948855492E+03  0.38393236074E+03  0.10566000000E+00 0.  1.
          4    1    3    3  502    0  0.35958272331E+02 -0.86208689032E+03 -0.39481955918E+03  0.94887791002E+03  0.00000000000E+00 0.  1.
         13    1    4    4    0    0  0.41467843319E+03  0.24158568602E+03 -0.18302715014E+03  0.51363488539E+03  0.10566000000E+00 0. -1.
         -4    1    4    4    0  501 -0.36167574628E+03  0.36191676364E+03 -0.11774752197E+04  0.12838383786E+04  0.00000000000E+00 0. -1.
<mgrwt>
<rscale>  2 0.11650431E+04</rscale>
<asrwt>0</asrwt>
<pdfrwt beam="1">  1        4 0.85036389E-01 0.11650431E+04</pdfrwt>
<pdfrwt beam="2">  1       -4 0.39654569E+00 0.11650431E+04</pdfrwt>
<totfact> 0.19837121E-01</totfact>
</mgrwt>
</event>
<event>
 8    1  0.7046235E-006  0.1137849E+04  0.7818608E-02  0.8654893E-01
         -2   -1    0    0    0  501 -0.00000000000E+00  0.00000000000E+00  0.70787468821E+03  0.70787468821E+03  0.00000000000E+00 0.  1.
          2   -1    0    0  502    0  0.00000000000E+00 -0.00000000000E+00 -0.18448865051E+04  0.18448865051E+04  0.00000000000E+00 0. -1.
    9000010    2    1    2  502    0 -0.51971127559E+03 -0.18620559447E+03 -0.68029708219E+03  0.13155476835E+04  0.98137110922E+03 0.  0.
   -9000010    2    1    2    0  501  0.51971127559E+03  0.18620559447E+03 -0.45671473467E+03  0.12372135098E+04  0.10086310459E+04 0.  0.
        -13    1    3    3    0    0  0.22657000783E+03 -0.11542404295E+03  0.60780956953E+02  0.26144026857E+03  0.10566000000E+00 0.  1.
          4    1    3    3  502    0 -0.74628128341E+03 -0.70781551519E+02 -0.74107803914E+03  0.10541074149E+04  0.00000000000E+00 0.  1.
         13    1    4    4    0    0  0.60032245183E+03  0.46264605860E+03 -0.54784820594E+03  0.93518238308E+03  0.10566000000E+00 0. -1.
         -4    1    4    4    0  501 -0.80611176243E+02 -0.27644046413E+03  0.91133471266E+02  0.30203112675E+03  0.00000000000E+00 0. -1.
<mgrwt>
<rscale>  2 0.11378494E+04</rscale>
<asrwt>0</asrwt>
<pdfrwt beam="2">  1        2 0.28382869E+00 0.11378494E+04</pdfrwt>
<pdfrwt beam="1">  1       -2 0.10890380E+00 0.11378494E+04</pdfrwt>
<totfact> 0.82987438E+00</totfact>
</mgrwt>
</event>
<event>
 8    1  0.7046235E-006  0.1356662E+04  0.7818608E-02  0.8497093E-01
         -2   -1    0    0    0  501 -0.00000000000E+00  0.00000000000E+00  0.11732376782E+04  0.11732376782E+04  0.00000000000E+00 0.  1.
          2   -1    0    0  502    0  0.00000000000E+00 -0.00000000000E+00 -0.15688115794E+04  0.15688115794E+04  0.00000000000E+00 0. -1.
    9000010    2    1    2  502    0  0.91342649468E+03  0.11050625690E+03 -0.19502751152E+03  0.13633089283E+04  0.98692244365E+03 0.  0.
   -9000010    2    1    2    0  501 -0.91342649468E+03 -0.11050625690E+03 -0.20054638973E+03  0.13787403293E+04  0.10070483837E+04 0.  0.
        -13    1    3    3    0    0  0.11932333427E+03 -0.39185570429E+03 -0.57865517986E+02  0.41368753960E+03  0.10566000000E+00 0.  1.
          4    1    3    3  502    0  0.79410316042E+03  0.50236196119E+03 -0.13716199353E+03  0.94962138871E+03  0.00000000000E+00 0.  1.
         13    1    4    4    0    0 -0.23163920756E+03 -0.14207965597E+03 -0.54888567219E+03  0.61246946325E+03  0.10566000000E+00 0. -1.
         -4    1    4    4    0  501 -0.68178728713E+03  0.31573399074E+02  0.34833928246E+03  0.76627086603E+03  0.00000000000E+00 0. -1.
<mgrwt>
<rscale>  2 0.13566619E+04</rscale>
<asrwt>0</asrwt>
<pdfrwt beam="2">  1        2 0.24135563E+00 0.13566619E+04</pdfrwt>
<pdfrwt beam="1">  1       -2 0.18049811E+00 0.13566619E+04</pdfrwt>
<totfact> 0.26046043E+00</totfact>
</mgrwt>
</event>
<event>
 8    1  0.7046235E-006  0.1382890E+04  0.7818608E-02  0.8480257E-01
          2   -1    0    0  502    0  0.00000000000E+00  0.00000000000E+00  0.43647826982E+04  0.43647826982E+04  0.00000000000E+00 0.  1.
         -2   -1    0    0    0  501 -0.00000000000E+00 -0.00000000000E+00 -0.44213454423E+03  0.44213454423E+03  0.00000000000E+00 0. -1.
    9000010    2    1    2  502    0  0.89286225484E+03 -0.32727149669E+03  0.21896263964E+04  0.25896977350E+04  0.10038729821E+04 0.  0.
   -9000010    2    1    2    0  501 -0.89286225484E+03  0.32727149669E+03  0.17330217576E+04  0.22172195075E+04  0.10041853879E+04 0.  0.
        -13    1    3    3    0    0  0.41788849079E+03 -0.12010367797E+03  0.19858317317E+04  0.20328756386E+04  0.10566000000E+00 0.  1.
          4    1    3    3  502    0  0.47497376405E+03 -0.20716781872E+03  0.20379466464E+03  0.55682209635E+03  0.00000000000E+00 0.  1.
         13    1    4    4    0    0 -0.40674901831E+03  0.42834212776E+03  0.15965146803E+04  0.17022869552E+04  0.10566000000E+00 0. -1.
         -4    1    4    4    0  501 -0.48611323653E+03 -0.10107063107E+03  0.13650707730E+03  0.51493255223E+03  0.00000000000E+00 0. -1.
<mgrwt>
<rscale>  2 0.13828898E+04</rscale>
<asrwt>0</asrwt>
<pdfrwt beam="1">  1        2 0.67150500E+00 0.13828898E+04</pdfrwt>
<pdfrwt beam="2">  1       -2 0.68020702E-01 0.13828898E+04</pdfrwt>
<totfact> 0.43899820E-01</totfact>
</mgrwt>
</event>
<event>
 8    1  0.7046235E-006  0.1576194E+04  0.7818608E-02  0.8366951E-01
         -2   -1    0    0    0  501 -0.00000000000E+00  0.00000000000E+00  0.38316884950E+04  0.38316884950E+04  0.00000000000E+00 0. -1.
          2   -1    0    0  502    0  0.00000000000E+00 -0.00000000000E+00 -0.65077475085E+03  0.65077475085E+03  0.00000000000E+00 0.  1.
    9000010    2    1    2  502    0 -0.11024452769E+04  0.50465429269E+03  0.17194321421E+04  0.23280831448E+04  0.99672598759E+03 0.  0.
   -9000010    2    1    2    0  501  0.11024452769E+04 -0.50465429269E+03  0.14614816020E+04  0.21543801010E+04  0.10175281827E+04 0.  0.
        -13    1    3    3    0    0 -0.23759259866E+03  0.14114137799E+03 -0.89389159076E+02  0.29045062307E+03  0.10566000000E+00 0.  1.
          4    1    3    3  502    0 -0.86485267825E+03  0.36351291470E+03  0.18088213012E+04  0.20376325218E+04  0.00000000000E+00 0.  1.
         13    1    4    4    0    0  0.62790184065E+03 -0.97316985874E+02  0.83165703350E+02  0.64081811976E+03  0.10566000000E+00 0. -1.
         -4    1    4    4    0  501  0.47454343626E+03 -0.40733730682E+03  0.13783158987E+04  0.15135619812E+04  0.00000000000E+00 0. -1.
<mgrwt>
<rscale>  2 0.15761936E+04</rscale>
<asrwt>0</asrwt>
<pdfrwt beam="2">  1        2 0.10011919E+00 0.15761936E+04</pdfrwt>
<pdfrwt beam="1">  1       -2 0.58949052E+00 0.15761936E+04</pdfrwt>
<totfact> 0.30237971E-01</totfact>
</mgrwt>
</event>
<event>
 8    1  0.7046235E-006  0.1562991E+04  0.7818608E-02  0.8374143E-01
          2   -1    0    0  502    0  0.00000000000E+00  0.00000000000E+00  0.31774079762E+04  0.31774079762E+04  0.00000000000E+00 0. -1.
         -2   -1    0    0    0  501 -0.00000000000E+00 -0.00000000000E+00 -0.77237279951E+03  0.77237279951E+03  0.00000000000E+00 0.  1.
    9000010    2    1    2  502    0 -0.25386767053E+03 -0.11136666600E+04  0.13584218342E+04  0.21099301629E+04  0.11409615195E+04 0.  0.
   -9000010    2    1    2    0  501  0.25386767053E+03  0.11136666600E+04  0.10466133425E+04  0.18398506128E+04  0.99244574913E+03 0.  0.
        -13    1    3    3    0    0 -0.56476780921E+02 -0.73156170676E+03  0.53185722690E+02  0.73566357110E+03  0.10566000000E+00 0.  1.
          4    1    3    3  502    0 -0.19739088960E+03 -0.38210495325E+03  0.13052361115E+04  0.13742665918E+04  0.00000000000E+00 0.  1.
         13    1    4    4    0    0 -0.29100432383E+03  0.85011295700E+03  0.72429374210E+03  0.11541130760E+04  0.10566000000E+00 0. -1.
         -4    1    4    4    0  501  0.54487199435E+03  0.26355370301E+03  0.32231960039E+03  0.68573753681E+03  0.00000000000E+00 0. -1.
<mgrwt>
<rscale>  2 0.15629913E+04</rscale>
<asrwt>0</asrwt>
<pdfrwt beam="1">  1        2 0.48883199E+00 0.15629913E+04</pdfrwt>
<pdfrwt beam="2">  1       -2 0.11882659E+00 0.15629913E+04</pdfrwt>
<totfact> 0.10821192E+00</totfact>
</mgrwt>
</event>
<event>
 8    1  0.7046235E-006  0.1083057E+04  0.7818608E-02  0.8700243E-01
          2   -1    0    0  502    0  0.00000000000E+00  0.00000000000E+00  0.19331661464E+04  0.19331661464E+04  0.00000000000E+00 0.  1.
         -2   -1    0    0    0  501 -0.00000000000E+00 -0.00000000000E+00 -0.61492256731E+03  0.61492256731E+03  0.00000000000E+00 0. -1.
    9000010    2    1    2  502    0  0.67026923754E+02 -0.42404124187E+03  0.80474242431E+03  0.13480454920E+04  0.99262918341E+03 0.  0.
   -9000010    2    1    2    0  501 -0.67026923754E+02  0.42404124187E+03  0.51350115478E+03  0.12000432217E+04  0.99605055829E+03 0.  0.
        -13    1    3    3    0    0 -0.86703846462E+02  0.28310251013E+03  0.46174985455E+02  0.29966102295E+03  0.10566000000E+00 0.  1.
          4    1    3    3  502    0  0.15373077022E+03 -0.70714375199E+03  0.75856743886E+03  0.10483844691E+04  0.00000000000E+00 0.  1.
         13    1    4    4    0    0 -0.41990770852E+03  0.45378671367E+03  0.54994689861E+02  0.62070064625E+03  0.10566000000E+00 0. -1.
         -4    1    4    4    0  501  0.35288078477E+03 -0.29745471801E+02  0.45850646492E+03  0.57934257545E+03  0.00000000000E+00 0. -1.
<mgrwt>
<rscale>  2 0.10830574E+04</rscale>
<asrwt>0</asrwt>
<pdfrwt beam="1">  1        2 0.29741017E+00 0.10830574E+04</pdfrwt>
<pdfrwt beam="2">  1       -2 0.94603473E-01 0.10830574E+04</pdfrwt>
<totfact> 0.10507484E+01</totfact>
</mgrwt>
</event>
<event>
 8    1  0.7046235E-006  0.1383718E+04  0.7818608E-02  0.8479732E-01
          2   -1    0    0  502    0  0.00000000000E+00  0.00000000000E+00  0.21544682681E+04  0.21544682681E+04  0.00000000000E+00 0.  1.
         -2   -1    0    0    0  501 -0.00000000000E+00 -0.00000000000E+00 -0.88996276917E+03  0.88996276917E+03  0.00000000000E+00 0. -1.
    9000010    2    1    2  502    0 -0.94685690369E+03  0.64800831538E+02  0.68964898681E+03  0.15461649211E+04  0.10071112622E+04 0.  0.
   -9000010    2    1    2    0  501  0.94685690369E+03 -0.64800831538E+02  0.57485651212E+03  0.14982661161E+04  0.10067791224E+04 0.  0.
        -13    1    3    3    0    0 -0.35501334722E+03  0.51846523090E+03  0.40711827341E+03  0.74872289404E+03  0.10566000000E+00 0.  1.
          4    1    3    3  502    0 -0.59184355647E+03 -0.45366439936E+03  0.28253071340E+03  0.79744202711E+03  0.00000000000E+00 0.  1.
         13    1    4    4    0    0  0.89904213531E+03 -0.19581813209E+03  0.13893557119E+02  0.92022526808E+03  0.10566000000E+00 0. -1.
         -4    1    4    4    0  501  0.47814768381E+02  0.13101730056E+03  0.56096295500E+03  0.57804084804E+03  0.00000000000E+00 0. -1.
<mgrwt>
<rscale>  2 0.13837181E+04</rscale>
<asrwt>0</asrwt>
<pdfrwt beam="1">  1        2 0.33145666E+00 0.13837181E+04</pdfrwt>
<pdfrwt beam="2">  1       -2 0.13691735E+00 0.13837181E+04</pdfrwt>
<totfact> 0.29686159E+00</totfact>
</mgrwt>
</event>
<event>
 8    1  0.7046235E-006  0.1378191E+04  0.7818608E-02  0.8483245E-01
         -2   -1    0    0    0  501 -0.00000000000E+00  0.00000000000E+00  0.11875164737E+04  0.11875164737E+04  0.00000000000E+00 0.  1.
          2   -1    0    0  502    0  0.00000000000E+00 -0.00000000000E+00 -0.16846108105E+04  0.16846108105E+04  0.00000000000E+00 0. -1.
    9000010    2    1    2  502    0  0.75605660234E+03 -0.58426874633E+03  0.75643666751E+02  0.13715640278E+04  0.98105777821E+03 0.  0.
   -9000010    2    1    2    0  501 -0.75605660234E+03  0.58426874633E+03 -0.57273800352E+03  0.15005632564E+04  0.10053207010E+04 0.  0.
        -13    1    3    3    0    0  0.25024634809E+03  0.25945373767E+03  0.13772054391E+03  0.38588396715E+03  0.10566000000E+00 0.  1.
          4    1    3    3  502    0  0.50581025425E+03 -0.84372248400E+03 -0.62076877156E+02  0.98568006066E+03  0.00000000000E+00 0.  1.
         13    1    4    4    0    0 -0.94818354085E+03  0.53959623326E+03 -0.24515263494E+03  0.11181752759E+04  0.10566000000E+00 0. -1.
         -4    1    4    4    0  501  0.19212693851E+03  0.44672513075E+02 -0.32758536858E+03  0.38238798050E+03  0.00000000000E+00 0. -1.
<mgrwt>
<rscale>  2 0.13781911E+04</rscale>
<asrwt>0</asrwt>
<pdfrwt beam="2">  1        2 0.25917089E+00 0.13781911E+04</pdfrwt>
<pdfrwt beam="1">  1       -2 0.18269484E+00 0.13781911E+04</pdfrwt>
<totfact> 0.21542206E+00</totfact>
</mgrwt>
</event>
<event>
 8    1  0.7046235E-006  0.1271991E+04  0.7818608E-02  0.8554238E-01
          2   -1    0    0  502    0  0.00000000000E+00  0.00000000000E+00  0.18876935578E+04  0.18876935578E+04  0.00000000000E+00 0. -1.
         -2   -1    0    0    0  501 -0.00000000000E+00 -0.00000000000E+00 -0.13650857072E+04  0.13650857072E+04  0.00000000000E+00 0.  1.
    9000010    2    1    2  502    0  0.47920862805E+03 -0.65478956927E+03  0.12546851717E+04  0.17940694230E+04  0.99300550117E+03 0.  0.
   -9000010    2    1    2    0  501 -0.47920862805E+03  0.65478956927E+03 -0.73207732113E+03  0.14587098419E+04  0.96618161312E+03 0.  0.
        -13    1    3    3    0    0  0.67912670313E+03 -0.70195781580E+03  0.12529431811E+04  0.15886549280E+04  0.10566000000E+00 0.  1.
          4    1    3    3  502    0 -0.19991807508E+03  0.47168246532E+02  0.17419905741E+01  0.20541449500E+03  0.00000000000E+00 0.  1.
         13    1    4    4    0    0  0.22332260092E+03 -0.39415533050E+02 -0.31132657653E+03  0.38516336371E+03  0.10566000000E+00 0. -1.
         -4    1    4    4    0  501 -0.70253122896E+03  0.69420510232E+03 -0.42075074460E+03  0.10735464782E+04  0.00000000000E+00 0. -1.
<mgrwt>
<rscale>  2 0.12719907E+04</rscale>
<asrwt>0</asrwt>
<pdfrwt beam="1">  1        2 0.29041439E+00 0.12719907E+04</pdfrwt>
<pdfrwt beam="2">  1       -2 0.21001319E+00 0.12719907E+04</pdfrwt>
<totfact> 0.10025323E+00</totfact>
</mgrwt>
</event>
<event>
 8    1  0.7046235E-006  0.1160543E+04  0.7818608E-02  0.8636882E-01
          2   -1    0    0  502    0  0.00000000000E+00  0.00000000000E+00  0.11547693702E+04  0.11547693702E+04  0.00000000000E+00 0. -1.
         -2   -1    0    0    0  501 -0.00000000000E+00 -0.00000000000E+00 -0.13150753270E+04  0.13150753270E+04  0.00000000000E+00 0.  1.
    9000010    2    1    2  502    0 -0.32789592479E+03 -0.54149131151E+03 -0.49306772433E+03  0.12381293531E+04  0.94293156501E+03 0.  0.
   -9000010    2    1    2    0  501  0.32789592479E+03  0.54149131151E+03  0.33276176755E+03  0.12317153440E+04  0.10028278600E+04 0.  0.
        -13    1    3    3    0    0  0.20508104308E+03 -0.55249142110E+03 -0.35294151061E+03  0.68692992780E+03  0.10566000000E+00 0.  1.
          4    1    3    3  502    0 -0.53297696787E+03  0.11000109592E+02 -0.14012621372E+03  0.55119942531E+03  0.00000000000E+00 0.  1.
         13    1    4    4    0    0  0.29949050116E+03 -0.17724883570E+03  0.37446007649E+03  0.51120648479E+03  0.10566000000E+00 0. -1.
         -4    1    4    4    0  501  0.28405423628E+02  0.71874014721E+03 -0.41698308932E+02  0.72050885926E+03  0.00000000000E+00 0. -1.
<mgrwt>
<rscale>  2 0.11605432E+04</rscale>
<asrwt>0</asrwt>
<pdfrwt beam="1">  1        2 0.17765683E+00 0.11605432E+04</pdfrwt>
<pdfrwt beam="2">  1       -2 0.20231928E+00 0.11605432E+04</pdfrwt>
<totfact> 0.29817828E+00</totfact>
</mgrwt>
</event>
<event>
 8    1  0.7046235E-006  0.1228496E+04  0.7818608E-02  0.8585408E-01
          2   -1    0    0  502    0  0.00000000000E+00  0.00000000000E+00  0.20412066668E+04  0.20412066668E+04  0.00000000000E+00 0. -1.
         -2   -1    0    0    0  501 -0.00000000000E+00 -0.00000000000E+00 -0.74036864208E+03  0.74036864208E+03  0.00000000000E+00 0.  1.
    9000010    2    1    2  502    0 -0.39147866182E+03  0.49797312455E+03  0.67175301865E+03  0.14406744568E+04  0.11059195256E+04 0.  0.
   -9000010    2    1    2    0  501  0.39147866182E+03 -0.49797312455E+03  0.62908500608E+03  0.13409008521E+04  0.10005170537E+04 0.  0.
        -13    1    3    3    0    0  0.34805569475E+03  0.20150513597E+03  0.57305827203E+01  0.40221876785E+03  0.10566000000E+00 0.  1.
          4    1    3    3  502    0 -0.73953435657E+03  0.29646798857E+03  0.66602243593E+03  0.10384556890E+04  0.00000000000E+00 0.  1.
         13    1    4    4    0    0  0.71018398521E+03 -0.26433612737E+03  0.55391170959E+03  0.93864427461E+03  0.10566000000E+00 0. -1.
         -4    1    4    4    0  501 -0.31870532339E+03 -0.23363699717E+03  0.75173296491E+02  0.40225657746E+03  0.00000000000E+00 0. -1.
<mgrwt>
<rscale>  2 0.12284957E+04</rscale>
<asrwt>0</asrwt>
<pdfrwt beam="1">  1        2 0.31403179E+00 0.12284957E+04</pdfrwt>
<pdfrwt beam="2">  1       -2 0.11390287E+00 0.12284957E+04</pdfrwt>
<totfact> 0.57355530E+00</totfact>
</mgrwt>
</event>
<event>
 8    1  0.7046235E-006  0.1265285E+04  0.7818608E-02  0.8558958E-01
         -1   -1    0    0    0  501 -0.00000000000E+00  0.00000000000E+00  0.15090020266E+04  0.15090020266E+04  0.00000000000E+00 0.  1.
          1   -1    0    0  502    0  0.00000000000E+00 -0.00000000000E+00 -0.11343114954E+04  0.11343114954E+04  0.00000000000E+00 0. -1.
    9000010    2    1    2  502    0  0.62344152992E+03 -0.13677401078E+03  0.50296379606E+03  0.12921377747E+04  0.10046198173E+04 0.  0.
   -9000010    2    1    2    0  501 -0.62344152992E+03  0.13677401078E+03 -0.12827326482E+03  0.13511757473E+04  0.11839913000E+04 0.  0.
        -13    1    3    3    0    0  0.56018242451E+03  0.27801937643E+03  0.59429890883E+03  0.86272262438E+03  0.10566000000E+00 0.  1.
          4    1    3    3  502    0  0.63259105410E+02 -0.41479338721E+03 -0.91335112771E+02  0.42941515031E+03  0.00000000000E+00 0.  1.
         13    1    4    4    0    0 -0.72510702972E+03  0.48690234733E+03 -0.33097910093E+03  0.93402423780E+03  0.10566000000E+00 0. -1.
         -4    1    4    4    0  501  0.10166549980E+03 -0.35012833654E+03  0.20270583611E+03  0.41715150952E+03  0.00000000000E+00 0. -1.
<mgrwt>
<rscale>  2 0.12652851E+04</rscale>
<asrwt>0</asrwt>
<pdfrwt beam="2">  1        1 0.17450946E+00 0.12652851E+04</pdfrwt>
<pdfrwt beam="1">  1       -1 0.23215416E+00 0.12652851E+04</pdfrwt>
<totfact> 0.11164348E+00</totfact>
</mgrwt>
</event>
<event>
 8    1  0.7046235E-006  0.1399375E+04  0.7818608E-02  0.8469871E-01
          2   -1    0    0  502    0  0.00000000000E+00  0.00000000000E+00  0.18282400815E+04  0.18282400815E+04  0.00000000000E+00 0. -1.
         -2   -1    0    0    0  501 -0.00000000000E+00 -0.00000000000E+00 -0.10816782893E+04  0.10816782893E+04  0.00000000000E+00 0.  1.
    9000010    2    1    2  502    0  0.89308002258E+03  0.40572443237E+03  0.51349000441E+03  0.14797311372E+04  0.98169649693E+03 0.  0.
   -9000010    2    1    2    0  501 -0.89308002258E+03 -0.40572443237E+03  0.23307178772E+03  0.14301872336E+04  0.10143514298E+04 0.  0.
        -13    1    3    3    0    0  0.45471008649E+03  0.35253095426E+03  0.77598435633E+03  0.96601815144E+03  0.10566000000E+00 0.  1.
          4    1    3    3  502    0  0.43836993609E+03  0.53193478109E+02 -0.26249435192E+03  0.51371298579E+03  0.00000000000E+00 0.  1.
         13    1    4    4    0    0 -0.10562169889E+04 -0.13249610511E+03  0.55890507093E+02  0.10659612120E+04  0.10566000000E+00 0. -1.
         -4    1    4    4    0  501  0.16313696632E+03 -0.27322832726E+03  0.17718128062E+03  0.36422602159E+03  0.00000000000E+00 0. -1.
<mgrwt>
<rscale>  2 0.13993754E+04</rscale>
<asrwt>0</asrwt>
<pdfrwt beam="1">  1        2 0.28126770E+00 0.13993754E+04</pdfrwt>
<pdfrwt beam="2">  1       -2 0.16641205E+00 0.13993754E+04</pdfrwt>
<totfact> 0.24566573E+00</totfact>
</mgrwt>
</event>
<event>
 8    1  0.7046235E-006  0.1075415E+04  0.7818608E-02  0.8706790E-01
         -2   -1    0    0    0  501 -0.00000000000E+00  0.00000000000E+00  0.76796654993E+03  0.76796654993E+03  0.00000000000E+00 0.  1.
          2   -1    0    0  502    0  0.00000000000E+00 -0.00000000000E+00 -0.16086440175E+04  0.16086440175E+04  0.00000000000E+00 0. -1.
    9000010    2    1    2  502    0  0.12004037146E+03  0.46462644062E+03 -0.72516189267E+03  0.13083754058E+04  0.97759859446E+03 0.  0.
   -9000010    2    1    2    0  501 -0.12004037146E+03 -0.46462644062E+03 -0.11551557486E+03  0.10682351616E+04  0.94736217587E+03 0.  0.
        -13    1    3    3    0    0  0.55068739181E+03  0.24713187086E+03 -0.35475036238E+03  0.70012755685E+03  0.10566000000E+00 0.  1.
          4    1    3    3  502    0 -0.43064702035E+03  0.21749456976E+03 -0.37041153030E+03  0.60824784898E+03  0.00000000000E+00 0.  1.
         13    1    4    4    0    0 -0.52368701576E+03 -0.26696034302E+03 -0.17869862750E+03  0.61436888419E+03  0.10566000000E+00 0. -1.
         -4    1    4    4    0  501  0.40364664430E+03 -0.19766609760E+03  0.63183052641E+02  0.45386627738E+03  0.00000000000E+00 0. -1.
<mgrwt>
<rscale>  2 0.10754154E+04</rscale>
<asrwt>0</asrwt>
<pdfrwt beam="2">  1        2 0.24748369E+00 0.10754154E+04</pdfrwt>
<pdfrwt beam="1">  1       -2 0.11814870E+00 0.10754154E+04</pdfrwt>
<totfact> 0.91156632E+00</totfact>
</mgrwt>
</event>
<event>
 8    1  0.7046235E-006  0.1299243E+04  0.7818608E-02  0.8535357E-01
          2   -1    0    0  502    0  0.00000000000E+00  0.00000000000E+00  0.21675890839E+04  0.21675890839E+04  0.00000000000E+00 0.  1.
         -2   -1    0    0    0  501 -0.00000000000E+00 -0.00000000000E+00 -0.78038424753E+03  0.78038424753E+03  0.00000000000E+00 0. -1.
    9000010    2    1    2  502    0  0.19207415942E+03 -0.81634224507E+03  0.76290005952E+03  0.15102729412E+04  0.99779793167E+03 0.  0.
   -9000010    2    1    2    0  501 -0.19207415942E+03  0.81634224507E+03  0.62430477682E+03  0.14377003902E+04  0.98687325107E+03 0.  0.
        -13    1    3    3    0    0 -0.20041491130E+03 -0.84797162717E+03  0.34796993323E+03  0.93824575819E+03  0.10566000000E+00 0.  1.
          4    1    3    3  502    0  0.39248907073E+03  0.31629382101E+02  0.41493012629E+03  0.57202718306E+03  0.00000000000E+00 0.  1.
         13    1    4    4    0    0 -0.47258800923E+03  0.18358543483E+03  0.53955960984E+03  0.74038342910E+03  0.10566000000E+00 0. -1.
         -4    1    4    4    0  501  0.28051384981E+03  0.63275681025E+03  0.84745166978E+02  0.69731696105E+03  0.00000000000E+00 0. -1.
<mgrwt>
<rscale>  2 0.12992429E+04</rscale>
<asrwt>0</asrwt>
<pdfrwt beam="1">  1        2 0.33347524E+00 0.12992429E+04</pdfrwt>
<pdfrwt beam="2">  1       -2 0.12005912E+00 0.12992429E+04</pdfrwt>
<totfact> 0.42333724E+00</totfact>
</mgrwt>
</event>
<event>
 8    1  0.7046235E-006  0.1167346E+04  0.7818608E-02  0.8631566E-01
          1   -1    0    0  502    0  0.00000000000E+00  0.00000000000E+00  0.13175042894E+04  0.13175042894E+04  0.00000000000E+00 0.  1.
         -1   -1    0    0    0  501 -0.00000000000E+00 -0.00000000000E+00 -0.13049351381E+04  0.13049351381E+04  0.00000000000E+00 0. -1.
    9000010    2    1    2  502    0 -0.20808446294E+03 -0.54529724576E+03 -0.59077344989E+03  0.12985136732E+04  0.99823657539E+03 0.  0.
   -9000010    2    1    2    0  501  0.20808446294E+03  0.54529724576E+03  0.60334260116E+03  0.13239257543E+04  0.10237718880E+04 0.  0.
        -13    1    3    3    0    0  0.35822486699E+03 -0.15732871738E+03 -0.45263420507E+03  0.59829350273E+03  0.10566000000E+00 0.  1.
          4    1    3    3  502    0 -0.56630932993E+03 -0.38796852839E+03 -0.13813924483E+03  0.70022017048E+03  0.00000000000E+00 0.  1.
         13    1    4    4    0    0 -0.21874212307E+03  0.60330716694E+02  0.63780160706E+03  0.67696293319E+03  0.10566000000E+00 0. -1.
         -4    1    4    4    0  501  0.42682658600E+03  0.48496652907E+03 -0.34459005893E+02  0.64696282113E+03  0.00000000000E+00 0. -1.
<mgrwt>
<rscale>  2 0.11673458E+04</rscale>
<asrwt>0</asrwt>
<pdfrwt beam="1">  1        1 0.20269297E+00 0.11673458E+04</pdfrwt>
<pdfrwt beam="2">  1       -1 0.20075925E+00 0.11673458E+04</pdfrwt>
<totfact> 0.15922840E+00</totfact>
</mgrwt>
</event>
<event>
 8    1  0.7046235E-006  0.1312828E+04  0.7818608E-02  0.8526122E-01
          1   -1    0    0  502    0  0.00000000000E+00  0.00000000000E+00  0.12243511308E+04  0.12243511308E+04  0.00000000000E+00 0. -1.
         -1   -1    0    0    0  501 -0.00000000000E+00 -0.00000000000E+00 -0.16653731724E+04  0.16653731724E+04  0.00000000000E+00 0.  1.
    9000010    2    1    2  502    0  0.50592135355E+03  0.67388196598E+03  0.34863828275E+03  0.13525629702E+04  0.99890170489E+03 0.  0.
   -9000010    2    1    2    0  501 -0.50592135355E+03 -0.67388196598E+03 -0.78966032440E+03  0.15371613331E+04  0.10145088545E+04 0.  0.
        -13    1    3    3    0    0  0.14331373527E+03  0.12833592336E+03 -0.34717734374E+03  0.39691441787E+03  0.10566000000E+00 0.  1.
          4    1    3    3  502    0  0.36260761829E+03  0.54554604261E+03  0.69581562649E+03  0.95564855230E+03  0.00000000000E+00 0.  1.
         13    1    4    4    0    0  0.16367210584E+03  0.15490895270E+03 -0.27006060920E+03  0.35173581800E+03  0.10566000000E+00 0. -1.
         -4    1    4    4    0  501 -0.66959345939E+03 -0.82879091868E+03 -0.51959971520E+03  0.11854255151E+04  0.00000000000E+00 0. -1.
<mgrwt>
<rscale>  2 0.13128283E+04</rscale>
<asrwt>0</asrwt>
<pdfrwt beam="1">  1        1 0.18836171E+00 0.13128283E+04</pdfrwt>
<pdfrwt beam="2">  1       -1 0.25621126E+00 0.13128283E+04</pdfrwt>
<totfact> 0.55323544E-01</totfact>
</mgrwt>
</event>
<event>
 8    1  0.7046235E-006  0.1097897E+04  0.7818608E-02  0.8687689E-01
          2   -1    0    0  502    0  0.00000000000E+00  0.00000000000E+00  0.19580018482E+04  0.19580018482E+04  0.00000000000E+00 0. -1.
         -2   -1    0    0    0  501 -0.00000000000E+00 -0.00000000000E+00 -0.61656233178E+03  0.61656233178E+03  0.00000000000E+00 0.  1.
    9000010    2    1    2  502    0 -0.33069144779E+03  0.34053318188E+03  0.61587455366E+03  0.12337802558E+04  0.95791052402E+03 0.  0.
   -9000010    2    1    2    0  501  0.33069144779E+03 -0.34053318188E+03  0.72556496276E+03  0.13407839242E+04  0.10227107776E+04 0.  0.
        -13    1    3    3    0    0 -0.34043202634E+03  0.28591354055E+03  0.86821274197E+03  0.97541472908E+03  0.10566000000E+00 0.  1.
          4    1    3    3  502    0  0.97405785477E+01  0.54619641337E+02 -0.25233818831E+03  0.25836552667E+03  0.00000000000E+00 0.  1.
         13    1    4    4    0    0  0.43758734109E+03 -0.18257603659E+03  0.94060139775E+03  0.10533506970E+04  0.10566000000E+00 0. -1.
         -4    1    4    4    0  501 -0.10689589330E+03 -0.15795714529E+03 -0.21503643499E+03  0.28743322725E+03  0.00000000000E+00 0. -1.
<mgrwt>
<rscale>  2 0.10978969E+04</rscale>
<asrwt>0</asrwt>
<pdfrwt beam="1">  1        2 0.30123105E+00 0.10978969E+04</pdfrwt>
<pdfrwt beam="2">  1       -2 0.94855744E-01 0.10978969E+04</pdfrwt>
<totfact> 0.10105908E+01</totfact>
</mgrwt>
</event>
<event>
 8    1  0.7046235E-006  0.1252767E+04  0.7818608E-02  0.8567852E-01
          1   -1    0    0  502    0  0.00000000000E+00  0.00000000000E+00  0.16347799877E+04  0.16347799877E+04  0.00000000000E+00 0. -1.
         -1   -1    0    0    0  501 -0.00000000000E+00 -0.00000000000E+00 -0.99139636065E+03  0.99139636065E+03  0.00000000000E+00 0.  1.
    9000010    2    1    2  502    0  0.70166607692E+03  0.33531652564E+03  0.56021176470E+03  0.13967736542E+04  0.10160546068E+04 0.  0.
   -9000010    2    1    2    0  501 -0.70166607692E+03 -0.33531652564E+03  0.83171862388E+02  0.12294026941E+04  0.94854676732E+03 0.  0.
        -13    1    3    3    0    0  0.76652273979E+03  0.58194344729E+03  0.60653935318E+03  0.11375874844E+04  0.10566000000E+00 0.  1.
          4    1    3    3  502    0 -0.64856662873E+02 -0.24662692165E+03 -0.46327588486E+02  0.25918616988E+03  0.00000000000E+00 0.  1.
         13    1    4    4    0    0 -0.72871043611E+03  0.14109652776E+03 -0.14240105155E+02  0.74238125084E+03  0.10566000000E+00 0. -1.
         -4    1    4    4    0  501  0.27044359192E+02 -0.47641305340E+03  0.97411967542E+02  0.48702144330E+03  0.00000000000E+00 0. -1.
<mgrwt>
<rscale>  2 0.12527674E+04</rscale>
<asrwt>0</asrwt>
<pdfrwt beam="1">  1        1 0.25150461E+00 0.12527674E+04</pdfrwt>
<pdfrwt beam="2">  1       -1 0.15252252E+00 0.12527674E+04</pdfrwt>
<totfact> 0.24112568E+00</totfact>
</mgrwt>
</event>
<event>
 8    1  0.7046235E-006  0.1158531E+04  0.7818608E-02  0.8638461E-01
          2   -1    0    0  502    0  0.00000000000E+00  0.00000000000E+00  0.21393362637E+04  0.21393362637E+04  0.00000000000E+00 0. -1.
         -2   -1    0    0    0  501 -0.00000000000E+00 -0.00000000000E+00 -0.64449493751E+03  0.64449493751E+03  0.00000000000E+00 0.  1.
    9000010    2    1    2  502    0 -0.53183819562E+03  0.26527686527E+03  0.98161627222E+03  0.15281840370E+04  0.10092335029E+04 0.  0.
   -9000010    2    1    2    0  501  0.53183819562E+03 -0.26527686527E+03  0.51322505395E+03  0.12556471642E+04  0.97980924852E+03 0.  0.
        -13    1    3    3    0    0 -0.15707221966E+03 -0.17905494590E+03  0.91219454435E+03  0.94277847544E+03  0.10566000000E+00 0.  1.
          4    1    3    3  502    0 -0.37476597596E+03  0.44433181117E+03  0.69421727875E+02  0.58540556152E+03  0.00000000000E+00 0.  1.
         13    1    4    4    0    0  0.40898178739E+03 -0.11182780343E+03 -0.23311577281E+03  0.48385383612E+03  0.10566000000E+00 0. -1.
         -4    1    4    4    0  501  0.12285640824E+03 -0.15344906184E+03  0.74634082676E+03  0.77179332811E+03  0.00000000000E+00 0. -1.
<mgrwt>
<rscale>  2 0.11585309E+04</rscale>
<asrwt>0</asrwt>
<pdfrwt beam="1">  1        2 0.32912865E+00 0.11585309E+04</pdfrwt>
<pdfrwt beam="2">  1       -2 0.99153068E-01 0.11585309E+04</pdfrwt>
<totfact> 0.71982759E+00</totfact>
</mgrwt>
</event>
<event>
 8    1  0.7046235E-006  0.1216560E+04  0.7818608E-02  0.8594195E-01
         -1   -1    0    0    0  501 -0.00000000000E+00  0.00000000000E+00  0.23529515976E+04  0.23529515976E+04  0.00000000000E+00 0. -1.
          1   -1    0    0  502    0  0.00000000000E+00 -0.00000000000E+00 -0.62926669006E+03  0.62926669006E+03  0.00000000000E+00 0.  1.
    9000010    2    1    2  502    0  0.72271306596E+03 -0.21454054202E+03  0.89140009076E+03  0.15261590391E+04  0.98296768557E+03 0.  0.
   -9000010    2    1    2    0  501 -0.72271306596E+03  0.21454054202E+03  0.83228481678E+03  0.14560592486E+04  0.92685958983E+03 0.  0.
        -13    1    3    3    0    0  0.89109715184E+03  0.81390029002E+02  0.69575315640E+03  0.11334685424E+04  0.10566000000E+00 0.  1.
          4    1    3    3  502    0 -0.16838408588E+03 -0.29593057102E+03  0.19564693435E+03  0.39269049666E+03  0.00000000000E+00 0.  1.
         13    1    4    4    0    0 -0.47435290455E+03  0.53643603775E+03  0.27688241766E+03  0.76774877729E+03  0.10566000000E+00 0. -1.
         -4    1    4    4    0  501 -0.24836016141E+03 -0.32189549573E+03  0.55540239911E+03  0.68831047129E+03  0.00000000000E+00 0. -1.
<mgrwt>
<rscale>  2 0.12165605E+04</rscale>
<asrwt>0</asrwt>
<pdfrwt beam="2">  1        1 0.96810261E-01 0.12165605E+04</pdfrwt>
<pdfrwt beam="1">  1       -1 0.36199255E+00 0.12165605E+04</pdfrwt>
<totfact> 0.42822003E-01</totfact>
</mgrwt>
</event>
<event>
 8    1  0.7046235E-006  0.1334962E+04  0.7818608E-02  0.8511320E-01
          2   -1    0    0  502    0  0.00000000000E+00  0.00000000000E+00  0.22560620916E+04  0.22560620916E+04  0.00000000000E+00 0. -1.
         -2   -1    0    0    0  501 -0.00000000000E+00 -0.00000000000E+00 -0.11452956797E+04  0.11452956797E+04  0.00000000000E+00 0.  1.
    9000010    2    1    2  502    0  0.80084073058E+03 -0.39384859544E+03  0.15026617637E+04  0.20098745756E+04  0.99254261446E+03 0.  0.
   -9000010    2    1    2    0  501 -0.80084073058E+03  0.39384859544E+03 -0.39189535181E+03  0.13914831958E+04  0.99306642557E+03 0.  0.
        -13    1    3    3    0    0  0.40334356736E+03  0.13542111465E+03  0.69323188681E+02  0.43108076654E+03  0.10566000000E+00 0.  1.
          4    1    3    3  502    0  0.39749716322E+03 -0.52926971008E+03  0.14333385750E+04  0.15787938090E+04  0.00000000000E+00 0.  1.
         13    1    4    4    0    0  0.20718518236E+03  0.12918314369E+03  0.66322389234E+02  0.25300722299E+03  0.10566000000E+00 0. -1.
         -4    1    4    4    0  501 -0.10080259129E+04  0.26466545174E+03 -0.45821774104E+03  0.11384759728E+04  0.00000000000E+00 0. -1.
<mgrwt>
<rscale>  2 0.13349619E+04</rscale>
<asrwt>0</asrwt>
<pdfrwt beam="1">  1        2 0.34708648E+00 0.13349619E+04</pdfrwt>
<pdfrwt beam="2">  1       -2 0.17619934E+00 0.13349619E+04</pdfrwt>
<totfact> 0.11930285E+00</totfact>
</mgrwt>
</event>
<event>
 8    1  0.7046235E-006  0.1030737E+04  0.7818608E-02  0.8746236E-01
         -2   -1    0    0    0  501 -0.00000000000E+00  0.00000000000E+00  0.85366887505E+03  0.85366887505E+03  0.00000000000E+00 0.  1.
          2   -1    0    0  502    0  0.00000000000E+00 -0.00000000000E+00 -0.14759290645E+04  0.14759290645E+04  0.00000000000E+00 0. -1.
    9000010    2    1    2  502    0  0.21517810140E+03 -0.22436272669E+03  0.14678595340E+03  0.10532369544E+04  0.99555096180E+03 0.  0.
   -9000010    2    1    2    0  501 -0.21517810140E+03  0.22436272669E+03 -0.76904614285E+03  0.12763609852E+04  0.97006450619E+03 0.  0.
        -13    1    3    3    0    0  0.45874689871E+03 -0.23401527496E+02 -0.26809518963E+03  0.53185655062E+03  0.10566000000E+00 0.  1.
          4    1    3    3  502    0 -0.24356879731E+03 -0.20096119920E+03  0.41488114303E+03  0.52138040378E+03  0.00000000000E+00 0.  1.
         13    1    4    4    0    0  0.36979702011E+03 -0.45329888293E+02 -0.24422798050E+03  0.44547946359E+03  0.10566000000E+00 0. -1.
         -4    1    4    4    0  501 -0.58497512151E+03  0.26969261499E+03 -0.52481816235E+03  0.83088152158E+03  0.00000000000E+00 0. -1.
<mgrwt>
<rscale>  2 0.10307368E+04</rscale>
<asrwt>0</asrwt>
<pdfrwt beam="2">  1        2 0.22706601E+00 0.10307368E+04</pdfrwt>
<pdfrwt beam="1">  1       -2 0.13133367E+00 0.10307368E+04</pdfrwt>
<totfact> 0.81334692E+00</totfact>
</mgrwt>
</event>
<event>
 8    1  0.7046235E-006  0.1307375E+04  0.7818608E-02  0.8529815E-01
         -2   -1    0    0    0  501 -0.00000000000E+00  0.00000000000E+00  0.59257845251E+03  0.59257845251E+03  0.00000000000E+00 0.  1.
          2   -1    0    0  502    0  0.00000000000E+00 -0.00000000000E+00 -0.28862740855E+04  0.28862740855E+04  0.00000000000E+00 0. -1.
    9000010    2    1    2  502    0  0.83554050787E+03  0.79224648316E+02 -0.11887812011E+04  0.17650736352E+04  0.99893929169E+03 0.  0.
   -9000010    2    1    2    0  501 -0.83554050787E+03 -0.79224648316E+02 -0.11049144319E+04  0.17137789028E+04  0.10058815739E+04 0.  0.
        -13    1    3    3    0    0  0.43215407482E+03  0.53281925953E+03 -0.74756896849E+03  0.10146491421E+04  0.10566000000E+00 0.  1.
          4    1    3    3  502    0  0.40338643306E+03 -0.45359461122E+03 -0.44121223256E+03  0.75042449311E+03  0.00000000000E+00 0.  1.
         13    1    4    4    0    0 -0.66403880217E+03  0.47855803647E+02 -0.84293612474E+02  0.67107610075E+03  0.10566000000E+00 0. -1.
         -4    1    4    4    0  501 -0.17150170570E+03 -0.12708045196E+03 -0.10206208194E+04  0.10427028021E+04  0.00000000000E+00 0. -1.
<mgrwt>
<rscale>  2 0.13073749E+04</rscale>
<asrwt>0</asrwt>
<pdfrwt beam="2">  1        2 0.44404217E+00 0.13073749E+04</pdfrwt>
<pdfrwt beam="1">  1       -2 0.91165915E-01 0.13073749E+04</pdfrwt>
<totfact> 0.32526242E+00</totfact>
</mgrwt>
</event>
<event>
 8    1  0.7046235E-006  0.1314930E+04  0.7818608E-02  0.8524703E-01
          4   -1    0    0  502    0  0.00000000000E+00  0.00000000000E+00  0.16268575101E+04  0.16268575101E+04  0.00000000000E+00 0.  1.
         -4   -1    0    0    0  501 -0.00000000000E+00 -0.00000000000E+00 -0.10748237881E+04  0.10748237881E+04  0.00000000000E+00 0. -1.
    9000010    2    1    2  502    0 -0.58716916670E+03 -0.65347029996E+03  0.41940750572E+03  0.13830151897E+04  0.98236311813E+03 0.  0.
   -9000010    2    1    2    0  501  0.58716916670E+03  0.65347029996E+03  0.13262621629E+03  0.13186661084E+04  0.97442266446E+03 0.  0.
        -13    1    3    3    0    0 -0.63607265566E+03 -0.51460795035E+03  0.69306913719E+03  0.10722661078E+04  0.10566000000E+00 0.  1.
          4    1    3    3  502    0  0.48903488960E+02 -0.13886234961E+03 -0.27366163147E+03  0.31074908191E+03  0.00000000000E+00 0.  1.
         13    1    4    4    0    0  0.46959423025E+03 -0.12170334628E+03  0.21439701654E+03  0.53037396000E+03  0.10566000000E+00 0. -1.
         -4    1    4    4    0  501  0.11757493645E+03  0.77517364624E+03 -0.81770800247E+02  0.78829214843E+03  0.00000000000E+00 0. -1.
<mgrwt>
<rscale>  2 0.13149304E+04</rscale>
<asrwt>0</asrwt>
<pdfrwt beam="1">  1        4 0.25028577E+00 0.13149304E+04</pdfrwt>
<pdfrwt beam="2">  1       -4 0.16535751E+00 0.13149304E+04</pdfrwt>
<totfact> 0.17428829E-01</totfact>
</mgrwt>
</event>
<event>
 8    1  0.7046235E-006  0.1087995E+04  0.7818608E-02  0.8696043E-01
         -2   -1    0    0    0  501 -0.00000000000E+00  0.00000000000E+00  0.47299486199E+03  0.47299486199E+03  0.00000000000E+00 0. -1.
          2   -1    0    0  502    0  0.00000000000E+00 -0.00000000000E+00 -0.27933129843E+04  0.27933129843E+04  0.00000000000E+00 0.  1.
    9000010    2    1    2  502    0 -0.25174871222E+03  0.35228902096E+03 -0.63110711388E+03  0.12557725542E+04  0.99558201586E+03 0.  0.
   -9000010    2    1    2    0  501  0.25174871222E+03 -0.35228902096E+03 -0.16892110085E+04  0.20105352921E+04  0.10006664586E+04 0.  0.
        -13    1    3    3    0    0 -0.27416306799E+02  0.66203929582E+03 -0.22958336112E+03  0.70125331654E+03  0.10566000000E+00 0.  1.
          4    1    3    3  502    0 -0.22433240542E+03 -0.30975027487E+03 -0.40152375276E+03  0.55451923766E+03  0.00000000000E+00 0.  1.
         13    1    4    4    0    0 -0.27428847206E+03 -0.34046711200E+03 -0.12529188510E+04  0.13270108058E+04  0.10566000000E+00 0. -1.
         -4    1    4    4    0  501  0.52603718428E+03 -0.11821908961E+02 -0.43629215746E+03  0.68352448635E+03  0.00000000000E+00 0. -1.
<mgrwt>
<rscale>  2 0.10879947E+04</rscale>
<asrwt>0</asrwt>
<pdfrwt beam="2">  1        2 0.42974047E+00 0.10879947E+04</pdfrwt>
<pdfrwt beam="1">  1       -2 0.72768438E-01 0.10879947E+04</pdfrwt>
<totfact> 0.62510497E+00</totfact>
</mgrwt>
</event>
<event>
 8    1  0.7046235E-006  0.1249579E+04  0.7818608E-02  0.8570135E-01
          1   -1    0    0  502    0  0.00000000000E+00  0.00000000000E+00  0.55691450916E+03  0.55691450916E+03  0.00000000000E+00 0. -1.
         -1   -1    0    0    0  501 -0.00000000000E+00 -0.00000000000E+00 -0.31775320573E+04  0.31775320573E+04  0.00000000000E+00 0.  1.
    9000010    2    1    2  502    0 -0.95434021973E+02  0.75280515931E+03 -0.19515385088E+04  0.23177909239E+04  0.99389584721E+03 0.  0.
   -9000010    2    1    2    0  501  0.95434021973E+02 -0.75280515931E+03 -0.66907903938E+03  0.14166556426E+04  0.99167695766E+03 0.  0.
        -13    1    3    3    0    0 -0.54164199907E+03  0.48490836117E+03 -0.10571521303E+04  0.12829975883E+04  0.10566000000E+00 0.  1.
          4    1    3    3  502    0  0.44620797710E+03  0.26789679814E+03 -0.89438637848E+03  0.10347933355E+04  0.00000000000E+00 0.  1.
         13    1    4    4    0    0  0.22719485874E+03 -0.81509107681E+03 -0.83981580380E+03  0.11921751393E+04  0.10566000000E+00 0. -1.
         -4    1    4    4    0  501 -0.13176083676E+03  0.62285917505E+02  0.17073676443E+03  0.22448050328E+03  0.00000000000E+00 0. -1.
<mgrwt>
<rscale>  2 0.12495790E+04</rscale>
<asrwt>0</asrwt>
<pdfrwt beam="1">  1        1 0.85679154E-01 0.12495790E+04</pdfrwt>
<pdfrwt beam="2">  1       -1 0.48885109E+00 0.12495790E+04</pdfrwt>
<totfact> 0.51697952E-01</totfact>
</mgrwt>
</event>
<event>
 8    1  0.7046235E-006  0.1316624E+04  0.7818608E-02  0.8523562E-01
         -2   -1    0    0    0  501 -0.00000000000E+00  0.00000000000E+00  0.10788172930E+04  0.10788172930E+04  0.00000000000E+00 0.  1.
          2   -1    0    0  502    0  0.00000000000E+00 -0.00000000000E+00 -0.20046597539E+04  0.20046597539E+04  0.00000000000E+00 0. -1.
    9000010    2    1    2  502    0  0.60816858214E+03  0.66147111194E+02 -0.11676368414E+04  0.18326428171E+04  0.12731690528E+04 0.  0.
   -9000010    2    1    2    0  501 -0.60816858214E+03 -0.66147111194E+02  0.24179438047E+03  0.12508342298E+04  0.10638972146E+04 0.  0.
        -13    1    3    3    0    0  0.73785740334E+03  0.54442311294E+03 -0.75664412122E+03  0.11888399434E+04  0.10566000000E+00 0.  1.
          4    1    3    3  502    0 -0.12968882120E+03 -0.47827600174E+03 -0.41099272016E+03  0.64380287372E+03  0.00000000000E+00 0.  1.
         13    1    4    4    0    0  0.26917691571E+03  0.49322276948E+02 -0.11481730172E+03  0.29676914074E+03  0.10566000000E+00 0. -1.
         -4    1    4    4    0  501 -0.87734549785E+03 -0.11546938814E+03  0.35661168219E+03  0.95406508901E+03  0.00000000000E+00 0. -1.
<mgrwt>
<rscale>  2 0.13166242E+04</rscale>
<asrwt>0</asrwt>
<pdfrwt beam="2">  1        2 0.30840919E+00 0.13166242E+04</pdfrwt>
<pdfrwt beam="1">  1       -2 0.16597189E+00 0.13166242E+04</pdfrwt>
<totfact> 0.20019340E+00</totfact>
</mgrwt>
</event>
<event>
 8    1  0.7046235E-006  0.1171502E+04  0.7818608E-02  0.8628337E-01
          2   -1    0    0  502    0  0.00000000000E+00  0.00000000000E+00  0.18100556507E+04  0.18100556507E+04  0.00000000000E+00 0. -1.
         -2   -1    0    0    0  501 -0.00000000000E+00 -0.00000000000E+00 -0.76765026374E+03  0.76765026374E+03  0.00000000000E+00 0.  1.
    9000010    2    1    2  502    0 -0.84682822118E+02  0.61305973331E+03  0.38073630212E+03  0.12367775660E+04  0.10008222614E+04 0.  0.
   -9000010    2    1    2    0  501  0.84682822118E+02 -0.61305973331E+03  0.66166908485E+03  0.13409283485E+04  0.98856939104E+03 0.  0.
        -13    1    3    3    0    0 -0.60379538499E+02 -0.35390970939E+02  0.55937133860E+03  0.56373266280E+03  0.10566000000E+00 0.  1.
          4    1    3    3  502    0 -0.24303283619E+02  0.64845070425E+03 -0.17863503649E+03  0.67304490318E+03  0.00000000000E+00 0.  1.
         13    1    4    4    0    0  0.41449888596E+03 -0.65130265360E+03  0.64915659237E+03  0.10086668259E+04  0.10566000000E+00 0. -1.
         -4    1    4    4    0  501 -0.32981606385E+03  0.38242920284E+02  0.12512492476E+02  0.33226152259E+03  0.00000000000E+00 0. -1.
<mgrwt>
<rscale>  2 0.11715019E+04</rscale>
<asrwt>0</asrwt>
<pdfrwt beam="1">  1        2 0.27847010E+00 0.11715019E+04</pdfrwt>
<pdfrwt beam="2">  1       -2 0.11810004E+00 0.11715019E+04</pdfrwt>
<totfact> 0.70205226E+00</totfact>
</mgrwt>
</event>
<event>
 8    1  0.7046235E-006  0.1223493E+04  0.7818608E-02  0.8589078E-01
          1   -1    0    0  502    0  0.00000000000E+00  0.00000000000E+00  0.20267699286E+04  0.20267699286E+04  0.00000000000E+00 0. -1.
         -1   -1    0    0    0  501 -0.00000000000E+00 -0.00000000000E+00 -0.76619719524E+03  0.76619719524E+03  0.00000000000E+00 0.  1.
    9000010    2    1    2  502    0 -0.57668883309E+03 -0.34802944797E+03  0.89592351520E+03  0.15172978575E+04  0.10226530870E+04 0.  0.
   -9000010    2    1    2    0  501  0.57668883309E+03  0.34802944797E+03  0.36464921816E+03  0.12756692663E+04  0.10201316179E+04 0.  0.
        -13    1    3    3    0    0 -0.72959619526E+03 -0.53211380765E+03  0.90412736319E+03  0.12778505439E+04  0.10566000000E+00 0.  1.
          4    1    3    3  502    0  0.15290736217E+03  0.18408435967E+03 -0.82038479975E+01  0.23944731363E+03  0.00000000000E+00 0.  1.
         13    1    4    4    0    0  0.74041128868E+03  0.48911325210E+03  0.50205994421E+03  0.10195611058E+04  0.10566000000E+00 0. -1.
         -4    1    4    4    0  501 -0.16372245559E+03 -0.14108380412E+03 -0.13741072604E+03  0.25610816051E+03  0.00000000000E+00 0. -1.
<mgrwt>
<rscale>  2 0.12234934E+04</rscale>
<asrwt>0</asrwt>
<pdfrwt beam="1">  1        1 0.31181076E+00 0.12234934E+04</pdfrwt>
<pdfrwt beam="2">  1       -1 0.11787649E+00 0.12234934E+04</pdfrwt>
<totfact> 0.24700348E+00</totfact>
</mgrwt>
</event>
<event>
 8    1  0.7046235E-006  0.1463097E+04  0.7818608E-02  0.8431059E-01
         -2   -1    0    0    0  501 -0.00000000000E+00  0.00000000000E+00  0.11671453739E+04  0.11671453739E+04  0.00000000000E+00 0. -1.
          2   -1    0    0  502    0  0.00000000000E+00 -0.00000000000E+00 -0.18954471289E+04  0.18954471289E+04  0.00000000000E+00 0.  1.
    9000010    2    1    2  502    0 -0.10396171707E+04 -0.13977675865E+03 -0.63815557854E+03  0.15907878501E+04  0.10114455189E+04 0.  0.
   -9000010    2    1    2    0  501  0.10396171707E+04  0.13977675865E+03 -0.90146176513E+02  0.14718046527E+04  0.10284654582E+04 0.  0.
        -13    1    3    3    0    0 -0.39821238559E+03 -0.41245274766E+03  0.92840925515E+02  0.58078379945E+03  0.10566000000E+00 0.  1.
          4    1    3    3  502    0 -0.64140478511E+03  0.27267598901E+03 -0.73099650406E+03  0.10100040506E+04  0.00000000000E+00 0.  1.
         13    1    4    4    0    0 -0.15581058290E+03 -0.45810656089E+02  0.16924276570E+03  0.23456060807E+03  0.10566000000E+00 0. -1.
         -4    1    4    4    0  501  0.11954277536E+04  0.18558741474E+03 -0.25938894221E+03  0.12372440446E+04  0.00000000000E+00 0. -1.
<mgrwt>
<rscale>  2 0.14630969E+04</rscale>
<asrwt>0</asrwt>
<pdfrwt beam="2">  1        2 0.29160725E+00 0.14630969E+04</pdfrwt>
<pdfrwt beam="1">  1       -2 0.17956083E+00 0.14630969E+04</pdfrwt>
<totfact> 0.17394326E+00</totfact>
</mgrwt>
</event>
<event>
 8    1  0.7046235E-006  0.1170710E+04  0.7818608E-02  0.8628951E-01
          2   -1    0    0  502    0  0.00000000000E+00  0.00000000000E+00  0.11154809125E+04  0.11154809125E+04  0.00000000000E+00 0. -1.
         -2   -1    0    0    0  501 -0.00000000000E+00 -0.00000000000E+00 -0.12288386934E+04  0.12288386934E+04  0.00000000000E+00 0.  1.
    9000010    2    1    2  502    0 -0.57617645438E+02  0.59222612378E+03 -0.68018866134E+02  0.11657429562E+04  0.10001392398E+04 0.  0.
   -9000010    2    1    2    0  501  0.57617645438E+02 -0.59222612378E+03 -0.45338914761E+02  0.11785766498E+04  0.10163344565E+04 0.  0.
        -13    1    3    3    0    0 -0.33117778370E+03  0.29682469432E+03  0.36436870437E+03  0.57493320261E+03  0.10566000000E+00 0.  1.
          4    1    3    3  502    0  0.27356013826E+03  0.29540142946E+03 -0.43238757051E+03  0.59080975356E+03  0.00000000000E+00 0.  1.
         13    1    4    4    0    0  0.34126621069E+03 -0.97819538521E+00 -0.31979851319E+03  0.46769079916E+03  0.10566000000E+00 0. -1.
         -4    1    4    4    0  501 -0.28364856525E+03 -0.59124792840E+03  0.27445959842E+03  0.71088585059E+03  0.00000000000E+00 0. -1.
<mgrwt>
<rscale>  2 0.11707098E+04</rscale>
<asrwt>0</asrwt>
<pdfrwt beam="1">  1        2 0.17161245E+00 0.11707098E+04</pdfrwt>
<pdfrwt beam="2">  1       -2 0.18905211E+00 0.11707098E+04</pdfrwt>
<totfact> 0.40437225E+00</totfact>
</mgrwt>
</event>
<event>
 8    1  0.7046235E-006  0.1193741E+04  0.7818608E-02  0.8611290E-01
          2   -1    0    0  502    0  0.00000000000E+00  0.00000000000E+00  0.12152253679E+04  0.12152253679E+04  0.00000000000E+00 0.  1.
         -2   -1    0    0    0  501 -0.00000000000E+00 -0.00000000000E+00 -0.12127191664E+04  0.12127191664E+04  0.00000000000E+00 0. -1.
    9000010    2    1    2  502    0  0.42729698966E+03  0.44276211644E+03 -0.20818270512E+03  0.12811112259E+04  0.11042123552E+04 0.  0.
   -9000010    2    1    2    0  501 -0.42729698966E+03 -0.44276211644E+03  0.21068890660E+03  0.11468333083E+04  0.94457176148E+03 0.  0.
        -13    1    3    3    0    0  0.76065313625E+03  0.39043796564E+03  0.49647386961E+02  0.85644607121E+03  0.10566000000E+00 0.  1.
          4    1    3    3  502    0 -0.33335614659E+03  0.52324150795E+02 -0.25783009208E+03  0.42466515469E+03  0.00000000000E+00 0.  1.
         13    1    4    4    0    0 -0.62703620125E+03 -0.25167898284E+02  0.26411509591E+03  0.68085579665E+03  0.10566000000E+00 0. -1.
         -4    1    4    4    0  501  0.19973921158E+03 -0.41759421815E+03 -0.53426189308E+02  0.46597751167E+03  0.00000000000E+00 0. -1.
<mgrwt>
<rscale>  2 0.11937414E+04</rscale>
<asrwt>0</asrwt>
<pdfrwt beam="1">  1        2 0.18695775E+00 0.11937414E+04</pdfrwt>
<pdfrwt beam="2">  1       -2 0.18657218E+00 0.11937414E+04</pdfrwt>
<totfact> 0.37067654E+00</totfact>
</mgrwt>
</event>
<event>
 8    1  0.7046235E-006  0.1256904E+04  0.7818608E-02  0.8564901E-01
          4   -1    0    0  502    0  0.00000000000E+00  0.00000000000E+00  0.14180257971E+04  0.14180257971E+04  0.00000000000E+00 0.  1.
         -4   -1    0    0    0  501 -0.00000000000E+00 -0.00000000000E+00 -0.17577277282E+04  0.17577277282E+04  0.00000000000E+00 0. -1.
    9000010    2    1    2  502    0 -0.82765244505E+03  0.96252154971E+02  0.78663457501E+03  0.15161272547E+04  0.99276122549E+03 0.  0.
   -9000010    2    1    2    0  501  0.82765244505E+03 -0.96252154971E+02 -0.11263365062E+04  0.16596262706E+04  0.88963609744E+03 0.  0.
        -13    1    3    3    0    0 -0.99664407248E+02 -0.68593051216E+02 -0.22705365623E+03  0.25727684451E+03  0.10566000000E+00 0.  1.
          4    1    3    3  502    0 -0.72798803780E+03  0.16484520619E+03  0.10136882312E+04  0.12588504102E+04  0.00000000000E+00 0.  1.
         13    1    4    4    0    0  0.89717348087E+03  0.12127203250E+03 -0.60060964500E+03  0.10864433338E+04  0.10566000000E+00 0. -1.
         -4    1    4    4    0  501 -0.69521035821E+02 -0.21752418747E+03 -0.52572686115E+03  0.57318293685E+03  0.00000000000E+00 0. -1.
<mgrwt>
<rscale>  2 0.12569041E+04</rscale>
<asrwt>0</asrwt>
<pdfrwt beam="1">  1        4 0.21815781E+00 0.12569041E+04</pdfrwt>
<pdfrwt beam="2">  1       -4 0.27041965E+00 0.12569041E+04</pdfrwt>
<totfact> 0.10804963E-01</totfact>
</mgrwt>
</event>
<event>
 8    1  0.7046235E-006  0.1133593E+04  0.7818608E-02  0.8658320E-01
         -1   -1    0    0    0  501 -0.00000000000E+00  0.00000000000E+00  0.36399080414E+03  0.36399080414E+03  0.00000000000E+00 0. -1.
          1   -1    0    0  502    0  0.00000000000E+00 -0.00000000000E+00 -0.35325996794E+04  0.35325996794E+04  0.00000000000E+00 0.  1.
    9000010    2    1    2  502    0  0.79392265504E+02  0.51191373873E+03 -0.16238270748E+04  0.19770663171E+04  0.10018073896E+04 0.  0.
   -9000010    2    1    2    0  501 -0.79392265504E+02 -0.51191373873E+03 -0.15447818005E+04  0.19195241664E+04  0.10148218596E+04 0.  0.
        -13    1    3    3    0    0 -0.11672885349E+03  0.42172299585E+03 -0.16943741018E+04  0.17499655764E+04  0.10566000000E+00 0.  1.
          4    1    3    3  502    0  0.19612111899E+03  0.90190742886E+02  0.70547027046E+02  0.22710074073E+03  0.00000000000E+00 0.  1.
         13    1    4    4    0    0  0.21278631779E+03 -0.28186052557E+03 -0.24046195980E+02  0.35397966554E+03  0.10566000000E+00 0. -1.
         -4    1    4    4    0  501 -0.29217858329E+03 -0.23005321316E+03 -0.15207356045E+04  0.15655445009E+04  0.00000000000E+00 0. -1.
<mgrwt>
<rscale>  2 0.11335928E+04</rscale>
<asrwt>0</asrwt>
<pdfrwt beam="2">  1        1 0.54347687E+00 0.11335928E+04</pdfrwt>
<pdfrwt beam="1">  1       -1 0.55998586E-01 0.11335928E+04</pdfrwt>
<totfact> 0.35092149E-01</totfact>
</mgrwt>
</event>
<event>
 8    1  0.7046235E-006  0.1233763E+04  0.7818608E-02  0.8581563E-01
          1   -1    0    0  502    0  0.00000000000E+00  0.00000000000E+00  0.51508828086E+03  0.51508828086E+03  0.00000000000E+00 0. -1.
         -1   -1    0    0    0  501 -0.00000000000E+00 -0.00000000000E+00 -0.30061445240E+04  0.30061445240E+04  0.00000000000E+00 0.  1.
    9000010    2    1    2  502    0  0.70227288713E+03 -0.20608880140E+03 -0.10109808235E+04  0.15908735687E+04  0.98647690493E+03 0.  0.
   -9000010    2    1    2    0  501 -0.70227288713E+03  0.20608880140E+03 -0.14800754197E+04  0.19303592363E+04  0.10000018654E+04 0.  0.
        -13    1    3    3    0    0 -0.22669479992E+02 -0.24245662067E+03 -0.79813354649E+03  0.83445568332E+03  0.10566000000E+00 0.  1.
          4    1    3    3  502    0  0.72494236713E+03  0.36367819271E+02 -0.21284727697E+03  0.75641788533E+03  0.00000000000E+00 0.  1.
         13    1    4    4    0    0 -0.14386402326E+03  0.40125567536E+03 -0.12046599366E+04  0.12778531012E+04  0.10566000000E+00 0. -1.
         -4    1    4    4    0  501 -0.55840886387E+03 -0.19516687395E+03 -0.27541548310E+03  0.65250613504E+03  0.00000000000E+00 0. -1.
<mgrwt>
<rscale>  2 0.12337628E+04</rscale>
<asrwt>0</asrwt>
<pdfrwt beam="1">  1        1 0.79244351E-01 0.12337628E+04</pdfrwt>
<pdfrwt beam="2">  1       -1 0.46248377E+00 0.12337628E+04</pdfrwt>
<totfact> 0.62693652E-01</totfact>
</mgrwt>
</event>
<event>
 8    1  0.7046235E-006  0.1421744E+04  0.7818608E-02  0.8456010E-01
         -4   -1    0    0    0  501 -0.00000000000E+00  0.00000000000E+00  0.16212029893E+04  0.16212029893E+04  0.00000000000E+00 0. -1.
          4   -1    0    0  502    0  0.00000000000E+00 -0.00000000000E+00 -0.21260554024E+04  0.21260554024E+04  0.00000000000E+00 0.  1.
    9000010    2    1    2  502    0  0.15183909196E+03  0.99858380545E+03 -0.14574813758E+04  0.20371857895E+04  0.10028206490E+04 0.  0.
   -9000010    2    1    2    0  501 -0.15183909196E+03 -0.99858380545E+03  0.95262896265E+03  0.17100726021E+04  0.99830938980E+03 0.  0.
        -13    1    3    3    0    0  0.55348268314E+03  0.80022645123E+03 -0.10519427827E+04  0.14329302436E+04  0.10566000000E+00 0.  1.
          4    1    3    3  502    0 -0.40164359119E+03  0.19835735422E+03 -0.40553859305E+03  0.60425554592E+03  0.00000000000E+00 0.  1.
         13    1    4    4    0    0 -0.12016698016E+03 -0.41776694651E+03  0.10350054372E+04  0.11225887897E+04  0.10566000000E+00 0. -1.
         -4    1    4    4    0  501 -0.31672111798E+02 -0.58081685894E+03 -0.82376474505E+02  0.58748381241E+03  0.00000000000E+00 0. -1.
<mgrwt>
<rscale>  2 0.14217437E+04</rscale>
<asrwt>0</asrwt>
<pdfrwt beam="2">  1        4 0.32708544E+00 0.14217437E+04</pdfrwt>
<pdfrwt beam="1">  1       -4 0.24941585E+00 0.14217437E+04</pdfrwt>
<totfact> 0.62636050E-02</totfact>
</mgrwt>
</event>
<event>
 8    1  0.7046235E-006  0.1284977E+04  0.7818608E-02  0.8545180E-01
          2   -1    0    0  502    0  0.00000000000E+00  0.00000000000E+00  0.24597444454E+04  0.24597444454E+04  0.00000000000E+00 0. -1.
         -2   -1    0    0    0  501 -0.00000000000E+00 -0.00000000000E+00 -0.84595834714E+03  0.84595834714E+03  0.00000000000E+00 0.  1.
    9000010    2    1    2  502    0  0.73042972302E+03 -0.29068167887E+03  0.51573025754E+02  0.12773744401E+04  0.10054860838E+04 0.  0.
   -9000010    2    1    2    0  501 -0.73042972302E+03  0.29068167887E+03  0.15622130725E+04  0.20283283524E+04  0.10274155939E+04 0.  0.
        -13    1    3    3    0    0  0.31639336848E+03  0.32340283744E+03 -0.20071910296E+03  0.49495689544E+03  0.10566000000E+00 0.  1.
          4    1    3    3  502    0  0.41403635453E+03 -0.61408451631E+03  0.25229212872E+03  0.78241754471E+03  0.00000000000E+00 0.  1.
         13    1    4    4    0    0 -0.47857784645E+03 -0.35718160861E+03  0.76928291654E+03  0.97386429932E+03  0.10566000000E+00 0. -1.
         -4    1    4    4    0  501 -0.25185187657E+03  0.64786328748E+03  0.79293015599E+03  0.10544640531E+04  0.00000000000E+00 0. -1.
<mgrwt>
<rscale>  2 0.12849768E+04</rscale>
<asrwt>0</asrwt>
<pdfrwt beam="1">  1        2 0.37842222E+00 0.12849768E+04</pdfrwt>
<pdfrwt beam="2">  1       -2 0.13014744E+00 0.12849768E+04</pdfrwt>
<totfact> 0.23519275E+00</totfact>
</mgrwt>
</event>
<event>
 8    1  0.7046235E-006  0.1171524E+04  0.7818608E-02  0.8628320E-01
          4   -1    0    0  502    0  0.00000000000E+00  0.00000000000E+00  0.21884929802E+04  0.21884929802E+04  0.00000000000E+00 0.  1.
         -4   -1    0    0    0  501 -0.00000000000E+00 -0.00000000000E+00 -0.72859981821E+03  0.72859981821E+03  0.00000000000E+00 0. -1.
    9000010    2    1    2  502    0  0.29833540175E+03  0.52707686500E+03  0.18865302201E+03  0.11921017037E+04  0.10093079192E+04 0.  0.
   -9000010    2    1    2    0  501 -0.29833540175E+03 -0.52707686500E+03  0.12712401399E+04  0.17249910947E+04  0.99635774183E+03 0.  0.
        -13    1    3    3    0    0 -0.15720649576E+02 -0.97259406476E+02 -0.31539337750E+03  0.33042325086E+03  0.10566000000E+00 0.  1.
          4    1    3    3  502    0  0.31405605132E+03  0.62433627148E+03  0.50404639951E+03  0.86167845285E+03  0.00000000000E+00 0.  1.
         13    1    4    4    0    0 -0.29715213057E+03  0.21466470189E+03  0.69487517724E+03  0.78564104147E+03  0.10566000000E+00 0. -1.
         -4    1    4    4    0  501 -0.11832711788E+01 -0.74174156689E+03  0.57636496270E+03  0.93935005318E+03  0.00000000000E+00 0. -1.
<mgrwt>
<rscale>  2 0.11715239E+04</rscale>
<asrwt>0</asrwt>
<pdfrwt beam="1">  1        4 0.33669122E+00 0.11715239E+04</pdfrwt>
<pdfrwt beam="2">  1       -4 0.11209228E+00 0.11715239E+04</pdfrwt>
<totfact> 0.19082218E-01</totfact>
</mgrwt>
</event>
<event>
 8    1  0.7046235E-006  0.1073610E+04  0.7818608E-02  0.8708345E-01
         -2   -1    0    0    0  501 -0.00000000000E+00  0.00000000000E+00  0.19638542404E+04  0.19638542404E+04  0.00000000000E+00 0.  1.
          2   -1    0    0  502    0  0.00000000000E+00 -0.00000000000E+00 -0.62493025546E+03  0.62493025546E+03  0.00000000000E+00 0. -1.
    9000010    2    1    2  502    0 -0.44418685332E+03 -0.99397413671E+02  0.98641663413E+03  0.14551855485E+04  0.96817632581E+03 0.  0.
   -9000010    2    1    2    0  501  0.44418685332E+03  0.99397413671E+02  0.35250735083E+03  0.11335989474E+04  0.97652615668E+03 0.  0.
        -13    1    3    3    0    0 -0.20675340127E+03 -0.42022149390E+03  0.94124642624E+02  0.47769502027E+03  0.10566000000E+00 0.  1.
          4    1    3    3  502    0 -0.23743345205E+03  0.32082408023E+03  0.89229199151E+03  0.97749052820E+03  0.00000000000E+00 0.  1.
         13    1    4    4    0    0  0.36294286393E+03  0.51288506690E+03  0.83935886607E+02  0.63389577894E+03  0.10566000000E+00 0. -1.
         -4    1    4    4    0  501  0.81243989396E+02 -0.41348765323E+03  0.26857146423E+03  0.49970316848E+03  0.00000000000E+00 0. -1.
<mgrwt>
<rscale>  2 0.10736096E+04</rscale>
<asrwt>0</asrwt>
<pdfrwt beam="2">  1        2 0.96143117E-01 0.10736096E+04</pdfrwt>
<pdfrwt beam="1">  1       -2 0.30213142E+00 0.10736096E+04</pdfrwt>
<totfact> 0.11623781E+00</totfact>
</mgrwt>
</event>
<event>
 8    1  0.7046235E-006  0.1175172E+04  0.7818608E-02  0.8625497E-01
          2   -1    0    0  502    0  0.00000000000E+00  0.00000000000E+00  0.23000852402E+04  0.23000852402E+04  0.00000000000E+00 0. -1.
         -2   -1    0    0    0  501 -0.00000000000E+00 -0.00000000000E+00 -0.71700321595E+03  0.71700321595E+03  0.00000000000E+00 0.  1.
    9000010    2    1    2  502    0 -0.48535967600E+03 -0.42418999166E+03  0.14075027273E+04  0.18427085338E+04  0.99949969944E+03 0.  0.
   -9000010    2    1    2    0  501  0.48535967600E+03  0.42418999166E+03  0.17557929702E+03  0.11743799224E+04  0.96583070381E+03 0.  0.
        -13    1    3    3    0    0 -0.28326318174E+03  0.31357479654E+03  0.45273604974E+03  0.61930374216E+03  0.10566000000E+00 0.  1.
          4    1    3    3  502    0 -0.20209649426E+03 -0.73776478821E+03  0.95476667752E+03  0.12234047916E+04  0.00000000000E+00 0.  1.
         13    1    4    4    0    0  0.77053549677E+03  0.39414823284E+03  0.68182233818E+02  0.86817429667E+03  0.10566000000E+00 0. -1.
         -4    1    4    4    0  501 -0.28517582077E+03  0.30041758826E+02  0.10739706321E+03  0.30620562570E+03  0.00000000000E+00 0. -1.
<mgrwt>
<rscale>  2 0.11751720E+04</rscale>
<asrwt>0</asrwt>
<pdfrwt beam="1">  1        2 0.35385926E+00 0.11751720E+04</pdfrwt>
<pdfrwt beam="2">  1       -2 0.11030819E+00 0.11751720E+04</pdfrwt>
<totfact> 0.45152299E+00</totfact>
</mgrwt>
</event>
<event>
 8    1  0.7046235E-006  0.1540049E+04  0.7818608E-02  0.8386817E-01
         -2   -1    0    0    0  501 -0.00000000000E+00  0.00000000000E+00  0.15278231651E+04  0.15278231651E+04  0.00000000000E+00 0. -1.
          2   -1    0    0  502    0  0.00000000000E+00 -0.00000000000E+00 -0.15545034165E+04  0.15545034165E+04  0.00000000000E+00 0.  1.
    9000010    2    1    2  502    0 -0.11689768173E+04  0.94038979417E+02 -0.69905139633E+02  0.15346706423E+04  0.98740929852E+03 0.  0.
   -9000010    2    1    2    0  501  0.11689768173E+04 -0.94038979417E+02  0.43224888281E+02  0.15476559393E+04  0.10089699632E+04 0.  0.
        -13    1    3    3    0    0 -0.74694268802E+03  0.53550077205E+03  0.71168516980E+01  0.91909472678E+03  0.10566000000E+00 0.  1.
          4    1    3    3  502    0 -0.42203412927E+03 -0.44146179263E+03 -0.77021991331E+02  0.61557591552E+03  0.00000000000E+00 0.  1.
         13    1    4    4    0    0  0.12621306117E+04  0.11536965840E+03  0.18098105584E+03  0.12802491917E+04  0.10566000000E+00 0. -1.
         -4    1    4    4    0  501 -0.93153794381E+02 -0.20940863782E+03 -0.13775616756E+03  0.26740674768E+03  0.00000000000E+00 0. -1.
<mgrwt>
<rscale>  2 0.15400491E+04</rscale>
<asrwt>0</asrwt>
<pdfrwt beam="2">  1        2 0.23915437E+00 0.15400491E+04</pdfrwt>
<pdfrwt beam="1">  1       -2 0.23504972E+00 0.15400491E+04</pdfrwt>
<totfact> 0.92923039E-01</totfact>
</mgrwt>
</event>
<event>
 8    1  0.7046235E-006  0.1269147E+04  0.7818608E-02  0.8556236E-01
          2   -1    0    0  502    0  0.00000000000E+00  0.00000000000E+00  0.46604846724E+03  0.46604846724E+03  0.00000000000E+00 0. -1.
         -2   -1    0    0    0  501 -0.00000000000E+00 -0.00000000000E+00 -0.36106478929E+04  0.36106478929E+04  0.00000000000E+00 0.  1.
    9000010    2    1    2  502    0  0.58670848162E+03 -0.53883951133E+03 -0.19974612649E+04  0.23681605350E+04  0.99184573043E+03 0.  0.
   -9000010    2    1    2    0  501 -0.58670848162E+03  0.53883951133E+03 -0.11471381607E+04  0.17085358252E+04  0.98417165413E+03 0.  0.
        -13    1    3    3    0    0  0.62188151957E+03 -0.34817125646E+03 -0.53058690688E+03  0.88852817914E+03  0.10566000000E+00 0.  1.
          4    1    3    3  502    0 -0.35173037957E+02 -0.19066825488E+03 -0.14668743581E+04  0.14796323558E+04  0.00000000000E+00 0.  1.
         13    1    4    4    0    0 -0.17528680911E+03  0.77011317531E+03 -0.78579981983E+03  0.11141279712E+04  0.10566000000E+00 0. -1.
         -4    1    4    4    0  501 -0.41142167251E+03 -0.23127366398E+03 -0.36133834087E+03  0.59440785395E+03  0.00000000000E+00 0. -1.
<mgrwt>
<rscale>  2 0.12691465E+04</rscale>
<asrwt>0</asrwt>
<pdfrwt beam="1">  1        2 0.71699761E-01 0.12691465E+04</pdfrwt>
<pdfrwt beam="2">  1       -2 0.55548432E+00 0.12691465E+04</pdfrwt>
<totfact> 0.37069804E-01</totfact>
</mgrwt>
</event>
<event>
 8    1  0.7046235E-006  0.1760730E+04  0.7818608E-02  0.8273449E-01
         -4   -1    0    0    0  501 -0.00000000000E+00  0.00000000000E+00  0.50062684590E+04  0.50062684590E+04  0.00000000000E+00 0. -1.
          4   -1    0    0  502    0  0.00000000000E+00 -0.00000000000E+00 -0.14362010936E+04  0.14362010936E+04  0.00000000000E+00 0.  1.
    9000010    2    1    2  502    0 -0.24041467381E+03 -0.14272336163E+04 -0.64360967994E+03  0.18764379942E+04  0.10059776912E+04 0.  0.
   -9000010    2    1    2    0  501  0.24041467381E+03  0.14272336163E+04  0.42136770453E+04  0.45660315583E+04  0.99938728132E+03 0.  0.
        -13    1    3    3    0    0 -0.52533419305E+02 -0.40951905737E+03 -0.72922130157E+03  0.83799125074E+03  0.10566000000E+00 0.  1.
          4    1    3    3  502    0 -0.18788125451E+03 -0.10177145590E+04  0.85611621628E+02  0.10384467435E+04  0.00000000000E+00 0.  1.
         13    1    4    4    0    0  0.53592583456E+03  0.13435317142E+04  0.36017048098E+04  0.38813105409E+04  0.10566000000E+00 0. -1.
         -4    1    4    4    0  501 -0.29551116074E+03  0.83701902157E+02  0.61197223556E+03  0.68472101739E+03  0.00000000000E+00 0. -1.
<mgrwt>
<rscale>  2 0.17607302E+04</rscale>
<asrwt>0</asrwt>
<pdfrwt beam="2">  1        4 0.22095402E+00 0.17607302E+04</pdfrwt>
<pdfrwt beam="1">  1       -4 0.77019514E+00 0.17607302E+04</pdfrwt>
<totfact> 0.47557361E-04</totfact>
</mgrwt>
</event>
<event>
 8    1  0.7046235E-006  0.9989377E+03  0.7818608E-02  0.8775590E-01
          2   -1    0    0  502    0  0.00000000000E+00  0.00000000000E+00  0.16692979517E+04  0.16692979517E+04  0.00000000000E+00 0.  1.
         -2   -1    0    0    0  501 -0.00000000000E+00 -0.00000000000E+00 -0.62055077680E+03  0.62055077680E+03  0.00000000000E+00 0. -1.
    9000010    2    1    2  502    0 -0.21232095667E+03  0.19568093930E+03  0.30855362163E+03  0.10518715768E+04  0.96325347544E+03 0.  0.
   -9000010    2    1    2    0  501  0.21232095667E+03 -0.19568093930E+03  0.74019355328E+03  0.12379771517E+04  0.94938385983E+03 0.  0.
        -13    1    3    3    0    0 -0.52395123520E+03  0.29632980529E+03  0.22526562000E-01  0.60194373661E+03  0.10566000000E+00 0.  1.
          4    1    3    3  502    0  0.31163027853E+03 -0.10064886599E+03  0.30853109507E+03  0.44992784016E+03  0.00000000000E+00 0.  1.
         13    1    4    4    0    0 -0.16483219662E+03 -0.26405368908E+03  0.79220342029E+03  0.85116406999E+03  0.10566000000E+00 0. -1.
         -4    1    4    4    0  501  0.37715315329E+03  0.68372749787E+02 -0.52009867017E+02  0.38681308176E+03  0.00000000000E+00 0. -1.
<mgrwt>
<rscale>  2 0.99893771E+03</rscale>
<asrwt>0</asrwt>
<pdfrwt beam="1">  1        2 0.25681507E+00 0.99893771E+03</pdfrwt>
<pdfrwt beam="2">  1       -2 0.95469351E-01 0.99893771E+03</pdfrwt>
<totfact> 0.14429930E+01</totfact>
</mgrwt>
</event>
<event>
 8    1  0.7046235E-006  0.1164701E+04  0.7818608E-02  0.8633628E-01
         -2   -1    0    0    0  501 -0.00000000000E+00  0.00000000000E+00  0.49694214531E+03  0.49694214531E+03  0.00000000000E+00 0. -1.
          2   -1    0    0  502    0  0.00000000000E+00 -0.00000000000E+00 -0.29469352153E+04  0.29469352153E+04  0.00000000000E+00 0.  1.
    9000010    2    1    2  502    0 -0.54220856870E+03  0.27012962774E+03 -0.16939929470E+04  0.20566537534E+04  0.99662049393E+03 0.  0.
   -9000010    2    1    2    0  501  0.54220856870E+03 -0.27012962774E+03 -0.75600012291E+03  0.13872236072E+04  0.99292144845E+03 0.  0.
        -13    1    3    3    0    0 -0.42195900758E+02 -0.20453013253E+03 -0.11757763138E+04  0.11941788059E+04  0.10566000000E+00 0.  1.
          4    1    3    3  502    0 -0.50001266794E+03  0.47465976026E+03 -0.51821663326E+03  0.86247494752E+03  0.00000000000E+00 0.  1.
         13    1    4    4    0    0 -0.32641346525E+02  0.21483057299E+03  0.10723499618E+03  0.24231588509E+03  0.10566000000E+00 0. -1.
         -4    1    4    4    0  501  0.57484991522E+03 -0.48496020073E+03 -0.86323511909E+03  0.11449077221E+04  0.00000000000E+00 0. -1.
<mgrwt>
<rscale>  2 0.11647008E+04</rscale>
<asrwt>0</asrwt>
<pdfrwt beam="2">  1        2 0.45337465E+00 0.11647008E+04</pdfrwt>
<pdfrwt beam="1">  1       -2 0.76452637E-01 0.11647008E+04</pdfrwt>
<totfact> 0.45017418E+00</totfact>
</mgrwt>
</event>
<event>
 8    1  0.7046235E-006  0.1143163E+04  0.7818608E-02  0.8650637E-01
          1   -1    0    0  502    0  0.00000000000E+00  0.00000000000E+00  0.76139503386E+03  0.76139503386E+03  0.00000000000E+00 0.  1.
         -1   -1    0    0    0  501 -0.00000000000E+00 -0.00000000000E+00 -0.17439226201E+04  0.17439226201E+04  0.00000000000E+00 0. -1.
    9000010    2    1    2  502    0  0.53912738316E+03  0.10639684356E+03 -0.64715274781E+03  0.13104200687E+04  0.99820611797E+03 0.  0.
   -9000010    2    1    2    0  501 -0.53912738316E+03 -0.10639684356E+03 -0.33537483841E+03  0.11948975852E+04  0.10066406177E+04 0.  0.
        -13    1    3    3    0    0  0.30919212815E+03  0.87520022353E+02 -0.90740915798E+03  0.96262709165E+03  0.10566000000E+00 0.  1.
          4    1    3    3  502    0  0.22993525501E+03  0.18876821208E+02  0.26025641017E+03  0.34779297709E+03  0.00000000000E+00 0.  1.
         13    1    4    4    0    0 -0.62029748854E+03 -0.41283448007E+03 -0.43475663900E+03  0.86267875165E+03  0.10566000000E+00 0. -1.
         -4    1    4    4    0  501  0.81170105383E+02  0.30643763651E+03  0.99381800593E+02  0.33221883355E+03  0.00000000000E+00 0. -1.
<mgrwt>
<rscale>  2 0.11431630E+04</rscale>
<asrwt>0</asrwt>
<pdfrwt beam="1">  1        1 0.11713770E+00 0.11431630E+04</pdfrwt>
<pdfrwt beam="2">  1       -1 0.26829579E+00 0.11431630E+04</pdfrwt>
<totfact> 0.10349177E+00</totfact>
</mgrwt>
</event>
<event>
 8    1  0.7046235E-006  0.1148333E+04  0.7818608E-02  0.8646518E-01
          2   -1    0    0  502    0  0.00000000000E+00  0.00000000000E+00  0.26756935798E+04  0.26756935798E+04  0.00000000000E+00 0. -1.
         -2   -1    0    0    0  501 -0.00000000000E+00 -0.00000000000E+00 -0.53219217910E+03  0.53219217910E+03  0.00000000000E+00 0.  1.
    9000010    2    1    2  502    0  0.52723978473E+03  0.12395578122E+03  0.15184664247E+04  0.19114449338E+04  0.10269053636E+04 0.  0.
   -9000010    2    1    2    0  501 -0.52723978473E+03 -0.12395578122E+03  0.62503497607E+03  0.12964408251E+04  0.99837030477E+03 0.  0.
        -13    1    3    3    0    0  0.24391559501E+03  0.47096878837E+02 -0.99098243953E+02  0.26745729865E+03  0.10566000000E+00 0.  1.
          4    1    3    3  502    0  0.28332418972E+03  0.76858902382E+02  0.16175646686E+04  0.16439876351E+04  0.00000000000E+00 0.  1.
         13    1    4    4    0    0  0.19846485568E+01  0.32063702992E+03  0.50008193766E+03  0.59404881897E+03  0.10566000000E+00 0. -1.
         -4    1    4    4    0  501 -0.52922443328E+03 -0.44459281114E+03  0.12495303842E+03  0.70239200616E+03  0.00000000000E+00 0. -1.
<mgrwt>
<rscale>  2 0.11483332E+04</rscale>
<asrwt>0</asrwt>
<pdfrwt beam="1">  1        2 0.41164516E+00 0.11483332E+04</pdfrwt>
<pdfrwt beam="2">  1       -2 0.81875721E-01 0.11483332E+04</pdfrwt>
<totfact> 0.56348374E+00</totfact>
</mgrwt>
</event>
<event>
 8    1  0.7046235E-006  0.2171269E+04  0.7818608E-02  0.8102017E-01
          2   -1    0    0  502    0  0.00000000000E+00  0.00000000000E+00  0.16786927582E+04  0.16786927582E+04  0.00000000000E+00 0.  1.
         -2   -1    0    0    0  501 -0.00000000000E+00 -0.00000000000E+00 -0.28728033505E+04  0.28728033505E+04  0.00000000000E+00 0. -1.
    9000010    2    1    2  502    0  0.37624247807E+03  0.18987961774E+04 -0.93647936710E+03  0.23600766050E+04  0.97261639447E+03 0.  0.
   -9000010    2    1    2    0  501 -0.37624247807E+03 -0.18987961774E+04 -0.25763122517E+03  0.21914195037E+04  0.99446481448E+03 0.  0.
        -13    1    3    3    0    0 -0.19131866950E+03  0.23761563590E+03  0.10052324705E+03  0.32119924982E+03  0.10566000000E+00 0.  1.
          4    1    3    3  502    0  0.56756114757E+03  0.16611805415E+04 -0.10370026141E+04  0.20388773552E+04  0.00000000000E+00 0.  1.
         13    1    4    4    0    0  0.68066578188E+02 -0.98588336049E+03 -0.55507977828E+03  0.11334516447E+04  0.10566000000E+00 0. -1.
         -4    1    4    4    0  501 -0.44430905626E+03 -0.91291281694E+03  0.29744855311E+03  0.10579678589E+04  0.00000000000E+00 0. -1.
<mgrwt>
<rscale>  2 0.21712687E+04</rscale>
<asrwt>0</asrwt>
<pdfrwt beam="1">  1        2 0.25826043E+00 0.21712687E+04</pdfrwt>
<pdfrwt beam="2">  1       -2 0.44196974E+00 0.21712687E+04</pdfrwt>
<totfact> 0.44072324E-02</totfact>
</mgrwt>
</event>
<event>
 8    1  0.7046235E-006  0.1013387E+04  0.7818608E-02  0.8762115E-01
          2   -1    0    0  502    0  0.00000000000E+00  0.00000000000E+00  0.24872672276E+04  0.24872672276E+04  0.00000000000E+00 0. -1.
         -2   -1    0    0    0  501 -0.00000000000E+00 -0.00000000000E+00 -0.42157945908E+03  0.42157945908E+03  0.00000000000E+00 0.  1.
    9000010    2    1    2  502    0 -0.52606182721E+02  0.23821997322E+03  0.82684548249E+03  0.13101212309E+04  0.98652319871E+03 0.  0.
   -9000010    2    1    2    0  501  0.52606182721E+02 -0.23821997322E+03  0.12388422860E+04  0.15987254558E+04  0.98065116492E+03 0.  0.
        -13    1    3    3    0    0 -0.35834664557E+03 -0.17181759109E+02 -0.35193085692E+02  0.36048036796E+03  0.10566000000E+00 0.  1.
          4    1    3    3  502    0  0.30574046285E+03  0.25540173233E+03  0.86203856819E+03  0.94964086293E+03  0.00000000000E+00 0.  1.
         13    1    4    4    0    0 -0.37477042075E+02 -0.53549331540E+03  0.31126237725E+03  0.62051744390E+03  0.10566000000E+00 0. -1.
         -4    1    4    4    0  501  0.90083224796E+02  0.29727334219E+03  0.92757990880E+03  0.97820801191E+03  0.00000000000E+00 0. -1.
<mgrwt>
<rscale>  2 0.10133865E+04</rscale>
<asrwt>0</asrwt>
<pdfrwt beam="1">  1        2 0.38265649E+00 0.10133865E+04</pdfrwt>
<pdfrwt beam="2">  1       -2 0.64858380E-01 0.10133865E+04</pdfrwt>
<totfact> 0.12017150E+01</totfact>
</mgrwt>
</event>
<event>
 8    1  0.7046235E-006  0.1355947E+04  0.7818608E-02  0.8497557E-01
          2   -1    0    0  502    0  0.00000000000E+00  0.00000000000E+00  0.26028035781E+04  0.26028035781E+04  0.00000000000E+00 0. -1.
         -2   -1    0    0    0  501 -0.00000000000E+00 -0.00000000000E+00 -0.73318276355E+03  0.73318276355E+03  0.00000000000E+00 0.  1.
    9000010    2    1    2  502    0  0.82768243970E+03  0.37614516467E+03  0.61357804826E+03  0.14850201968E+04  0.10011311391E+04 0.  0.
   -9000010    2    1    2    0  501 -0.82768243970E+03 -0.37614516467E+03  0.12560427663E+04  0.18509661449E+04  0.10108851729E+04 0.  0.
        -13    1    3    3    0    0  0.84783984961E+03  0.51211783500E+03  0.78602689783E+03  0.12644901671E+04  0.10566000000E+00 0.  1.
          4    1    3    3  502    0 -0.20157409909E+02 -0.13597267034E+03 -0.17244884957E+03  0.22053002963E+03  0.00000000000E+00 0.  1.
         13    1    4    4    0    0 -0.69688500286E+03 -0.37214027044E+03  0.14297408312E+04  0.16334919478E+04  0.10566000000E+00 0. -1.
         -4    1    4    4    0  501 -0.13079743684E+03 -0.40048942321E+01 -0.17369806486E+03  0.21747419709E+03  0.00000000000E+00 0. -1.
<mgrwt>
<rscale>  2 0.13559474E+04</rscale>
<asrwt>0</asrwt>
<pdfrwt beam="1">  1        2 0.40043132E+00 0.13559474E+04</pdfrwt>
<pdfrwt beam="2">  1       -2 0.11279735E+00 0.13559474E+04</pdfrwt>
<totfact> 0.28329207E+00</totfact>
</mgrwt>
</event>
<event>
 8    1  0.7046235E-006  0.1189044E+04  0.7818608E-02  0.8614858E-01
          2   -1    0    0  502    0  0.00000000000E+00  0.00000000000E+00  0.24636572284E+04  0.24636572284E+04  0.00000000000E+00 0. -1.
         -2   -1    0    0    0  501 -0.00000000000E+00 -0.00000000000E+00 -0.61918892453E+03  0.61918892453E+03  0.00000000000E+00 0.  1.
    9000010    2    1    2  502    0  0.47825155446E+03 -0.41609090761E+03  0.13328198949E+04  0.17803559575E+04  0.99569185501E+03 0.  0.
   -9000010    2    1    2    0  501 -0.47825155446E+03  0.41609090761E+03  0.51164840893E+03  0.13024901955E+04  0.10162875687E+04 0.  0.
        -13    1    3    3    0    0 -0.22159043689E+02 -0.15652839613E+03 -0.13507605803E+03  0.20793680441E+03  0.10566000000E+00 0.  1.
          4    1    3    3  502    0  0.50041059815E+03 -0.25956251148E+03  0.14678959530E+04  0.15724191530E+04  0.00000000000E+00 0.  1.
         13    1    4    4    0    0  0.11334459499E+03  0.36667339987E+03 -0.15134305116E+03  0.41255437179E+03  0.10566000000E+00 0. -1.
         -4    1    4    4    0  501 -0.59159614946E+03  0.49417507742E+02  0.66299146009E+03  0.88993582369E+03  0.00000000000E+00 0. -1.
<mgrwt>
<rscale>  2 0.11890440E+04</rscale>
<asrwt>0</asrwt>
<pdfrwt beam="1">  1        2 0.37902418E+00 0.11890440E+04</pdfrwt>
<pdfrwt beam="2">  1       -2 0.95259836E-01 0.11890440E+04</pdfrwt>
<totfact> 0.52358907E+00</totfact>
</mgrwt>
</event>
<event>
 8    1  0.7046235E-006  0.1713220E+04  0.7818608E-02  0.8296353E-01
          1   -1    0    0  502    0  0.00000000000E+00  0.00000000000E+00  0.96517192545E+03  0.96517192545E+03  0.00000000000E+00 0.  1.
         -1   -1    0    0    0  501 -0.00000000000E+00 -0.00000000000E+00 -0.30410750901E+04  0.30410750901E+04  0.00000000000E+00 0. -1.
    9000010    2    1    2  502    0  0.61858936339E+03  0.12537113438E+04 -0.10455481898E+04  0.20080176178E+04  0.99222920839E+03 0.  0.
   -9000010    2    1    2    0  501 -0.61858936339E+03 -0.12537113438E+04 -0.10303549749E+04  0.19982293978E+04  0.98835439898E+03 0.  0.
        -13    1    3    3    0    0  0.65241248549E+03  0.79048439821E+03 -0.20141944070E+03  0.10445465223E+04  0.10566000000E+00 0.  1.
          4    1    3    3  502    0 -0.33823122099E+02  0.46322694559E+03 -0.84412874909E+03  0.96347109544E+03  0.00000000000E+00 0.  1.
         13    1    4    4    0    0 -0.35166572775E+03  0.71634440214E+02 -0.24774177964E+03  0.43609205180E+03  0.10566000000E+00 0. -1.
         -4    1    4    4    0  501 -0.26692363564E+03 -0.13253457840E+04 -0.78261319522E+03  0.15621373460E+04  0.00000000000E+00 0. -1.
<mgrwt>
<rscale>  2 0.17132204E+04</rscale>
<asrwt>0</asrwt>
<pdfrwt beam="1">  1        1 0.14848799E+00 0.17132204E+04</pdfrwt>
<pdfrwt beam="2">  1       -1 0.46785770E+00 0.17132204E+04</pdfrwt>
<totfact> 0.21752820E-01</totfact>
</mgrwt>
</event>
<event>
 8    1  0.7046235E-006  0.1407545E+04  0.7818608E-02  0.8464777E-01
          2   -1    0    0  502    0  0.00000000000E+00  0.00000000000E+00  0.93173952377E+03  0.93173952377E+03  0.00000000000E+00 0.  1.
         -2   -1    0    0    0  501 -0.00000000000E+00 -0.00000000000E+00 -0.22190972187E+04  0.22190972187E+04  0.00000000000E+00 0. -1.
    9000010    2    1    2  502    0 -0.84042523037E+03 -0.53792509113E+03 -0.31198954022E+03  0.14179970695E+04  0.95796672400E+03 0.  0.
   -9000010    2    1    2    0  501  0.84042523037E+03  0.53792509113E+03 -0.97536815473E+03  0.17328396730E+04  0.10274786244E+04 0.  0.
        -13    1    3    3    0    0 -0.85288628916E+03 -0.72126841530E+03 -0.76924127088E+02  0.11196251523E+04  0.10566000000E+00 0.  1.
          4    1    3    3  502    0  0.12461058791E+02  0.18334332417E+03 -0.23506541314E+03  0.29837191717E+03  0.00000000000E+00 0.  1.
         13    1    4    4    0    0 -0.10738336383E+02 -0.10630045720E+02 -0.67701696778E+03  0.67718556952E+03  0.10566000000E+00 0. -1.
         -4    1    4    4    0  501  0.85116356675E+03  0.54855513685E+03 -0.29835118695E+03  0.10556541035E+04  0.00000000000E+00 0. -1.
<mgrwt>
<rscale>  2 0.14075450E+04</rscale>
<asrwt>0</asrwt>
<pdfrwt beam="1">  1        2 0.14334454E+00 0.14075450E+04</pdfrwt>
<pdfrwt beam="2">  1       -2 0.34139957E+00 0.14075450E+04</pdfrwt>
<totfact> 0.37121651E-01</totfact>
</mgrwt>
</event>
<event>
 8    1  0.7046235E-006  0.1471198E+04  0.7818608E-02  0.8426270E-01
          1   -1    0    0  502    0  0.00000000000E+00  0.00000000000E+00  0.91818654240E+03  0.91818654240E+03  0.00000000000E+00 0. -1.
         -1   -1    0    0    0  501 -0.00000000000E+00 -0.00000000000E+00 -0.23924944129E+04  0.23924944129E+04  0.00000000000E+00 0.  1.
    9000010    2    1    2  502    0  0.47207526131E+03 -0.89272340346E+03 -0.90185126001E+03  0.16806029970E+04  0.99563076027E+03 0.  0.
   -9000010    2    1    2    0  501 -0.47207526131E+03  0.89272340346E+03 -0.57245661045E+03  0.16300779583E+04  0.11443939234E+04 0.  0.
        -13    1    3    3    0    0 -0.15480822499E+03  0.13530297216E+03 -0.20033600361E+03  0.28706620544E+03  0.10566000000E+00 0.  1.
          4    1    3    3  502    0  0.62688348631E+03 -0.10280263756E+04 -0.70151525640E+03  0.13935367915E+04  0.00000000000E+00 0.  1.
         13    1    4    4    0    0  0.27640614249E+03  0.28530636216E+03 -0.53376638541E+03  0.66536203773E+03  0.10566000000E+00 0. -1.
         -4    1    4    4    0  501 -0.74848140380E+03  0.60741704130E+03 -0.38690225041E+02  0.96471592057E+03  0.00000000000E+00 0. -1.
<mgrwt>
<rscale>  2 0.14711981E+04</rscale>
<asrwt>0</asrwt>
<pdfrwt beam="1">  1        1 0.14125947E+00 0.14711981E+04</pdfrwt>
<pdfrwt beam="2">  1       -1 0.36807606E+00 0.14711981E+04</pdfrwt>
<totfact> 0.23914440E-01</totfact>
</mgrwt>
</event>
<event>
 8    1  0.7046235E-006  0.1191632E+04  0.7818608E-02  0.8612890E-01
          1   -1    0    0  502    0  0.00000000000E+00  0.00000000000E+00  0.16960652943E+04  0.16960652943E+04  0.00000000000E+00 0. -1.
         -1   -1    0    0    0  501 -0.00000000000E+00 -0.00000000000E+00 -0.90117763518E+03  0.90117763518E+03  0.00000000000E+00 0.  1.
    9000010    2    1    2  502    0  0.29671901828E+03 -0.57339770423E+03  0.51233843152E+02  0.11918766707E+04  0.10005588380E+04 0.  0.
   -9000010    2    1    2    0  501 -0.29671901828E+03  0.57339770423E+03  0.74365381599E+03  0.14053662588E+04  0.10025997309E+04 0.  0.
        -13    1    3    3    0    0  0.21455902549E+03 -0.78944183113E+03 -0.20845718127E+03  0.84422058003E+03  0.10566000000E+00 0.  1.
          4    1    3    3  502    0  0.82159992789E+02  0.21604412691E+03  0.25969102442E+03  0.34765609063E+03  0.00000000000E+00 0.  1.
         13    1    4    4    0    0 -0.57443547444E+03  0.19567894229E+03  0.71192216935E+03  0.93546755643E+03  0.10566000000E+00 0. -1.
         -4    1    4    4    0  501  0.27771645615E+03  0.37771876193E+03  0.31731646638E+02  0.46989870242E+03  0.00000000000E+00 0. -1.
<mgrwt>
<rscale>  2 0.11916324E+04</rscale>
<asrwt>0</asrwt>
<pdfrwt beam="1">  1        1 0.26093312E+00 0.11916324E+04</pdfrwt>
<pdfrwt beam="2">  1       -1 0.13864271E+00 0.11916324E+04</pdfrwt>
<totfact> 0.28863130E+00</totfact>
</mgrwt>
</event>
<event>
 8    1  0.7046235E-006  0.1028740E+04  0.7818608E-02  0.8748047E-01
          4   -1    0    0  502    0  0.00000000000E+00  0.00000000000E+00  0.10405618097E+04  0.10405618097E+04  0.00000000000E+00 0.  1.
         -4   -1    0    0    0  501 -0.00000000000E+00 -0.00000000000E+00 -0.11777792791E+04  0.11777792791E+04  0.00000000000E+00 0. -1.
    9000010    2    1    2  502    0  0.44427460196E+02 -0.22090637405E+03  0.34078797006E+03  0.10887703889E+04  0.10092131063E+04 0.  0.
   -9000010    2    1    2    0  501 -0.44427460196E+02  0.22090637405E+03 -0.47800543944E+03  0.11295706999E+04  0.99833227964E+03 0.  0.
        -13    1    3    3    0    0 -0.34948855592E+03  0.10772168625E+03 -0.13428198391E+03  0.38958680005E+03  0.10566000000E+00 0.  1.
          4    1    3    3  502    0  0.39391601612E+03 -0.32862806029E+03  0.47506995396E+03  0.69918358885E+03  0.00000000000E+00 0.  1.
         13    1    4    4    0    0 -0.12509695076E+03  0.57110416657E+03 -0.50033431030E+03  0.76950870651E+03  0.10566000000E+00 0. -1.
         -4    1    4    4    0  501  0.80669490560E+02 -0.35019779252E+03  0.22328870857E+02  0.36006199337E+03  0.00000000000E+00 0. -1.
<mgrwt>
<rscale>  2 0.10287401E+04</rscale>
<asrwt>0</asrwt>
<pdfrwt beam="1">  1        4 0.16008643E+00 0.10287401E+04</pdfrwt>
<pdfrwt beam="2">  1       -4 0.18119681E+00 0.10287401E+04</pdfrwt>
<totfact> 0.28113323E-01</totfact>
</mgrwt>
</event>
<event>
 8    1  0.7046235E-006  0.1215002E+04  0.7818608E-02  0.8595350E-01
          2   -1    0    0  502    0  0.00000000000E+00  0.00000000000E+00  0.47111909033E+03  0.47111909033E+03  0.00000000000E+00 0. -1.
         -2   -1    0    0    0  501 -0.00000000000E+00 -0.00000000000E+00 -0.32928036821E+04  0.32928036821E+04  0.00000000000E+00 0.  1.
    9000010    2    1    2  502    0  0.60967768149E+03 -0.36994019163E+03 -0.18152130541E+04  0.21795994952E+04  0.97318698462E+03 0.  0.
   -9000010    2    1    2    0  501 -0.60967768149E+03  0.36994019163E+03 -0.10064715376E+04  0.15843232772E+04  0.99424980255E+03 0.  0.
        -13    1    3    3    0    0  0.60107667656E+03  0.57620586828E+02 -0.46165280366E+03  0.76008987983E+03  0.10566000000E+00 0.  1.
          4    1    3    3  502    0  0.86010049355E+01 -0.42756077846E+03 -0.13535602505E+04  0.14195096154E+04  0.00000000000E+00 0.  1.
         13    1    4    4    0    0 -0.26107605198E+03  0.38149178276E+03  0.56384475627E+02  0.46569937243E+03  0.10566000000E+00 0. -1.
         -4    1    4    4    0  501 -0.34860162951E+03 -0.11551591122E+02 -0.10628560133E+04  0.11186239048E+04  0.00000000000E+00 0. -1.
<mgrwt>
<rscale>  2 0.12150021E+04</rscale>
<asrwt>0</asrwt>
<pdfrwt beam="1">  1        2 0.72479862E-01 0.12150021E+04</pdfrwt>
<pdfrwt beam="2">  1       -2 0.50658517E+00 0.12150021E+04</pdfrwt>
<totfact> 0.25271129E-01</totfact>
</mgrwt>
</event>
<event>
 8    1  0.7046235E-006  0.1188253E+04  0.7818608E-02  0.8615461E-01
         -2   -1    0    0    0  501 -0.00000000000E+00  0.00000000000E+00  0.15885064254E+04  0.15885064254E+04  0.00000000000E+00 0. -1.
          2   -1    0    0  502    0  0.00000000000E+00 -0.00000000000E+00 -0.91993478377E+03  0.91993478377E+03  0.00000000000E+00 0.  1.
    9000010    2    1    2  502    0  0.63229940163E+03 -0.15749189491E+03  0.56071221378E+03  0.13017389615E+04  0.97750698569E+03 0.  0.
   -9000010    2    1    2    0  501 -0.63229940163E+03  0.15749189491E+03  0.10785942786E+03  0.12067022476E+04  0.10098962462E+04 0.  0.
        -13    1    3    3    0    0  0.45559148963E+03 -0.55220477676E+03  0.47972153128E+03  0.86175778478E+03  0.10566000000E+00 0.  1.
          4    1    3    3  502    0  0.17670791200E+03  0.39471288184E+03  0.80990682506E+02  0.43998117677E+03  0.00000000000E+00 0.  1.
         13    1    4    4    0    0  0.21863962741E+03  0.26534634276E+03  0.18577966956E+02  0.34432124580E+03  0.10566000000E+00 0. -1.
         -4    1    4    4    0  501 -0.85093902904E+03 -0.10785444785E+03  0.89281460900E+02  0.86238100183E+03  0.00000000000E+00 0. -1.
<mgrwt>
<rscale>  2 0.11882528E+04</rscale>
<asrwt>0</asrwt>
<pdfrwt beam="2">  1        2 0.14152843E+00 0.11882528E+04</pdfrwt>
<pdfrwt beam="1">  1       -2 0.24438560E+00 0.11882528E+04</pdfrwt>
<totfact> 0.18827160E+00</totfact>
</mgrwt>
</event>
<event>
 8    1  0.7046235E-006  0.1158688E+04  0.7818608E-02  0.8638338E-01
         -2   -1    0    0    0  501 -0.00000000000E+00  0.00000000000E+00  0.74146252197E+03  0.74146252197E+03  0.00000000000E+00 0.  1.
          2   -1    0    0  502    0  0.00000000000E+00 -0.00000000000E+00 -0.18131831817E+04  0.18131831817E+04  0.00000000000E+00 0. -1.
    9000010    2    1    2  502    0  0.31690003084E+03  0.48088403438E+03 -0.48693451528E+03  0.12534006709E+04  0.10011158453E+04 0.  0.
   -9000010    2    1    2    0  501 -0.31690003084E+03 -0.48088403438E+03 -0.58478614449E+03  0.13012450328E+04  0.10097468576E+04 0.  0.
        -13    1    3    3    0    0  0.22536427487E+03  0.69830784522E+03 -0.63876856417E+03  0.97285568962E+03  0.10566000000E+00 0.  1.
          4    1    3    3  502    0  0.91535755969E+02 -0.21742381084E+03  0.15183404889E+03  0.28054498132E+03  0.00000000000E+00 0.  1.
         13    1    4    4    0    0 -0.63028152738E+03 -0.33692574766E+03 -0.63089493360E+03  0.95331117249E+03  0.10566000000E+00 0. -1.
         -4    1    4    4    0  501  0.31338149655E+03 -0.14395828672E+03  0.46108789107E+02  0.34793386027E+03  0.00000000000E+00 0. -1.
<mgrwt>
<rscale>  2 0.11586880E+04</rscale>
<asrwt>0</asrwt>
<pdfrwt beam="2">  1        2 0.27895126E+00 0.11586880E+04</pdfrwt>
<pdfrwt beam="1">  1       -2 0.11407116E+00 0.11586880E+04</pdfrwt>
<totfact> 0.76599954E+00</totfact>
</mgrwt>
</event>
<event>
 8    1  0.7046235E-006  0.1630518E+04  0.7818608E-02  0.8338107E-01
          2   -1    0    0  502    0  0.00000000000E+00  0.00000000000E+00  0.42209537805E+04  0.42209537805E+04  0.00000000000E+00 0. -1.
         -2   -1    0    0    0  501 -0.00000000000E+00 -0.00000000000E+00 -0.64290881004E+03  0.64290881004E+03  0.00000000000E+00 0.  1.
    9000010    2    1    2  502    0  0.11512873378E+04 -0.65669468774E+03  0.14125876086E+04  0.21344780946E+04  0.89659496834E+03 0.  0.
   -9000010    2    1    2    0  501 -0.11512873378E+04  0.65669468774E+03  0.21654573619E+04  0.27293844959E+04  0.10018102083E+04 0.  0.
        -13    1    3    3    0    0  0.17125837371E+03 -0.52950796003E+03  0.79045696648E+03  0.96671109299E+03  0.10566000000E+00 0.  1.
          4    1    3    3  502    0  0.98002896410E+03 -0.12718672771E+03  0.62213064214E+03  0.11677670016E+04  0.00000000000E+00 0.  1.
         13    1    4    4    0    0 -0.89815650063E+03  0.81132260131E+03  0.21027463508E+04  0.24262052036E+04  0.10566000000E+00 0. -1.
         -4    1    4    4    0  501 -0.25313083719E+03 -0.15462791357E+03  0.62711011050E+02  0.30317929233E+03  0.00000000000E+00 0. -1.
<mgrwt>
<rscale>  2 0.16305178E+04</rscale>
<asrwt>0</asrwt>
<pdfrwt beam="1">  1        2 0.64937749E+00 0.16305178E+04</pdfrwt>
<pdfrwt beam="2">  1       -2 0.98909050E-01 0.16305178E+04</pdfrwt>
<totfact> 0.24972994E-01</totfact>
</mgrwt>
</event>
<event>
 8    1  0.7046235E-006  0.1213714E+04  0.7818608E-02  0.8596306E-01
          2   -1    0    0  502    0  0.00000000000E+00  0.00000000000E+00  0.21064900380E+04  0.21064900380E+04  0.00000000000E+00 0.  1.
         -2   -1    0    0    0  501 -0.00000000000E+00 -0.00000000000E+00 -0.80179377566E+03  0.80179377566E+03  0.00000000000E+00 0. -1.
    9000010    2    1    2  502    0 -0.56133435080E+03  0.47345498721E+03  0.11630692560E+04  0.16678057668E+04  0.94318084330E+03 0.  0.
   -9000010    2    1    2    0  501  0.56133435080E+03 -0.47345498721E+03  0.14162700637E+03  0.12404780469E+04  0.98968262468E+03 0.  0.
        -13    1    3    3    0    0  0.16796717479E+03 -0.15243754429E+03  0.15313841795E+03  0.27368149907E+03  0.10566000000E+00 0.  1.
          4    1    3    3  502    0 -0.72930152559E+03  0.62589253150E+03  0.10099308380E+04  0.13941242677E+04  0.00000000000E+00 0.  1.
         13    1    4    4    0    0 -0.17553348336E+02 -0.41843065923E+03 -0.29588113458E+03  0.51277479812E+03  0.10566000000E+00 0. -1.
         -4    1    4    4    0  501  0.57888769913E+03 -0.55024327978E+02  0.43750814095E+03  0.72770324878E+03  0.00000000000E+00 0. -1.
<mgrwt>
<rscale>  2 0.12137139E+04</rscale>
<asrwt>0</asrwt>
<pdfrwt beam="1">  1        2 0.32407539E+00 0.12137139E+04</pdfrwt>
<pdfrwt beam="2">  1       -2 0.12335289E+00 0.12137139E+04</pdfrwt>
<totfact> 0.42945815E+00</totfact>
</mgrwt>
</event>
<event>
 8    1  0.7046235E-006  0.1848690E+04  0.7818608E-02  0.8232943E-01
         -1   -1    0    0    0  501 -0.00000000000E+00  0.00000000000E+00  0.28058999286E+04  0.28058999286E+04  0.00000000000E+00 0.  1.
          1   -1    0    0  502    0  0.00000000000E+00 -0.00000000000E+00 -0.12202265749E+04  0.12202265749E+04  0.00000000000E+00 0. -1.
    9000010    2    1    2  502    0 -0.10087199560E+04  0.11850395651E+04  0.88091081039E+03  0.20538892359E+04  0.10102585892E+04 0.  0.
   -9000010    2    1    2    0  501  0.10087199560E+04 -0.11850395651E+04  0.70476254331E+03  0.19722372676E+04  0.98549220014E+03 0.  0.
        -13    1    3    3    0    0 -0.16685011264E+03 -0.58466219490E+02 -0.15044689799E+03  0.23214551296E+03  0.10566000000E+00 0.  1.
          4    1    3    3  502    0 -0.84186984336E+03  0.12435057846E+04  0.10313577084E+04  0.18217437230E+04  0.00000000000E+00 0.  1.
         13    1    4    4    0    0 -0.80037890485E+02  0.43116299709E+02  0.25461369059E+03  0.27035758138E+03  0.10566000000E+00 0. -1.
         -4    1    4    4    0  501  0.10887578465E+04 -0.12281558648E+04  0.45014885273E+03  0.17018796862E+04  0.00000000000E+00 0. -1.
<mgrwt>
<rscale>  2 0.18486898E+04</rscale>
<asrwt>0</asrwt>
<pdfrwt beam="2">  1        1 0.18772717E+00 0.18486898E+04</pdfrwt>
<pdfrwt beam="1">  1       -1 0.43167691E+00 0.18486898E+04</pdfrwt>
<totfact> 0.14850218E-01</totfact>
</mgrwt>
</event>
<event>
 8    1  0.7046235E-006  0.1856793E+04  0.7818608E-02  0.8229328E-01
          1   -1    0    0  502    0  0.00000000000E+00  0.00000000000E+00  0.22007531942E+04  0.22007531942E+04  0.00000000000E+00 0.  1.
         -1   -1    0    0    0  501 -0.00000000000E+00 -0.00000000000E+00 -0.16770971134E+04  0.16770971134E+04  0.00000000000E+00 0. -1.
    9000010    2    1    2  502    0 -0.12484617035E+04  0.95612941542E+03 -0.23379671831E+03  0.18855489664E+04  0.10138017138E+04 0.  0.
   -9000010    2    1    2    0  501  0.12484617035E+04 -0.95612941542E+03  0.75745279904E+03  0.19923013412E+04  0.96056744023E+03 0.  0.
        -13    1    3    3    0    0 -0.18424864352E+03  0.42973343014E+03  0.32891441363E+03  0.57166693649E+03  0.10566000000E+00 0.  1.
          4    1    3    3  502    0 -0.10642130600E+04  0.52639598528E+03 -0.56271113193E+03  0.13138820299E+04  0.00000000000E+00 0.  1.
         13    1    4    4    0    0  0.70836170229E+03 -0.62668090836E+03  0.94039341710E+03  0.13337335012E+04  0.10566000000E+00 0. -1.
         -4    1    4    4    0  501  0.54010000125E+03 -0.32944850706E+03 -0.18294061806E+03  0.65856784001E+03  0.00000000000E+00 0. -1.
<mgrwt>
<rscale>  2 0.18567933E+04</rscale>
<asrwt>0</asrwt>
<pdfrwt beam="1">  1        1 0.33857742E+00 0.18567933E+04</pdfrwt>
<pdfrwt beam="2">  1       -1 0.25801494E+00 0.18567933E+04</pdfrwt>
<totfact> 0.90112713E-02</totfact>
</mgrwt>
</event>
<event>
 8    1  0.7046235E-006  0.1384425E+04  0.7818608E-02  0.8479284E-01
         -1   -1    0    0    0  501 -0.00000000000E+00  0.00000000000E+00  0.20090270456E+04  0.20090270456E+04  0.00000000000E+00 0. -1.
          1   -1    0    0  502    0  0.00000000000E+00 -0.00000000000E+00 -0.99497310311E+03  0.99497310311E+03  0.00000000000E+00 0.  1.
    9000010    2    1    2  502    0 -0.63697249746E+03 -0.72253520519E+03  0.20197385440E+03  0.13982549990E+04  0.99324343403E+03 0.  0.
   -9000010    2    1    2    0  501  0.63697249746E+03  0.72253520519E+03  0.81208008810E+03  0.16057451497E+04  0.99556633679E+03 0.  0.
        -13    1    3    3    0    0 -0.16321471632E+03  0.20630056696E+03 -0.14372613657E+03  0.29976020591E+03  0.10566000000E+00 0.  1.
          4    1    3    3  502    0 -0.47375778114E+03 -0.92883577215E+03  0.34569999097E+03  0.10984947931E+04  0.00000000000E+00 0.  1.
         13    1    4    4    0    0 -0.20243491862E+03  0.47119032226E+01  0.35854620141E+03  0.41177358830E+03  0.10566000000E+00 0. -1.
         -4    1    4    4    0  501  0.83940741607E+03  0.71782330197E+03  0.45353388669E+03  0.11939715614E+04  0.00000000000E+00 0. -1.
<mgrwt>
<rscale>  2 0.13844248E+04</rscale>
<asrwt>0</asrwt>
<pdfrwt beam="2">  1        1 0.15307279E+00 0.13844248E+04</pdfrwt>
<pdfrwt beam="1">  1       -1 0.30908108E+00 0.13844248E+04</pdfrwt>
<totfact> 0.27171114E-01</totfact>
</mgrwt>
</event>
<event>
 8    1  0.7046235E-006  0.1204425E+04  0.7818608E-02  0.8603238E-01
         -1   -1    0    0    0  501 -0.00000000000E+00  0.00000000000E+00  0.36400575955E+04  0.36400575955E+04  0.00000000000E+00 0.  1.
          1   -1    0    0  502    0  0.00000000000E+00 -0.00000000000E+00 -0.43259922861E+03  0.43259922861E+03  0.00000000000E+00 0. -1.
    9000010    2    1    2  502    0  0.20477300405E+03 -0.69016574803E+03  0.22174386565E+04  0.25416546020E+04  0.10122811752E+04 0.  0.
   -9000010    2    1    2    0  501 -0.20477300405E+03  0.69016574803E+03  0.99001971042E+03  0.15310022221E+04  0.91954773348E+03 0.  0.
        -13    1    3    3    0    0  0.15814789907E+03 -0.86836995249E+03  0.11058833135E+04  0.14149399445E+04  0.10566000000E+00 0.  1.
          4    1    3    3  502    0  0.46625104976E+02  0.17820420446E+03  0.11115553430E+04  0.11267146575E+04  0.00000000000E+00 0.  1.
         13    1    4    4    0    0 -0.29050600788E+03  0.87594055862E+03  0.63160015230E+03  0.11182952948E+04  0.10566000000E+00 0. -1.
         -4    1    4    4    0  501  0.85733003839E+02 -0.18577481059E+03  0.35841955812E+03  0.41270692729E+03  0.00000000000E+00 0. -1.
<mgrwt>
<rscale>  2 0.12044246E+04</rscale>
<asrwt>0</asrwt>
<pdfrwt beam="2">  1        1 0.66553730E-01 0.12044246E+04</pdfrwt>
<pdfrwt beam="1">  1       -1 0.56000884E+00 0.12044246E+04</pdfrwt>
<totfact> 0.37530893E-01</totfact>
</mgrwt>
</event>
<event>
 8    1  0.7046235E-006  0.1580558E+04  0.7818608E-02  0.8364589E-01
          2   -1    0    0  502    0  0.00000000000E+00  0.00000000000E+00  0.25173524755E+04  0.25173524755E+04  0.00000000000E+00 0. -1.
         -2   -1    0    0    0  501 -0.00000000000E+00 -0.00000000000E+00 -0.10010419672E+04  0.10010419672E+04  0.00000000000E+00 0.  1.
    9000010    2    1    2  502    0  0.30106308419E+03  0.11790949416E+04  0.92407119669E+03  0.18351258183E+04  0.10163047429E+04 0.  0.
   -9000010    2    1    2    0  501 -0.30106308419E+03 -0.11790949416E+04  0.59223931167E+03  0.16832686244E+04  0.10008706199E+04 0.  0.
        -13    1    3    3    0    0 -0.17206714232E+03  0.45280038893E+02  0.50760580824E+03  0.53788572310E+03  0.10566000000E+00 0.  1.
          4    1    3    3  502    0  0.47313022651E+03  0.11338149027E+04  0.41646538845E+03  0.12972400952E+04  0.00000000000E+00 0.  1.
         13    1    4    4    0    0  0.21989624732E+03 -0.95411851091E+03  0.52733911148E+03  0.11121074778E+04  0.10566000000E+00 0. -1.
         -4    1    4    4    0  501 -0.52095933151E+03 -0.22497643069E+03  0.64900200199E+02  0.57116114665E+03  0.00000000000E+00 0. -1.
<mgrwt>
<rscale>  2 0.15805581E+04</rscale>
<asrwt>0</asrwt>
<pdfrwt beam="1">  1        2 0.38728500E+00 0.15805581E+04</pdfrwt>
<pdfrwt beam="2">  1       -2 0.15400646E+00 0.15805581E+04</pdfrwt>
<totfact> 0.12877485E+00</totfact>
</mgrwt>
</event>
<event>
 8    1  0.7046235E-006  0.1176044E+04  0.7818608E-02  0.8624823E-01
          2   -1    0    0  502    0  0.00000000000E+00  0.00000000000E+00  0.23452875034E+04  0.23452875034E+04  0.00000000000E+00 0.  1.
         -2   -1    0    0    0  501 -0.00000000000E+00 -0.00000000000E+00 -0.61722901276E+03  0.61722901276E+03  0.00000000000E+00 0. -1.
    9000010    2    1    2  502    0  0.38290654145E+03 -0.47889572205E+03  0.11756600167E+04  0.16618649174E+04  0.10018283270E+04 0.  0.
   -9000010    2    1    2    0  501 -0.38290654145E+03  0.47889572205E+03  0.55239847389E+03  0.13006515987E+04  0.10052820376E+04 0.  0.
        -13    1    3    3    0    0  0.46869485153E+03  0.13049956687E+03  0.24136921901E+03  0.54310598584E+03  0.10566000000E+00 0.  1.
          4    1    3    3  502    0 -0.85788310078E+02 -0.60939528893E+03  0.93429079771E+03  0.11187589316E+04  0.00000000000E+00 0.  1.
         13    1    4    4    0    0 -0.58153709788E+03  0.51770328198E+03  0.70250663993E+03  0.10486742462E+04  0.10566000000E+00 0. -1.
         -4    1    4    4    0  501  0.19863055643E+03 -0.38807559929E+02 -0.15010816604E+03  0.25197735248E+03  0.00000000000E+00 0. -1.
<mgrwt>
<rscale>  2 0.11760443E+04</rscale>
<asrwt>0</asrwt>
<pdfrwt beam="1">  1        2 0.36081346E+00 0.11760443E+04</pdfrwt>
<pdfrwt beam="2">  1       -2 0.94958311E-01 0.11760443E+04</pdfrwt>
<totfact> 0.61389907E+00</totfact>
</mgrwt>
</event>
<event>
 8    1  0.7046235E-006  0.1761627E+04  0.7818608E-02  0.8273024E-01
         -2   -1    0    0    0  501 -0.00000000000E+00  0.00000000000E+00  0.58785195557E+03  0.58785195557E+03  0.00000000000E+00 0.  1.
          2   -1    0    0  502    0  0.00000000000E+00 -0.00000000000E+00 -0.52852248399E+04  0.52852248399E+04  0.00000000000E+00 0. -1.
    9000010    2    1    2  502    0  0.22104493603E+03  0.14126003521E+04 -0.22228394722E+04  0.28188501943E+04  0.98010228070E+03 0.  0.
   -9000010    2    1    2    0  501 -0.22104493603E+03 -0.14126003521E+04 -0.24745334122E+04  0.30542266011E+04  0.10773504095E+04 0.  0.
        -13    1    3    3    0    0 -0.14888710320E+03  0.68096326841E+03 -0.36206795536E+03  0.78547537064E+03  0.10566000000E+00 0.  1.
          4    1    3    3  502    0  0.36993203923E+03  0.73163708365E+03 -0.18607715168E+04  0.20333748237E+04  0.00000000000E+00 0.  1.
         13    1    4    4    0    0 -0.45063938954E+03 -0.26036183894E+03 -0.12656207592E+04  0.13684517031E+04  0.10566000000E+00 0. -1.
         -4    1    4    4    0  501  0.22959445351E+03 -0.11522385131E+04 -0.12089126530E+04  0.16857748980E+04  0.00000000000E+00 0. -1.
<mgrwt>
<rscale>  2 0.17616273E+04</rscale>
<asrwt>0</asrwt>
<pdfrwt beam="2">  1        2 0.81311156E+00 0.17616273E+04</pdfrwt>
<pdfrwt beam="1">  1       -2 0.90438757E-01 0.17616273E+04</pdfrwt>
<totfact> 0.33758701E-02</totfact>
</mgrwt>
</event>
<event>
 8    1  0.7046235E-006  0.1141754E+04  0.7818608E-02  0.8651763E-01
          2   -1    0    0  502    0  0.00000000000E+00  0.00000000000E+00  0.21929365863E+04  0.21929365863E+04  0.00000000000E+00 0. -1.
         -2   -1    0    0    0  501 -0.00000000000E+00 -0.00000000000E+00 -0.66747606328E+03  0.66747606328E+03  0.00000000000E+00 0.  1.
    9000010    2    1    2  502    0  0.52315425968E+03 -0.70521208741E+02  0.12098974615E+04  0.16373431993E+04  0.96869874816E+03 0.  0.
   -9000010    2    1    2    0  501 -0.52315425968E+03  0.70521208741E+02  0.31556306150E+03  0.12230694503E+04  0.10571921368E+04 0.  0.
        -13    1    3    3    0    0  0.50804849015E+03 -0.20368704380E+03  0.14799008765E+03  0.56701213158E+03  0.10566000000E+00 0.  1.
          4    1    3    3  502    0  0.15105769528E+02  0.13316583506E+03  0.10619073739E+04  0.10703310677E+04  0.00000000000E+00 0.  1.
         13    1    4    4    0    0 -0.70372978015E+03 -0.28316998142E+03  0.83581011796E+02  0.76315571055E+03  0.10566000000E+00 0. -1.
         -4    1    4    4    0  501  0.18057552047E+03  0.35369119016E+03  0.23198204971E+03  0.45991373971E+03  0.00000000000E+00 0. -1.
<mgrwt>
<rscale>  2 0.11417537E+04</rscale>
<asrwt>0</asrwt>
<pdfrwt beam="1">  1        2 0.33737486E+00 0.11417537E+04</pdfrwt>
<pdfrwt beam="2">  1       -2 0.10268863E+00 0.11417537E+04</pdfrwt>
<totfact> 0.61947311E+00</totfact>
</mgrwt>
</event>
<event>
 8    1  0.7046235E-006  0.1102121E+04  0.7818608E-02  0.8684153E-01
          2   -1    0    0  502    0  0.00000000000E+00  0.00000000000E+00  0.11765852120E+04  0.11765852120E+04  0.00000000000E+00 0.  1.
         -2   -1    0    0    0  501 -0.00000000000E+00 -0.00000000000E+00 -0.11816004257E+04  0.11816004257E+04  0.00000000000E+00 0. -1.
    9000010    2    1    2  502    0  0.38821110940E+03  0.26289008761E+03  0.41649200770E+03  0.11817769137E+04  0.10016546400E+04 0.  0.
   -9000010    2    1    2    0  501 -0.38821110940E+03 -0.26289008761E+03 -0.42150722139E+03  0.11764087239E+04  0.99320193537E+03 0.  0.
        -13    1    3    3    0    0 -0.21617522749E+03  0.23113068788E+03  0.47818223854E+03  0.57342077768E+03  0.10566000000E+00 0.  1.
          4    1    3    3  502    0  0.60438633689E+03  0.31759399722E+02 -0.61690230834E+02  0.60835613605E+03  0.00000000000E+00 0.  1.
         13    1    4    4    0    0 -0.50343380148E+03 -0.14164465683E+03 -0.68651858882E+03  0.86302756923E+03  0.10566000000E+00 0. -1.
         -4    1    4    4    0  501  0.11522269208E+03 -0.12124543077E+03  0.26501136744E+03  0.31338115470E+03  0.00000000000E+00 0. -1.
<mgrwt>
<rscale>  2 0.11021211E+04</rscale>
<asrwt>0</asrwt>
<pdfrwt beam="1">  1        2 0.18101311E+00 0.11021211E+04</pdfrwt>
<pdfrwt beam="2">  1       -2 0.18178468E+00 0.11021211E+04</pdfrwt>
<totfact> 0.43159399E+00</totfact>
</mgrwt>
</event>
<event>
 8    1  0.7046235E-006  0.1316520E+04  0.7818608E-02  0.8523632E-01
         -2   -1    0    0    0  501 -0.00000000000E+00  0.00000000000E+00  0.11349394361E+04  0.11349394361E+04  0.00000000000E+00 0. -1.
          2   -1    0    0  502    0  0.00000000000E+00 -0.00000000000E+00 -0.15717925651E+04  0.15717925651E+04  0.00000000000E+00 0.  1.
    9000010    2    1    2  502    0 -0.47508316081E+03 -0.70726722572E+03 -0.44720943785E+03  0.13948606456E+04  0.10098064177E+04 0.  0.
   -9000010    2    1    2    0  501  0.47508316081E+03  0.70726722572E+03  0.10356308875E+02  0.13118713556E+04  0.99748095836E+03 0.  0.
        -13    1    3    3    0    0  0.62591311602E+02 -0.63810166565E+03  0.70789666009E+02  0.64506014911E+03  0.10566000000E+00 0.  1.
          4    1    3    3  502    0 -0.53767447241E+03 -0.69165560070E+02 -0.51799910386E+03  0.74980049652E+03  0.00000000000E+00 0.  1.
         13    1    4    4    0    0  0.78057215977E+02  0.67503475913E+03  0.37127813472E+03  0.77434638211E+03  0.10566000000E+00 0. -1.
         -4    1    4    4    0  501  0.39702594484E+03  0.32232466589E+02 -0.36092182585E+03  0.53752497351E+03  0.00000000000E+00 0. -1.
<mgrwt>
<rscale>  2 0.13165202E+04</rscale>
<asrwt>0</asrwt>
<pdfrwt beam="2">  1        2 0.24181424E+00 0.13165202E+04</pdfrwt>
<pdfrwt beam="1">  1       -2 0.17460607E+00 0.13165202E+04</pdfrwt>
<totfact> 0.29174669E+00</totfact>
</mgrwt>
</event>
<event>
 8    1  0.7046235E-006  0.1528906E+04  0.7818608E-02  0.8393055E-01
         -2   -1    0    0    0  501 -0.00000000000E+00  0.00000000000E+00  0.79190651996E+03  0.79190651996E+03  0.00000000000E+00 0.  1.
          2   -1    0    0  502    0  0.00000000000E+00 -0.00000000000E+00 -0.40224324919E+04  0.40224324919E+04  0.00000000000E+00 0. -1.
    9000010    2    1    2  502    0  0.10775317295E+04 -0.44099165220E+03 -0.28592964402E+04  0.32437088426E+04  0.99525004747E+03 0.  0.
   -9000010    2    1    2    0  501 -0.10775317295E+04  0.44099165220E+03 -0.37122953171E+03  0.15706301693E+04  0.98667091678E+03 0.  0.
        -13    1    3    3    0    0  0.83504368024E+03 -0.15917128048E+03 -0.27148887555E+04  0.28448645680E+04  0.10566000000E+00 0.  1.
          4    1    3    3  502    0  0.24248804926E+03 -0.28182037172E+03 -0.14440768472E+03  0.39884427457E+03  0.00000000000E+00 0.  1.
         13    1    4    4    0    0 -0.44054400434E+03  0.70695142603E+03 -0.25082551062E+03  0.86992688570E+03  0.10566000000E+00 0. -1.
         -4    1    4    4    0  501 -0.63698772517E+03 -0.26595977384E+03 -0.12040402109E+03  0.70070328357E+03  0.00000000000E+00 0. -1.
<mgrwt>
<rscale>  2 0.15289061E+04</rscale>
<asrwt>0</asrwt>
<pdfrwt beam="2">  1        2 0.61883578E+00 0.15289061E+04</pdfrwt>
<pdfrwt beam="1">  1       -2 0.12183177E+00 0.15289061E+04</pdfrwt>
<totfact> 0.22729985E-01</totfact>
</mgrwt>
</event>
<event>
 8    1  0.7046235E-006  0.1378341E+04  0.7818608E-02  0.8483149E-01
          2   -1    0    0  502    0  0.00000000000E+00  0.00000000000E+00  0.30799752740E+04  0.30799752740E+04  0.00000000000E+00 0. -1.
         -2   -1    0    0    0  501 -0.00000000000E+00 -0.00000000000E+00 -0.62893387059E+03  0.62893387059E+03  0.00000000000E+00 0.  1.
    9000010    2    1    2  502    0 -0.86108006803E+03 -0.34019433387E+03  0.14914065129E+04  0.20378487949E+04  0.10350571268E+04 0.  0.
   -9000010    2    1    2    0  501  0.86108006803E+03  0.34019433387E+03  0.95963489050E+03  0.16710603497E+04  0.10071506843E+04 0.  0.
        -13    1    3    3    0    0 -0.92478230129E+03  0.11242670092E+03  0.10081020935E+04  0.13726368456E+04  0.10566000000E+00 0.  1.
          4    1    3    3  502    0  0.63702233257E+02 -0.45262103479E+03  0.48330441935E+03  0.66521194925E+03  0.00000000000E+00 0.  1.
         13    1    4    4    0    0 -0.21321411260E+03  0.82471320434E+02  0.36776383028E+02  0.23154759774E+03  0.10566000000E+00 0. -1.
         -4    1    4    4    0  501  0.10742941806E+04  0.25772301344E+03  0.92285850747E+03  0.14395127519E+04  0.00000000000E+00 0. -1.
<mgrwt>
<rscale>  2 0.13783415E+04</rscale>
<asrwt>0</asrwt>
<pdfrwt beam="1">  1        2 0.47384234E+00 0.13783415E+04</pdfrwt>
<pdfrwt beam="2">  1       -2 0.96759058E-01 0.13783415E+04</pdfrwt>
<totfact> 0.21282477E+00</totfact>
</mgrwt>
</event>
<event>
 8    1  0.7046235E-006  0.1174986E+04  0.7818608E-02  0.8625640E-01
         -4   -1    0    0    0  501 -0.00000000000E+00  0.00000000000E+00  0.42698230621E+03  0.42698230621E+03  0.00000000000E+00 0. -1.
          4   -1    0    0  502    0  0.00000000000E+00 -0.00000000000E+00 -0.32767392839E+04  0.32767392839E+04  0.00000000000E+00 0.  1.
    9000010    2    1    2  502    0 -0.57745116599E+03  0.19415697784E+03 -0.16492941240E+04  0.20308702818E+04  0.10164232449E+04 0.  0.
   -9000010    2    1    2    0  501  0.57745116599E+03 -0.19415697784E+03 -0.12004628537E+04  0.16728513083E+04  0.99306276517E+03 0.  0.
        -13    1    3    3    0    0 -0.21061922788E+03  0.21121112285E+03  0.41054424673E+02  0.30109147201E+03  0.10566000000E+00 0.  1.
          4    1    3    3  502    0 -0.36683193811E+03 -0.17054145015E+02 -0.16903485487E+04  0.17297788097E+04  0.00000000000E+00 0.  1.
         13    1    4    4    0    0  0.11599710898E+03  0.22789678291E+02 -0.11548754492E+04  0.11609099935E+04  0.10566000000E+00 0. -1.
         -4    1    4    4    0  501  0.46145405701E+03 -0.21694665613E+03 -0.45587404449E+02  0.51194131479E+03  0.00000000000E+00 0. -1.
<mgrwt>
<rscale>  2 0.11749860E+04</rscale>
<asrwt>0</asrwt>
<pdfrwt beam="2">  1        4 0.50411376E+00 0.11749860E+04</pdfrwt>
<pdfrwt beam="1">  1       -4 0.65689582E-01 0.11749860E+04</pdfrwt>
<totfact> 0.11125435E-01</totfact>
</mgrwt>
</event>
<event>
 8    1  0.7046235E-006  0.1010664E+04  0.7818608E-02  0.8764636E-01
         -2   -1    0    0    0  501 -0.00000000000E+00  0.00000000000E+00  0.93825905300E+03  0.93825905300E+03  0.00000000000E+00 0.  1.
          2   -1    0    0  502    0  0.00000000000E+00 -0.00000000000E+00 -0.10887523395E+04  0.10887523395E+04  0.00000000000E+00 0. -1.
    9000010    2    1    2  502    0 -0.19470299527E+03  0.73738724575E+02 -0.65715129928E+02  0.10128627603E+04  0.98905300007E+03 0.  0.
   -9000010    2    1    2    0  501  0.19470299527E+03 -0.73738724575E+02 -0.84778156550E+02  0.10141486322E+04  0.98892034893E+03 0.  0.
        -13    1    3    3    0    0 -0.28472576832E+03 -0.39248045128E+03  0.12568769966E+03  0.50090625549E+03  0.10566000000E+00 0.  1.
          4    1    3    3  502    0  0.90022773050E+02  0.46621917585E+03 -0.19140282959E+03  0.51195650477E+03  0.00000000000E+00 0.  1.
         13    1    4    4    0    0  0.20114272655E+03 -0.10029803399E+03 -0.52603775711E+03  0.57204355179E+03  0.10566000000E+00 0. -1.
         -4    1    4    4    0  501 -0.64397312832E+01  0.26559309420E+02  0.44125960056E+03  0.44210508043E+03  0.00000000000E+00 0. -1.
<mgrwt>
<rscale>  2 0.10106638E+04</rscale>
<asrwt>0</asrwt>
<pdfrwt beam="2">  1        2 0.16750036E+00 0.10106638E+04</pdfrwt>
<pdfrwt beam="1">  1       -2 0.14434755E+00 0.10106638E+04</pdfrwt>
<totfact> 0.10252896E+01</totfact>
</mgrwt>
</event>
<event>
 8    1  0.7046235E-006  0.1403422E+04  0.7818608E-02  0.8467344E-01
         -1   -1    0    0    0  501 -0.00000000000E+00  0.00000000000E+00  0.18373787103E+04  0.18373787103E+04  0.00000000000E+00 0. -1.
          1   -1    0    0  502    0  0.00000000000E+00 -0.00000000000E+00 -0.13360021344E+04  0.13360021344E+04  0.00000000000E+00 0.  1.
    9000010    2    1    2  502    0  0.45867913100E+03  0.87607289429E+03 -0.45480724978E+03  0.14745479618E+04  0.99476218056E+03 0.  0.
   -9000010    2    1    2    0  501 -0.45867913100E+03 -0.87607289429E+03  0.95618382572E+03  0.16988328829E+04  0.99692296292E+03 0.  0.
        -13    1    3    3    0    0 -0.19017183208E+03  0.28609145117E+03 -0.48818146010E+03  0.59693784710E+03  0.10566000000E+00 0.  1.
          4    1    3    3  502    0  0.64885096307E+03  0.58998144312E+03  0.33374210326E+02  0.87761011470E+03  0.00000000000E+00 0.  1.
         13    1    4    4    0    0  0.17298632220E+03 -0.11199477733E+03 -0.11769421346E+03  0.23731632236E+03  0.10566000000E+00 0. -1.
         -4    1    4    4    0  501 -0.63166545319E+03 -0.76407811696E+03  0.10738780392E+04  0.14615165605E+04  0.00000000000E+00 0. -1.
<mgrwt>
<rscale>  2 0.14034218E+04</rscale>
<asrwt>0</asrwt>
<pdfrwt beam="2">  1        1 0.20553879E+00 0.14034218E+04</pdfrwt>
<pdfrwt beam="1">  1       -1 0.28267365E+00 0.14034218E+04</pdfrwt>
<totfact> 0.24827724E-01</totfact>
</mgrwt>
</event>
<event>
 8    1  0.7046235E-006  0.1305280E+04  0.7818608E-02  0.8531238E-01
         -2   -1    0    0    0  501 -0.00000000000E+00  0.00000000000E+00  0.13815654105E+04  0.13815654105E+04  0.00000000000E+00 0.  1.
          2   -1    0    0  502    0  0.00000000000E+00 -0.00000000000E+00 -0.17709822512E+04  0.17709822512E+04  0.00000000000E+00 0. -1.
    9000010    2    1    2  502    0  0.63372829663E+03 -0.53355441063E+03  0.67266480481E+03  0.14782535245E+04  0.10229680738E+04 0.  0.
   -9000010    2    1    2    0  501 -0.63372829663E+03  0.53355441063E+03 -0.10620816455E+04  0.16742941372E+04  0.99446044320E+03 0.  0.
        -13    1    3    3    0    0  0.90918300333E+03 -0.45816407010E+03  0.60664825702E+03  0.11851371936E+04  0.10566000000E+00 0.  1.
          4    1    3    3  502    0 -0.27545470669E+03 -0.75390340531E+02  0.66016547788E+02  0.29311633094E+03  0.00000000000E+00 0.  1.
         13    1    4    4    0    0 -0.30997635360E+03 -0.11235438461E+03  0.64477815884E+02  0.33595572244E+03  0.10566000000E+00 0. -1.
         -4    1    4    4    0  501 -0.32375194303E+03  0.64590879524E+03 -0.11265594614E+04  0.13383384148E+04  0.00000000000E+00 0. -1.
<mgrwt>
<rscale>  2 0.13052804E+04</rscale>
<asrwt>0</asrwt>
<pdfrwt beam="2">  1        2 0.27245881E+00 0.13052804E+04</pdfrwt>
<pdfrwt beam="1">  1       -2 0.21254853E+00 0.13052804E+04</pdfrwt>
<totfact> 0.11013954E+00</totfact>
</mgrwt>
</event>
<event>
 8    1  0.7046235E-006  0.1494941E+04  0.7818608E-02  0.8412416E-01
          2   -1    0    0  502    0  0.00000000000E+00  0.00000000000E+00  0.15861748231E+04  0.15861748231E+04  0.00000000000E+00 0.  1.
         -2   -1    0    0    0  501 -0.00000000000E+00 -0.00000000000E+00 -0.14693990338E+04  0.14693990338E+04  0.00000000000E+00 0. -1.
    9000010    2    1    2  502    0  0.92489821140E+03  0.61641655513E+03  0.36830137854E+03  0.15410400280E+04  0.10018744391E+04 0.  0.
   -9000010    2    1    2    0  501 -0.92489821140E+03 -0.61641655513E+03 -0.25152558925E+03  0.15145338289E+04  0.99756780511E+03 0.  0.
        -13    1    3    3    0    0  0.83634009479E+03  0.86692699630E+03  0.18612311652E+03  0.12188802225E+04  0.10566000000E+00 0.  1.
          4    1    3    3  502    0  0.88558116617E+02 -0.25051044118E+03  0.18217826202E+03  0.32215980555E+03  0.00000000000E+00 0.  1.
         13    1    4    4    0    0 -0.83677930109E+03 -0.83344524464E+03 -0.38837909622E+03  0.12432493346E+04  0.10566000000E+00 0. -1.
         -4    1    4    4    0  501 -0.88118910313E+02  0.21702868952E+03  0.13685350697E+03  0.27128449421E+03  0.00000000000E+00 0. -1.
<mgrwt>
<rscale>  2 0.14949411E+04</rscale>
<asrwt>0</asrwt>
<pdfrwt beam="1">  1        2 0.24402690E+00 0.14949411E+04</pdfrwt>
<pdfrwt beam="2">  1       -2 0.22606139E+00 0.14949411E+04</pdfrwt>
<totfact> 0.10576740E+00</totfact>
</mgrwt>
</event>
<event>
 8    1  0.7046235E-006  0.1188610E+04  0.7818608E-02  0.8615189E-01
         -2   -1    0    0    0  501 -0.00000000000E+00  0.00000000000E+00  0.42820860440E+03  0.42820860440E+03  0.00000000000E+00 0. -1.
          2   -1    0    0  502    0  0.00000000000E+00 -0.00000000000E+00 -0.33068199661E+04  0.33068199661E+04  0.00000000000E+00 0.  1.
    9000010    2    1    2  502    0  0.63278651538E+03  0.13133214664E+03 -0.15338867300E+04  0.19435287533E+04  0.10034084950E+04 0.  0.
   -9000010    2    1    2    0  501 -0.63278651538E+03 -0.13133214664E+03 -0.13447246317E+04  0.17914998172E+04  0.99172594654E+03 0.  0.
        -13    1    3    3    0    0  0.75932030554E+03  0.40955998368E+03 -0.12928438670E+04  0.15542689543E+04  0.10566000000E+00 0.  1.
          4    1    3    3  502    0 -0.12653379015E+03 -0.27822783704E+03 -0.24104286301E+03  0.38925979906E+03  0.00000000000E+00 0.  1.
         13    1    4    4    0    0 -0.85794769772E+03 -0.20030944436E+03 -0.76881854477E+03  0.11693075265E+04  0.10566000000E+00 0. -1.
         -4    1    4    4    0  501  0.22516118234E+03  0.68977297727E+02 -0.57590608694E+03  0.62219229070E+03  0.00000000000E+00 0. -1.
<mgrwt>
<rscale>  2 0.11886098E+04</rscale>
<asrwt>0</asrwt>
<pdfrwt beam="2">  1        2 0.50874150E+00 0.11886098E+04</pdfrwt>
<pdfrwt beam="1">  1       -2 0.65878251E-01 0.11886098E+04</pdfrwt>
<totfact> 0.36212082E+00</totfact>
</mgrwt>
</event>
<event>
 8    1  0.7046235E-006  0.1341794E+04  0.7818608E-02  0.8506811E-01
         -2   -1    0    0    0  501 -0.00000000000E+00  0.00000000000E+00  0.42212216961E+04  0.42212216961E+04  0.00000000000E+00 0. -1.
          2   -1    0    0  502    0  0.00000000000E+00 -0.00000000000E+00 -0.43199292612E+03  0.43199292612E+03  0.00000000000E+00 0.  1.
    9000010    2    1    2  502    0 -0.88224771626E+03 -0.10275644034E+03  0.21471158292E+04  0.25283958417E+04  0.99687473106E+03 0.  0.
   -9000010    2    1    2    0  501  0.88224771626E+03  0.10275644034E+03  0.16421129407E+04  0.21248187805E+04  0.10145935250E+04 0.  0.
        -13    1    3    3    0    0 -0.13457584276E+03  0.14544917841E+03  0.14882913345E+04  0.15014250658E+04  0.10566000000E+00 0.  1.
          4    1    3    3  502    0 -0.74767187350E+03 -0.24820561875E+03  0.65882449478E+03  0.10269707759E+04  0.00000000000E+00 0.  1.
         13    1    4    4    0    0  0.90546790609E+02 -0.25351237663E+03  0.10247614911E+04  0.10595297878E+04  0.10566000000E+00 0. -1.
         -4    1    4    4    0  501  0.79170092565E+03  0.35626881697E+03  0.61735144963E+03  0.10652889927E+04  0.00000000000E+00 0. -1.
<mgrwt>
<rscale>  2 0.13417941E+04</rscale>
<asrwt>0</asrwt>
<pdfrwt beam="2">  1        2 0.66460453E-01 0.13417941E+04</pdfrwt>
<pdfrwt beam="1">  1       -2 0.64941870E+00 0.13417941E+04</pdfrwt>
<totfact> 0.35634609E-01</totfact>
</mgrwt>
</event>
<event>
 8    1  0.7046235E-006  0.1141743E+04  0.7818608E-02  0.8651771E-01
          2   -1    0    0  502    0  0.00000000000E+00  0.00000000000E+00  0.13464796363E+04  0.13464796363E+04  0.00000000000E+00 0.  1.
         -2   -1    0    0    0  501 -0.00000000000E+00 -0.00000000000E+00 -0.10796401610E+04  0.10796401610E+04  0.00000000000E+00 0. -1.
    9000010    2    1    2  502    0  0.46006508658E+03  0.25028285226E+02 -0.25806828892E+03  0.11484227575E+04  0.10197986513E+04 0.  0.
   -9000010    2    1    2    0  501 -0.46006508658E+03 -0.25028285226E+02  0.52490776418E+03  0.12776970398E+04  0.10699043255E+04 0.  0.
        -13    1    3    3    0    0 -0.15564557584E+03  0.37573818954E+03 -0.13964930036E+03  0.43000775646E+03  0.10566000000E+00 0.  1.
          4    1    3    3  502    0  0.61571066242E+03 -0.35070990431E+03 -0.11841898856E+03  0.71841500100E+03  0.00000000000E+00 0.  1.
         13    1    4    4    0    0 -0.19966674396E+03 -0.11606843166E+03 -0.31673842803E+03  0.39199736278E+03  0.10566000000E+00 0. -1.
         -4    1    4    4    0  501 -0.26039834262E+03  0.91040146430E+02  0.84164619220E+03  0.88569967706E+03  0.00000000000E+00 0. -1.
<mgrwt>
<rscale>  2 0.11417433E+04</rscale>
<asrwt>0</asrwt>
<pdfrwt beam="1">  1        2 0.20715071E+00 0.11417433E+04</pdfrwt>
<pdfrwt beam="2">  1       -2 0.16609849E+00 0.11417433E+04</pdfrwt>
<totfact> 0.46616731E+00</totfact>
</mgrwt>
</event>
<event>
 8    1  0.7046235E-006  0.1694750E+04  0.7818608E-02  0.8305464E-01
          2   -1    0    0  502    0  0.00000000000E+00  0.00000000000E+00  0.98970570491E+03  0.98970570491E+03  0.00000000000E+00 0.  1.
         -2   -1    0    0    0  501 -0.00000000000E+00 -0.00000000000E+00 -0.40217706587E+04  0.40217706587E+04  0.00000000000E+00 0. -1.
    9000010    2    1    2  502    0  0.12410969686E+04 -0.58559386636E+03 -0.19444926946E+03  0.17067432134E+04  0.99595181420E+03 0.  0.
   -9000010    2    1    2    0  501 -0.12410969686E+04  0.58559386636E+03 -0.28376156844E+04  0.33047331503E+04  0.99295345337E+03 0.  0.
        -13    1    3    3    0    0 -0.13510168888E+03 -0.24204679600E+03 -0.31467205373E+02  0.27897905651E+03  0.10566000000E+00 0.  1.
          4    1    3    3  502    0  0.13761986575E+04 -0.34354707036E+03 -0.16298206408E+03  0.14277641569E+04  0.00000000000E+00 0.  1.
         13    1    4    4    0    0 -0.40137783383E+03  0.54611573565E+03 -0.20254859852E+04  0.21358698579E+04  0.10566000000E+00 0. -1.
         -4    1    4    4    0  501 -0.83971913477E+03  0.39478130714E+02 -0.81212969912E+03  0.11688632924E+04  0.00000000000E+00 0. -1.
<mgrwt>
<rscale>  2 0.16947503E+04</rscale>
<asrwt>0</asrwt>
<pdfrwt beam="1">  1        2 0.15226242E+00 0.16947503E+04</pdfrwt>
<pdfrwt beam="2">  1       -2 0.61873393E+00 0.16947503E+04</pdfrwt>
<totfact> 0.15172970E-01</totfact>
</mgrwt>
</event>
<event>
 8    1  0.7046235E-006  0.1059023E+04  0.7818608E-02  0.8721028E-01
          1   -1    0    0  502    0  0.00000000000E+00  0.00000000000E+00  0.16944471447E+04  0.16944471447E+04  0.00000000000E+00 0. -1.
         -1   -1    0    0    0  501 -0.00000000000E+00 -0.00000000000E+00 -0.78627488976E+03  0.78627488976E+03  0.00000000000E+00 0.  1.
    9000010    2    1    2  502    0 -0.47678250046E+03  0.27878274065E+02  0.91715407169E+03  0.13526560729E+04  0.87201382408E+03 0.  0.
   -9000010    2    1    2    0  501  0.47678250046E+03 -0.27878274065E+02 -0.89818167443E+01  0.11280659616E+04  0.10219360987E+04 0.  0.
        -13    1    3    3    0    0 -0.37883073586E+03  0.22507167596E+02  0.10898552954E+04  0.11540380736E+04  0.10566000000E+00 0.  1.
          4    1    3    3  502    0 -0.97951764602E+02  0.53711064688E+01 -0.17270122376E+03  0.19861799934E+03  0.00000000000E+00 0.  1.
         13    1    4    4    0    0  0.78037965897E+02 -0.62059887713E+02 -0.49130909407E+03  0.50132423726E+03  0.10566000000E+00 0. -1.
         -4    1    4    4    0  501  0.39874453456E+03  0.34181613648E+02  0.48232727732E+03  0.62674172432E+03  0.00000000000E+00 0. -1.
<mgrwt>
<rscale>  2 0.10590227E+04</rscale>
<asrwt>0</asrwt>
<pdfrwt beam="1">  1        1 0.26068418E+00 0.10590227E+04</pdfrwt>
<pdfrwt beam="2">  1       -1 0.12096537E+00 0.10590227E+04</pdfrwt>
<totfact> 0.42125874E+00</totfact>
</mgrwt>
</event>
<event>
 8    1  0.7046235E-006  0.1257737E+04  0.7818608E-02  0.8564309E-01
          2   -1    0    0  502    0  0.00000000000E+00  0.00000000000E+00  0.10544218356E+04  0.10544218356E+04  0.00000000000E+00 0. -1.
         -2   -1    0    0    0  501 -0.00000000000E+00 -0.00000000000E+00 -0.17836888792E+04  0.17836888792E+04  0.00000000000E+00 0.  1.
    9000010    2    1    2  502    0  0.39025538723E+03  0.64029709770E+03  0.20224170877E+03  0.12689218468E+04  0.10034845809E+04 0.  0.
   -9000010    2    1    2    0  501 -0.39025538723E+03 -0.64029709770E+03 -0.93150875232E+03  0.15691888680E+04  0.10160538899E+04 0.  0.
        -13    1    3    3    0    0  0.41674406231E+03  0.59753351292E+02 -0.28677878531E+03  0.50939980303E+03  0.10566000000E+00 0.  1.
          4    1    3    3  502    0 -0.26488675074E+02  0.58054374641E+03  0.48902049408E+03  0.75952204381E+03  0.00000000000E+00 0.  1.
         13    1    4    4    0    0  0.53388253475E+02  0.88733931699E+02 -0.66806503202E+03  0.67604357434E+03  0.10566000000E+00 0. -1.
         -4    1    4    4    0  501 -0.44364364071E+03 -0.72903102940E+03 -0.26344372031E+03  0.89314529363E+03  0.00000000000E+00 0. -1.
<mgrwt>
<rscale>  2 0.12577369E+04</rscale>
<asrwt>0</asrwt>
<pdfrwt beam="1">  1        2 0.16221875E+00 0.12577369E+04</pdfrwt>
<pdfrwt beam="2">  1       -2 0.27441367E+00 0.12577369E+04</pdfrwt>
<totfact> 0.90857792E-01</totfact>
</mgrwt>
</event>
<event>
 8    1  0.7046235E-006  0.1293222E+04  0.7818608E-02  0.8539486E-01
          2   -1    0    0  502    0  0.00000000000E+00  0.00000000000E+00  0.10999962874E+04  0.10999962874E+04  0.00000000000E+00 0.  1.
         -2   -1    0    0    0  501 -0.00000000000E+00 -0.00000000000E+00 -0.15235022358E+04  0.15235022358E+04  0.00000000000E+00 0. -1.
    9000010    2    1    2  502    0  0.79731538945E+03  0.51422571800E+02 -0.27127356370E+03  0.13229487695E+04  0.10189445467E+04 0.  0.
   -9000010    2    1    2    0  501 -0.79731538945E+03 -0.51422571800E+02 -0.15223238464E+03  0.13005497537E+04  0.10148393231E+04 0.  0.
        -13    1    3    3    0    0  0.83485693086E+03 -0.32696178490E+03 -0.88191519766E+02  0.90092611190E+03  0.10566000000E+00 0.  1.
          4    1    3    3  502    0 -0.37541541411E+02  0.37838435670E+03 -0.18308204393E+03  0.42202265761E+03  0.00000000000E+00 0.  1.
         13    1    4    4    0    0 -0.10341387961E+04  0.39988936393E+02 -0.87689595733E+02  0.10386200658E+04  0.10566000000E+00 0. -1.
         -4    1    4    4    0  501  0.23682340669E+03 -0.91411508193E+02 -0.64542788907E+02  0.26192968787E+03  0.00000000000E+00 0. -1.
<mgrwt>
<rscale>  2 0.12932225E+04</rscale>
<asrwt>0</asrwt>
<pdfrwt beam="1">  1        2 0.16923020E+00 0.12932225E+04</pdfrwt>
<pdfrwt beam="2">  1       -2 0.23438496E+00 0.12932225E+04</pdfrwt>
<totfact> 0.17376107E+00</totfact>
</mgrwt>
</event>
<event>
 8    1  0.7046235E-006  0.1132877E+04  0.7818608E-02  0.8658897E-01
          1   -1    0    0  502    0  0.00000000000E+00  0.00000000000E+00  0.17999138927E+04  0.17999138927E+04  0.00000000000E+00 0. -1.
         -1   -1    0    0    0  501 -0.00000000000E+00 -0.00000000000E+00 -0.10488146045E+04  0.10488146045E+04  0.00000000000E+00 0.  1.
    9000010    2    1    2  502    0  0.25816804923E+03 -0.50973216961E+03 -0.42776881811E+03  0.12213818414E+04  0.99111543943E+03 0.  0.
   -9000010    2    1    2    0  501 -0.25816804923E+03  0.50973216961E+03  0.11788681063E+04  0.16273466558E+04  0.96542710738E+03 0.  0.
        -13    1    3    3    0    0  0.26071652490E+03 -0.33874061733E+03  0.26825509120E+03  0.50465742569E+03  0.10566000000E+00 0.  1.
          4    1    3    3  502    0 -0.25484756676E+01 -0.17099155227E+03 -0.69602390931E+03  0.71672441567E+03  0.00000000000E+00 0.  1.
         13    1    4    4    0    0  0.73189441601E+01  0.51958096277E+03  0.11685687531E+03  0.53261006777E+03  0.10566000000E+00 0. -1.
         -4    1    4    4    0  501 -0.26548699339E+03 -0.98487931672E+01  0.10620112310E+04  0.10947365880E+04  0.00000000000E+00 0. -1.
<mgrwt>
<rscale>  2 0.11328774E+04</rscale>
<asrwt>0</asrwt>
<pdfrwt beam="1">  1        1 0.27690983E+00 0.11328774E+04</pdfrwt>
<pdfrwt beam="2">  1       -1 0.16135609E+00 0.11328774E+04</pdfrwt>
<totfact> 0.15480564E+00</totfact>
</mgrwt>
</event>
<event>
 8    1  0.7046235E-006  0.1123020E+04  0.7818608E-02  0.8666900E-01
          1   -1    0    0  502    0  0.00000000000E+00  0.00000000000E+00  0.17064438878E+04  0.17064438878E+04  0.00000000000E+00 0.  1.
         -1   -1    0    0    0  501 -0.00000000000E+00 -0.00000000000E+00 -0.77560273228E+03  0.77560273228E+03  0.00000000000E+00 0. -1.
    9000010    2    1    2  502    0  0.52407191080E+03  0.11415663836E+02  0.73503187485E+03  0.13427198235E+04  0.99390290392E+03 0.  0.
   -9000010    2    1    2    0  501 -0.52407191080E+03 -0.11415663836E+02  0.19580928068E+03  0.11393267966E+04  0.99244273884E+03 0.  0.
        -13    1    3    3    0    0  0.65844030916E+03  0.23022612780E+03  0.16390823015E+03  0.71652887571E+03  0.10566000000E+00 0.  1.
          4    1    3    3  502    0 -0.13436839836E+03 -0.21881046396E+03  0.57112364470E+03  0.62619094784E+03  0.00000000000E+00 0.  1.
         13    1    4    4    0    0  0.15264680932E+03 -0.13644546808E+03 -0.24713403457E+03  0.32092624754E+03  0.10566000000E+00 0. -1.
         -4    1    4    4    0  501 -0.67671872012E+03  0.12502980424E+03  0.44294331524E+03  0.81840054901E+03  0.00000000000E+00 0. -1.
<mgrwt>
<rscale>  2 0.11230199E+04</rscale>
<asrwt>0</asrwt>
<pdfrwt beam="1">  1        1 0.26252983E+00 0.11230199E+04</pdfrwt>
<pdfrwt beam="2">  1       -1 0.11932350E+00 0.11230199E+04</pdfrwt>
<totfact> 0.42309312E+00</totfact>
</mgrwt>
</event>
<event>
 8    1  0.7046235E-006  0.1350401E+04  0.7818608E-02  0.8501170E-01
         -2   -1    0    0    0  501 -0.00000000000E+00  0.00000000000E+00  0.13019839052E+04  0.13019839052E+04  0.00000000000E+00 0. -1.
          2   -1    0    0  502    0  0.00000000000E+00 -0.00000000000E+00 -0.14275272519E+04  0.14275272519E+04  0.00000000000E+00 0.  1.
    9000010    2    1    2  502    0  0.36460367759E+03 -0.82738554940E+03  0.12479295103E+03  0.13487477663E+04  0.99299776811E+03 0.  0.
   -9000010    2    1    2    0  501 -0.36460367759E+03  0.82738554940E+03 -0.25033629768E+03  0.13807633908E+04  0.10130827165E+04 0.  0.
        -13    1    3    3    0    0 -0.38220956198E+01 -0.10606590495E+03 -0.37987716904E+03  0.39442522654E+03  0.10566000000E+00 0.  1.
          4    1    3    3  502    0  0.36842577321E+03 -0.72131964445E+03  0.50467012008E+03  0.95432253978E+03  0.00000000000E+00 0.  1.
         13    1    4    4    0    0 -0.48599900761E+03  0.10106255726E+04 -0.28789229391E+03  0.11577741868E+04  0.10566000000E+00 0. -1.
         -4    1    4    4    0  501  0.12139533002E+03 -0.18324002325E+03  0.37555996227E+02  0.22298920405E+03  0.00000000000E+00 0. -1.
<mgrwt>
<rscale>  2 0.13504007E+04</rscale>
<asrwt>0</asrwt>
<pdfrwt beam="2">  1        2 0.21961958E+00 0.13504007E+04</pdfrwt>
<pdfrwt beam="1">  1       -2 0.20030522E+00 0.13504007E+04</pdfrwt>
<totfact> 0.21326257E+00</totfact>
</mgrwt>
</event>
<event>
 8    1  0.7046235E-006  0.1344437E+04  0.7818608E-02  0.8505074E-01
         -2   -1    0    0    0  501 -0.00000000000E+00  0.00000000000E+00  0.10303521163E+04  0.10303521163E+04  0.00000000000E+00 0.  1.
          2   -1    0    0  502    0  0.00000000000E+00 -0.00000000000E+00 -0.18143114375E+04  0.18143114375E+04  0.00000000000E+00 0. -1.
    9000010    2    1    2  502    0  0.30849496696E+03 -0.84302435082E+03 -0.13309465062E+03  0.13505464771E+04  0.10002011798E+04 0.  0.
   -9000010    2    1    2    0  501 -0.30849496696E+03  0.84302435082E+03 -0.65086467056E+03  0.14941170767E+04  0.10014498584E+04 0.  0.
        -13    1    3    3    0    0  0.17583568912E+03 -0.50201499083E-01 -0.41591108180E+03  0.45155313222E+03  0.10566000000E+00 0.  1.
          4    1    3    3  502    0  0.13265927785E+03 -0.84297414932E+03  0.28281643118E+03  0.89899334490E+03  0.00000000000E+00 0.  1.
         13    1    4    4    0    0  0.34147978026E+02 -0.22168732629E+03 -0.78140890403E+02  0.23752339876E+03  0.10566000000E+00 0. -1.
         -4    1    4    4    0  501 -0.34264294499E+03  0.10647116771E+04 -0.57272378015E+03  0.12565936780E+04  0.00000000000E+00 0. -1.
<mgrwt>
<rscale>  2 0.13444370E+04</rscale>
<asrwt>0</asrwt>
<pdfrwt beam="2">  1        2 0.27912483E+00 0.13444370E+04</pdfrwt>
<pdfrwt beam="1">  1       -2 0.15851571E+00 0.13444370E+04</pdfrwt>
<totfact> 0.29385979E+00</totfact>
</mgrwt>
</event>
<event>
 8    1  0.7046235E-006  0.1294811E+04  0.7818608E-02  0.8538394E-01
          4   -1    0    0  502    0  0.00000000000E+00  0.00000000000E+00  0.84721524392E+03  0.84721524392E+03  0.00000000000E+00 0.  1.
         -4   -1    0    0    0  501 -0.00000000000E+00 -0.00000000000E+00 -0.21485722634E+04  0.21485722634E+04  0.00000000000E+00 0. -1.
    9000010    2    1    2  502    0 -0.79356365860E+03  0.17611992356E+03 -0.22602125354E+03  0.13063182714E+04  0.99730652833E+03 0.  0.
   -9000010    2    1    2    0  501  0.79356365860E+03 -0.17611992356E+03 -0.10753357659E+04  0.16894692359E+04  0.10184290755E+04 0.  0.
        -13    1    3    3    0    0 -0.30671252535E+03  0.37077526964E+02  0.39729129400E+03  0.50327696119E+03  0.10566000000E+00 0.  1.
          4    1    3    3  502    0 -0.48685113325E+03  0.13904239659E+03 -0.62331254754E+03  0.80304131022E+03  0.00000000000E+00 0.  1.
         13    1    4    4    0    0  0.46317588007E+03  0.41424454312E+03 -0.44013096928E+03  0.76147601319E+03  0.10566000000E+00 0. -1.
         -4    1    4    4    0  501  0.33038777853E+03 -0.59036446667E+03 -0.63520479665E+03  0.92799322271E+03  0.00000000000E+00 0. -1.
<mgrwt>
<rscale>  2 0.12948110E+04</rscale>
<asrwt>0</asrwt>
<pdfrwt beam="1">  1        4 0.13034081E+00 0.12948110E+04</pdfrwt>
<pdfrwt beam="2">  1       -4 0.33054957E+00 0.12948110E+04</pdfrwt>
<totfact> 0.15306511E-01</totfact>
</mgrwt>
</event>
<event>
 8    1  0.7046235E-006  0.1216541E+04  0.7818608E-02  0.8594210E-01
          1   -1    0    0  502    0  0.00000000000E+00  0.00000000000E+00  0.42848540471E+04  0.42848540471E+04  0.00000000000E+00 0.  1.
         -1   -1    0    0    0  501 -0.00000000000E+00 -0.00000000000E+00 -0.41982676329E+03  0.41982676329E+03  0.00000000000E+00 0. -1.
    9000010    2    1    2  502    0  0.50671127322E+01  0.70529469950E+03  0.29157124033E+04  0.31572109383E+04  0.98444695206E+03 0.  0.
   -9000010    2    1    2    0  501 -0.50671127322E+01 -0.70529469950E+03  0.94931488055E+03  0.15474698721E+04  0.99799698094E+03 0.  0.
        -13    1    3    3    0    0 -0.26373205146E+03  0.77751695027E+03  0.26428285986E+04  0.27674230280E+04  0.10566000000E+00 0.  1.
          4    1    3    3  502    0  0.26879916420E+03 -0.72222250775E+02  0.27288380468E+03  0.38978791033E+03  0.00000000000E+00 0.  1.
         13    1    4    4    0    0  0.11097027846E+03 -0.94599260364E+03  0.78031752089E+03  0.12313049392E+04  0.10566000000E+00 0. -1.
         -4    1    4    4    0  501 -0.11603739119E+03  0.24069790414E+03  0.16899735966E+03  0.31616493289E+03  0.00000000000E+00 0. -1.
<mgrwt>
<rscale>  2 0.12165411E+04</rscale>
<asrwt>0</asrwt>
<pdfrwt beam="1">  1        1 0.65920828E+00 0.12165411E+04</pdfrwt>
<pdfrwt beam="2">  1       -1 0.64588736E-01 0.12165411E+04</pdfrwt>
<totfact> 0.97954564E-02</totfact>
</mgrwt>
</event>
<event>
 8    1  0.7046235E-006  0.1369244E+04  0.7818608E-02  0.8488968E-01
         -1   -1    0    0    0  501 -0.00000000000E+00  0.00000000000E+00  0.98041287305E+03  0.98041287305E+03  0.00000000000E+00 0.  1.
          1   -1    0    0  502    0  0.00000000000E+00 -0.00000000000E+00 -0.21908399561E+04  0.21908399561E+04  0.00000000000E+00 0. -1.
    9000010    2    1    2  502    0  0.11774749446E+03  0.92969315453E+03 -0.39743810680E+02  0.13696253801E+04  0.99804823396E+03 0.  0.
   -9000010    2    1    2    0  501 -0.11774749446E+03 -0.92969315453E+03 -0.11706832723E+04  0.18016274490E+04  0.99858314970E+03 0.  0.
        -13    1    3    3    0    0  0.82126799330E+02 -0.12591507228E+03  0.23435742942E+03  0.27842922347E+03  0.10566000000E+00 0.  1.
          4    1    3    3  502    0  0.35620695127E+02  0.10556082268E+04 -0.27410124010E+03  0.10911961566E+04  0.00000000000E+00 0.  1.
         13    1    4    4    0    0  0.37197353202E+03 -0.73638650799E+03 -0.85311472907E+03  0.11867746837E+04  0.10566000000E+00 0. -1.
         -4    1    4    4    0  501 -0.48972102648E+03 -0.19330664654E+03 -0.31756854326E+03  0.61485276534E+03  0.00000000000E+00 0. -1.
<mgrwt>
<rscale>  2 0.13692436E+04</rscale>
<asrwt>0</asrwt>
<pdfrwt beam="2">  1        1 0.33705229E+00 0.13692436E+04</pdfrwt>
<pdfrwt beam="1">  1       -1 0.15083275E+00 0.13692436E+04</pdfrwt>
<totfact> 0.92587415E-01</totfact>
</mgrwt>
</event>
<event>
 8    1  0.7046235E-006  0.1583602E+04  0.7818608E-02  0.8362947E-01
         -2   -1    0    0    0  501 -0.00000000000E+00  0.00000000000E+00  0.29174897318E+04  0.29174897318E+04  0.00000000000E+00 0.  1.
          2   -1    0    0  502    0  0.00000000000E+00 -0.00000000000E+00 -0.88584920773E+03  0.88584920773E+03  0.00000000000E+00 0. -1.
    9000010    2    1    2  502    0  0.77026166908E+03 -0.95889140171E+03  0.68882303722E+03  0.17276933749E+04  0.99883505242E+03 0.  0.
   -9000010    2    1    2    0  501 -0.77026166908E+03  0.95889140171E+03  0.13428174868E+04  0.20756455646E+04  0.99617766879E+03 0.  0.
        -13    1    3    3    0    0  0.39696791819E+03 -0.51128619652E+03  0.89928564524E+03  0.11080215637E+04  0.10566000000E+00 0.  1.
          4    1    3    3  502    0  0.37329375089E+03 -0.44760520519E+03 -0.21046260802E+03  0.61967181116E+03  0.00000000000E+00 0.  1.
         13    1    4    4    0    0 -0.21629590882E+03  0.79664890096E+03  0.12395167346E+04  0.14892397853E+04  0.10566000000E+00 0. -1.
         -4    1    4    4    0  501 -0.55396576026E+03  0.16224250074E+03  0.10330075221E+03  0.58640577930E+03  0.00000000000E+00 0. -1.
<mgrwt>
<rscale>  2 0.15836019E+04</rscale>
<asrwt>0</asrwt>
<pdfrwt beam="2">  1        2 0.13628449E+00 0.15836019E+04</pdfrwt>
<pdfrwt beam="1">  1       -2 0.44884457E+00 0.15836019E+04</pdfrwt>
<totfact> 0.12883838E-01</totfact>
</mgrwt>
</event>
<event>
 8    1  0.7046235E-006  0.1443199E+04  0.7818608E-02  0.8442958E-01
          1   -1    0    0  502    0  0.00000000000E+00  0.00000000000E+00  0.13392942223E+04  0.13392942223E+04  0.00000000000E+00 0.  1.
         -1   -1    0    0    0  501 -0.00000000000E+00 -0.00000000000E+00 -0.16608748829E+04  0.16608748829E+04  0.00000000000E+00 0. -1.
    9000010    2    1    2  502    0  0.10095209047E+04 -0.19183651433E+03  0.21860666360E+03  0.14491864784E+04  0.99820782934E+03 0.  0.
   -9000010    2    1    2    0  501 -0.10095209047E+04  0.19183651433E+03 -0.54018732413E+03  0.15509826268E+04  0.10284994206E+04 0.  0.
        -13    1    3    3    0    0  0.91439642925E+03 -0.34500884889E+03 -0.19626164413E+03  0.99683026628E+03  0.10566000000E+00 0.  1.
          4    1    3    3  502    0  0.95124475475E+02  0.15317233456E+03  0.41486830773E+03  0.45235621215E+03  0.00000000000E+00 0.  1.
         13    1    4    4    0    0  0.18316876919E+03 -0.11803551464E+03 -0.42623028394E+02  0.22203584043E+03  0.10566000000E+00 0. -1.
         -4    1    4    4    0  501 -0.11926896739E+04  0.30987202897E+03 -0.49756429574E+03  0.13289467864E+04  0.00000000000E+00 0. -1.
<mgrwt>
<rscale>  2 0.14431987E+04</rscale>
<asrwt>0</asrwt>
<pdfrwt beam="1">  1        1 0.20604526E+00 0.14431987E+04</pdfrwt>
<pdfrwt beam="2">  1       -1 0.25551921E+00 0.14431987E+04</pdfrwt>
<totfact> 0.45242908E-01</totfact>
</mgrwt>
</event>
<event>
 8    1  0.7046235E-006  0.1848269E+04  0.7818608E-02  0.8233132E-01
          2   -1    0    0  502    0  0.00000000000E+00  0.00000000000E+00  0.38402684949E+04  0.38402684949E+04  0.00000000000E+00 0.  1.
         -2   -1    0    0    0  501 -0.00000000000E+00 -0.00000000000E+00 -0.93909348458E+03  0.93909348458E+03  0.00000000000E+00 0. -1.
    9000010    2    1    2  502    0  0.12360536663E+04  0.92273490023E+03  0.90220903795E+03  0.20573465241E+04  0.10195220499E+04 0.  0.
   -9000010    2    1    2    0  501 -0.12360536663E+04 -0.92273490023E+03  0.19989659724E+04  0.27220154554E+04  0.10169733617E+04 0.  0.
        -13    1    3    3    0    0  0.91467179973E+03  0.11048521513E+03  0.21542150213E+03  0.94617013202E+03  0.10566000000E+00 0.  1.
          4    1    3    3  502    0  0.32138186654E+03  0.81224968510E+03  0.68678753582E+03  0.11111763921E+04  0.00000000000E+00 0.  1.
         13    1    4    4    0    0 -0.56566640488E+03  0.14588999333E+03  0.69073251348E+03  0.90464014288E+03  0.10566000000E+00 0. -1.
         -4    1    4    4    0  501 -0.67038726138E+03 -0.10686248936E+04  0.13082334589E+04  0.18173753125E+04  0.00000000000E+00 0. -1.
<mgrwt>
<rscale>  2 0.18482688E+04</rscale>
<asrwt>0</asrwt>
<pdfrwt beam="1">  1        2 0.59081053E+00 0.18482688E+04</pdfrwt>
<pdfrwt beam="2">  1       -2 0.14447592E+00 0.18482688E+04</pdfrwt>
<totfact> 0.19296743E-01</totfact>
</mgrwt>
</event>
<event>
 8    1  0.7046235E-006  0.1131147E+04  0.7818608E-02  0.8660296E-01
         -2   -1    0    0    0  501 -0.00000000000E+00  0.00000000000E+00  0.97326419200E+03  0.97326419200E+03  0.00000000000E+00 0. -1.
          2   -1    0    0  502    0  0.00000000000E+00 -0.00000000000E+00 -0.18718827545E+04  0.18718827545E+04  0.00000000000E+00 0.  1.
    9000010    2    1    2  502    0 -0.22096953852E+03 -0.50294682469E+03 -0.12299192153E+04  0.16825316842E+04  0.10081808105E+04 0.  0.
   -9000010    2    1    2    0  501  0.22096953852E+03  0.50294682469E+03  0.33130065275E+03  0.11626152624E+04  0.96960356866E+03 0.  0.
        -13    1    3    3    0    0 -0.85988197363E+02 -0.80674166675E+03 -0.93727497001E+03  0.12396412657E+04  0.10566000000E+00 0.  1.
          4    1    3    3  502    0 -0.13498134116E+03  0.30379484206E+03 -0.29264424528E+03  0.44289041852E+03  0.00000000000E+00 0.  1.
         13    1    4    4    0    0  0.85678626974E+02  0.54721989465E+03  0.62568088910E+03  0.83562373492E+03  0.10566000000E+00 0. -1.
         -4    1    4    4    0  501  0.13529091155E+03 -0.44273069954E+02 -0.29438023635E+03  0.32699152745E+03  0.00000000000E+00 0. -1.
<mgrwt>
<rscale>  2 0.11311473E+04</rscale>
<asrwt>0</asrwt>
<pdfrwt beam="2">  1        2 0.28798196E+00 0.11311473E+04</pdfrwt>
<pdfrwt beam="1">  1       -2 0.14973295E+00 0.11311473E+04</pdfrwt>
<totfact> 0.33460477E+00</totfact>
</mgrwt>
</event>
<event>
 8    1  0.7046235E-006  0.1541551E+04  0.7818608E-02  0.8385980E-01
          2   -1    0    0  502    0  0.00000000000E+00  0.00000000000E+00  0.91449716446E+03  0.91449716446E+03  0.00000000000E+00 0.  1.
         -2   -1    0    0    0  501 -0.00000000000E+00 -0.00000000000E+00 -0.27163867424E+04  0.27163867424E+04  0.00000000000E+00 0. -1.
    9000010    2    1    2  502    0  0.89205282506E+03  0.76250450784E+03 -0.51846186221E+03  0.16187834902E+04  0.98716053321E+03 0.  0.
   -9000010    2    1    2    0  501 -0.89205282506E+03 -0.76250450784E+03 -0.12834277157E+04  0.20121004167E+04  0.10120227360E+04 0.  0.
        -13    1    3    3    0    0  0.17198057364E+03 -0.12254112571E+03  0.18300059112E+03  0.27943312744E+03  0.10566000000E+00 0.  1.
          4    1    3    3  502    0  0.72007225142E+03  0.88504563355E+03 -0.70146245333E+03  0.13393503627E+04  0.00000000000E+00 0.  1.
         13    1    4    4    0    0 -0.60022065671E+03 -0.78940928363E+03 -0.13836852588E+04  0.17023562378E+04  0.10566000000E+00 0. -1.
         -4    1    4    4    0  501 -0.29183216835E+03  0.26904775788E+02  0.10025754301E+03  0.30974417892E+03  0.00000000000E+00 0. -1.
<mgrwt>
<rscale>  2 0.15415510E+04</rscale>
<asrwt>0</asrwt>
<pdfrwt beam="1">  1        2 0.14069187E+00 0.15415510E+04</pdfrwt>
<pdfrwt beam="2">  1       -2 0.41790565E+00 0.15415510E+04</pdfrwt>
<totfact> 0.13440557E-01</totfact>
</mgrwt>
</event>
<event>
 8    1  0.7046235E-006  0.1532027E+04  0.7818608E-02  0.8391302E-01
         -4   -1    0    0    0  501 -0.00000000000E+00  0.00000000000E+00  0.90530696648E+03  0.90530696648E+03  0.00000000000E+00 0.  1.
          4   -1    0    0  502    0  0.00000000000E+00 -0.00000000000E+00 -0.29253092392E+04  0.29253092392E+04  0.00000000000E+00 0. -1.
    9000010    2    1    2  502    0 -0.10934473102E+04 -0.43102426990E+03 -0.36380884089E+03  0.15741793991E+04  0.98197503342E+03 0.  0.
   -9000010    2    1    2    0  501  0.10934473102E+04  0.43102426990E+03 -0.16561934319E+04  0.22564368066E+04  0.98342332555E+03 0.  0.
        -13    1    3    3    0    0 -0.12658524975E+04 -0.29840747669E+03 -0.38313950481E+03  0.13558117343E+04  0.10566000000E+00 0.  1.
          4    1    3    3  502    0  0.17240518728E+03 -0.13261679321E+03  0.19330663914E+02  0.21836766476E+03  0.00000000000E+00 0.  1.
         13    1    4    4    0    0  0.64980767757E+03 -0.18612789953E+03 -0.11789185548E+04  0.13589490730E+04  0.10566000000E+00 0. -1.
         -4    1    4    4    0  501  0.44363963264E+03  0.61715216943E+03 -0.47727487704E+03  0.89748773370E+03  0.00000000000E+00 0. -1.
<mgrwt>
<rscale>  2 0.15320270E+04</rscale>
<asrwt>0</asrwt>
<pdfrwt beam="2">  1        4 0.45004758E+00 0.15320270E+04</pdfrwt>
<pdfrwt beam="1">  1       -4 0.13927799E+00 0.15320270E+04</pdfrwt>
<totfact> 0.46602168E-02</totfact>
</mgrwt>
</event>
<event>
 8    1  0.7046235E-006  0.1993893E+04  0.7818608E-02  0.8170883E-01
         -2   -1    0    0    0  501 -0.00000000000E+00  0.00000000000E+00  0.17364437751E+04  0.17364437751E+04  0.00000000000E+00 0.  1.
          2   -1    0    0  502    0  0.00000000000E+00 -0.00000000000E+00 -0.26557395119E+04  0.26557395119E+04  0.00000000000E+00 0. -1.
    9000010    2    1    2  502    0 -0.50217960677E+03  0.16342307707E+04 -0.12813575516E+04  0.24006646139E+04  0.10947231815E+04 0.  0.
   -9000010    2    1    2    0  501  0.50217960677E+03 -0.16342307707E+04  0.36206181475E+03  0.19915186731E+04  0.95507240473E+03 0.  0.
        -13    1    3    3    0    0 -0.21579577381E+03  0.14448978852E+03 -0.74933134739E+03  0.79305901062E+03  0.10566000000E+00 0.  1.
          4    1    3    3  502    0 -0.28638383295E+03  0.14897409821E+04 -0.53202620421E+03  0.16076056033E+04  0.00000000000E+00 0.  1.
         13    1    4    4    0    0  0.58971733893E+03 -0.95442513965E+03 -0.15550251941E+03  0.11326406896E+04  0.10566000000E+00 0. -1.
         -4    1    4    4    0  501 -0.87537732162E+02 -0.67980563102E+03  0.51756433416E+03  0.85887798348E+03  0.00000000000E+00 0. -1.
<mgrwt>
<rscale>  2 0.19938932E+04</rscale>
<asrwt>0</asrwt>
<pdfrwt beam="2">  1        2 0.40857531E+00 0.19938932E+04</pdfrwt>
<pdfrwt beam="1">  1       -2 0.26714520E+00 0.19938932E+04</pdfrwt>
<totfact> 0.12239307E-01</totfact>
</mgrwt>
</event>
<event>
 8    1  0.7046235E-006  0.1645935E+04  0.7818608E-02  0.8330132E-01
         -2   -1    0    0    0  501 -0.00000000000E+00  0.00000000000E+00  0.16915925634E+04  0.16915925634E+04  0.00000000000E+00 0. -1.
          2   -1    0    0  502    0  0.00000000000E+00 -0.00000000000E+00 -0.19032825033E+04  0.19032825033E+04  0.00000000000E+00 0.  1.
    9000010    2    1    2  502    0 -0.77702015061E+03 -0.10500289804E+04 -0.82137066714E+03  0.18364755052E+04  0.99582696003E+03 0.  0.
   -9000010    2    1    2    0  501  0.77702015061E+03  0.10500289804E+04  0.60968072727E+03  0.17583995616E+04  0.10069445143E+04 0.  0.
        -13    1    3    3    0    0 -0.10147247661E+04 -0.92442163058E+03 -0.71064960880E+03  0.15457181437E+04  0.10566000000E+00 0.  1.
          4    1    3    3  502    0  0.23770461547E+03 -0.12560734978E+03 -0.11072105835E+03  0.29075736155E+03  0.00000000000E+00 0.  1.
         13    1    4    4    0    0 -0.29983628641E+02  0.23580710855E+03  0.56292520036E+03  0.61105548258E+03  0.10566000000E+00 0. -1.
         -4    1    4    4    0  501  0.80700377926E+03  0.81422187181E+03  0.46755526911E+02  0.11473440790E+04  0.00000000000E+00 0. -1.
<mgrwt>
<rscale>  2 0.16459352E+04</rscale>
<asrwt>0</asrwt>
<pdfrwt beam="2">  1        2 0.29281269E+00 0.16459352E+04</pdfrwt>
<pdfrwt beam="1">  1       -2 0.26024501E+00 0.16459352E+04</pdfrwt>
<totfact> 0.37749017E-01</totfact>
</mgrwt>
</event>
<event>
 8    1  0.7046235E-006  0.1215980E+04  0.7818608E-02  0.8594625E-01
         -2   -1    0    0    0  501 -0.00000000000E+00  0.00000000000E+00  0.58932639513E+03  0.58932639513E+03  0.00000000000E+00 0.  1.
          2   -1    0    0  502    0  0.00000000000E+00 -0.00000000000E+00 -0.25744214220E+04  0.25744214220E+04  0.00000000000E+00 0. -1.
    9000010    2    1    2  502    0 -0.68396909381E+03  0.73960773923E+02 -0.12456700870E+04  0.17415787583E+04  0.10040511382E+04 0.  0.
   -9000010    2    1    2    0  501  0.68396909381E+03 -0.73960773923E+02 -0.73942493990E+03  0.14221690589E+04  0.10012650363E+04 0.  0.
        -13    1    3    3    0    0 -0.52674089889E+03  0.33884485369E+03 -0.12864939808E+04  0.14308523974E+04  0.10566000000E+00 0.  1.
          4    1    3    3  502    0 -0.15722819492E+03 -0.26488407977E+03  0.40823893822E+02  0.31072636080E+03  0.00000000000E+00 0.  1.
         13    1    4    4    0    0  0.74179046696E+03  0.24552469826E+03 -0.76879639129E+03  0.10961675861E+04  0.10566000000E+00 0. -1.
         -4    1    4    4    0  501 -0.57821373156E+02 -0.31948547218E+03  0.29371451392E+02  0.32600147283E+03  0.00000000000E+00 0. -1.
<mgrwt>
<rscale>  2 0.12159796E+04</rscale>
<asrwt>0</asrwt>
<pdfrwt beam="2">  1        2 0.39606483E+00 0.12159796E+04</pdfrwt>
<pdfrwt beam="1">  1       -2 0.90665600E-01 0.12159796E+04</pdfrwt>
<totfact> 0.50723707E+00</totfact>
</mgrwt>
</event>
<event>
 8    1  0.7046235E-006  0.1066277E+04  0.7818608E-02  0.8714694E-01
         -2   -1    0    0    0  501 -0.00000000000E+00  0.00000000000E+00  0.87539929830E+03  0.87539929830E+03  0.00000000000E+00 0.  1.
          2   -1    0    0  502    0  0.00000000000E+00 -0.00000000000E+00 -0.13154695727E+04  0.13154695727E+04  0.00000000000E+00 0. -1.
    9000010    2    1    2  502    0  0.16430318270E+03 -0.32970210345E+03 -0.34428982135E+03  0.11248793294E+04  0.10055441372E+04 0.  0.
   -9000010    2    1    2    0  501 -0.16430318270E+03  0.32970210345E+03 -0.95780453010E+02  0.10659895415E+04  0.99572124341E+03 0.  0.
        -13    1    3    3    0    0  0.13636246186E+01 -0.53903669594E+03 -0.56419690833E+03  0.78030800431E+03  0.10566000000E+00 0.  1.
          4    1    3    3  502    0  0.16293955809E+03  0.20933459250E+03  0.21990708698E+03  0.34457132514E+03  0.00000000000E+00 0.  1.
         13    1    4    4    0    0 -0.39459366740E+03 -0.10323507725E+03 -0.32800974914E+03  0.52340428946E+03  0.10566000000E+00 0. -1.
         -4    1    4    4    0  501  0.23029048470E+03  0.43293718069E+03  0.23222929613E+03  0.54258525206E+03  0.00000000000E+00 0. -1.
<mgrwt>
<rscale>  2 0.10662769E+04</rscale>
<asrwt>0</asrwt>
<pdfrwt beam="2">  1        2 0.20237993E+00 0.10662769E+04</pdfrwt>
<pdfrwt beam="1">  1       -2 0.13467682E+00 0.10662769E+04</pdfrwt>
<totfact> 0.92528302E+00</totfact>
</mgrwt>
</event>
<event>
 8    1  0.7046235E-006  0.1025079E+04  0.7818608E-02  0.8751379E-01
          1   -1    0    0  502    0  0.00000000000E+00  0.00000000000E+00  0.53830672495E+03  0.53830672495E+03  0.00000000000E+00 0.  1.
         -1   -1    0    0    0  501 -0.00000000000E+00 -0.00000000000E+00 -0.21391200672E+04  0.21391200672E+04  0.00000000000E+00 0. -1.
    9000010    2    1    2  502    0 -0.24866588873E+03 -0.31538337640E+02 -0.40362490226E+03  0.11005495119E+04  0.99270679234E+03 0.  0.
   -9000010    2    1    2    0  501  0.24866588873E+03  0.31538337640E+02 -0.11971884400E+04  0.15768772803E+04  0.99521475324E+03 0.  0.
        -13    1    3    3    0    0 -0.47375794227E+03 -0.94067178079E+02  0.14496239560E+03  0.50429091718E+03  0.10566000000E+00 0.  1.
          4    1    3    3  502    0  0.22509205354E+03  0.62528840439E+02 -0.54858729786E+03  0.59625859476E+03  0.00000000000E+00 0.  1.
         13    1    4    4    0    0  0.19874267650E+03 -0.26882003577E+03 -0.12262596011E+04  0.12710135655E+04  0.10566000000E+00 0. -1.
         -4    1    4    4    0  501  0.49923212227E+02  0.30035837341E+03  0.29071161111E+02  0.30586371476E+03  0.00000000000E+00 0. -1.
<mgrwt>
<rscale>  2 0.10250785E+04</rscale>
<asrwt>0</asrwt>
<pdfrwt beam="1">  1        1 0.82816420E-01 0.10250785E+04</pdfrwt>
<pdfrwt beam="2">  1       -1 0.32909539E+00 0.10250785E+04</pdfrwt>
<totfact> 0.56145173E-01</totfact>
</mgrwt>
</event>
<event>
 8    1  0.7046235E-006  0.1172388E+04  0.7818608E-02  0.8627650E-01
         -1   -1    0    0    0  501 -0.00000000000E+00  0.00000000000E+00  0.15337625612E+04  0.15337625612E+04  0.00000000000E+00 0.  1.
          1   -1    0    0  502    0  0.00000000000E+00 -0.00000000000E+00 -0.10871052572E+04  0.10871052572E+04  0.00000000000E+00 0. -1.
    9000010    2    1    2  502    0  0.56413720190E+03  0.14645991766E+03  0.77475915284E+03  0.14186821552E+04  0.10357152227E+04 0.  0.
   -9000010    2    1    2    0  501 -0.56413720190E+03 -0.14645991766E+03 -0.32810184884E+03  0.12021856633E+04  0.99894857509E+03 0.  0.
        -13    1    3    3    0    0 -0.12801211814E+03 -0.28424115755E+03  0.43577400994E+03  0.53579766418E+03  0.10566000000E+00 0.  1.
          4    1    3    3  502    0  0.69214932004E+03  0.43070107521E+03  0.33898514290E+03  0.88288449104E+03  0.00000000000E+00 0.  1.
         13    1    4    4    0    0 -0.73296832497E+03  0.20296492243E+03 -0.15003375241E+03  0.77520801284E+03  0.10566000000E+00 0. -1.
         -4    1    4    4    0  501  0.16883112307E+03 -0.34942484009E+03 -0.17806809643E+03  0.42697765042E+03  0.00000000000E+00 0. -1.
<mgrwt>
<rscale>  2 0.11723884E+04</rscale>
<asrwt>0</asrwt>
<pdfrwt beam="2">  1        1 0.16724696E+00 0.11723884E+04</pdfrwt>
<pdfrwt beam="1">  1       -1 0.23596347E+00 0.11723884E+04</pdfrwt>
<totfact> 0.11324509E+00</totfact>
</mgrwt>
</event>
<event>
 8    1  0.7046235E-006  0.1114772E+04  0.7818608E-02  0.8673662E-01
          1   -1    0    0  502    0  0.00000000000E+00  0.00000000000E+00  0.15602807215E+04  0.15602807215E+04  0.00000000000E+00 0. -1.
         -1   -1    0    0    0  501 -0.00000000000E+00 -0.00000000000E+00 -0.92275035423E+03  0.92275035423E+03  0.00000000000E+00 0.  1.
    9000010    2    1    2  502    0 -0.43488100269E+03 -0.26657729490E+03 -0.13705164051E+03  0.11362553330E+04  0.10060358288E+04 0.  0.
   -9000010    2    1    2    0  501  0.43488100269E+03  0.26657729490E+03  0.77458200776E+03  0.13467757427E+04  0.97654629885E+03 0.  0.
        -13    1    3    3    0    0 -0.61313532031E+03 -0.24190692252E+03 -0.43389504149E+03  0.78912533755E+03  0.10566000000E+00 0.  1.
          4    1    3    3  502    0  0.17825431762E+03 -0.24670372385E+02  0.29684340098E+03  0.34712999543E+03  0.00000000000E+00 0.  1.
         13    1    4    4    0    0  0.23092557341E+03 -0.36582223488E+03  0.36656168608E+03  0.56702734401E+03  0.10566000000E+00 0. -1.
         -4    1    4    4    0  501  0.20395542928E+03  0.63239952979E+03  0.40802032168E+03  0.77974839872E+03  0.00000000000E+00 0. -1.
<mgrwt>
<rscale>  2 0.11147720E+04</rscale>
<asrwt>0</asrwt>
<pdfrwt beam="1">  1        1 0.24004319E+00 0.11147720E+04</pdfrwt>
<pdfrwt beam="2">  1       -1 0.14196159E+00 0.11147720E+04</pdfrwt>
<totfact> 0.34398649E+00</totfact>
</mgrwt>
</event>
<event>
 8    1  0.7046235E-006  0.1821301E+04  0.7818608E-02  0.8245304E-01
          2   -1    0    0  502    0  0.00000000000E+00  0.00000000000E+00  0.93499493186E+03  0.93499493186E+03  0.00000000000E+00 0. -1.
         -2   -1    0    0    0  501 -0.00000000000E+00 -0.00000000000E+00 -0.37544493124E+04  0.37544493124E+04  0.00000000000E+00 0.  1.
    9000010    2    1    2  502    0 -0.91148115880E+03 -0.12212847658E+04 -0.85572762755E+03  0.20075003717E+04  0.98765053932E+03 0.  0.
   -9000010    2    1    2    0  501  0.91148115880E+03  0.12212847658E+04 -0.19637267530E+04  0.26819438726E+04  0.10071076373E+04 0.  0.
        -13    1    3    3    0    0 -0.78834634519E+03 -0.35469800852E+03 -0.13766800661E+03  0.87535885695E+03  0.10566000000E+00 0.  1.
          4    1    3    3  502    0 -0.12313481360E+03 -0.86658675728E+03 -0.71805962094E+03  0.11321415148E+04  0.00000000000E+00 0.  1.
         13    1    4    4    0    0  0.10267261018E+04  0.59799339355E+03 -0.13697356729E+04  0.18132673305E+04  0.10566000000E+00 0. -1.
         -4    1    4    4    0  501 -0.11524494299E+03  0.62329137225E+03 -0.59399108005E+03  0.86867654210E+03  0.00000000000E+00 0. -1.
<mgrwt>
<rscale>  2 0.18213010E+04</rscale>
<asrwt>0</asrwt>
<pdfrwt beam="1">  1        2 0.14384537E+00 0.18213010E+04</pdfrwt>
<pdfrwt beam="2">  1       -2 0.57760759E+00 0.18213010E+04</pdfrwt>
<totfact> 0.18743330E-01</totfact>
</mgrwt>
</event>
<event>
 8    1  0.7046235E-006  0.1145837E+04  0.7818608E-02  0.8648504E-01
         -1   -1    0    0    0  501 -0.00000000000E+00  0.00000000000E+00  0.89862107958E+03  0.89862107958E+03  0.00000000000E+00 0.  1.
          1   -1    0    0  502    0  0.00000000000E+00 -0.00000000000E+00 -0.17482507963E+04  0.17482507963E+04  0.00000000000E+00 0. -1.
    9000010    2    1    2  502    0  0.62045267016E+03 -0.20641813139E+02  0.11279045325E+03  0.11474308331E+04  0.95837791608E+03 0.  0.
   -9000010    2    1    2    0  501 -0.62045267016E+03  0.20641813139E+02 -0.96242017001E+03  0.14994410428E+04  0.96782398034E+03 0.  0.
        -13    1    3    3    0    0  0.69711247284E+03 -0.12541946761E+03 -0.25857411737E+03  0.75402680853E+03  0.10566000000E+00 0.  1.
          4    1    3    3  502    0 -0.76659802686E+02  0.10477765447E+03  0.37136457062E+03  0.39340402455E+03  0.00000000000E+00 0.  1.
         13    1    4    4    0    0 -0.59009995698E+03  0.16582514482E+03 -0.11238987271E+04  0.12801813535E+04  0.10566000000E+00 0. -1.
         -4    1    4    4    0  501 -0.30352713175E+02 -0.14518333168E+03  0.16147855705E+03  0.21925968937E+03  0.00000000000E+00 0. -1.
<mgrwt>
<rscale>  2 0.11458367E+04</rscale>
<asrwt>0</asrwt>
<pdfrwt beam="2">  1        1 0.26896166E+00 0.11458367E+04</pdfrwt>
<pdfrwt beam="1">  1       -1 0.13824940E+00 0.11458367E+04</pdfrwt>
<totfact> 0.26743357E+00</totfact>
</mgrwt>
</event>
<event>
 8    1  0.7046235E-006  0.1117760E+04  0.7818608E-02  0.8671206E-01
          1   -1    0    0  502    0  0.00000000000E+00  0.00000000000E+00  0.12753370222E+04  0.12753370222E+04  0.00000000000E+00 0.  1.
         -1   -1    0    0    0  501 -0.00000000000E+00 -0.00000000000E+00 -0.98109803771E+03  0.98109803771E+03  0.00000000000E+00 0. -1.
    9000010    2    1    2  502    0 -0.32124921549E+03 -0.35171771423E+03  0.18652914875E+03  0.11565023670E+04  0.10372069189E+04 0.  0.
   -9000010    2    1    2    0  501  0.32124921549E+03  0.35171771423E+03  0.10770983573E+03  0.10999326929E+04  0.98556791307E+03 0.  0.
        -13    1    3    3    0    0 -0.80051876052E+02 -0.18367424743E+03 -0.42949633325E+03  0.47393210850E+03  0.10566000000E+00 0.  1.
          4    1    3    3  502    0 -0.24119733943E+03 -0.16804346680E+03  0.61602548200E+03  0.68257025848E+03  0.00000000000E+00 0.  1.
         13    1    4    4    0    0  0.62576681790E+03  0.35386044812E+03 -0.10771421912E+03  0.72691381284E+03  0.10566000000E+00 0. -1.
         -4    1    4    4    0  501 -0.30451760241E+03 -0.21427338930E+01  0.21542405486E+03  0.37301888008E+03  0.00000000000E+00 0. -1.
<mgrwt>
<rscale>  2 0.11177596E+04</rscale>
<asrwt>0</asrwt>
<pdfrwt beam="1">  1        1 0.19620570E+00 0.11177596E+04</pdfrwt>
<pdfrwt beam="2">  1       -1 0.15093816E+00 0.11177596E+04</pdfrwt>
<totfact> 0.46948472E+00</totfact>
</mgrwt>
</event>
<event>
 8    1  0.7046235E-006  0.1373367E+04  0.7818608E-02  0.8486325E-01
         -2   -1    0    0    0  501 -0.00000000000E+00  0.00000000000E+00  0.23663593542E+04  0.23663593542E+04  0.00000000000E+00 0. -1.
          2   -1    0    0  502    0  0.00000000000E+00 -0.00000000000E+00 -0.96323488407E+03  0.96323488407E+03  0.00000000000E+00 0.  1.
    9000010    2    1    2  502    0  0.70152293511E+03  0.61610337665E+03  0.13929760190E+04  0.19560549757E+04  0.10070010325E+04 0.  0.
   -9000010    2    1    2    0  501 -0.70152293511E+03 -0.61610337665E+03  0.10148451079E+02  0.13735392625E+04  0.10073675175E+04 0.  0.
        -13    1    3    3    0    0 -0.92719651333E+02  0.14869413437E+03  0.88815281396E+03  0.90527471601E+03  0.10566000000E+00 0.  1.
          4    1    3    3  502    0  0.79424258644E+03  0.46740924227E+03  0.50482320505E+03  0.10507802597E+04  0.00000000000E+00 0.  1.
         13    1    4    4    0    0 -0.35535732279E+03  0.23215377171E+03  0.14273072261E+03  0.44782392848E+03  0.10566000000E+00 0. -1.
         -4    1    4    4    0  501 -0.34616561232E+03 -0.84825714836E+03 -0.13258227153E+03  0.92571533401E+03  0.00000000000E+00 0. -1.
<mgrwt>
<rscale>  2 0.13733674E+04</rscale>
<asrwt>0</asrwt>
<pdfrwt beam="2">  1        2 0.14818998E+00 0.13733674E+04</pdfrwt>
<pdfrwt beam="1">  1       -2 0.36405528E+00 0.13733674E+04</pdfrwt>
<totfact> 0.24182909E-01</totfact>
</mgrwt>
</event>
<event>
 8    1  0.7046235E-006  0.1607831E+04  0.7818608E-02  0.8350010E-01
         -2   -1    0    0    0  501 -0.00000000000E+00  0.00000000000E+00  0.11324588929E+04  0.11324588929E+04  0.00000000000E+00 0.  1.
          2   -1    0    0  502    0  0.00000000000E+00 -0.00000000000E+00 -0.23588412509E+04  0.23588412509E+04  0.00000000000E+00 0. -1.
    9000010    2    1    2  502    0 -0.10323065210E+04  0.74490896269E+03 -0.29987309622E+03  0.16361187925E+04  0.98306394158E+03 0.  0.
   -9000010    2    1    2    0  501  0.10323065210E+04 -0.74490896269E+03 -0.92650926184E+03  0.18551813513E+04  0.98118923655E+03 0.  0.
        -13    1    3    3    0    0  0.58780100958E+02 -0.72857167075E+02 -0.25523354732E+03  0.27185923178E+03  0.10566000000E+00 0.  1.
          4    1    3    3  502    0 -0.10910866220E+04  0.81776612976E+03 -0.44639548900E+02  0.13642595607E+04  0.00000000000E+00 0.  1.
         13    1    4    4    0    0 -0.10791444557E+03 -0.24665594915E+03  0.49497980433E+02  0.27374211595E+03  0.10566000000E+00 0. -1.
         -4    1    4    4    0  501  0.11402209666E+04 -0.49825301354E+03 -0.97600724227E+03  0.15814392353E+04  0.00000000000E+00 0. -1.
<mgrwt>
<rscale>  2 0.16078305E+04</rscale>
<asrwt>0</asrwt>
<pdfrwt beam="2">  1        2 0.36289865E+00 0.16078305E+04</pdfrwt>
<pdfrwt beam="1">  1       -2 0.17422445E+00 0.16078305E+04</pdfrwt>
<totfact> 0.10562017E+00</totfact>
</mgrwt>
</event>
<event>
 8    1  0.7046235E-006  0.1482456E+04  0.7818608E-02  0.8419668E-01
          2   -1    0    0  502    0  0.00000000000E+00  0.00000000000E+00  0.44972025575E+04  0.44972025575E+04  0.00000000000E+00 0.  1.
         -2   -1    0    0    0  501 -0.00000000000E+00 -0.00000000000E+00 -0.48890818480E+03  0.48890818480E+03  0.00000000000E+00 0. -1.
    9000010    2    1    2  502    0  0.76033835602E+03  0.79007315283E+03  0.19601254690E+04  0.24616660823E+04  0.10076596868E+04 0.  0.
   -9000010    2    1    2    0  501 -0.76033835602E+03 -0.79007315283E+03  0.20481689037E+04  0.25244446600E+04  0.98767149424E+03 0.  0.
        -13    1    3    3    0    0  0.24503024727E+03 -0.22789947876E+03  0.31473085867E+03  0.45938384720E+03  0.10566000000E+00 0.  1.
          4    1    3    3  502    0  0.51530810874E+03  0.10179726316E+04  0.16453946103E+04  0.20022822351E+04  0.00000000000E+00 0.  1.
         13    1    4    4    0    0 -0.41432524738E+03 -0.98286003737E+03  0.16343675367E+04  0.19516240724E+04  0.10566000000E+00 0. -1.
         -4    1    4    4    0  501 -0.34601310864E+03  0.19278688454E+03  0.41380136699E+03  0.57282058755E+03  0.00000000000E+00 0. -1.
<mgrwt>
<rscale>  2 0.14824561E+04</rscale>
<asrwt>0</asrwt>
<pdfrwt beam="1">  1        2 0.69187729E+00 0.14824561E+04</pdfrwt>
<pdfrwt beam="2">  1       -2 0.75216647E-01 0.14824561E+04</pdfrwt>
<totfact> 0.26364954E-01</totfact>
</mgrwt>
</event>
<event>
 8    1  0.7046235E-006  0.1315073E+04  0.7818608E-02  0.8524607E-01
          1   -1    0    0  502    0  0.00000000000E+00  0.00000000000E+00  0.18196210769E+04  0.18196210769E+04  0.00000000000E+00 0. -1.
         -1   -1    0    0    0  501 -0.00000000000E+00 -0.00000000000E+00 -0.95122409136E+03  0.95122409136E+03  0.00000000000E+00 0.  1.
    9000010    2    1    2  502    0 -0.46071148110E+03 -0.74908147528E+03  0.40604018851E+03  0.13949539961E+04  0.10038176583E+04 0.  0.
   -9000010    2    1    2    0  501  0.46071148110E+03  0.74908147528E+03  0.46235679702E+03  0.13758911721E+04  0.95180070622E+03 0.  0.
        -13    1    3    3    0    0 -0.42599597787E+03 -0.48689743616E+02  0.53116491116E+03  0.68262686609E+03  0.10566000000E+00 0.  1.
          4    1    3    3  502    0 -0.34715503230E+02 -0.70039173166E+03 -0.12512472266E+03  0.71232713002E+03  0.00000000000E+00 0.  1.
         13    1    4    4    0    0  0.44665717359E+03  0.72316634322E+03 -0.60565316917E+02  0.85213869731E+03  0.10566000000E+00 0. -1.
         -4    1    4    4    0  501  0.14054307514E+02  0.25915132063E+02  0.52292211394E+03  0.52375247482E+03  0.00000000000E+00 0. -1.
<mgrwt>
<rscale>  2 0.13150732E+04</rscale>
<asrwt>0</asrwt>
<pdfrwt beam="1">  1        1 0.27994170E+00 0.13150732E+04</pdfrwt>
<pdfrwt beam="2">  1       -1 0.14634217E+00 0.13150732E+04</pdfrwt>
<totfact> 0.19684809E+00</totfact>
</mgrwt>
</event>
<event>
 8    1  0.7046235E-006  0.1110903E+04  0.7818608E-02  0.8676855E-01
          1   -1    0    0  502    0  0.00000000000E+00  0.00000000000E+00  0.14473721183E+04  0.14473721183E+04  0.00000000000E+00 0.  1.
         -1   -1    0    0    0  501 -0.00000000000E+00 -0.00000000000E+00 -0.93074366459E+03  0.93074366459E+03  0.00000000000E+00 0. -1.
    9000010    2    1    2  502    0  0.47226802439E+03  0.20508403870E+03  0.60601281251E+03  0.12812882545E+04  0.10046648757E+04 0.  0.
   -9000010    2    1    2    0  501 -0.47226802439E+03 -0.20508403870E+03 -0.89384358764E+02  0.10968275284E+04  0.96433630740E+03 0.  0.
        -13    1    3    3    0    0 -0.16153418924E+03  0.42277117474E+03  0.31067413006E+03  0.54895098755E+03  0.10566000000E+00 0.  1.
          4    1    3    3  502    0  0.63380221362E+03 -0.21768713604E+03  0.29533868245E+03  0.73233726693E+03  0.00000000000E+00 0.  1.
         13    1    4    4    0    0 -0.19066301902E+03 -0.14269052553E+03 -0.52378932256E+03  0.57538529568E+03  0.10566000000E+00 0. -1.
         -4    1    4    4    0  501 -0.28160500537E+03 -0.62393513172E+02  0.43440496380E+03  0.52144223276E+03  0.00000000000E+00 0. -1.
<mgrwt>
<rscale>  2 0.11109033E+04</rscale>
<asrwt>0</asrwt>
<pdfrwt beam="1">  1        1 0.22267264E+00 0.11109033E+04</pdfrwt>
<pdfrwt beam="2">  1       -1 0.14319133E+00 0.11109033E+04</pdfrwt>
<totfact> 0.40737501E+00</totfact>
</mgrwt>
</event>
<event>
 8    1  0.7046235E-006  0.1352437E+04  0.7818608E-02  0.8499841E-01
          1   -1    0    0  502    0  0.00000000000E+00  0.00000000000E+00  0.12833505820E+04  0.12833505820E+04  0.00000000000E+00 0.  1.
         -1   -1    0    0    0  501 -0.00000000000E+00 -0.00000000000E+00 -0.14273647859E+04  0.14273647859E+04  0.00000000000E+00 0. -1.
    9000010    2    1    2  502    0  0.64948468454E+02  0.92890091804E+03 -0.12434583159E+03  0.13603902383E+04  0.98393317642E+03 0.  0.
   -9000010    2    1    2    0  501 -0.64948468454E+02 -0.92890091804E+03 -0.19668372372E+02  0.13503251296E+04  0.97770951291E+03 0.  0.
        -13    1    3    3    0    0 -0.28781134136E+03 -0.65694687750E+02 -0.71597506509E+02  0.30377191167E+03  0.10566000000E+00 0.  1.
          4    1    3    3  502    0  0.35275980982E+03  0.99459560579E+03 -0.52748325085E+02  0.10566183267E+04  0.00000000000E+00 0.  1.
         13    1    4    4    0    0 -0.28522872021E+03 -0.10573166017E+04 -0.98545685785E+01  0.10951579533E+04  0.10566000000E+00 0. -1.
         -4    1    4    4    0  501  0.22028025176E+03  0.12841568362E+03 -0.98138037932E+01  0.25516717629E+03  0.00000000000E+00 0. -1.
<mgrwt>
<rscale>  2 0.13524368E+04</rscale>
<asrwt>0</asrwt>
<pdfrwt beam="1">  1        1 0.19743855E+00 0.13524368E+04</pdfrwt>
<pdfrwt beam="2">  1       -1 0.21959458E+00 0.13524368E+04</pdfrwt>
<totfact> 0.11107101E+00</totfact>
</mgrwt>
</event>
<event>
 8    1  0.7046235E-006  0.1129526E+04  0.7818608E-02  0.8661609E-01
          2   -1    0    0  502    0  0.00000000000E+00  0.00000000000E+00  0.14989512709E+04  0.14989512709E+04  0.00000000000E+00 0. -1.
         -2   -1    0    0    0  501 -0.00000000000E+00 -0.00000000000E+00 -0.95467058376E+03  0.95467058376E+03  0.00000000000E+00 0.  1.
    9000010    2    1    2  502    0 -0.53136779892E+03 -0.50617750455E+02  0.67496200083E+03  0.13113353510E+04  0.98950129153E+03 0.  0.
   -9000010    2    1    2    0  501  0.53136779892E+03  0.50617750455E+02 -0.13068131364E+03  0.11422865037E+04  0.10014124806E+04 0.  0.
        -13    1    3    3    0    0  0.28429021624E+03 -0.11059084917E+03  0.15476837625E+03  0.34205924110E+03  0.10566000000E+00 0.  1.
          4    1    3    3  502    0 -0.81565801516E+03  0.59973098713E+02  0.52019362458E+03  0.96927610995E+03  0.00000000000E+00 0.  1.
         13    1    4    4    0    0  0.46853622862E+03 -0.52981771455E+02 -0.53913533616E+03  0.71624031407E+03  0.10566000000E+00 0. -1.
         -4    1    4    4    0  501  0.62831570295E+02  0.10359952191E+03  0.40845402251E+03  0.42604618960E+03  0.00000000000E+00 0. -1.
<mgrwt>
<rscale>  2 0.11295259E+04</rscale>
<asrwt>0</asrwt>
<pdfrwt beam="1">  1        2 0.23060789E+00 0.11295259E+04</pdfrwt>
<pdfrwt beam="2">  1       -2 0.14687240E+00 0.11295259E+04</pdfrwt>
<totfact> 0.56581911E+00</totfact>
</mgrwt>
</event>
<event>
 8    1  0.7046235E-006  0.1018636E+04  0.7818608E-02  0.8757276E-01
         -4   -1    0    0    0  501 -0.00000000000E+00  0.00000000000E+00  0.75288285999E+03  0.75288285999E+03  0.00000000000E+00 0. -1.
          4   -1    0    0  502    0  0.00000000000E+00 -0.00000000000E+00 -0.15039875905E+04  0.15039875905E+04  0.00000000000E+00 0.  1.
    9000010    2    1    2  502    0 -0.10043062268E+03  0.10175858205E+03 -0.70739117764E+03  0.12551718545E+04  0.10269435170E+04 0.  0.
   -9000010    2    1    2    0  501  0.10043062268E+03 -0.10175858205E+03 -0.43713552858E+02  0.10016985960E+04  0.99047871428E+03 0.  0.
        -13    1    3    3    0    0 -0.13608345754E+03 -0.41115412265E+03 -0.58287118826E+03  0.72615787075E+03  0.10566000000E+00 0.  1.
          4    1    3    3  502    0  0.35652834861E+02  0.51291270470E+03 -0.12451998938E+03  0.52901398378E+03  0.00000000000E+00 0.  1.
         13    1    4    4    0    0  0.53027571419E+01 -0.58079081793E+02  0.47193889860E+03  0.47552879424E+03  0.10566000000E+00 0. -1.
         -4    1    4    4    0  501  0.95127865535E+02 -0.43679500260E+02 -0.51565245146E+03  0.52616980172E+03  0.00000000000E+00 0. -1.
<mgrwt>
<rscale>  2 0.10186363E+04</rscale>
<asrwt>0</asrwt>
<pdfrwt beam="2">  1        4 0.23138271E+00 0.10186363E+04</pdfrwt>
<pdfrwt beam="1">  1       -4 0.11582813E+00 0.10186363E+04</pdfrwt>
<totfact> 0.33863774E-01</totfact>
</mgrwt>
</event>
<event>
 8    1  0.7046235E-006  0.1222904E+04  0.7818608E-02  0.8589512E-01
         -4   -1    0    0    0  501 -0.00000000000E+00  0.00000000000E+00  0.21431903017E+04  0.21431903017E+04  0.00000000000E+00 0. -1.
          4   -1    0    0  502    0  0.00000000000E+00 -0.00000000000E+00 -0.69783766253E+03  0.69783766253E+03  0.00000000000E+00 0.  1.
    9000010    2    1    2  502    0  0.36620202661E+03  0.60568209853E+03  0.71195907621E+03  0.14165915049E+04  0.99944536457E+03 0.  0.
   -9000010    2    1    2    0  501 -0.36620202661E+03 -0.60568209853E+03  0.73339356297E+03  0.14244364593E+04  0.99508712167E+03 0.  0.
        -13    1    3    3    0    0 -0.20273061371E+03  0.58803765818E+03  0.53521900965E+03  0.82057747265E+03  0.10566000000E+00 0.  1.
          4    1    3    3  502    0  0.56893264033E+03  0.17644440358E+02  0.17674006656E+03  0.59601403224E+03  0.00000000000E+00 0.  1.
         13    1    4    4    0    0 -0.64105486047E+03 -0.67341505934E+03  0.62988923496E+03  0.11230314491E+04  0.10566000000E+00 0. -1.
         -4    1    4    4    0  501  0.27485283386E+03  0.67732960805E+02  0.10350432801E+03  0.30140501020E+03  0.00000000000E+00 0. -1.
<mgrwt>
<rscale>  2 0.12229036E+04</rscale>
<asrwt>0</asrwt>
<pdfrwt beam="2">  1        4 0.10735964E+00 0.12229036E+04</pdfrwt>
<pdfrwt beam="1">  1       -4 0.32972158E+00 0.12229036E+04</pdfrwt>
<totfact> 0.21542381E-01</totfact>
</mgrwt>
</event>
<event>
 8    1  0.7046235E-006  0.1355997E+04  0.7818608E-02  0.8497525E-01
         -2   -1    0    0    0  501 -0.00000000000E+00  0.00000000000E+00  0.13836749097E+04  0.13836749097E+04  0.00000000000E+00 0.  1.
          2   -1    0    0  502    0  0.00000000000E+00 -0.00000000000E+00 -0.14366277124E+04  0.14366277124E+04  0.00000000000E+00 0. -1.
    9000010    2    1    2  502    0 -0.65362772639E+03 -0.63543127939E+03 -0.41273471563E+03  0.14237046363E+04  0.10127106350E+04 0.  0.
   -9000010    2    1    2    0  501  0.65362772639E+03  0.63543127939E+03  0.35978191285E+03  0.13965979858E+04  0.99500793651E+03 0.  0.
        -13    1    3    3    0    0  0.81449383283E+02 -0.61592983811E+03 -0.12301784631E+03  0.63335374728E+03  0.10566000000E+00 0.  1.
          4    1    3    3  502    0 -0.73507710967E+03 -0.19501441279E+02 -0.28971686932E+03  0.79035088900E+03  0.00000000000E+00 0.  1.
         13    1    4    4    0    0  0.69530266370E+03  0.54508148696E+03  0.64541588358E+03  0.10941303832E+04  0.10566000000E+00 0. -1.
         -4    1    4    4    0  501 -0.41674937310E+02  0.90349792428E+02 -0.28563397073E+03  0.30246760261E+03  0.00000000000E+00 0. -1.
<mgrwt>
<rscale>  2 0.13559971E+04</rscale>
<asrwt>0</asrwt>
<pdfrwt beam="2">  1        2 0.22101965E+00 0.13559971E+04</pdfrwt>
<pdfrwt beam="1">  1       -2 0.21287306E+00 0.13559971E+04</pdfrwt>
<totfact> 0.16600622E+00</totfact>
</mgrwt>
</event>
<event>
 8    1  0.7046235E-006  0.1540747E+04  0.7818608E-02  0.8386428E-01
         -2   -1    0    0    0  501 -0.00000000000E+00  0.00000000000E+00  0.94104908671E+03  0.94104908671E+03  0.00000000000E+00 0. -1.
          2   -1    0    0  502    0  0.00000000000E+00 -0.00000000000E+00 -0.27132774149E+04  0.27132774149E+04  0.00000000000E+00 0.  1.
    9000010    2    1    2  502    0 -0.20887458403E+03 -0.11572340337E+04 -0.39968865057E+03  0.15879696389E+04  0.98948337846E+03 0.  0.
   -9000010    2    1    2    0  501  0.20887458403E+03  0.11572340337E+04 -0.13725396776E+04  0.20663568627E+04  0.10015719229E+04 0.  0.
        -13    1    3    3    0    0  0.30992724189E+03 -0.87437667429E+03 -0.36220091157E+03  0.99588100459E+03  0.10566000000E+00 0.  1.
          4    1    3    3  502    0 -0.51880182592E+03 -0.28285735938E+03 -0.37487738994E+02  0.59208863434E+03  0.00000000000E+00 0.  1.
         13    1    4    4    0    0  0.40456284387E+03  0.28134298687E+03 -0.95896603172E+03  0.10781654938E+04  0.10566000000E+00 0. -1.
         -4    1    4    4    0  501 -0.19568825983E+03  0.87589104679E+03 -0.41357364589E+03  0.98819136885E+03  0.00000000000E+00 0. -1.
<mgrwt>
<rscale>  2 0.15407467E+04</rscale>
<asrwt>0</asrwt>
<pdfrwt beam="2">  1        2 0.41742730E+00 0.15407467E+04</pdfrwt>
<pdfrwt beam="1">  1       -2 0.14477678E+00 0.15407467E+04</pdfrwt>
<totfact> 0.12037232E+00</totfact>
</mgrwt>
</event>
<event>
 8    1  0.7046235E-006  0.1196791E+04  0.7818608E-02  0.8608983E-01
         -1   -1    0    0    0  501 -0.00000000000E+00  0.00000000000E+00  0.13011033823E+04  0.13011033823E+04  0.00000000000E+00 0. -1.
          1   -1    0    0  502    0  0.00000000000E+00 -0.00000000000E+00 -0.16748471812E+04  0.16748471812E+04  0.00000000000E+00 0.  1.
    9000010    2    1    2  502    0 -0.43241309764E+03  0.50391719063E+03  0.68405187178E+03  0.13799332199E+04  0.99768487314E+03 0.  0.
   -9000010    2    1    2    0  501  0.43241309764E+03 -0.50391719063E+03 -0.10577956707E+04  0.15960173437E+04  0.99369314092E+03 0.  0.
        -13    1    3    3    0    0 -0.59881249087E+03 -0.53574407632E+02  0.23706560201E+03  0.64625593011E+03  0.10566000000E+00 0.  1.
          4    1    3    3  502    0  0.16639939324E+03  0.55749159827E+03  0.44698626977E+03  0.73367728980E+03  0.00000000000E+00 0.  1.
         13    1    4    4    0    0  0.20654668644E+03 -0.79602461753E+03 -0.78532506392E+03  0.11371245282E+04  0.10566000000E+00 0. -1.
         -4    1    4    4    0  501  0.22586641120E+03  0.29210742689E+03 -0.27247060678E+03  0.45889281549E+03  0.00000000000E+00 0. -1.
<mgrwt>
<rscale>  2 0.11967910E+04</rscale>
<asrwt>0</asrwt>
<pdfrwt beam="2">  1        1 0.25766880E+00 0.11967910E+04</pdfrwt>
<pdfrwt beam="1">  1       -1 0.20016975E+00 0.11967910E+04</pdfrwt>
<totfact> 0.86943778E-01</totfact>
</mgrwt>
</event>
<event>
 8    1  0.7046235E-006  0.1670341E+04  0.7818608E-02  0.8317690E-01
         -2   -1    0    0    0  501 -0.00000000000E+00  0.00000000000E+00  0.28408192086E+04  0.28408192086E+04  0.00000000000E+00 0. -1.
          2   -1    0    0  502    0  0.00000000000E+00 -0.00000000000E+00 -0.12205355691E+04  0.12205355691E+04  0.00000000000E+00 0.  1.
    9000010    2    1    2  502    0 -0.13127329808E+04  0.23426194189E+03 -0.86329041940E+02  0.16751623217E+04  0.10102324308E+04 0.  0.
   -9000010    2    1    2    0  501  0.13127329808E+04 -0.23426194189E+03  0.17066126814E+04  0.23861924559E+04  0.10016192171E+04 0.  0.
        -13    1    3    3    0    0 -0.13727097849E+04  0.38090713479E+03  0.10298824042E+03  0.14282958334E+04  0.10566000000E+00 0.  1.
          4    1    3    3  502    0  0.59976804143E+02 -0.14664519290E+03 -0.18931728235E+03  0.24686648828E+03  0.00000000000E+00 0.  1.
         13    1    4    4    0    0  0.13099300951E+04 -0.17368263117E+03  0.95071040053E+03  0.16278614152E+04  0.10566000000E+00 0. -1.
         -4    1    4    4    0  501  0.28028857057E+01 -0.60579310721E+02  0.75590228087E+03  0.75833104070E+03  0.00000000000E+00 0. -1.
<mgrwt>
<rscale>  2 0.16703408E+04</rscale>
<asrwt>0</asrwt>
<pdfrwt beam="2">  1        2 0.18777470E+00 0.16703408E+04</pdfrwt>
<pdfrwt beam="1">  1       -2 0.43704911E+00 0.16703408E+04</pdfrwt>
<totfact> 0.81086937E-02</totfact>
</mgrwt>
</event>
<event>
 8    1  0.7046235E-006  0.1018464E+04  0.7818608E-02  0.8757434E-01
          2   -1    0    0  502    0  0.00000000000E+00  0.00000000000E+00  0.16250734500E+04  0.16250734500E+04  0.00000000000E+00 0.  1.
         -2   -1    0    0    0  501 -0.00000000000E+00 -0.00000000000E+00 -0.64928248855E+03  0.64928248855E+03  0.00000000000E+00 0. -1.
    9000010    2    1    2  502    0 -0.21053145933E+03  0.20597240497E+02  0.33363408384E+03  0.10570759630E+04  0.98048464948E+03 0.  0.
   -9000010    2    1    2    0  501  0.21053145933E+03 -0.20597240497E+02  0.64215687765E+03  0.12172799756E+04  0.10122535956E+04 0.  0.
        -13    1    3    3    0    0  0.84528662607E+02 -0.31728688503E+03  0.48320789259E+03  0.58421395126E+03  0.10566000000E+00 0.  1.
          4    1    3    3  502    0 -0.29506012194E+03  0.33788412553E+03 -0.14957380875E+03  0.47286201170E+03  0.00000000000E+00 0.  1.
         13    1    4    4    0    0 -0.17015816602E+03 -0.43743014980E+03  0.27827326067E+03  0.54565094720E+03  0.10566000000E+00 0. -1.
         -4    1    4    4    0  501  0.38068962535E+03  0.41683290930E+03  0.36388361698E+03  0.67162902843E+03  0.00000000000E+00 0. -1.
<mgrwt>
<rscale>  2 0.10184639E+04</rscale>
<asrwt>0</asrwt>
<pdfrwt beam="1">  1        2 0.25001130E+00 0.10184639E+04</pdfrwt>
<pdfrwt beam="2">  1       -2 0.99889614E-01 0.10184639E+04</pdfrwt>
<totfact> 0.13664147E+01</totfact>
</mgrwt>
</event>
<event>
 8    1  0.7046235E-006  0.1274239E+04  0.7818608E-02  0.8552662E-01
         -4   -1    0    0    0  501 -0.00000000000E+00  0.00000000000E+00  0.21170118736E+04  0.21170118736E+04  0.00000000000E+00 0.  1.
          4   -1    0    0  502    0  0.00000000000E+00 -0.00000000000E+00 -0.76724351402E+03  0.76724351402E+03  0.00000000000E+00 0. -1.
    9000010    2    1    2  502    0 -0.81277839791E+03 -0.23042368159E+02  0.66135655575E+03  0.14489487822E+04  0.10004600965E+04 0.  0.
   -9000010    2    1    2    0  501  0.81277839791E+03  0.23042368159E+02  0.68841180382E+03  0.14353066054E+04  0.96179756967E+03 0.  0.
        -13    1    3    3    0    0 -0.13305831811E+03  0.24083898730E+03 -0.18519809387E+03  0.33167194479E+03  0.10566000000E+00 0.  1.
          4    1    3    3  502    0 -0.67972007980E+03 -0.26388135546E+03  0.84655464961E+03  0.11172768374E+04  0.00000000000E+00 0.  1.
         13    1    4    4    0    0  0.52832680290E+03 -0.29418826710E+03 -0.24012812147E+02  0.60518804803E+03  0.10566000000E+00 0. -1.
         -4    1    4    4    0  501  0.28445159501E+03  0.31723063526E+03  0.71242461596E+03  0.83011855737E+03  0.00000000000E+00 0. -1.
<mgrwt>
<rscale>  2 0.12742386E+04</rscale>
<asrwt>0</asrwt>
<pdfrwt beam="2">  1        4 0.11803746E+00 0.12742386E+04</pdfrwt>
<pdfrwt beam="1">  1       -4 0.32569413E+00 0.12742386E+04</pdfrwt>
<totfact> 0.18663983E-01</totfact>
</mgrwt>
</event>
<event>
 8    1  0.7046235E-006  0.1164912E+04  0.7818608E-02  0.8633463E-01
          2   -1    0    0  502    0  0.00000000000E+00  0.00000000000E+00  0.10813181481E+04  0.10813181481E+04  0.00000000000E+00 0. -1.
         -2   -1    0    0    0  501 -0.00000000000E+00 -0.00000000000E+00 -0.12717162795E+04  0.12717162795E+04  0.00000000000E+00 0.  1.
    9000010    2    1    2  502    0  0.18332150568E+03 -0.55792063269E+03 -0.23055819794E+03  0.11932854108E+04  0.10128626670E+04 0.  0.
   -9000010    2    1    2    0  501 -0.18332150568E+03  0.55792063269E+03  0.40160066484E+02  0.11597490168E+04  0.99926109913E+03 0.  0.
        -13    1    3    3    0    0  0.79132716717E+02 -0.34682563969E+03 -0.63354021275E+03  0.72658325300E+03  0.10566000000E+00 0.  1.
          4    1    3    3  502    0  0.10418878896E+03 -0.21109499300E+03  0.40298201481E+03  0.46670215778E+03  0.00000000000E+00 0.  1.
         13    1    4    4    0    0 -0.32357369597E+03  0.43419259094E+03 -0.40545688008E+03  0.67647500731E+03  0.10566000000E+00 0. -1.
         -4    1    4    4    0  501  0.14025219029E+03  0.12372804176E+03  0.44561694657E+03  0.48327400951E+03  0.00000000000E+00 0. -1.
<mgrwt>
<rscale>  2 0.11649120E+04</rscale>
<asrwt>0</asrwt>
<pdfrwt beam="1">  1        2 0.16635664E+00 0.11649120E+04</pdfrwt>
<pdfrwt beam="2">  1       -2 0.19564866E+00 0.11649120E+04</pdfrwt>
<totfact> 0.37341043E+00</totfact>
</mgrwt>
</event>
<event>
 8    1  0.7046235E-006  0.1268463E+04  0.7818608E-02  0.8556717E-01
          2   -1    0    0  502    0  0.00000000000E+00  0.00000000000E+00  0.28790239454E+04  0.28790239454E+04  0.00000000000E+00 0.  1.
         -2   -1    0    0    0  501 -0.00000000000E+00 -0.00000000000E+00 -0.56808078775E+03  0.56808078775E+03  0.00000000000E+00 0. -1.
    9000010    2    1    2  502    0 -0.55419566783E+03  0.16595978292E+03  0.89951421126E+03  0.14635459182E+04  0.99908225413E+03 0.  0.
   -9000010    2    1    2    0  501  0.55419566783E+03 -0.16595978292E+03  0.14114289464E+04  0.19835588150E+04  0.12679504777E+04 0.  0.
        -13    1    3    3    0    0  0.28859105823E+03  0.10102716056E+03  0.19029953448E+03  0.36014609542E+03  0.10566000000E+00 0.  1.
          4    1    3    3  502    0 -0.84278672606E+03  0.64932622361E+02  0.70921467679E+03  0.11033998227E+04  0.00000000000E+00 0.  1.
         13    1    4    4    0    0  0.76736151420E+03 -0.40807683158E+03  0.14154101199E+04  0.16609503944E+04  0.10566000000E+00 0. -1.
         -4    1    4    4    0  501 -0.21316584637E+03  0.24211704866E+03 -0.39811734890E+01  0.32260842062E+03  0.00000000000E+00 0. -1.
<mgrwt>
<rscale>  2 0.12684629E+04</rscale>
<asrwt>0</asrwt>
<pdfrwt beam="1">  1        2 0.44292675E+00 0.12684629E+04</pdfrwt>
<pdfrwt beam="2">  1       -2 0.87397046E-01 0.12684629E+04</pdfrwt>
<totfact> 0.36386874E+00</totfact>
</mgrwt>
</event>
<event>
 8    1  0.7046235E-006  0.1318868E+04  0.7818608E-02  0.8522053E-01
          2   -1    0    0  502    0  0.00000000000E+00  0.00000000000E+00  0.26573857080E+04  0.26573857080E+04  0.00000000000E+00 0. -1.
         -2   -1    0    0    0  501 -0.00000000000E+00 -0.00000000000E+00 -0.78693826424E+03  0.78693826424E+03  0.00000000000E+00 0.  1.
    9000010    2    1    2  502    0  0.92532073343E+03 -0.56379327261E+02  0.26005797434E+03  0.13924503994E+04  0.10059278684E+04 0.  0.
   -9000010    2    1    2    0  501 -0.92532073343E+03  0.56379327261E+02  0.16103894695E+04  0.20518735729E+04  0.87030674332E+03 0.  0.
        -13    1    3    3    0    0 -0.18578950637E+02 -0.19990203462E+03 -0.24143939133E+03  0.31400476382E+03  0.10566000000E+00 0.  1.
          4    1    3    3  502    0  0.94389968406E+03  0.14352270736E+03  0.50149736567E+03  0.10784456356E+04  0.00000000000E+00 0.  1.
         13    1    4    4    0    0 -0.95066225425E+03 -0.13021399350E+03  0.15969958474E+04  0.18630915580E+04  0.10566000000E+00 0. -1.
         -4    1    4    4    0  501  0.25341520826E+02  0.18659332076E+03  0.13393622078E+02  0.18878201488E+03  0.00000000000E+00 0. -1.
<mgrwt>
<rscale>  2 0.13188679E+04</rscale>
<asrwt>0</asrwt>
<pdfrwt beam="1">  1        2 0.40882857E+00 0.13188679E+04</pdfrwt>
<pdfrwt beam="2">  1       -2 0.12106743E+00 0.13188679E+04</pdfrwt>
<totfact> 0.22009810E+00</totfact>
</mgrwt>
</event>
<event>
 8    1  0.7046235E-006  0.1110314E+04  0.7818608E-02  0.8677342E-01
         -2   -1    0    0    0  501 -0.00000000000E+00  0.00000000000E+00  0.51995717422E+03  0.51995717422E+03  0.00000000000E+00 0.  1.
          2   -1    0    0  502    0  0.00000000000E+00 -0.00000000000E+00 -0.23808658592E+04  0.23808658592E+04  0.00000000000E+00 0. -1.
    9000010    2    1    2  502    0 -0.47077148320E+03 -0.10158320549E+03 -0.10133982762E+04  0.14949623389E+04  0.98792276594E+03 0.  0.
   -9000010    2    1    2    0  501  0.47077148320E+03  0.10158320549E+03 -0.84751040877E+03  0.14058606945E+04  0.10130278685E+04 0.  0.
        -13    1    3    3    0    0 -0.56344205155E+03  0.16469621185E+03 -0.17821923204E+03  0.61347688912E+03  0.10566000000E+00 0.  1.
          4    1    3    3  502    0  0.92670568350E+02 -0.26627941734E+03 -0.83517904418E+03  0.88148544978E+03  0.00000000000E+00 0.  1.
         13    1    4    4    0    0  0.29505517737E+03  0.29666255604E+03 -0.10126561103E+04  0.10956909412E+04  0.10566000000E+00 0. -1.
         -4    1    4    4    0  501  0.17571630583E+03 -0.19507935055E+03  0.16514570149E+03  0.31016975330E+03  0.00000000000E+00 0. -1.
<mgrwt>
<rscale>  2 0.11103142E+04</rscale>
<asrwt>0</asrwt>
<pdfrwt beam="2">  1        2 0.36628706E+00 0.11103142E+04</pdfrwt>
<pdfrwt beam="1">  1       -2 0.79993411E-01 0.11103142E+04</pdfrwt>
<totfact> 0.87342631E+00</totfact>
</mgrwt>
</event>
<event>
 8    1  0.7046235E-006  0.2151912E+04  0.7818608E-02  0.8109198E-01
          1   -1    0    0  502    0  0.00000000000E+00  0.00000000000E+00  0.19661205258E+04  0.19661205258E+04  0.00000000000E+00 0. -1.
         -1   -1    0    0    0  501 -0.00000000000E+00 -0.00000000000E+00 -0.23553019207E+04  0.23553019207E+04  0.00000000000E+00 0.  1.
    9000010    2    1    2  502    0  0.14128322400E+04 -0.12803211611E+04 -0.18542765503E+03  0.21593778514E+04  0.99660025896E+03 0.  0.
   -9000010    2    1    2    0  501 -0.14128322400E+04  0.12803211611E+04 -0.20375373982E+03  0.21620445951E+04  0.99880129688E+03 0.  0.
        -13    1    3    3    0    0  0.13565117199E+04 -0.76236533576E+03 -0.38243263452E+03  0.16023669001E+04  0.10566000000E+00 0.  1.
          4    1    3    3  502    0  0.56320520081E+02 -0.51795582532E+03  0.19700497949E+03  0.55701095133E+03  0.00000000000E+00 0.  1.
         13    1    4    4    0    0 -0.13886853163E+04  0.98426495394E+03  0.13983509998E+03  0.17078578025E+04  0.10566000000E+00 0. -1.
         -4    1    4    4    0  501 -0.24146923722E+02  0.29605620714E+03 -0.34358883979E+03  0.45418679257E+03  0.00000000000E+00 0. -1.
<mgrwt>
<rscale>  2 0.21519119E+04</rscale>
<asrwt>0</asrwt>
<pdfrwt beam="1">  1        1 0.30248008E+00 0.21519119E+04</pdfrwt>
<pdfrwt beam="2">  1       -1 0.36235414E+00 0.21519119E+04</pdfrwt>
<totfact> 0.35012372E-02</totfact>
</mgrwt>
</event>
<event>
 8    1  0.7046235E-006  0.1005043E+04  0.7818608E-02  0.8769868E-01
          2   -1    0    0  502    0  0.00000000000E+00  0.00000000000E+00  0.11859519422E+04  0.11859519422E+04  0.00000000000E+00 0.  1.
         -2   -1    0    0    0  501 -0.00000000000E+00 -0.00000000000E+00 -0.85375170224E+03  0.85375170224E+03  0.00000000000E+00 0. -1.
    9000010    2    1    2  502    0 -0.39492717862E+02 -0.15072620443E+03  0.21231730967E+03  0.10157600558E+04  0.98102588522E+03 0.  0.
   -9000010    2    1    2    0  501  0.39492717862E+02  0.15072620443E+03  0.11988293030E+03  0.10239435887E+04  0.10048932741E+04 0.  0.
        -13    1    3    3    0    0  0.23754760381E+03 -0.78721608409E+02  0.53123169128E+03  0.58722489448E+03  0.10566000000E+00 0.  1.
          4    1    3    3  502    0 -0.27704032167E+03 -0.72004596025E+02 -0.31891438161E+03  0.42853516131E+03  0.00000000000E+00 0.  1.
         13    1    4    4    0    0  0.47702335900E+03 -0.18774751870E+02 -0.12664579876E+03  0.49390580665E+03  0.10566000000E+00 0. -1.
         -4    1    4    4    0  501 -0.43753064113E+03  0.16950095630E+03  0.24652872905E+03  0.53003778202E+03  0.00000000000E+00 0. -1.
<mgrwt>
<rscale>  2 0.10050429E+04</rscale>
<asrwt>0</asrwt>
<pdfrwt beam="1">  1        2 0.18245414E+00 0.10050429E+04</pdfrwt>
<pdfrwt beam="2">  1       -2 0.13134642E+00 0.10050429E+04</pdfrwt>
<totfact> 0.11819932E+01</totfact>
</mgrwt>
</event>
<event>
 8    1  0.7046235E-006  0.1140979E+04  0.7818608E-02  0.8652383E-01
         -4   -1    0    0    0  501 -0.00000000000E+00  0.00000000000E+00  0.31902000440E+04  0.31902000440E+04  0.00000000000E+00 0. -1.
          4   -1    0    0  502    0  0.00000000000E+00 -0.00000000000E+00 -0.52546470793E+03  0.52546470793E+03  0.00000000000E+00 0.  1.
    9000010    2    1    2  502    0  0.44608228118E+03  0.40099807106E+03  0.44926377142E+03  0.12210985174E+04  0.96408236075E+03 0.  0.
   -9000010    2    1    2    0  501 -0.44608228118E+03 -0.40099807106E+03  0.22154715646E+04  0.24945662345E+04  0.97711697874E+03 0.  0.
        -13    1    3    3    0    0  0.21145033551E+02  0.15839995767E+03 -0.29201790827E+03  0.33288455799E+03  0.10566000000E+00 0.  1.
          4    1    3    3  502    0  0.42493724763E+03  0.24259811339E+03  0.74128167969E+03  0.88821395941E+03  0.00000000000E+00 0.  1.
         13    1    4    4    0    0  0.43142746073E+01 -0.54965125402E+03  0.17326813698E+04  0.18177788244E+04  0.10566000000E+00 0. -1.
         -4    1    4    4    0  501 -0.45039655579E+03  0.14865318296E+03  0.48279019481E+03  0.67678741010E+03  0.00000000000E+00 0. -1.
<mgrwt>
<rscale>  2 0.11409792E+04</rscale>
<asrwt>0</asrwt>
<pdfrwt beam="2">  1        4 0.80840726E-01 0.11409792E+04</pdfrwt>
<pdfrwt beam="1">  1       -4 0.49080000E+00 0.11409792E+04</pdfrwt>
<totfact> 0.83633780E-02</totfact>
</mgrwt>
</event>
<event>
 8    1  0.7046235E-006  0.1128913E+04  0.7818608E-02  0.8662105E-01
          2   -1    0    0  502    0  0.00000000000E+00  0.00000000000E+00  0.20675549187E+04  0.20675549187E+04  0.00000000000E+00 0. -1.
         -2   -1    0    0    0  501 -0.00000000000E+00 -0.00000000000E+00 -0.70311431880E+03  0.70311431880E+03  0.00000000000E+00 0.  1.
    9000010    2    1    2  502    0  0.35228072431E+03  0.45233564676E+03  0.11692574405E+04  0.16260115591E+04  0.97367416632E+03 0.  0.
   -9000010    2    1    2    0  501 -0.35228072431E+03 -0.45233564676E+03  0.19518315945E+03  0.11446576784E+04  0.97130607382E+03 0.  0.
        -13    1    3    3    0    0  0.54322863434E+03  0.44381266052E+03  0.34846763644E+03  0.78326032174E+03  0.10566000000E+00 0.  1.
          4    1    3    3  502    0 -0.19094791003E+03  0.85229862448E+01  0.82078980406E+03  0.84275123737E+03  0.00000000000E+00 0.  1.
         13    1    4    4    0    0  0.25885991555E+03 -0.11770574715E+03  0.32932361365E+03  0.43510590947E+03  0.10566000000E+00 0. -1.
         -4    1    4    4    0  501 -0.61114063985E+03 -0.33462989961E+03 -0.13414045420E+03  0.70955176897E+03  0.00000000000E+00 0. -1.
<mgrwt>
<rscale>  2 0.11289135E+04</rscale>
<asrwt>0</asrwt>
<pdfrwt beam="1">  1        2 0.31808537E+00 0.11289135E+04</pdfrwt>
<pdfrwt beam="2">  1       -2 0.10817143E+00 0.11289135E+04</pdfrwt>
<totfact> 0.63917367E+00</totfact>
</mgrwt>
</event>
<event>
 8    1  0.7046235E-006  0.1119612E+04  0.7818608E-02  0.8669687E-01
          2   -1    0    0  502    0  0.00000000000E+00  0.00000000000E+00  0.12959969994E+04  0.12959969994E+04  0.00000000000E+00 0. -1.
         -2   -1    0    0    0  501 -0.00000000000E+00 -0.00000000000E+00 -0.96751801252E+03  0.96751801252E+03  0.00000000000E+00 0.  1.
    9000010    2    1    2  502    0  0.45419366598E+03  0.17151497098E+03  0.17688703461E+03  0.11209370585E+04  0.99473694740E+03 0.  0.
   -9000010    2    1    2    0  501 -0.45419366598E+03 -0.17151497098E+03  0.15159195223E+03  0.11425779534E+04  0.10231299957E+04 0.  0.
        -13    1    3    3    0    0  0.63581287359E+03  0.14255391303E+03 -0.21654769485E+03  0.68663858299E+03  0.10566000000E+00 0.  1.
          4    1    3    3  502    0 -0.18161920762E+03  0.28961057947E+02  0.39343472945E+03  0.43429847547E+03  0.00000000000E+00 0.  1.
         13    1    4    4    0    0 -0.40713206880E+03  0.37404884183E+03 -0.58734402418E+02  0.55598453100E+03  0.10566000000E+00 0. -1.
         -4    1    4    4    0  501 -0.47061597176E+02 -0.54556381281E+03  0.21032635464E+03  0.58659342242E+03  0.00000000000E+00 0. -1.
<mgrwt>
<rscale>  2 0.11196117E+04</rscale>
<asrwt>0</asrwt>
<pdfrwt beam="1">  1        2 0.19938415E+00 0.11196117E+04</pdfrwt>
<pdfrwt beam="2">  1       -2 0.14884893E+00 0.11196117E+04</pdfrwt>
<totfact> 0.70428035E+00</totfact>
</mgrwt>
</event>
<event>
 8    1  0.7046235E-006  0.1118402E+04  0.7818608E-02  0.8670678E-01
         -2   -1    0    0    0  501 -0.00000000000E+00  0.00000000000E+00  0.10235202423E+04  0.10235202423E+04  0.00000000000E+00 0.  1.
          2   -1    0    0  502    0  0.00000000000E+00 -0.00000000000E+00 -0.12382921604E+04  0.12382921604E+04  0.00000000000E+00 0. -1.
    9000010    2    1    2  502    0  0.38977390994E+03 -0.33204332712E+03 -0.23685618319E+03  0.11439402937E+04  0.99514927130E+03 0.  0.
   -9000010    2    1    2    0  501 -0.38977390994E+03  0.33204332712E+03  0.22084265152E+02  0.11178721090E+04  0.99346558337E+03 0.  0.
        -13    1    3    3    0    0  0.54912430534E+03 -0.19329248767E+03  0.23433417178E+03  0.62754442371E+03  0.10566000000E+00 0.  1.
          4    1    3    3  502    0 -0.15935039540E+03 -0.13875083945E+03 -0.47119035497E+03  0.51639587003E+03  0.00000000000E+00 0.  1.
         13    1    4    4    0    0  0.63072781831E+02 -0.20163409887E+03 -0.28399256577E+03  0.35395801193E+03  0.10566000000E+00 0. -1.
         -4    1    4    4    0  501 -0.45284669177E+03  0.53367742599E+03  0.30607683092E+03  0.76391409706E+03  0.00000000000E+00 0. -1.
<mgrwt>
<rscale>  2 0.11184021E+04</rscale>
<asrwt>0</asrwt>
<pdfrwt beam="2">  1        2 0.19050649E+00 0.11184021E+04</pdfrwt>
<pdfrwt beam="1">  1       -2 0.15746465E+00 0.11184021E+04</pdfrwt>
<totfact> 0.63735222E+00</totfact>
</mgrwt>
</event>
<event>
 8    1  0.7046235E-006  0.1682369E+04  0.7818608E-02  0.8311639E-01
         -2   -1    0    0    0  501 -0.00000000000E+00  0.00000000000E+00  0.24042716348E+04  0.24042716348E+04  0.00000000000E+00 0. -1.
          2   -1    0    0  502    0  0.00000000000E+00 -0.00000000000E+00 -0.13959420715E+04  0.13959420715E+04  0.00000000000E+00 0.  1.
    9000010    2    1    2  502    0 -0.36472209357E+03 -0.13079451308E+04  0.12585751467E+04  0.21085597257E+04  0.10090936756E+04 0.  0.
   -9000010    2    1    2    0  501  0.36472209357E+03  0.13079451308E+04 -0.25024558336E+03  0.16916539807E+04  0.97740864931E+03 0.  0.
        -13    1    3    3    0    0 -0.22913599994E+03 -0.13180181531E+04  0.13830764606E+04  0.19242078020E+04  0.10566000000E+00 0.  1.
          4    1    3    3  502    0 -0.13558609363E+03  0.10073022232E+02 -0.12450131398E+03  0.18435192363E+03  0.00000000000E+00 0.  1.
         13    1    4    4    0    0  0.16898427783E+03  0.12360774354E+04 -0.51923261749E+03  0.13513125600E+04  0.10566000000E+00 0. -1.
         -4    1    4    4    0  501  0.19573781574E+03  0.71867695403E+02  0.26898703413E+03  0.34034142076E+03  0.00000000000E+00 0. -1.
<mgrwt>
<rscale>  2 0.16823693E+04</rscale>
<asrwt>0</asrwt>
<pdfrwt beam="2">  1        2 0.21476032E+00 0.16823693E+04</pdfrwt>
<pdfrwt beam="1">  1       -2 0.36988794E+00 0.16823693E+04</pdfrwt>
<totfact> 0.11746436E-01</totfact>
</mgrwt>
</event>
<event>
 8    1  0.7046235E-006  0.1201665E+04  0.7818608E-02  0.8605310E-01
         -2   -1    0    0    0  501 -0.00000000000E+00  0.00000000000E+00  0.14401886929E+04  0.14401886929E+04  0.00000000000E+00 0. -1.
          2   -1    0    0  502    0  0.00000000000E+00 -0.00000000000E+00 -0.10449515857E+04  0.10449515857E+04  0.00000000000E+00 0.  1.
    9000010    2    1    2  502    0  0.68131717390E+03  0.43860272973E+02  0.44584769428E+03  0.12723862557E+04  0.97676496770E+03 0.  0.
   -9000010    2    1    2    0  501 -0.68131717390E+03 -0.43860272973E+02 -0.50610587111E+02  0.12127540229E+04  0.10010464893E+04 0.  0.
        -13    1    3    3    0    0  0.39615901069E+03  0.51444128345E+02  0.75349205160E+03  0.85284156974E+03  0.10566000000E+00 0.  1.
          4    1    3    3  502    0  0.28515816321E+03 -0.75838553712E+01 -0.30764435732E+03  0.41954468593E+03  0.00000000000E+00 0.  1.
         13    1    4    4    0    0  0.45595797208E+02  0.21905137219E+03 -0.32320901782E+03  0.39309866541E+03  0.10566000000E+00 0. -1.
         -4    1    4    4    0  501 -0.72691297111E+03 -0.26291164516E+03  0.27259843071E+03  0.81965535754E+03  0.00000000000E+00 0. -1.
<mgrwt>
<rscale>  2 0.12016651E+04</rscale>
<asrwt>0</asrwt>
<pdfrwt beam="2">  1        2 0.16076178E+00 0.12016651E+04</pdfrwt>
<pdfrwt beam="1">  1       -2 0.22156749E+00 0.12016651E+04</pdfrwt>
<totfact> 0.23942332E+00</totfact>
</mgrwt>
</event>
<event>
 8    1  0.7046235E-006  0.1206033E+04  0.7818608E-02  0.8602033E-01
          2   -1    0    0  502    0  0.00000000000E+00  0.00000000000E+00  0.19320705473E+04  0.19320705473E+04  0.00000000000E+00 0.  1.
         -2   -1    0    0    0  501 -0.00000000000E+00 -0.00000000000E+00 -0.75334121414E+03  0.75334121414E+03  0.00000000000E+00 0. -1.
    9000010    2    1    2  502    0  0.33476167125E+03  0.59494321272E+03  0.62420587869E+03  0.13576036407E+04  0.99369606187E+03 0.  0.
   -9000010    2    1    2    0  501 -0.33476167125E+03 -0.59494321272E+03  0.55452345446E+03  0.13278081207E+04  0.99476396245E+03 0.  0.
        -13    1    3    3    0    0  0.66405964572E+03  0.47909280533E+03  0.27486875139E+03  0.86374647371E+03  0.10566000000E+00 0.  1.
          4    1    3    3  502    0 -0.32929797448E+03  0.11585040739E+03  0.34933712731E+03  0.49385716700E+03  0.00000000000E+00 0.  1.
         13    1    4    4    0    0 -0.57184796299E+03 -0.53430035791E+02  0.10195321440E+03  0.58331752124E+03  0.10566000000E+00 0. -1.
         -4    1    4    4    0  501  0.23708629174E+03 -0.54151317693E+03  0.45257024006E+03  0.74449059948E+03  0.00000000000E+00 0. -1.
<mgrwt>
<rscale>  2 0.12060332E+04</rscale>
<asrwt>0</asrwt>
<pdfrwt beam="1">  1        2 0.29724162E+00 0.12060332E+04</pdfrwt>
<pdfrwt beam="2">  1       -2 0.11589865E+00 0.12060332E+04</pdfrwt>
<totfact> 0.63050502E+00</totfact>
</mgrwt>
</event>
<event>
 8    1  0.7046235E-006  0.1088113E+04  0.7818608E-02  0.8695942E-01
         -1   -1    0    0    0  501 -0.00000000000E+00  0.00000000000E+00  0.15188109076E+04  0.15188109076E+04  0.00000000000E+00 0.  1.
          1   -1    0    0  502    0  0.00000000000E+00 -0.00000000000E+00 -0.98176675753E+03  0.98176675753E+03  0.00000000000E+00 0. -1.
    9000010    2    1    2  502    0 -0.16698277518E+03  0.32952058794E+03  0.83765975552E+03  0.13805149410E+04  0.10332862968E+04 0.  0.
   -9000010    2    1    2    0  501  0.16698277518E+03 -0.32952058794E+03 -0.30061560549E+03  0.11200627241E+04  0.10137572187E+04 0.  0.
        -13    1    3    3    0    0 -0.66201294248E+01  0.52049984107E+03  0.96803299419E+03  0.10991140977E+04  0.10566000000E+00 0.  1.
          4    1    3    3  502    0 -0.16036264575E+03 -0.19097925314E+03 -0.13037323866E+03  0.28140084335E+03  0.00000000000E+00 0.  1.
         13    1    4    4    0    0  0.35955517013E+03 -0.84077141591E+02  0.27833602914E+03  0.46240657693E+03  0.10566000000E+00 0. -1.
         -4    1    4    4    0  501 -0.19257239496E+03 -0.24544344635E+03 -0.57895163463E+03  0.65765614716E+03  0.00000000000E+00 0. -1.
<mgrwt>
<rscale>  2 0.10881133E+04</rscale>
<asrwt>0</asrwt>
<pdfrwt beam="2">  1        1 0.15104104E+00 0.10881133E+04</pdfrwt>
<pdfrwt beam="1">  1       -1 0.23366322E+00 0.10881133E+04</pdfrwt>
<totfact> 0.14642518E+00</totfact>
</mgrwt>
</event>
<event>
 8    1  0.7046235E-006  0.1079483E+04  0.7818608E-02  0.8703298E-01
         -4   -1    0    0    0  501 -0.00000000000E+00  0.00000000000E+00  0.64537310018E+03  0.64537310018E+03  0.00000000000E+00 0. -1.
          4   -1    0    0  502    0  0.00000000000E+00 -0.00000000000E+00 -0.18403746143E+04  0.18403746143E+04  0.00000000000E+00 0.  1.
    9000010    2    1    2  502    0 -0.40351574004E+03  0.93072630012E+02 -0.78072895028E+03  0.13559067117E+04  0.10283276959E+04 0.  0.
   -9000010    2    1    2    0  501  0.40351574004E+03 -0.93072630012E+02 -0.41427256387E+03  0.11298410028E+04  0.96614257104E+03 0.  0.
        -13    1    3    3    0    0 -0.22961745073E+03 -0.45626574761E+03 -0.23487387889E+03  0.56219956979E+03  0.10566000000E+00 0.  1.
          4    1    3    3  502    0 -0.17389828931E+03  0.54933837762E+03 -0.54585507139E+03  0.79370714191E+03  0.00000000000E+00 0.  1.
         13    1    4    4    0    0 -0.22089211511E+03 -0.90089331070E+02  0.15531709313E+03  0.28466265064E+03  0.10566000000E+00 0. -1.
         -4    1    4    4    0  501  0.62440785515E+03 -0.29832989419E+01 -0.56958965700E+03  0.84517835219E+03  0.00000000000E+00 0. -1.
<mgrwt>
<rscale>  2 0.10794828E+04</rscale>
<asrwt>0</asrwt>
<pdfrwt beam="2">  1        4 0.28313455E+00 0.10794828E+04</pdfrwt>
<pdfrwt beam="1">  1       -4 0.99288171E-01 0.10794828E+04</pdfrwt>
<totfact> 0.33714195E-01</totfact>
</mgrwt>
</event>
<event>
 8    1  0.7046235E-006  0.1255854E+04  0.7818608E-02  0.8565649E-01
         -2   -1    0    0    0  501 -0.00000000000E+00  0.00000000000E+00  0.50025119936E+03  0.50025119936E+03  0.00000000000E+00 0.  1.
          2   -1    0    0  502    0  0.00000000000E+00 -0.00000000000E+00 -0.36480598500E+04  0.36480598500E+04  0.00000000000E+00 0. -1.
    9000010    2    1    2  502    0 -0.75649804752E+03 -0.32641104775E+02 -0.76716383657E+03  0.14365102952E+04  0.94956134006E+03 0.  0.
   -9000010    2    1    2    0  501  0.75649804752E+03  0.32641104775E+02 -0.23806448141E+04  0.27118007541E+04  0.10550065695E+04 0.  0.
        -13    1    3    3    0    0  0.25068924133E+02 -0.57612228804E+02 -0.64143078173E+03  0.64450064296E+03  0.10566000000E+00 0.  1.
          4    1    3    3  502    0 -0.78156697165E+03  0.24971124028E+02 -0.12573305485E+03  0.79200965227E+03  0.00000000000E+00 0.  1.
         13    1    4    4    0    0  0.19514628244E+03  0.32748969191E+03 -0.18383255278E+04  0.18774377026E+04  0.10566000000E+00 0. -1.
         -4    1    4    4    0  501  0.56135176508E+03 -0.29484858714E+03 -0.54231928627E+03  0.83436305153E+03  0.00000000000E+00 0. -1.
<mgrwt>
<rscale>  2 0.12558545E+04</rscale>
<asrwt>0</asrwt>
<pdfrwt beam="2">  1        2 0.56123999E+00 0.12558545E+04</pdfrwt>
<pdfrwt beam="1">  1       -2 0.76961722E-01 0.12558545E+04</pdfrwt>
<totfact> 0.14554174E+00</totfact>
</mgrwt>
</event>
<event>
 8    1  0.7046235E-006  0.1292305E+04  0.7818608E-02  0.8540118E-01
          2   -1    0    0  502    0  0.00000000000E+00  0.00000000000E+00  0.26202529285E+04  0.26202529285E+04  0.00000000000E+00 0. -1.
         -2   -1    0    0    0  501 -0.00000000000E+00 -0.00000000000E+00 -0.66234115655E+03  0.66234115655E+03  0.00000000000E+00 0.  1.
    9000010    2    1    2  502    0  0.12698341266E+02  0.81837920216E+03  0.65288587751E+03  0.14385891304E+04  0.98659665039E+03 0.  0.
   -9000010    2    1    2    0  501 -0.12698341266E+02 -0.81837920216E+03  0.13050258944E+04  0.18440049547E+04  0.10135856754E+04 0.  0.
        -13    1    3    3    0    0 -0.23133703422E+03  0.75776624291E+03  0.81719463848E+03  0.11382150898E+04  0.10566000000E+00 0.  1.
          4    1    3    3  502    0  0.24403537549E+03  0.60612959245E+02 -0.16430876097E+03  0.30037404057E+03  0.00000000000E+00 0.  1.
         13    1    4    4    0    0  0.22105313401E+03 -0.72945608226E+02  0.96379812327E+03  0.99151015294E+03  0.10566000000E+00 0. -1.
         -4    1    4    4    0  501 -0.23375147527E+03 -0.74543359393E+03  0.34122777115E+03  0.85249480172E+03  0.00000000000E+00 0. -1.
<mgrwt>
<rscale>  2 0.12923050E+04</rscale>
<asrwt>0</asrwt>
<pdfrwt beam="1">  1        2 0.40311583E+00 0.12923050E+04</pdfrwt>
<pdfrwt beam="2">  1       -2 0.10189864E+00 0.12923050E+04</pdfrwt>
<totfact> 0.35897248E+00</totfact>
</mgrwt>
</event>
<event>
 8    1  0.7046235E-006  0.1691876E+04  0.7818608E-02  0.8306892E-01
         -2   -1    0    0    0  501 -0.00000000000E+00  0.00000000000E+00  0.15288533417E+04  0.15288533417E+04  0.00000000000E+00 0. -1.
          2   -1    0    0  502    0  0.00000000000E+00 -0.00000000000E+00 -0.20622611720E+04  0.20622611720E+04  0.00000000000E+00 0.  1.
    9000010    2    1    2  502    0 -0.11502986226E+03 -0.13514313938E+04  0.27886985567E+03  0.17104780636E+04  0.10041753474E+04 0.  0.
   -9000010    2    1    2    0  501  0.11502986226E+03  0.13514313938E+04 -0.81227768603E+03  0.18806364501E+04  0.10185282210E+04 0.  0.
        -13    1    3    3    0    0  0.38518212801E+03 -0.94701281473E+03  0.30446340164E+03  0.10667223243E+04  0.10566000000E+00 0.  1.
          4    1    3    3  502    0 -0.50021199027E+03 -0.40441857908E+03 -0.25593545963E+02  0.64375573932E+03  0.00000000000E+00 0.  1.
         13    1    4    4    0    0  0.12224165889E+02  0.15048576670E+04 -0.66908585736E+03  0.16469432061E+04  0.10566000000E+00 0. -1.
         -4    1    4    4    0  501  0.10280569637E+03 -0.15342627323E+03 -0.14319182867E+03  0.23369324406E+03  0.00000000000E+00 0. -1.
<mgrwt>
<rscale>  2 0.16918764E+04</rscale>
<asrwt>0</asrwt>
<pdfrwt beam="2">  1        2 0.31727095E+00 0.16918764E+04</pdfrwt>
<pdfrwt beam="1">  1       -2 0.23520821E+00 0.16918764E+04</pdfrwt>
<totfact> 0.48070854E-01</totfact>
</mgrwt>
</event>
<event>
 8    1  0.7046235E-006  0.1252847E+04  0.7818608E-02  0.8567795E-01
          1   -1    0    0  502    0  0.00000000000E+00  0.00000000000E+00  0.16299346144E+04  0.16299346144E+04  0.00000000000E+00 0. -1.
         -1   -1    0    0    0  501 -0.00000000000E+00 -0.00000000000E+00 -0.11536959977E+04  0.11536959977E+04  0.00000000000E+00 0.  1.
    9000010    2    1    2  502    0  0.72557391838E+03 -0.17153395362E+03 -0.32804320438E+03  0.12932050102E+04  0.10044328978E+04 0.  0.
   -9000010    2    1    2    0  501 -0.72557391838E+03  0.17153395362E+03  0.80428182103E+03  0.14904256020E+04  0.10092659803E+04 0.  0.
        -13    1    3    3    0    0  0.20985253402E+03 -0.46515585977E+03  0.14919873573E+03  0.53166562219E+03  0.10566000000E+00 0.  1.
          4    1    3    3  502    0  0.51572138436E+03  0.29362190615E+03 -0.47724194011E+03  0.76153938799E+03  0.00000000000E+00 0.  1.
         13    1    4    4    0    0 -0.57414856209E+03  0.24951103398E+03  0.10314108345E+04  0.12065283453E+04  0.10566000000E+00 0. -1.
         -4    1    4    4    0  501 -0.15142535629E+03 -0.77977080363E+02 -0.22712901344E+03  0.28389725665E+03  0.00000000000E+00 0. -1.
<mgrwt>
<rscale>  2 0.12528470E+04</rscale>
<asrwt>0</asrwt>
<pdfrwt beam="1">  1        1 0.25075917E+00 0.12528470E+04</pdfrwt>
<pdfrwt beam="2">  1       -1 0.17749169E+00 0.12528470E+04</pdfrwt>
<totfact> 0.14752323E+00</totfact>
</mgrwt>
</event>
<event>
 8    1  0.7046235E-006  0.1173112E+04  0.7818608E-02  0.8627089E-01
          2   -1    0    0  502    0  0.00000000000E+00  0.00000000000E+00  0.21868250380E+04  0.21868250380E+04  0.00000000000E+00 0.  1.
         -2   -1    0    0    0  501 -0.00000000000E+00 -0.00000000000E+00 -0.10388931768E+04  0.10388931768E+04  0.00000000000E+00 0. -1.
    9000010    2    1    2  502    0 -0.43745427962E+03 -0.42159817314E+03 -0.43816104818E+03  0.12540793958E+04  0.10057926031E+04 0.  0.
   -9000010    2    1    2    0  501  0.43745427962E+03  0.42159817314E+03  0.15860929094E+04  0.19716388191E+04  0.10012780080E+04 0.  0.
        -13    1    3    3    0    0 -0.48908747567E+03  0.13647441970E+03 -0.47110546589E+03  0.69265590105E+03  0.10566000000E+00 0.  1.
          4    1    3    3  502    0  0.51633196050E+02 -0.55807259284E+03  0.32944417712E+02  0.56142349477E+03  0.00000000000E+00 0.  1.
         13    1    4    4    0    0 -0.30160245439E+03  0.22867130524E+03  0.33313281067E+03  0.50421432650E+03  0.10566000000E+00 0. -1.
         -4    1    4    4    0  501  0.73905673402E+03  0.19292686790E+03  0.12529600987E+04  0.14674244926E+04  0.00000000000E+00 0. -1.
<mgrwt>
<rscale>  2 0.11731121E+04</rscale>
<asrwt>0</asrwt>
<pdfrwt beam="1">  1        2 0.33643462E+00 0.11731121E+04</pdfrwt>
<pdfrwt beam="2">  1       -2 0.15982972E+00 0.11731121E+04</pdfrwt>
<totfact> 0.18274009E+00</totfact>
</mgrwt>
</event>
<event>
 8    1  0.7046235E-006  0.1752683E+04  0.7818608E-02  0.8277276E-01
          1   -1    0    0  502    0  0.00000000000E+00  0.00000000000E+00  0.10780553876E+04  0.10780553876E+04  0.00000000000E+00 0. -1.
         -1   -1    0    0    0  501 -0.00000000000E+00 -0.00000000000E+00 -0.28900880273E+04  0.28900880273E+04  0.00000000000E+00 0.  1.
    9000010    2    1    2  502    0  0.14406428701E+04 -0.13937309280E+03 -0.67156306980E+03  0.18782656890E+04  0.99096332101E+03 0.  0.
   -9000010    2    1    2    0  501 -0.14406428701E+04  0.13937309280E+03 -0.11404695698E+04  0.20898777259E+04  0.98592156456E+03 0.  0.
        -13    1    3    3    0    0  0.14817284541E+04  0.77216033552E+02 -0.41640119328E+03  0.15410618069E+04  0.10566000000E+00 0.  1.
          4    1    3    3  502    0 -0.41085584089E+02 -0.21658912635E+03 -0.25516187652E+03  0.33720388210E+03  0.00000000000E+00 0.  1.
         13    1    4    4    0    0  0.26671955039E+02  0.12186105504E+02 -0.47122973151E+03  0.47214125575E+03  0.10566000000E+00 0. -1.
         -4    1    4    4    0  501 -0.14673148251E+04  0.12718698729E+03 -0.66923983833E+03  0.16177364702E+04  0.00000000000E+00 0. -1.
<mgrwt>
<rscale>  2 0.17526829E+04</rscale>
<asrwt>0</asrwt>
<pdfrwt beam="1">  1        1 0.16585467E+00 0.17526829E+04</pdfrwt>
<pdfrwt beam="2">  1       -1 0.44462893E+00 0.17526829E+04</pdfrwt>
<totfact> 0.18800080E-01</totfact>
</mgrwt>
</event>
<event>
 8    1  0.7046235E-006  0.1117900E+04  0.7818608E-02  0.8671090E-01
          2   -1    0    0  502    0  0.00000000000E+00  0.00000000000E+00  0.14961771015E+04  0.14961771015E+04  0.00000000000E+00 0. -1.
         -2   -1    0    0    0  501 -0.00000000000E+00 -0.00000000000E+00 -0.11473688541E+04  0.11473688541E+04  0.00000000000E+00 0.  1.
    9000010    2    1    2  502    0  0.24774474669E+03  0.45530993948E+03 -0.51602207111E+03  0.12221501946E+04  0.97912599795E+03 0.  0.
   -9000010    2    1    2    0  501 -0.24774474669E+03 -0.45530993948E+03  0.86483031845E+03  0.14213957610E+04  0.10018731602E+04 0.  0.
        -13    1    3    3    0    0 -0.27964381858E+03 -0.80363752617E+02  0.30789742148E+02  0.29258676899E+03  0.10566000000E+00 0.  1.
          4    1    3    3  502    0  0.52738856527E+03  0.53567369210E+03 -0.54681181325E+03  0.92956342564E+03  0.00000000000E+00 0.  1.
         13    1    4    4    0    0  0.10100909225E+03  0.28859824860E+03  0.21322457466E+03  0.37276871678E+03  0.10566000000E+00 0. -1.
         -4    1    4    4    0  501 -0.34875383894E+03 -0.74390818808E+03  0.65160574379E+03  0.10486270442E+04  0.00000000000E+00 0. -1.
<mgrwt>
<rscale>  2 0.11178999E+04</rscale>
<asrwt>0</asrwt>
<pdfrwt beam="1">  1        2 0.23018109E+00 0.11178999E+04</pdfrwt>
<pdfrwt beam="2">  1       -2 0.17651829E+00 0.11178999E+04</pdfrwt>
<totfact> 0.31614082E+00</totfact>
</mgrwt>
</event>
<event>
 8    1  0.7046235E-006  0.1344824E+04  0.7818608E-02  0.8504820E-01
         -2   -1    0    0    0  501 -0.00000000000E+00  0.00000000000E+00  0.52189630072E+03  0.52189630072E+03  0.00000000000E+00 0.  1.
          2   -1    0    0  502    0  0.00000000000E+00 -0.00000000000E+00 -0.34686588132E+04  0.34686588132E+04  0.00000000000E+00 0. -1.
    9000010    2    1    2  502    0  0.86560858934E+03 -0.69560949897E+02 -0.14227497798E+04  0.19638144169E+04  0.10383800713E+04 0.  0.
   -9000010    2    1    2    0  501 -0.86560858934E+03  0.69560949897E+02 -0.15240127327E+04  0.20267406970E+04  0.10153551536E+04 0.  0.
        -13    1    3    3    0    0 -0.19084891132E+03 -0.53442025887E+02 -0.83802551121E+01  0.19836732826E+03  0.10566000000E+00 0.  1.
          4    1    3    3  502    0  0.10564575007E+04 -0.16118924011E+02 -0.14143695247E+04  0.17654470886E+04  0.00000000000E+00 0.  1.
         13    1    4    4    0    0 -0.51398962307E+03 -0.35562914027E+03 -0.12779616138E+04  0.14226184715E+04  0.10566000000E+00 0. -1.
         -4    1    4    4    0  501 -0.35161896627E+03  0.42519009017E+03 -0.24605111889E+03  0.60412222549E+03  0.00000000000E+00 0. -1.
<mgrwt>
<rscale>  2 0.13448242E+04</rscale>
<asrwt>0</asrwt>
<pdfrwt beam="2">  1        2 0.53363982E+00 0.13448242E+04</pdfrwt>
<pdfrwt beam="1">  1       -2 0.80291739E-01 0.13448242E+04</pdfrwt>
<totfact> 0.17978503E+00</totfact>
</mgrwt>
</event>
<event>
 8    1  0.7046235E-006  0.1177523E+04  0.7818608E-02  0.8623683E-01
          2   -1    0    0  502    0  0.00000000000E+00  0.00000000000E+00  0.26713214889E+04  0.26713214889E+04  0.00000000000E+00 0. -1.
         -2   -1    0    0    0  501 -0.00000000000E+00 -0.00000000000E+00 -0.61713190082E+03  0.61713190082E+03  0.00000000000E+00 0.  1.
    9000010    2    1    2  502    0  0.57783562427E+03  0.27111873388E+03  0.16907985542E+04  0.20670366775E+04  0.10032155794E+04 0.  0.
   -9000010    2    1    2    0  501 -0.57783562427E+03 -0.27111873388E+03  0.36339103388E+03  0.12214167122E+04  0.97591309287E+03 0.  0.
        -13    1    3    3    0    0 -0.77754175325E+02 -0.20480617339E+03  0.32546281783E+02  0.22147359224E+03  0.10566000000E+00 0.  1.
          4    1    3    3  502    0  0.65558979960E+03  0.47592490727E+03  0.16582522724E+04  0.18455630852E+04  0.00000000000E+00 0.  1.
         13    1    4    4    0    0 -0.75856775096E+03 -0.19649230986E+02  0.20103392312E+02  0.75908845507E+03  0.10566000000E+00 0. -1.
         -4    1    4    4    0  501  0.18073212668E+03 -0.25146950290E+03  0.34328764157E+03  0.46232825715E+03  0.00000000000E+00 0. -1.
<mgrwt>
<rscale>  2 0.11775229E+04</rscale>
<asrwt>0</asrwt>
<pdfrwt beam="1">  1        2 0.41097253E+00 0.11775229E+04</pdfrwt>
<pdfrwt beam="2">  1       -2 0.94943371E-01 0.11775229E+04</pdfrwt>
<totfact> 0.40256016E+00</totfact>
</mgrwt>
</event>
<event>
 8    1  0.7046235E-006  0.1220024E+04  0.7818608E-02  0.8591635E-01
          1   -1    0    0  502    0  0.00000000000E+00  0.00000000000E+00  0.55094103028E+03  0.55094103028E+03  0.00000000000E+00 0. -1.
         -1   -1    0    0    0  501 -0.00000000000E+00 -0.00000000000E+00 -0.31327824781E+04  0.31327824781E+04  0.00000000000E+00 0.  1.
    9000010    2    1    2  502    0 -0.11959551065E+03  0.65022775632E+03 -0.63794092101E+03  0.14050151006E+04  0.10630143898E+04 0.  0.
   -9000010    2    1    2    0  501  0.11959551065E+03 -0.65022775632E+03 -0.19439005268E+04  0.22787084078E+04  0.98826288421E+03 0.  0.
        -13    1    3    3    0    0 -0.58810701867E+03  0.26488417768E+03 -0.34153490731E+03  0.72984902347E+03  0.10566000000E+00 0.  1.
          4    1    3    3  502    0  0.46851150802E+03  0.38534357864E+03 -0.29640601370E+03  0.67516607713E+03  0.00000000000E+00 0.  1.
         13    1    4    4    0    0  0.23650666307E+03 -0.19227396064E+03 -0.17356699345E+04  0.17622300674E+04  0.10566000000E+00 0. -1.
         -4    1    4    4    0  501 -0.11691115242E+03 -0.45795379568E+03 -0.20823059228E+03  0.51647834040E+03  0.00000000000E+00 0. -1.
<mgrwt>
<rscale>  2 0.12200236E+04</rscale>
<asrwt>0</asrwt>
<pdfrwt beam="1">  1        1 0.84760156E-01 0.12200236E+04</pdfrwt>
<pdfrwt beam="2">  1       -1 0.48196655E+00 0.12200236E+04</pdfrwt>
<totfact> 0.53927440E-01</totfact>
</mgrwt>
</event>
<event>
 8    1  0.7046235E-006  0.1078842E+04  0.7818608E-02  0.8703847E-01
         -2   -1    0    0    0  501 -0.00000000000E+00  0.00000000000E+00  0.11037180445E+04  0.11037180445E+04  0.00000000000E+00 0.  1.
          2   -1    0    0  502    0  0.00000000000E+00 -0.00000000000E+00 -0.11693183409E+04  0.11693183409E+04  0.00000000000E+00 0. -1.
    9000010    2    1    2  502    0  0.75715078514E+01 -0.39583707429E+03  0.32334187444E+03  0.11244098382E+04  0.10015004739E+04 0.  0.
   -9000010    2    1    2    0  501 -0.75715078514E+01  0.39583707429E+03 -0.38894217084E+03  0.11486265471E+04  0.10056453726E+04 0.  0.
        -13    1    3    3    0    0  0.38726604540E+03  0.82757338650E+02 -0.63854035745E+02  0.40112481358E+03  0.10566000000E+00 0.  1.
          4    1    3    3  502    0 -0.37969453755E+03 -0.47859441294E+03  0.38719591019E+03  0.72328502460E+03  0.00000000000E+00 0.  1.
         13    1    4    4    0    0  0.90736780498E+02 -0.13864395436E+03 -0.55593385226E+03  0.58010151583E+03  0.10566000000E+00 0. -1.
         -4    1    4    4    0  501 -0.98308288349E+02  0.53448102865E+03  0.16699168143E+03  0.56852503130E+03  0.00000000000E+00 0. -1.
<mgrwt>
<rscale>  2 0.10788419E+04</rscale>
<asrwt>0</asrwt>
<pdfrwt beam="2">  1        2 0.17989513E+00 0.10788419E+04</pdfrwt>
<pdfrwt beam="1">  1       -2 0.16980278E+00 0.10788419E+04</pdfrwt>
<totfact> 0.54981408E+00</totfact>
</mgrwt>
</event>
<event>
 8    1  0.7046235E-006  0.1065745E+04  0.7818608E-02  0.8715157E-01
         -1   -1    0    0    0  501 -0.00000000000E+00  0.00000000000E+00  0.10175951699E+04  0.10175951699E+04  0.00000000000E+00 0.  1.
          1   -1    0    0  502    0  0.00000000000E+00 -0.00000000000E+00 -0.11217402569E+04  0.11217402569E+04  0.00000000000E+00 0. -1.
    9000010    2    1    2  502    0  0.43882232832E+03  0.77675275173E+02 -0.12735255137E+03  0.10720076341E+04  0.96663499368E+03 0.  0.
   -9000010    2    1    2    0  501 -0.43882232832E+03 -0.77675275173E+02  0.23207464337E+02  0.10673277927E+04  0.96956255415E+03 0.  0.
        -13    1    3    3    0    0 -0.21196652371E+03  0.26497603596E+03  0.10636465916E+03  0.35560590362E+03  0.10566000000E+00 0.  1.
          4    1    3    3  502    0  0.65078885203E+03 -0.18730076079E+03 -0.23371721053E+03  0.71640173047E+03  0.00000000000E+00 0.  1.
         13    1    4    4    0    0 -0.72581662217E+03 -0.19231479131E+03  0.72591023739E+02  0.75436345077E+03  0.10566000000E+00 0. -1.
         -4    1    4    4    0  501  0.28699429385E+03  0.11463951613E+03 -0.49383559403E+02  0.31296434190E+03  0.00000000000E+00 0. -1.
<mgrwt>
<rscale>  2 0.10657450E+04</rscale>
<asrwt>0</asrwt>
<pdfrwt beam="2">  1        1 0.17257542E+00 0.10657450E+04</pdfrwt>
<pdfrwt beam="1">  1       -1 0.15655310E+00 0.10657450E+04</pdfrwt>
<totfact> 0.55488817E+00</totfact>
</mgrwt>
</event>
<event>
 8    1  0.7046235E-006  0.1328558E+04  0.7818608E-02  0.8515572E-01
         -2   -1    0    0    0  501 -0.00000000000E+00  0.00000000000E+00  0.79382290690E+03  0.79382290690E+03  0.00000000000E+00 0. -1.
          2   -1    0    0  502    0  0.00000000000E+00 -0.00000000000E+00 -0.22416399606E+04  0.22416399606E+04  0.00000000000E+00 0.  1.
    9000010    2    1    2  502    0  0.36416098498E+03 -0.78707994373E+03 -0.85665633773E+03  0.15752726896E+04  0.99775543337E+03 0.  0.
   -9000010    2    1    2    0  501 -0.36416098498E+03  0.78707994373E+03 -0.59116071593E+03  0.14601901779E+04  0.10151730407E+04 0.  0.
        -13    1    3    3    0    0 -0.22091147550E+03  0.10825813560E+03 -0.10217007146E+03  0.26638400590E+03  0.10566000000E+00 0.  1.
          4    1    3    3  502    0  0.58507246048E+03 -0.89533807934E+03 -0.75448626627E+03  0.13088886837E+04  0.00000000000E+00 0.  1.
         13    1    4    4    0    0 -0.15971479744E+02  0.92135316722E+03 -0.25057238878E+03  0.95495197790E+03  0.10566000000E+00 0. -1.
         -4    1    4    4    0  501 -0.34818950523E+03 -0.13427322349E+03 -0.34058832715E+03  0.50523819995E+03  0.00000000000E+00 0. -1.
<mgrwt>
<rscale>  2 0.13285583E+04</rscale>
<asrwt>0</asrwt>
<pdfrwt beam="2">  1        2 0.34486768E+00 0.13285583E+04</pdfrwt>
<pdfrwt beam="1">  1       -2 0.12212660E+00 0.13285583E+04</pdfrwt>
<totfact> 0.36732793E+00</totfact>
</mgrwt>
</event>
<event>
 8    1  0.7046235E-006  0.1256288E+04  0.7818608E-02  0.8565340E-01
          4   -1    0    0  502    0  0.00000000000E+00  0.00000000000E+00  0.36811546501E+03  0.36811546501E+03  0.00000000000E+00 0.  1.
         -4   -1    0    0    0  501 -0.00000000000E+00 -0.00000000000E+00 -0.43197669179E+04  0.43197669179E+04  0.00000000000E+00 0. -1.
    9000010    2    1    2  502    0  0.22593863763E+03  0.71827353734E+03 -0.17710097197E+04  0.21706214283E+04  0.10040701247E+04 0.  0.
   -9000010    2    1    2    0  501 -0.22593863763E+03 -0.71827353734E+03 -0.21806417332E+04  0.25172609546E+04  0.10071937265E+04 0.  0.
        -13    1    3    3    0    0  0.11915460782E+03  0.66414829132E+03 -0.37985686511E+03  0.77432681896E+03  0.10566000000E+00 0.  1.
          4    1    3    3  502    0  0.10678402981E+03  0.54125246019E+02 -0.13911528546E+04  0.13962946093E+04  0.00000000000E+00 0.  1.
         13    1    4    4    0    0 -0.18983794665E+03  0.18810265239E+03 -0.18469344619E+03  0.32485802138E+03  0.10566000000E+00 0. -1.
         -4    1    4    4    0  501 -0.36100690978E+02 -0.90637618973E+03 -0.19959482870E+04  0.21924029333E+04  0.00000000000E+00 0. -1.
<mgrwt>
<rscale>  2 0.12562882E+04</rscale>
<asrwt>0</asrwt>
<pdfrwt beam="1">  1        4 0.56633151E-01 0.12562882E+04</pdfrwt>
<pdfrwt beam="2">  1       -4 0.66457949E+00 0.12562882E+04</pdfrwt>
<totfact> 0.21937906E-02</totfact>
</mgrwt>
</event>
<event>
 8    1  0.7046235E-006  0.1196373E+04  0.7818608E-02  0.8609299E-01
         -1   -1    0    0    0  501 -0.00000000000E+00  0.00000000000E+00  0.92187113447E+03  0.92187113447E+03  0.00000000000E+00 0. -1.
          1   -1    0    0  502    0  0.00000000000E+00 -0.00000000000E+00 -0.15859116259E+04  0.15859116259E+04  0.00000000000E+00 0.  1.
    9000010    2    1    2  502    0  0.49738635874E+03  0.19043036313E+03 -0.18562907722E+03  0.12831261817E+04  0.11525179959E+04 0.  0.
   -9000010    2    1    2    0  501 -0.49738635874E+03 -0.19043036313E+03 -0.47841141424E+03  0.12246565787E+04  0.99360421767E+03 0.  0.
        -13    1    3    3    0    0 -0.12669390375E+03  0.18701021618E+03 -0.52585852994E+03  0.57232103830E+03  0.10566000000E+00 0.  1.
          4    1    3    3  502    0  0.62408026248E+03  0.34201469552E+01  0.34022945272E+03  0.71080514343E+03  0.00000000000E+00 0.  1.
         13    1    4    4    0    0 -0.50944236548E+03  0.31529717285E+03 -0.13767939449E+03  0.61473527456E+03  0.10566000000E+00 0. -1.
         -4    1    4    4    0  501  0.12056006745E+02 -0.50572753598E+03 -0.34073201975E+03  0.60992130413E+03  0.00000000000E+00 0. -1.
<mgrwt>
<rscale>  2 0.11963729E+04</rscale>
<asrwt>0</asrwt>
<pdfrwt beam="2">  1        1 0.24398640E+00 0.11963729E+04</pdfrwt>
<pdfrwt beam="1">  1       -1 0.14182633E+00 0.11963729E+04</pdfrwt>
<totfact> 0.32668563E+00</totfact>
</mgrwt>
</event>
<event>
 8    1  0.7046235E-006  0.1003644E+04  0.7818608E-02  0.8771175E-01
         -1   -1    0    0    0  501 -0.00000000000E+00  0.00000000000E+00  0.10401213012E+04  0.10401213012E+04  0.00000000000E+00 0. -1.
          1   -1    0    0  502    0  0.00000000000E+00 -0.00000000000E+00 -0.10066709140E+04  0.10066709140E+04  0.00000000000E+00 0.  1.
    9000010    2    1    2  502    0 -0.10657795343E+03 -0.11146828059E+03 -0.18240475557E+03  0.10063455223E+04  0.97758671104E+03 0.  0.
   -9000010    2    1    2    0  501  0.10657795343E+03  0.11146828059E+03  0.21585514281E+03  0.10404466930E+04  0.10060575732E+04 0.  0.
        -13    1    3    3    0    0 -0.24608136058E+03 -0.25272262131E+03  0.31366261707E+03  0.47202649063E+03  0.10566000000E+00 0.  1.
          4    1    3    3  502    0  0.13950340715E+03  0.14125434072E+03 -0.49606737264E+03  0.53431903164E+03  0.00000000000E+00 0.  1.
         13    1    4    4    0    0 -0.27551775737E+03  0.26607508070E+03  0.43007969737E+03  0.57591192074E+03  0.10566000000E+00 0. -1.
         -4    1    4    4    0  501  0.38209571080E+03 -0.15460680011E+03 -0.21422455456E+03  0.46453477225E+03  0.00000000000E+00 0. -1.
<mgrwt>
<rscale>  2 0.10036444E+04</rscale>
<asrwt>0</asrwt>
<pdfrwt beam="2">  1        1 0.15487245E+00 0.10036444E+04</pdfrwt>
<pdfrwt beam="1">  1       -1 0.16001866E+00 0.10036444E+04</pdfrwt>
<totfact> 0.64455153E+00</totfact>
</mgrwt>
</event>
<event>
 8    1  0.7046235E-006  0.1194138E+04  0.7818608E-02  0.8610990E-01
          2   -1    0    0  502    0  0.00000000000E+00  0.00000000000E+00  0.11865935802E+04  0.11865935802E+04  0.00000000000E+00 0.  1.
         -2   -1    0    0    0  501 -0.00000000000E+00 -0.00000000000E+00 -0.12991842630E+04  0.12991842630E+04  0.00000000000E+00 0. -1.
    9000010    2    1    2  502    0 -0.52868921597E+03  0.38671491641E+03  0.28353813892E+03  0.11917316308E+04  0.95434254336E+03 0.  0.
   -9000010    2    1    2    0  501  0.52868921597E+03 -0.38671491641E+03 -0.39612882170E+03  0.12940462124E+04  0.10433488595E+04 0.  0.
        -13    1    3    3    0    0  0.22254319301E+03 -0.11707933916E+03  0.36624927762E+02  0.25411501512E+03  0.10566000000E+00 0.  1.
          4    1    3    3  502    0 -0.75123240897E+03  0.50379425556E+03  0.24691321116E+03  0.93761661572E+03  0.00000000000E+00 0.  1.
         13    1    4    4    0    0  0.82446368560E+03 -0.42150554678E+03 -0.23447884658E+03  0.95518984264E+03  0.10566000000E+00 0. -1.
         -4    1    4    4    0  501 -0.29577446963E+03  0.34790630375E+02 -0.16164997512E+03  0.33885636972E+03  0.00000000000E+00 0. -1.
<mgrwt>
<rscale>  2 0.11941379E+04</rscale>
<asrwt>0</asrwt>
<pdfrwt beam="1">  1        2 0.18255286E+00 0.11941379E+04</pdfrwt>
<pdfrwt beam="2">  1       -2 0.19987450E+00 0.11941379E+04</pdfrwt>
<totfact> 0.29839469E+00</totfact>
</mgrwt>
</event>
<event>
 8    1  0.7046235E-006  0.1511298E+04  0.7818608E-02  0.8403027E-01
          1   -1    0    0  502    0  0.00000000000E+00  0.00000000000E+00  0.22004671272E+04  0.22004671272E+04  0.00000000000E+00 0. -1.
         -1   -1    0    0    0  501 -0.00000000000E+00 -0.00000000000E+00 -0.10396466019E+04  0.10396466019E+04  0.00000000000E+00 0.  1.
    9000010    2    1    2  502    0 -0.10919458971E+04 -0.32127974412E+03  0.64671245937E+03  0.16471510775E+04  0.99965151464E+03 0.  0.
   -9000010    2    1    2    0  501  0.10919458971E+04  0.32127974412E+03  0.51410806596E+03  0.15929626517E+04  0.98876508330E+03 0.  0.
        -13    1    3    3    0    0 -0.55954255199E+03 -0.89447579886E+02 -0.21666833372E+03  0.60665798852E+03  0.10566000000E+00 0.  1.
          4    1    3    3  502    0 -0.53240334511E+03 -0.23183216423E+03  0.86338079309E+03  0.10404930889E+04  0.00000000000E+00 0.  1.
         13    1    4    4    0    0  0.80449436271E+03 -0.23844483312E+03  0.11273925028E+03  0.84662699449E+03  0.10566000000E+00 0. -1.
         -4    1    4    4    0  501  0.28745153439E+03  0.55972457723E+03  0.40136881568E+03  0.74633565718E+03  0.00000000000E+00 0. -1.
<mgrwt>
<rscale>  2 0.15112977E+04</rscale>
<asrwt>0</asrwt>
<pdfrwt beam="1">  1        1 0.33853340E+00 0.15112977E+04</pdfrwt>
<pdfrwt beam="2">  1       -1 0.15994563E+00 0.15112977E+04</pdfrwt>
<totfact> 0.74491247E-01</totfact>
</mgrwt>
</event>
<event>
 8    1  0.7046235E-006  0.1993101E+04  0.7818608E-02  0.8171207E-01
         -2   -1    0    0    0  501 -0.00000000000E+00  0.00000000000E+00  0.31978101386E+04  0.31978101386E+04  0.00000000000E+00 0. -1.
          2   -1    0    0  502    0  0.00000000000E+00 -0.00000000000E+00 -0.13742306474E+04  0.13742306474E+04  0.00000000000E+00 0.  1.
    9000010    2    1    2  502    0 -0.12357387384E+04  0.11932447134E+04  0.16209698303E+04  0.25703903417E+04  0.10141401000E+04 0.  0.
   -9000010    2    1    2    0  501  0.12357387384E+04 -0.11932447134E+04  0.20260966099E+03  0.20016504443E+04  0.10073086175E+04 0.  0.
        -13    1    3    3    0    0 -0.11170748751E+04  0.39241752205E+03  0.10074909399E+04  0.15546336525E+04  0.10566000000E+00 0.  1.
          4    1    3    3  502    0 -0.11866386334E+03  0.80082719132E+03  0.61347889033E+03  0.10157566892E+04  0.00000000000E+00 0.  1.
         13    1    4    4    0    0  0.96813263292E+03 -0.11176012802E+04 -0.22087029925E+03  0.14950241191E+04  0.10566000000E+00 0. -1.
         -4    1    4    4    0  501  0.26760610551E+03 -0.75643433138E+02  0.42347996024E+03  0.50662632522E+03  0.00000000000E+00 0. -1.
<mgrwt>
<rscale>  2 0.19931012E+04</rscale>
<asrwt>0</asrwt>
<pdfrwt beam="2">  1        2 0.21142010E+00 0.19931012E+04</pdfrwt>
<pdfrwt beam="1">  1       -2 0.49197079E+00 0.19931012E+04</pdfrwt>
<totfact> 0.57747788E-02</totfact>
</mgrwt>
</event>
<event>
 8    1  0.7046235E-006  0.1826522E+04  0.7818608E-02  0.8242930E-01
          2   -1    0    0  502    0  0.00000000000E+00  0.00000000000E+00  0.12814847453E+04  0.12814847453E+04  0.00000000000E+00 0. -1.
         -2   -1    0    0    0  501 -0.00000000000E+00 -0.00000000000E+00 -0.26044130423E+04  0.26044130423E+04  0.00000000000E+00 0.  1.
    9000010    2    1    2  502    0  0.70240574569E+03  0.13694904406E+04 -0.69653729314E+03  0.19475415885E+04  0.96895621153E+03 0.  0.
   -9000010    2    1    2    0  501 -0.70240574569E+03 -0.13694904406E+04 -0.62639100385E+03  0.19383561990E+04  0.99798856014E+03 0.  0.
        -13    1    3    3    0    0  0.89943448126E+03  0.13078881100E+04 -0.50439285643E+03  0.16655226985E+04  0.10566000000E+00 0.  1.
          4    1    3    3  502    0 -0.19702873557E+03  0.61602330544E+02 -0.19214443671E+03  0.28201889002E+03  0.00000000000E+00 0.  1.
         13    1    4    4    0    0 -0.28009876561E+03 -0.33378982099E+03  0.26334971948E+03  0.50914050026E+03  0.10566000000E+00 0. -1.
         -4    1    4    4    0  501 -0.42230698008E+03 -0.10357006196E+04 -0.88974072333E+03  0.14292156988E+04  0.00000000000E+00 0. -1.
<mgrwt>
<rscale>  2 0.18265225E+04</rscale>
<asrwt>0</asrwt>
<pdfrwt beam="1">  1        2 0.19715150E+00 0.18265225E+04</pdfrwt>
<pdfrwt beam="2">  1       -2 0.40067893E+00 0.18265225E+04</pdfrwt>
<totfact> 0.91323651E-02</totfact>
</mgrwt>
</event>
<event>
 8    1  0.7046235E-006  0.1337294E+04  0.7818608E-02  0.8509778E-01
          1   -1    0    0  502    0  0.00000000000E+00  0.00000000000E+00  0.81020533005E+03  0.81020533005E+03  0.00000000000E+00 0.  1.
         -1   -1    0    0    0  501 -0.00000000000E+00 -0.00000000000E+00 -0.22683504237E+04  0.22683504237E+04  0.00000000000E+00 0. -1.
    9000010    2    1    2  502    0  0.86637961623E+03  0.21234915964E+03 -0.98207686141E+03  0.16598476042E+04  0.99745340859E+03 0.  0.
   -9000010    2    1    2    0  501 -0.86637961623E+03 -0.21234915964E+03 -0.47606823228E+03  0.14187081496E+04  0.99518141411E+03 0.  0.
        -13    1    3    3    0    0  0.26215873666E+03 -0.18804180970E+03 -0.86808303644E+03  0.92609669836E+03  0.10566000000E+00 0.  1.
          4    1    3    3  502    0  0.60422087957E+03  0.40039096934E+03 -0.11399382497E+03  0.73375090580E+03  0.00000000000E+00 0.  1.
         13    1    4    4    0    0  0.37670794509E+02  0.27178883850E+03 -0.24416075789E+03  0.36729109484E+03  0.10566000000E+00 0. -1.
         -4    1    4    4    0  501 -0.90405041074E+03 -0.48413799814E+03 -0.23190747439E+03  0.10514170548E+04  0.00000000000E+00 0. -1.
<mgrwt>
<rscale>  2 0.13372936E+04</rscale>
<asrwt>0</asrwt>
<pdfrwt beam="1">  1        1 0.12464698E+00 0.13372936E+04</pdfrwt>
<pdfrwt beam="2">  1       -1 0.34897698E+00 0.13372936E+04</pdfrwt>
<totfact> 0.27499904E-01</totfact>
</mgrwt>
</event>
<event>
 8    1  0.7046235E-006  0.1374692E+04  0.7818608E-02  0.8485478E-01
          2   -1    0    0  502    0  0.00000000000E+00  0.00000000000E+00  0.28430385136E+04  0.28430385136E+04  0.00000000000E+00 0. -1.
         -2   -1    0    0    0  501 -0.00000000000E+00 -0.00000000000E+00 -0.70790183698E+03  0.70790183698E+03  0.00000000000E+00 0.  1.
    9000010    2    1    2  502    0  0.13829553835E+03  0.93301777311E+03  0.62946696892E+03  0.15125615678E+04  0.10009825226E+04 0.  0.
   -9000010    2    1    2    0  501 -0.13829553835E+03 -0.93301777311E+03  0.15056697077E+04  0.20383787828E+04  0.99914912431E+03 0.  0.
        -13    1    3    3    0    0 -0.19300932754E+03  0.79286707840E+03  0.33826663274E+02  0.81672214299E+03  0.10566000000E+00 0.  1.
          4    1    3    3  502    0  0.33130486589E+03  0.14015069471E+03  0.59564030564E+03  0.69583942479E+03  0.00000000000E+00 0.  1.
         13    1    4    4    0    0 -0.32247544185E+03 -0.53985212241E+02  0.54069207989E+02  0.33140353673E+03  0.10566000000E+00 0. -1.
         -4    1    4    4    0  501  0.18417990351E+03 -0.87903256087E+03  0.14516004997E+04  0.17069752461E+04  0.00000000000E+00 0. -1.
<mgrwt>
<rscale>  2 0.13746925E+04</rscale>
<asrwt>0</asrwt>
<pdfrwt beam="1">  1        2 0.43739053E+00 0.13746925E+04</pdfrwt>
<pdfrwt beam="2">  1       -2 0.10890798E+00 0.13746925E+04</pdfrwt>
<totfact> 0.22339563E+00</totfact>
</mgrwt>
</event>
<event>
 8    1  0.7046235E-006  0.1634256E+04  0.7818608E-02  0.8336165E-01
          2   -1    0    0  502    0  0.00000000000E+00  0.00000000000E+00  0.74674699427E+03  0.74674699427E+03  0.00000000000E+00 0.  1.
         -2   -1    0    0    0  501 -0.00000000000E+00 -0.00000000000E+00 -0.36046253825E+04  0.36046253825E+04  0.00000000000E+00 0. -1.
    9000010    2    1    2  502    0 -0.73156517727E+03 -0.10763655740E+04 -0.12413135872E+04  0.20561058396E+04  0.99647445750E+03 0.  0.
   -9000010    2    1    2    0  501  0.73156517727E+03  0.10763655740E+04 -0.16165648011E+04  0.22952665372E+04  0.98041637244E+03 0.  0.
        -13    1    3    3    0    0  0.11730803241E+02 -0.65520043916E+03 -0.15372395911E+03  0.67309456541E+03  0.10566000000E+00 0.  1.
          4    1    3    3  502    0 -0.74329598051E+03 -0.42116513481E+03 -0.10875896280E+04  0.13830112742E+04  0.00000000000E+00 0.  1.
         13    1    4    4    0    0  0.33408530943E+03  0.44586223843E+03 -0.48708795753E+02  0.55926620457E+03  0.10566000000E+00 0. -1.
         -4    1    4    4    0  501  0.39747986784E+03  0.63050333555E+03 -0.15678560054E+04  0.17360003327E+04  0.00000000000E+00 0. -1.
<mgrwt>
<rscale>  2 0.16342558E+04</rscale>
<asrwt>0</asrwt>
<pdfrwt beam="1">  1        2 0.11488415E+00 0.16342558E+04</pdfrwt>
<pdfrwt beam="2">  1       -2 0.55455774E+00 0.16342558E+04</pdfrwt>
<totfact> 0.20518309E-01</totfact>
</mgrwt>
</event>
<event>
 8    1  0.7046235E-006  0.1349393E+04  0.7818608E-02  0.8501828E-01
          1   -1    0    0  502    0  0.00000000000E+00  0.00000000000E+00  0.13391224692E+04  0.13391224692E+04  0.00000000000E+00 0. -1.
         -1   -1    0    0    0  501 -0.00000000000E+00 -0.00000000000E+00 -0.14856972947E+04  0.14856972947E+04  0.00000000000E+00 0.  1.
    9000010    2    1    2  502    0 -0.21005354340E+03 -0.86039379722E+03  0.33825571455E+03  0.13840075436E+04  0.10082955791E+04 0.  0.
   -9000010    2    1    2    0  501  0.21005354340E+03  0.86039379722E+03 -0.48483054007E+03  0.14408122204E+04  0.10278517522E+04 0.  0.
        -13    1    3    3    0    0 -0.22867238044E+03 -0.10459955552E+04  0.45563520664E+03  0.11636155773E+04  0.10566000000E+00 0.  1.
          4    1    3    3  502    0  0.18618837048E+02  0.18560175793E+03 -0.11737949209E+03  0.22039196629E+03  0.00000000000E+00 0.  1.
         13    1    4    4    0    0  0.59270039834E+03  0.63412502917E+03 -0.14221976171E+03  0.87956511220E+03  0.10566000000E+00 0. -1.
         -4    1    4    4    0  501 -0.38264685494E+03  0.22626876805E+03 -0.34261077835E+03  0.56124710818E+03  0.00000000000E+00 0. -1.
<mgrwt>
<rscale>  2 0.13493927E+04</rscale>
<asrwt>0</asrwt>
<pdfrwt beam="1">  1        1 0.20601884E+00 0.13493927E+04</pdfrwt>
<pdfrwt beam="2">  1       -1 0.22856881E+00 0.13493927E+04</pdfrwt>
<totfact> 0.83176339E-01</totfact>
</mgrwt>
</event>
<event>
 8    1  0.7046235E-006  0.1656004E+04  0.7818608E-02  0.8324972E-01
          1   -1    0    0  502    0  0.00000000000E+00  0.00000000000E+00  0.26360544692E+04  0.26360544692E+04  0.00000000000E+00 0.  1.
         -1   -1    0    0    0  501 -0.00000000000E+00 -0.00000000000E+00 -0.10408516790E+04  0.10408516790E+04  0.00000000000E+00 0. -1.
    9000010    2    1    2  502    0 -0.46194189660E+03  0.12114402505E+04  0.83856390004E+03  0.18812922984E+04  0.10747527629E+04 0.  0.
   -9000010    2    1    2    0  501  0.46194189660E+03 -0.12114402505E+04  0.75663889011E+03  0.17956138498E+04  0.98526589881E+03 0.  0.
        -13    1    3    3    0    0  0.29769353749E+02  0.12858617305E+03 -0.24121793549E+03  0.27496676506E+03  0.10566000000E+00 0.  1.
          4    1    3    3  502    0 -0.49171125034E+03  0.10828540774E+04  0.10797818355E+04  0.16063255334E+04  0.00000000000E+00 0.  1.
         13    1    4    4    0    0  0.44479788582E+03 -0.71113467071E+03  0.94243994112E+03  0.12616460410E+04  0.10566000000E+00 0. -1.
         -4    1    4    4    0  501  0.17144010777E+02 -0.50030557979E+03 -0.18580105101E+03  0.53396780879E+03  0.00000000000E+00 0. -1.
<mgrwt>
<rscale>  2 0.16560044E+04</rscale>
<asrwt>0</asrwt>
<pdfrwt beam="1">  1        1 0.40554684E+00 0.16560044E+04</pdfrwt>
<pdfrwt beam="2">  1       -1 0.16013103E+00 0.16560044E+04</pdfrwt>
<totfact> 0.30162870E-01</totfact>
</mgrwt>
</event>
<event>
 8    1  0.7046235E-006  0.9839103E+03  0.7818608E-02  0.8789857E-01
         -2   -1    0    0    0  501 -0.00000000000E+00  0.00000000000E+00  0.48275608032E+03  0.48275608032E+03  0.00000000000E+00 0. -1.
          2   -1    0    0  502    0  0.00000000000E+00 -0.00000000000E+00 -0.20061972048E+04  0.20061972048E+04  0.00000000000E+00 0.  1.
    9000010    2    1    2  502    0 -0.59457313583E+02  0.18891983857E+03 -0.78425411656E+03  0.12739253620E+04  0.98417754042E+03 0.  0.
   -9000010    2    1    2    0  501  0.59457313583E+02 -0.18891983857E+03 -0.73918700796E+03  0.12150279232E+04  0.94375290398E+03 0.  0.
        -13    1    3    3    0    0 -0.47955666708E+03 -0.69990952194E+02 -0.24530539975E+03  0.54318328457E+03  0.10566000000E+00 0.  1.
          4    1    3    3  502    0  0.42009935350E+03  0.25891079076E+03 -0.53894871681E+03  0.73074207743E+03  0.00000000000E+00 0.  1.
         13    1    4    4    0    0 -0.41606307448E+03 -0.23361076798E+03 -0.28420368524E+03  0.55538654893E+03  0.10566000000E+00 0. -1.
         -4    1    4    4    0  501  0.47552038806E+03  0.44690929416E+02 -0.45498332272E+03  0.65964137423E+03  0.00000000000E+00 0. -1.
<mgrwt>
<rscale>  2 0.98391026E+03</rscale>
<asrwt>0</asrwt>
<pdfrwt beam="2">  1        2 0.30864572E+00 0.98391026E+03</pdfrwt>
<pdfrwt beam="1">  1       -2 0.74270167E-01 0.98391026E+03</pdfrwt>
<totfact> 0.16640466E+01</totfact>
</mgrwt>
</event>
<event>
 8    1  0.7046235E-006  0.1116101E+04  0.7818608E-02  0.8672569E-01
          2   -1    0    0  502    0  0.00000000000E+00  0.00000000000E+00  0.71098719322E+03  0.71098719322E+03  0.00000000000E+00 0.  1.
         -2   -1    0    0    0  501 -0.00000000000E+00 -0.00000000000E+00 -0.19069749928E+04  0.19069749928E+04  0.00000000000E+00 0. -1.
    9000010    2    1    2  502    0 -0.36218476887E+03 -0.23127981950E+03 -0.97185203791E+03  0.14810872574E+04  0.10317242455E+04 0.  0.
   -9000010    2    1    2    0  501  0.36218476887E+03  0.23127981950E+03 -0.22413576168E+03  0.11368749286E+04  0.10283868931E+04 0.  0.
        -13    1    3    3    0    0  0.39755618486E+02 -0.32518292507E+03  0.91742287413E+02  0.34020744028E+03  0.10566000000E+00 0.  1.
          4    1    3    3  502    0 -0.40194038736E+03  0.93903105570E+02 -0.10635943253E+04  0.11408798171E+04  0.00000000000E+00 0.  1.
         13    1    4    4    0    0 -0.25533296267E+03  0.98083271101E+02  0.23120955410E+03  0.35815236837E+03  0.10566000000E+00 0. -1.
         -4    1    4    4    0  501  0.61751773154E+03  0.13319654840E+03 -0.45534531578E+03  0.77872256027E+03  0.00000000000E+00 0. -1.
<mgrwt>
<rscale>  2 0.11161007E+04</rscale>
<asrwt>0</asrwt>
<pdfrwt beam="1">  1        2 0.10938265E+00 0.11161007E+04</pdfrwt>
<pdfrwt beam="2">  1       -2 0.29338076E+00 0.11161007E+04</pdfrwt>
<totfact> 0.11284004E+00</totfact>
</mgrwt>
</event>
<event>
 8    1  0.7046235E-006  0.1070554E+04  0.7818608E-02  0.8710985E-01
         -2   -1    0    0    0  501 -0.00000000000E+00  0.00000000000E+00  0.35949197352E+03  0.35949197352E+03  0.00000000000E+00 0. -1.
          2   -1    0    0  502    0  0.00000000000E+00 -0.00000000000E+00 -0.37433730546E+04  0.37433730546E+04  0.00000000000E+00 0.  1.
    9000010    2    1    2  502    0  0.39985682938E+03 -0.28212182142E+01 -0.89741052696E+03  0.13944150246E+04  0.98952218954E+03 0.  0.
   -9000010    2    1    2    0  501 -0.39985682938E+03  0.28212182142E+01 -0.24864705541E+04  0.27084500035E+04  0.99663040386E+03 0.  0.
        -13    1    3    3    0    0  0.67624612223E+03  0.14656679806E+02 -0.88936063145E+03  0.11173566933E+04  0.10566000000E+00 0.  1.
          4    1    3    3  502    0 -0.27638929285E+03 -0.17477898020E+02 -0.80498955120E+01  0.27705833129E+03  0.00000000000E+00 0.  1.
         13    1    4    4    0    0 -0.66033103620E+03  0.43604897973E+02 -0.22784787837E+04  0.23726365173E+04  0.10566000000E+00 0. -1.
         -4    1    4    4    0  501  0.26047420682E+03 -0.40783679758E+02 -0.20799177044E+03  0.33581348621E+03  0.00000000000E+00 0. -1.
<mgrwt>
<rscale>  2 0.10705535E+04</rscale>
<asrwt>0</asrwt>
<pdfrwt beam="2">  1        2 0.57590352E+00 0.10705535E+04</pdfrwt>
<pdfrwt beam="1">  1       -2 0.55306460E-01 0.10705535E+04</pdfrwt>
<totfact> 0.24635682E+00</totfact>
</mgrwt>
</event>
<event>
 8    1  0.7046235E-006  0.1255009E+04  0.7818608E-02  0.8566251E-01
         -2   -1    0    0    0  501 -0.00000000000E+00  0.00000000000E+00  0.49700957402E+03  0.49700957402E+03  0.00000000000E+00 0.  1.
          2   -1    0    0  502    0  0.00000000000E+00 -0.00000000000E+00 -0.38277526004E+04  0.38277526004E+04  0.00000000000E+00 0. -1.
    9000010    2    1    2  502    0 -0.61809269680E+03 -0.45075568838E+03 -0.25534364980E+04  0.28416515864E+04  0.98474693037E+03 0.  0.
   -9000010    2    1    2    0  501  0.61809269680E+03  0.45075568838E+03 -0.77730652837E+03  0.14831105880E+04  0.10050832327E+04 0.  0.
        -13    1    3    3    0    0 -0.84906062528E+03 -0.33172653520E+03 -0.23188468429E+04  0.24915852647E+04  0.10566000000E+00 0.  1.
          4    1    3    3  502    0  0.23096792848E+03 -0.11902915318E+03 -0.23458965514E+03  0.35006632170E+03  0.00000000000E+00 0.  1.
         13    1    4    4    0    0  0.37716769404E+03  0.73377185012E+03 -0.29937763617E+03  0.87766940111E+03  0.10566000000E+00 0. -1.
         -4    1    4    4    0  501  0.24092500276E+03 -0.28301616174E+03 -0.47792889220E+03  0.60544118687E+03  0.00000000000E+00 0. -1.
<mgrwt>
<rscale>  2 0.12550095E+04</rscale>
<asrwt>0</asrwt>
<pdfrwt beam="2">  1        2 0.58888503E+00 0.12550095E+04</pdfrwt>
<pdfrwt beam="1">  1       -2 0.76463010E-01 0.12550095E+04</pdfrwt>
<totfact> 0.10489033E+00</totfact>
</mgrwt>
</event>
<event>
 8    1  0.7046235E-006  0.1035271E+04  0.7818608E-02  0.8742140E-01
          1   -1    0    0  502    0  0.00000000000E+00  0.00000000000E+00  0.18397082727E+04  0.18397082727E+04  0.00000000000E+00 0.  1.
         -1   -1    0    0    0  501 -0.00000000000E+00 -0.00000000000E+00 -0.68081958855E+03  0.68081958855E+03  0.00000000000E+00 0. -1.
    9000010    2    1    2  502    0 -0.12258141792E+03  0.25412206079E+03  0.10583899903E+04  0.14808668570E+04  0.99658067951E+03 0.  0.
   -9000010    2    1    2    0  501  0.12258141792E+03 -0.25412206079E+03  0.10049869386E+03  0.10396610043E+04  0.99558565203E+03 0.  0.
        -13    1    3    3    0    0 -0.28156712386E+01 -0.18405546466E+03  0.10070375071E+04  0.10237230553E+04  0.10566000000E+00 0.  1.
          4    1    3    3  502    0 -0.11976574668E+03  0.43817752546E+03  0.51352483205E+02  0.45714380169E+03  0.00000000000E+00 0.  1.
         13    1    4    4    0    0 -0.69703367043E+02  0.17665667151E+03 -0.34307199058E+03  0.39212821991E+03  0.10566000000E+00 0. -1.
         -4    1    4    4    0  501  0.19228478496E+03 -0.43077873230E+03  0.44357068443E+03  0.64753278436E+03  0.00000000000E+00 0. -1.
<mgrwt>
<rscale>  2 0.10352708E+04</rscale>
<asrwt>0</asrwt>
<pdfrwt beam="1">  1        1 0.28303204E+00 0.10352708E+04</pdfrwt>
<pdfrwt beam="2">  1       -1 0.10474148E+00 0.10352708E+04</pdfrwt>
<totfact> 0.46083260E+00</totfact>
</mgrwt>
</event>
<event>
 8    1  0.7046235E-006  0.1081183E+04  0.7818608E-02  0.8701844E-01
         -2   -1    0    0    0  501 -0.00000000000E+00  0.00000000000E+00  0.60905250118E+03  0.60905250118E+03  0.00000000000E+00 0.  1.
          2   -1    0    0  502    0  0.00000000000E+00 -0.00000000000E+00 -0.19304078397E+04  0.19304078397E+04  0.00000000000E+00 0. -1.
    9000010    2    1    2  502    0  0.11716255036E+03 -0.47523299119E+03 -0.61135486267E+03  0.12847506590E+04  0.10184576714E+04 0.  0.
   -9000010    2    1    2    0  501 -0.11716255036E+03  0.47523299119E+03 -0.71000047581E+03  0.12547096819E+04  0.91138479854E+03 0.  0.
        -13    1    3    3    0    0  0.20171220558E+02 -0.36744128839E+03  0.22804017005E+03  0.43292298261E+03  0.10566000000E+00 0.  1.
          4    1    3    3  502    0  0.96991329803E+02 -0.10779170281E+03 -0.83939503272E+03  0.85182767635E+03  0.00000000000E+00 0.  1.
         13    1    4    4    0    0 -0.13874913601E+03  0.18838353192E+03 -0.88674398369E+03  0.91709027997E+03  0.10566000000E+00 0. -1.
         -4    1    4    4    0  501  0.21586585653E+02  0.28684945927E+03  0.17674350788E+03  0.33761940190E+03  0.00000000000E+00 0. -1.
<mgrwt>
<rscale>  2 0.10811825E+04</rscale>
<asrwt>0</asrwt>
<pdfrwt beam="2">  1        2 0.29698582E+00 0.10811825E+04</pdfrwt>
<pdfrwt beam="1">  1       -2 0.93700386E-01 0.10811825E+04</pdfrwt>
<totfact> 0.10785315E+01</totfact>
</mgrwt>
</event>
<event>
 8    1  0.7046235E-006  0.1233684E+04  0.7818608E-02  0.8581620E-01
          2   -1    0    0  502    0  0.00000000000E+00  0.00000000000E+00  0.25221362164E+04  0.25221362164E+04  0.00000000000E+00 0.  1.
         -2   -1    0    0    0  501 -0.00000000000E+00 -0.00000000000E+00 -0.65100138397E+03  0.65100138397E+03  0.00000000000E+00 0. -1.
    9000010    2    1    2  502    0 -0.43491074855E+03  0.56719186706E+03  0.13645342789E+04  0.18396974020E+04  0.10058224294E+04 0.  0.
   -9000010    2    1    2    0  501  0.43491074855E+03 -0.56719186706E+03  0.50660055353E+03  0.13334401984E+04  0.10052684559E+04 0.  0.
        -13    1    3    3    0    0 -0.76256825370E+03  0.33870335319E+03  0.93032070258E+03  0.12496907313E+04  0.10566000000E+00 0.  1.
          4    1    3    3  502    0  0.32765750515E+03  0.22848851387E+03  0.43421357635E+03  0.59000667076E+03  0.00000000000E+00 0.  1.
         13    1    4    4    0    0  0.14280568260E+03 -0.69313549944E+03 -0.31449587005E+02  0.70839210276E+03  0.10566000000E+00 0. -1.
         -4    1    4    4    0  501  0.29210506596E+03  0.12594363238E+03  0.53805014054E+03  0.62504809561E+03  0.00000000000E+00 0. -1.
<mgrwt>
<rscale>  2 0.12336837E+04</rscale>
<asrwt>0</asrwt>
<pdfrwt beam="1">  1        2 0.38802095E+00 0.12336837E+04</pdfrwt>
<pdfrwt beam="2">  1       -2 0.10015406E+00 0.12336837E+04</pdfrwt>
<totfact> 0.42861444E+00</totfact>
</mgrwt>
</event>
<event>
 8    1  0.7046235E-006  0.1314442E+04  0.7818608E-02  0.8525032E-01
          2   -1    0    0  502    0  0.00000000000E+00  0.00000000000E+00  0.51691718836E+03  0.51691718836E+03  0.00000000000E+00 0. -1.
         -2   -1    0    0    0  501 -0.00000000000E+00 -0.00000000000E+00 -0.38919805610E+04  0.38919805610E+04  0.00000000000E+00 0.  1.
    9000010    2    1    2  502    0  0.54456000211E+03  0.62570190870E+03 -0.86564721559E+03  0.15787583326E+04  0.10271729633E+04 0.  0.
   -9000010    2    1    2    0  501 -0.54456000211E+03 -0.62570190870E+03 -0.25094161571E+04  0.28301394168E+04  0.10121616445E+04 0.  0.
        -13    1    3    3    0    0  0.83207807903E+03  0.61026137837E+03 -0.69396379070E+03  0.12435266919E+04  0.10566000000E+00 0.  1.
          4    1    3    3  502    0 -0.28751807692E+03  0.15440530326E+02 -0.17168342489E+03  0.33523164068E+03  0.00000000000E+00 0.  1.
         13    1    4    4    0    0  0.23945017505E+03 -0.88921102438E+02 -0.11074810341E+04  0.11365551464E+04  0.10566000000E+00 0. -1.
         -4    1    4    4    0  501 -0.78401017715E+03 -0.53678080626E+03 -0.14019351230E+04  0.16935842704E+04  0.00000000000E+00 0. -1.
<mgrwt>
<rscale>  2 0.13144422E+04</rscale>
<asrwt>0</asrwt>
<pdfrwt beam="1">  1        2 0.79525721E-01 0.13144422E+04</pdfrwt>
<pdfrwt beam="2">  1       -2 0.59876624E+00 0.13144422E+04</pdfrwt>
<totfact> 0.39400295E-01</totfact>
</mgrwt>
</event>
<event>
 8    1  0.7046235E-006  0.1449903E+04  0.7818608E-02  0.8438927E-01
         -1   -1    0    0    0  501 -0.00000000000E+00  0.00000000000E+00  0.10630646148E+04  0.10630646148E+04  0.00000000000E+00 0.  1.
          1   -1    0    0  502    0  0.00000000000E+00 -0.00000000000E+00 -0.21588553357E+04  0.21588553357E+04  0.00000000000E+00 0. -1.
    9000010    2    1    2  502    0 -0.50009612974E+03  0.92185641746E+03 -0.10149827277E+04  0.17702925613E+04  0.10019133803E+04 0.  0.
   -9000010    2    1    2    0  501  0.50009612974E+03 -0.92185641746E+03 -0.80807993153E+02  0.14516273892E+04  0.10003883006E+04 0.  0.
        -13    1    3    3    0    0  0.14885709007E+03  0.31427035131E+03  0.83030780407E+02  0.35751700468E+03  0.10566000000E+00 0.  1.
          4    1    3    3  502    0 -0.64895321980E+03  0.60758606615E+03 -0.10980135081E+04  0.14127755566E+04  0.00000000000E+00 0.  1.
         13    1    4    4    0    0 -0.30244054078E+03 -0.35255205387E+03 -0.50014285534E+02  0.46718804706E+03  0.10566000000E+00 0. -1.
         -4    1    4    4    0  501  0.80253667052E+03 -0.56930436359E+03 -0.30793707619E+02  0.98443934214E+03  0.00000000000E+00 0. -1.
<mgrwt>
<rscale>  2 0.14499029E+04</rscale>
<asrwt>0</asrwt>
<pdfrwt beam="2">  1        1 0.33213159E+00 0.14499029E+04</pdfrwt>
<pdfrwt beam="1">  1       -1 0.16354840E+00 0.14499029E+04</pdfrwt>
<totfact> 0.75478302E-01</totfact>
</mgrwt>
</event>
<event>
 8    1  0.7046235E-006  0.1313900E+04  0.7818608E-02  0.8525398E-01
         -2   -1    0    0    0  501 -0.00000000000E+00  0.00000000000E+00  0.12985251554E+04  0.12985251554E+04  0.00000000000E+00 0.  1.
          2   -1    0    0  502    0  0.00000000000E+00 -0.00000000000E+00 -0.13376960318E+04  0.13376960318E+04  0.00000000000E+00 0. -1.
    9000010    2    1    2  502    0  0.24100908180E+03 -0.82331852263E+03  0.83516520156E+02  0.13235056394E+04  0.10043671646E+04 0.  0.
   -9000010    2    1    2    0  501 -0.24100908180E+03  0.82331852263E+03 -0.12268739656E+03  0.13127155477E+04  0.98601782170E+03 0.  0.
        -13    1    3    3    0    0 -0.21834401438E+03 -0.43183427872E+03 -0.33544937911E+03  0.58879644190E+03  0.10566000000E+00 0.  1.
          4    1    3    3  502    0  0.45935309618E+03 -0.39148424392E+03  0.41896589927E+03  0.73470919754E+03  0.00000000000E+00 0.  1.
         13    1    4    4    0    0  0.35868267204E+03  0.40688104540E+03  0.95407462785E+02  0.55073409142E+03  0.10566000000E+00 0. -1.
         -4    1    4    4    0  501 -0.59969175384E+03  0.41643747724E+03 -0.21809485934E+03  0.76198145630E+03  0.00000000000E+00 0. -1.
<mgrwt>
<rscale>  2 0.13139005E+04</rscale>
<asrwt>0</asrwt>
<pdfrwt beam="2">  1        2 0.20579939E+00 0.13139005E+04</pdfrwt>
<pdfrwt beam="1">  1       -2 0.19977310E+00 0.13139005E+04</pdfrwt>
<totfact> 0.24256865E+00</totfact>
</mgrwt>
</event>
<event>
 8    1  0.7046235E-006  0.1452062E+04  0.7818608E-02  0.8437634E-01
          2   -1    0    0  502    0  0.00000000000E+00  0.00000000000E+00  0.27269947327E+04  0.27269947327E+04  0.00000000000E+00 0.  1.
         -2   -1    0    0    0  501 -0.00000000000E+00 -0.00000000000E+00 -0.77472619315E+03  0.77472619315E+03  0.00000000000E+00 0. -1.
    9000010    2    1    2  502    0  0.18552942431E+03 -0.10296360977E+04  0.10596138670E+04  0.18052218495E+04  0.10205257066E+04 0.  0.
   -9000010    2    1    2    0  501 -0.18552942431E+03  0.10296360977E+04  0.89265467261E+03  0.16964990764E+04  0.99333030284E+03 0.  0.
        -13    1    3    3    0    0  0.54034584950E+03 -0.91304374084E+03  0.62176196667E+03  0.12297196689E+04  0.10566000000E+00 0.  1.
          4    1    3    3  502    0 -0.35481642519E+03 -0.11659235689E+03  0.43785190029E+03  0.57550218058E+03  0.00000000000E+00 0.  1.
         13    1    4    4    0    0 -0.16050269412E+03  0.12013118077E+04  0.91901270864E+03  0.15210179302E+04  0.10566000000E+00 0. -1.
         -4    1    4    4    0  501 -0.25026730183E+02 -0.17167570994E+03 -0.26358036030E+02  0.17548114620E+03  0.00000000000E+00 0. -1.
<mgrwt>
<rscale>  2 0.14520616E+04</rscale>
<asrwt>0</asrwt>
<pdfrwt beam="1">  1        2 0.41953765E+00 0.14520616E+04</pdfrwt>
<pdfrwt beam="2">  1       -2 0.11918865E+00 0.14520616E+04</pdfrwt>
<totfact> 0.20588781E+00</totfact>
</mgrwt>
</event>
<event>
 8    1  0.7046235E-006  0.1117856E+04  0.7818608E-02  0.8671127E-01
          2   -1    0    0  502    0  0.00000000000E+00  0.00000000000E+00  0.29126234280E+04  0.29126234280E+04  0.00000000000E+00 0.  1.
         -2   -1    0    0    0  501 -0.00000000000E+00 -0.00000000000E+00 -0.47254354415E+03  0.47254354415E+03  0.00000000000E+00 0. -1.
    9000010    2    1    2  502    0  0.36440494472E+03  0.31321406217E+03  0.70482702985E+03  0.13201467879E+04  0.10075278592E+04 0.  0.
   -9000010    2    1    2    0  501 -0.36440494472E+03 -0.31321406217E+03  0.17352528540E+04  0.20650201843E+04  0.10110943979E+04 0.  0.
        -13    1    3    3    0    0  0.50651452834E+03 -0.16150106363E+03  0.62115604703E+03  0.81760284179E+03  0.10566000000E+00 0.  1.
          4    1    3    3  502    0 -0.14210958363E+03  0.47471512580E+03  0.83670982819E+02  0.50254394612E+03  0.00000000000E+00 0.  1.
         13    1    4    4    0    0 -0.35492928116E+03 -0.34104147766E+03  0.18666074429E+04  0.19304163906E+04  0.10566000000E+00 0. -1.
         -4    1    4    4    0  501 -0.94756635585E+01  0.27827415489E+02 -0.13135458886E+03  0.13460379366E+03  0.00000000000E+00 0. -1.
<mgrwt>
<rscale>  2 0.11178555E+04</rscale>
<asrwt>0</asrwt>
<pdfrwt beam="1">  1        2 0.44809590E+00 0.11178555E+04</pdfrwt>
<pdfrwt beam="2">  1       -2 0.72699009E-01 0.11178555E+04</pdfrwt>
<totfact> 0.52908790E+00</totfact>
</mgrwt>
</event>
<event>
 8    1  0.7046235E-006  0.1288898E+04  0.7818608E-02  0.8542467E-01
         -2   -1    0    0    0  501 -0.00000000000E+00  0.00000000000E+00  0.59260196350E+03  0.59260196350E+03  0.00000000000E+00 0.  1.
          2   -1    0    0  502    0  0.00000000000E+00 -0.00000000000E+00 -0.29553066525E+04  0.29553066525E+04  0.00000000000E+00 0. -1.
    9000010    2    1    2  502    0  0.55429223788E+03  0.56188456090E+03 -0.79946873665E+03  0.15357250580E+04  0.10470659235E+04 0.  0.
   -9000010    2    1    2    0  501 -0.55429223788E+03 -0.56188456090E+03 -0.15632359523E+04  0.20121835579E+04  0.99107107890E+03 0.  0.
        -13    1    3    3    0    0  0.36395935682E+03  0.82969738972E+03 -0.33323852561E+03  0.96535594371E+03  0.10566000000E+00 0.  1.
          4    1    3    3  502    0  0.19033288106E+03 -0.26781282882E+03 -0.46623021103E+03  0.57036911432E+03  0.00000000000E+00 0.  1.
         13    1    4    4    0    0 -0.81009471543E+03 -0.35815372474E+03 -0.85027021296E+03  0.12277976155E+04  0.10566000000E+00 0. -1.
         -4    1    4    4    0  501  0.25580247754E+03 -0.20373083616E+03 -0.71296573938E+03  0.78438594241E+03  0.00000000000E+00 0. -1.
<mgrwt>
<rscale>  2 0.12888983E+04</rscale>
<asrwt>0</asrwt>
<pdfrwt beam="2">  1        2 0.45466256E+00 0.12888983E+04</pdfrwt>
<pdfrwt beam="1">  1       -2 0.91169533E-01 0.12888983E+04</pdfrwt>
<totfact> 0.29568757E+00</totfact>
</mgrwt>
</event>
<event>
 8    1  0.7046235E-006  0.1709583E+04  0.7818608E-02  0.8298137E-01
         -2   -1    0    0    0  501 -0.00000000000E+00  0.00000000000E+00  0.32301223532E+04  0.32301223532E+04  0.00000000000E+00 0. -1.
          2   -1    0    0  502    0  0.00000000000E+00 -0.00000000000E+00 -0.93363451348E+03  0.93363451348E+03  0.00000000000E+00 0.  1.
    9000010    2    1    2  502    0 -0.60659125810E+03 -0.12628440731E+04  0.76497762700E+03  0.18461390781E+04  0.92752930859E+03 0.  0.
   -9000010    2    1    2    0  501  0.60659125810E+03  0.12628440731E+04  0.15315102127E+04  0.23176177886E+04  0.10310676869E+04 0.  0.
        -13    1    3    3    0    0 -0.20619944316E+03 -0.68432045378E+03  0.87953264454E+03  0.11333094802E+04  0.10566000000E+00 0.  1.
          4    1    3    3  502    0 -0.40039181493E+03 -0.57852361936E+03 -0.11455501754E+03  0.71282959792E+03  0.00000000000E+00 0.  1.
         13    1    4    4    0    0  0.18374966216E+03  0.18103562535E+03  0.10135378329E+04  0.10458474008E+04  0.10566000000E+00 0. -1.
         -4    1    4    4    0  501  0.42284159594E+03  0.10818084478E+04  0.51797237984E+03  0.12717703878E+04  0.00000000000E+00 0. -1.
<mgrwt>
<rscale>  2 0.17095834E+04</rscale>
<asrwt>0</asrwt>
<pdfrwt beam="2">  1        2 0.14363608E+00 0.17095834E+04</pdfrwt>
<pdfrwt beam="1">  1       -2 0.49694190E+00 0.17095834E+04</pdfrwt>
<totfact> 0.10460581E-01</totfact>
</mgrwt>
</event>
<event>
 8    1  0.7046235E-006  0.1142186E+04  0.7818608E-02  0.8651418E-01
          2   -1    0    0  502    0  0.00000000000E+00  0.00000000000E+00  0.10535392227E+04  0.10535392227E+04  0.00000000000E+00 0.  1.
         -2   -1    0    0    0  501 -0.00000000000E+00 -0.00000000000E+00 -0.12645991889E+04  0.12645991889E+04  0.00000000000E+00 0. -1.
    9000010    2    1    2  502    0 -0.53225509148E+03 -0.14004272689E+03  0.61020820100E+02  0.11496101595E+04  0.10074584511E+04 0.  0.
   -9000010    2    1    2    0  501  0.53225509148E+03  0.14004272689E+03 -0.27208078623E+03  0.11685282521E+04  0.99424487622E+03 0.  0.
        -13    1    3    3    0    0 -0.37880688962E+03  0.18343752377E+03  0.45326050259E+03  0.61853785585E+03  0.10566000000E+00 0.  1.
          4    1    3    3  502    0 -0.15344820186E+03 -0.32348025066E+03 -0.39223968249E+03  0.53107230369E+03  0.00000000000E+00 0.  1.
         13    1    4    4    0    0 -0.20407370793E+03  0.31857575130E+03 -0.75789801206E+02  0.38585060933E+03  0.10566000000E+00 0. -1.
         -4    1    4    4    0  501  0.73632879942E+03 -0.17853302441E+03 -0.19629098502E+03  0.78267764275E+03  0.00000000000E+00 0. -1.
<mgrwt>
<rscale>  2 0.11421857E+04</rscale>
<asrwt>0</asrwt>
<pdfrwt beam="1">  1        2 0.16208296E+00 0.11421857E+04</pdfrwt>
<pdfrwt beam="2">  1       -2 0.19455372E+00 0.11421857E+04</pdfrwt>
<totfact> 0.39695679E+00</totfact>
</mgrwt>
</event>
<event>
 8    1  0.7046235E-006  0.1074460E+04  0.7818608E-02  0.8707613E-01
         -1   -1    0    0    0  501 -0.00000000000E+00  0.00000000000E+00  0.11359552084E+04  0.11359552084E+04  0.00000000000E+00 0.  1.
          1   -1    0    0  502    0  0.00000000000E+00 -0.00000000000E+00 -0.11282075428E+04  0.11282075428E+04  0.00000000000E+00 0. -1.
    9000010    2    1    2  502    0 -0.18846512442E+03 -0.36432389201E+03  0.36038563429E+03  0.11393886746E+04  0.10000388718E+04 0.  0.
   -9000010    2    1    2    0  501  0.18846512442E+03  0.36432389201E+03 -0.35263796871E+03  0.11247740766E+04  0.98616032422E+03 0.  0.
        -13    1    3    3    0    0  0.17444551088E+03 -0.42494595344E+03  0.55718431473E+03  0.72212510783E+03  0.10566000000E+00 0.  1.
          4    1    3    3  502    0 -0.36291063531E+03  0.60622061433E+02 -0.19679868044E+03  0.41726356679E+03  0.00000000000E+00 0.  1.
         13    1    4    4    0    0  0.42369949727E+02  0.38019374723E+02 -0.65443525086E+03  0.65690653385E+03  0.10566000000E+00 0. -1.
         -4    1    4    4    0  501  0.14609517470E+03  0.32630451729E+03  0.30179728214E+03  0.46786754277E+03  0.00000000000E+00 0. -1.
<mgrwt>
<rscale>  2 0.10744597E+04</rscale>
<asrwt>0</asrwt>
<pdfrwt beam="2">  1        1 0.17357039E+00 0.10744597E+04</pdfrwt>
<pdfrwt beam="1">  1       -1 0.17476234E+00 0.10744597E+04</pdfrwt>
<totfact> 0.38083033E+00</totfact>
</mgrwt>
</event>
<event>
 8    1  0.7046235E-006  0.1205205E+04  0.7818608E-02  0.8602653E-01
          4   -1    0    0  502    0  0.00000000000E+00  0.00000000000E+00  0.81987451480E+03  0.81987451480E+03  0.00000000000E+00 0.  1.
         -4   -1    0    0    0  501 -0.00000000000E+00 -0.00000000000E+00 -0.20351204113E+04  0.20351204113E+04  0.00000000000E+00 0. -1.
    9000010    2    1    2  502    0  0.24408449696E+03  0.64692502334E+03 -0.11199252820E+04  0.16430170334E+04  0.98345467988E+03 0.  0.
   -9000010    2    1    2    0  501 -0.24408449696E+03 -0.64692502334E+03 -0.95320614523E+02  0.12119778927E+04  0.99081540427E+03 0.  0.
        -13    1    3    3    0    0  0.12483015858E+03  0.86810378880E+03 -0.59140392111E+03  0.10578021392E+04  0.10566000000E+00 0.  1.
          4    1    3    3  502    0  0.11925433838E+03 -0.22117876547E+03 -0.52852136085E+03  0.58521489420E+03  0.00000000000E+00 0.  1.
         13    1    4    4    0    0  0.33032961981E+03 -0.46282994070E+03 -0.19392153653E+03  0.60077848266E+03  0.10566000000E+00 0. -1.
         -4    1    4    4    0  501 -0.57441411677E+03 -0.18409508263E+03  0.98600922009E+02  0.61119941003E+03  0.00000000000E+00 0. -1.
<mgrwt>
<rscale>  2 0.12052055E+04</rscale>
<asrwt>0</asrwt>
<pdfrwt beam="1">  1        4 0.12613454E+00 0.12052055E+04</pdfrwt>
<pdfrwt beam="2">  1       -4 0.31309544E+00 0.12052055E+04</pdfrwt>
<totfact> 0.18196532E-01</totfact>
</mgrwt>
</event>
<event>
 8    1  0.7046235E-006  0.1519661E+04  0.7818608E-02  0.8398273E-01
         -2   -1    0    0    0  501 -0.00000000000E+00  0.00000000000E+00  0.76473620722E+03  0.76473620722E+03  0.00000000000E+00 0.  1.
          2   -1    0    0  502    0  0.00000000000E+00 -0.00000000000E+00 -0.31147875059E+04  0.31147875059E+04  0.00000000000E+00 0. -1.
    9000010    2    1    2  502    0 -0.10736199176E+04 -0.35274708579E+03 -0.84284648118E+03  0.17451714213E+04  0.10286607142E+04 0.  0.
   -9000010    2    1    2    0  501  0.10736199176E+04  0.35274708579E+03 -0.15072048175E+04  0.21343522918E+04  0.10033459571E+04 0.  0.
        -13    1    3    3    0    0 -0.77412302146E+03  0.24097508526E+03 -0.68575677703E+03  0.10618840862E+04  0.10566000000E+00 0.  1.
          4    1    3    3  502    0 -0.29949689616E+03 -0.59372217105E+03 -0.15708970414E+03  0.68328733514E+03  0.00000000000E+00 0.  1.
         13    1    4    4    0    0  0.10555884725E+04  0.13390927057E+02 -0.14439233074E+04  0.17886757306E+04  0.10566000000E+00 0. -1.
         -4    1    4    4    0  501  0.18031445160E+02  0.33935615873E+03 -0.63281510079E+02  0.34567656126E+03  0.00000000000E+00 0. -1.
<mgrwt>
<rscale>  2 0.15196611E+04</rscale>
<asrwt>0</asrwt>
<pdfrwt beam="2">  1        2 0.47919807E+00 0.15196611E+04</pdfrwt>
<pdfrwt beam="1">  1       -2 0.11765172E+00 0.15196611E+04</pdfrwt>
<totfact> 0.12238577E+00</totfact>
</mgrwt>
</event>
<event>
 8    1  0.7046235E-006  0.1156063E+04  0.7818608E-02  0.8640404E-01
         -2   -1    0    0    0  501 -0.00000000000E+00  0.00000000000E+00  0.63915578111E+03  0.63915578111E+03  0.00000000000E+00 0.  1.
          2   -1    0    0  502    0  0.00000000000E+00 -0.00000000000E+00 -0.31655906152E+04  0.31655906152E+04  0.00000000000E+00 0. -1.
    9000010    2    1    2  502    0 -0.34511379156E+02 -0.49190326342E+03 -0.11149872816E+03  0.10970803377E+04  0.97364954943E+03 0.  0.
   -9000010    2    1    2    0  501  0.34511379156E+02  0.49190326342E+03 -0.24149361060E+04  0.27076660587E+04  0.11208832381E+04 0.  0.
        -13    1    3    3    0    0  0.27205781692E+03  0.13946810457E+03 -0.23349662394E+03  0.38469142504E+03  0.10566000000E+00 0.  1.
          4    1    3    3  502    0 -0.30656919608E+03 -0.63137136799E+03  0.12199789578E+03  0.71238891266E+03  0.00000000000E+00 0.  1.
         13    1    4    4    0    0  0.12079640319E+03  0.42764614182E+03 -0.19526263904E+03  0.48538696213E+03  0.10566000000E+00 0. -1.
         -4    1    4    4    0  501 -0.86285024035E+02  0.64257121604E+02 -0.22196734669E+04  0.22222790965E+04  0.00000000000E+00 0. -1.
<mgrwt>
<rscale>  2 0.11560626E+04</rscale>
<asrwt>0</asrwt>
<pdfrwt beam="2">  1        2 0.48701395E+00 0.11560626E+04</pdfrwt>
<pdfrwt beam="1">  1       -2 0.98331657E-01 0.11560626E+04</pdfrwt>
<totfact> 0.18599050E+00</totfact>
</mgrwt>
</event>
<event>
 8    1  0.7046235E-006  0.1246858E+04  0.7818608E-02  0.8572089E-01
          1   -1    0    0  502    0  0.00000000000E+00  0.00000000000E+00  0.14432714586E+04  0.14432714586E+04  0.00000000000E+00 0. -1.
         -1   -1    0    0    0  501 -0.00000000000E+00 -0.00000000000E+00 -0.11569477727E+04  0.11569477727E+04  0.00000000000E+00 0.  1.
    9000010    2    1    2  502    0 -0.68458280602E+03  0.32543962016E+03  0.48531506978E+03  0.13455383823E+04  0.10001891104E+04 0.  0.
   -9000010    2    1    2    0  501  0.68458280602E+03 -0.32543962016E+03 -0.19899138390E+03  0.12546808490E+04  0.97982748339E+03 0.  0.
        -13    1    3    3    0    0 -0.94142254445E+03  0.25859196564E+03  0.45909874164E+03  0.10788502573E+04  0.10566000000E+00 0.  1.
          4    1    3    3  502    0  0.25683973843E+03  0.66847654518E+02  0.26216328136E+02  0.26668812500E+03  0.00000000000E+00 0.  1.
         13    1    4    4    0    0 -0.55575418721E+02  0.27798198470E+03 -0.32948020172E+02  0.28539130011E+03  0.10566000000E+00 0. -1.
         -4    1    4    4    0  501  0.74015822474E+03 -0.60342160485E+03 -0.16604336373E+03  0.96928954884E+03  0.00000000000E+00 0. -1.
<mgrwt>
<rscale>  2 0.12468576E+04</rscale>
<asrwt>0</asrwt>
<pdfrwt beam="1">  1        1 0.22204176E+00 0.12468576E+04</pdfrwt>
<pdfrwt beam="2">  1       -1 0.17799197E+00 0.12468576E+04</pdfrwt>
<totfact> 0.20128348E+00</totfact>
</mgrwt>
</event>
<event>
 8    1  0.7046235E-006  0.1079253E+04  0.7818608E-02  0.8703495E-01
         -2   -1    0    0    0  501 -0.00000000000E+00  0.00000000000E+00  0.47476832890E+03  0.47476832890E+03  0.00000000000E+00 0.  1.
          2   -1    0    0  502    0  0.00000000000E+00 -0.00000000000E+00 -0.27163531545E+04  0.27163531545E+04  0.00000000000E+00 0. -1.
    9000010    2    1    2  502    0 -0.18838073340E+03 -0.21404044929E+03 -0.59814997806E+03  0.12081268830E+04  0.10101913455E+04 0.  0.
   -9000010    2    1    2    0  501  0.18838073340E+03  0.21404044929E+03 -0.16434348475E+04  0.19829946004E+04  0.10724219657E+04 0.  0.
        -13    1    3    3    0    0 -0.25705444491E+03  0.36290654928E+03 -0.38825792336E+03  0.59035783841E+03  0.10566000000E+00 0.  1.
          4    1    3    3  502    0  0.68673711503E+02 -0.57694699857E+03 -0.20989205469E+03  0.61776904457E+03  0.00000000000E+00 0.  1.
         13    1    4    4    0    0 -0.38749211636E+03  0.33872708290E+03 -0.66586002104E+03  0.84157932230E+03  0.10566000000E+00 0. -1.
         -4    1    4    4    0  501  0.57587284977E+03 -0.12468663362E+03 -0.97757482645E+03  0.11414152781E+04  0.00000000000E+00 0. -1.
<mgrwt>
<rscale>  2 0.10792531E+04</rscale>
<asrwt>0</asrwt>
<pdfrwt beam="2">  1        2 0.41790049E+00 0.10792531E+04</pdfrwt>
<pdfrwt beam="1">  1       -2 0.73041281E-01 0.10792531E+04</pdfrwt>
<totfact> 0.68863952E+00</totfact>
</mgrwt>
</event>
<event>
 8    1  0.7046235E-006  0.1283253E+04  0.7818608E-02  0.8546376E-01
         -2   -1    0    0    0  501 -0.00000000000E+00  0.00000000000E+00  0.12659816123E+04  0.12659816123E+04  0.00000000000E+00 0. -1.
          2   -1    0    0  502    0  0.00000000000E+00 -0.00000000000E+00 -0.13323854144E+04  0.13323854144E+04  0.00000000000E+00 0.  1.
    9000010    2    1    2  502    0  0.37912875509E+03 -0.72567354319E+03 -0.23341561587E+03  0.13078170332E+04  0.99275467178E+03 0.  0.
   -9000010    2    1    2    0  501 -0.37912875509E+03  0.72567354319E+03  0.16701181380E+03  0.12905499935E+04  0.98350680502E+03 0.  0.
        -13    1    3    3    0    0  0.35803177617E+03  0.83939802313E+02 -0.32756492775E+03  0.49247480770E+03  0.10566000000E+00 0.  1.
          4    1    3    3  502    0  0.21096978911E+02 -0.80961334550E+03  0.94149311877E+02  0.81534222548E+03  0.00000000000E+00 0.  1.
         13    1    4    4    0    0 -0.49196779878E+03  0.46244087510E+03  0.50821217748E+03  0.84508195254E+03  0.10566000000E+00 0. -1.
         -4    1    4    4    0  501  0.11283904370E+03  0.26323266808E+03 -0.34120036368E+03  0.44546804095E+03  0.00000000000E+00 0. -1.
<mgrwt>
<rscale>  2 0.12832533E+04</rscale>
<asrwt>0</asrwt>
<pdfrwt beam="2">  1        2 0.20498237E+00 0.12832533E+04</pdfrwt>
<pdfrwt beam="1">  1       -2 0.19476640E+00 0.12832533E+04</pdfrwt>
<totfact> 0.26956820E+00</totfact>
</mgrwt>
</event>
<event>
 8    1  0.7046235E-006  0.1121248E+04  0.7818608E-02  0.8668348E-01
         -2   -1    0    0    0  501 -0.00000000000E+00  0.00000000000E+00  0.18851366114E+04  0.18851366114E+04  0.00000000000E+00 0. -1.
          2   -1    0    0  502    0  0.00000000000E+00 -0.00000000000E+00 -0.67740975231E+03  0.67740975231E+03  0.00000000000E+00 0.  1.
    9000010    2    1    2  502    0 -0.42816341768E+03  0.25665020463E+03  0.75476271376E+03  0.13395031213E+04  0.98762777303E+03 0.  0.
   -9000010    2    1    2    0  501  0.42816341768E+03 -0.25665020463E+03  0.45296414531E+03  0.12230432424E+04  0.10205219332E+04 0.  0.
        -13    1    3    3    0    0 -0.65833684931E+03 -0.96126082200E+01  0.73531041023E+03  0.98700619044E+03  0.10566000000E+00 0.  1.
          4    1    3    3  502    0  0.23017343164E+03  0.26626281285E+03  0.19452303528E+02  0.35249693084E+03  0.00000000000E+00 0.  1.
         13    1    4    4    0    0  0.41933038541E+03 -0.53601447173E+03 -0.11862063859E+02  0.68065424832E+03  0.10566000000E+00 0. -1.
         -4    1    4    4    0  501  0.88330322697E+01  0.27936426710E+03  0.46482620917E+03  0.54238899410E+03  0.00000000000E+00 0. -1.
<mgrwt>
<rscale>  2 0.11212476E+04</rscale>
<asrwt>0</asrwt>
<pdfrwt beam="2">  1        2 0.10421689E+00 0.11212476E+04</pdfrwt>
<pdfrwt beam="1">  1       -2 0.29002102E+00 0.11212476E+04</pdfrwt>
<totfact> 0.12636092E+00</totfact>
</mgrwt>
</event>
<event>
 8    1  0.7046235E-006  0.1388802E+04  0.7818608E-02  0.8476516E-01
         -2   -1    0    0    0  501 -0.00000000000E+00  0.00000000000E+00  0.10622696828E+04  0.10622696828E+04  0.00000000000E+00 0.  1.
          2   -1    0    0  502    0  0.00000000000E+00 -0.00000000000E+00 -0.23770823470E+04  0.23770823470E+04  0.00000000000E+00 0. -1.
    9000010    2    1    2  502    0 -0.27505006051E+03 -0.88099513147E+03 -0.14878137952E+04  0.20256909786E+04  0.10188371283E+04 0.  0.
   -9000010    2    1    2    0  501  0.27505006051E+03  0.88099513147E+03  0.17300113108E+03  0.14136610512E+04  0.10567417938E+04 0.  0.
        -13    1    3    3    0    0  0.17807557044E+03 -0.28929321623E+03 -0.11649801260E+04  0.12134991467E+04  0.10566000000E+00 0.  1.
          4    1    3    3  502    0 -0.45312563095E+03 -0.59170191523E+03 -0.32283366919E+03  0.81219183194E+03  0.00000000000E+00 0.  1.
         13    1    4    4    0    0  0.35674478565E+03 -0.12583398973E+03  0.13879006683E+03  0.40294382843E+03  0.10566000000E+00 0. -1.
         -4    1    4    4    0  501 -0.81694725136E+02  0.10068291212E+04  0.34211064245E+02  0.10107172227E+04  0.00000000000E+00 0. -1.
<mgrwt>
<rscale>  2 0.13888016E+04</rscale>
<asrwt>0</asrwt>
<pdfrwt beam="2">  1        2 0.36570497E+00 0.13888016E+04</pdfrwt>
<pdfrwt beam="1">  1       -2 0.16342611E+00 0.13888016E+04</pdfrwt>
<totfact> 0.13033658E+00</totfact>
</mgrwt>
</event>
<event>
 8    1  0.7046235E-006  0.1225478E+04  0.7818608E-02  0.8587620E-01
          1   -1    0    0  502    0  0.00000000000E+00  0.00000000000E+00  0.18210544007E+04  0.18210544007E+04  0.00000000000E+00 0.  1.
         -1   -1    0    0    0  501 -0.00000000000E+00 -0.00000000000E+00 -0.10814234915E+04  0.10814234915E+04  0.00000000000E+00 0. -1.
    9000010    2    1    2  502    0  0.61595756316E+03  0.37499922986E+03 -0.33611984244E+03  0.12755681216E+04  0.99703026153E+03 0.  0.
   -9000010    2    1    2    0  501 -0.61595756316E+03 -0.37499922986E+03  0.10757507517E+04  0.16269097706E+04  0.98466622769E+03 0.  0.
        -13    1    3    3    0    0  0.82871330642E+02  0.65962954150E+01  0.33352404028E+03  0.34372876686E+03  0.10566000000E+00 0.  1.
          4    1    3    3  502    0  0.53308623252E+03  0.36840293444E+03 -0.66964388273E+03  0.93183935476E+03  0.00000000000E+00 0.  1.
         13    1    4    4    0    0 -0.15133711364E+01 -0.57067984002E+03  0.57842847250E+03  0.81256216935E+03  0.10566000000E+00 0. -1.
         -4    1    4    4    0  501 -0.61444419203E+03  0.19568061016E+03  0.49732227919E+03  0.81434760127E+03  0.00000000000E+00 0. -1.
<mgrwt>
<rscale>  2 0.12254781E+04</rscale>
<asrwt>0</asrwt>
<pdfrwt beam="1">  1        1 0.28016221E+00 0.12254781E+04</pdfrwt>
<pdfrwt beam="2">  1       -1 0.16637285E+00 0.12254781E+04</pdfrwt>
<totfact> 0.13324280E+00</totfact>
</mgrwt>
</event>
<event>
 8    1  0.7046235E-006  0.1374024E+04  0.7818608E-02  0.8485905E-01
         -1   -1    0    0    0  501 -0.00000000000E+00  0.00000000000E+00  0.13107437926E+04  0.13107437926E+04  0.00000000000E+00 0.  1.
          1   -1    0    0  502    0  0.00000000000E+00 -0.00000000000E+00 -0.18762088079E+04  0.18762088079E+04  0.00000000000E+00 0. -1.
    9000010    2    1    2  502    0 -0.68660124111E+03  0.64338032980E+03 -0.10528435200E+04  0.17424500549E+04  0.10209276189E+04 0.  0.
   -9000010    2    1    2    0  501  0.68660124111E+03 -0.64338032980E+03  0.48737850468E+03  0.14445025457E+04  0.98167728128E+03 0.  0.
        -13    1    3    3    0    0 -0.75614028905E+03  0.21030476322E+03 -0.10409457716E+04  0.13036657320E+04  0.10566000000E+00 0.  1.
          4    1    3    3  502    0  0.69539047941E+02  0.43307556658E+03 -0.11897748335E+02  0.43878432284E+03  0.00000000000E+00 0.  1.
         13    1    4    4    0    0  0.19825793936E+03 -0.39832186807E+03 -0.26256448176E+03  0.51663007979E+03  0.10566000000E+00 0. -1.
         -4    1    4    4    0  501  0.48834330175E+03 -0.24505846173E+03  0.74994298644E+03  0.92787246588E+03  0.00000000000E+00 0. -1.
<mgrwt>
<rscale>  2 0.13740241E+04</rscale>
<asrwt>0</asrwt>
<pdfrwt beam="2">  1        1 0.28864751E+00 0.13740241E+04</pdfrwt>
<pdfrwt beam="1">  1       -1 0.20165289E+00 0.13740241E+04</pdfrwt>
<totfact> 0.58086854E-01</totfact>
</mgrwt>
</event>
<event>
 8    1  0.7046235E-006  0.1129328E+04  0.7818608E-02  0.8661769E-01
          2   -1    0    0  502    0  0.00000000000E+00  0.00000000000E+00  0.24615071134E+04  0.24615071134E+04  0.00000000000E+00 0. -1.
         -2   -1    0    0    0  501 -0.00000000000E+00 -0.00000000000E+00 -0.58013051113E+03  0.58013051113E+03  0.00000000000E+00 0.  1.
    9000010    2    1    2  502    0  0.52631769007E+03  0.11702837414E+03  0.14402795523E+04  0.18322648133E+04  0.99603373736E+03 0.  0.
   -9000010    2    1    2    0  501 -0.52631769007E+03 -0.11702837414E+03  0.44109704997E+03  0.12093728113E+04  0.98858992404E+03 0.  0.
        -13    1    3    3    0    0  0.51613010144E+03 -0.15739231904E+03  0.14604209207E+04  0.15569174354E+04  0.10566000000E+00 0.  1.
          4    1    3    3  502    0  0.10187588630E+02  0.27442069318E+03 -0.20141368401E+02  0.27534737792E+03  0.00000000000E+00 0.  1.
         13    1    4    4    0    0 -0.18401628354E+03  0.26509759340E+03  0.59232409170E+03  0.67452692119E+03  0.10566000000E+00 0. -1.
         -4    1    4    4    0  501 -0.34230140653E+03 -0.38212596755E+03 -0.15122704173E+03  0.53484589008E+03  0.00000000000E+00 0. -1.
<mgrwt>
<rscale>  2 0.11293278E+04</rscale>
<asrwt>0</asrwt>
<pdfrwt beam="1">  1        2 0.37869340E+00 0.11293278E+04</pdfrwt>
<pdfrwt beam="2">  1       -2 0.89250849E-01 0.11293278E+04</pdfrwt>
<totfact> 0.61529101E+00</totfact>
</mgrwt>
</event>
<event>
 8    1  0.7046235E-006  0.1149400E+04  0.7818608E-02  0.8645671E-01
         -2   -1    0    0    0  501 -0.00000000000E+00  0.00000000000E+00  0.46383265912E+03  0.46383265912E+03  0.00000000000E+00 0.  1.
          2   -1    0    0  502    0  0.00000000000E+00 -0.00000000000E+00 -0.28657478796E+04  0.28657478796E+04  0.00000000000E+00 0. -1.
    9000010    2    1    2  502    0 -0.58684358570E+02  0.57636999973E+03 -0.10649586310E+04  0.15625016911E+04  0.98571213776E+03 0.  0.
   -9000010    2    1    2    0  501  0.58684358570E+02 -0.57636999973E+03 -0.13369565895E+04  0.17670788476E+04  0.99973421513E+03 0.  0.
        -13    1    3    3    0    0 -0.14300791889E+03  0.61072509487E+03 -0.12262057588E+04  0.13773223952E+04  0.10566000000E+00 0.  1.
          4    1    3    3  502    0  0.84323560324E+02 -0.34355095142E+02  0.16124712782E+03  0.18517929587E+03  0.00000000000E+00 0.  1.
         13    1    4    4    0    0 -0.28319983463E+03 -0.71997797318E+03 -0.10132047233E+04  0.12748153790E+04  0.10566000000E+00 0. -1.
         -4    1    4    4    0  501  0.34188419320E+03  0.14360797345E+03 -0.32375186624E+03  0.49226346857E+03  0.00000000000E+00 0. -1.
<mgrwt>
<rscale>  2 0.11494004E+04</rscale>
<asrwt>0</asrwt>
<pdfrwt beam="2">  1        2 0.44088429E+00 0.11494004E+04</pdfrwt>
<pdfrwt beam="1">  1       -2 0.71358870E-01 0.11494004E+04</pdfrwt>
<totfact> 0.58520940E+00</totfact>
</mgrwt>
</event>
<event>
 8    1  0.7046235E-006  0.1012966E+04  0.7818608E-02  0.8762504E-01
         -2   -1    0    0    0  501 -0.00000000000E+00  0.00000000000E+00  0.56074415400E+03  0.56074415400E+03  0.00000000000E+00 0. -1.
          2   -1    0    0  502    0  0.00000000000E+00 -0.00000000000E+00 -0.18338118985E+04  0.18338118985E+04  0.00000000000E+00 0.  1.
    9000010    2    1    2  502    0  0.69086961756E+02 -0.11049911766E+03 -0.69665635488E+03  0.12371565106E+04  0.10140232205E+04 0.  0.
   -9000010    2    1    2    0  501 -0.69086961756E+02  0.11049911766E+03 -0.57641138958E+03  0.11573995418E+04  0.99515855324E+03 0.  0.
        -13    1    3    3    0    0 -0.15085253853E+01 -0.50779264192E+03 -0.10108232191E+03  0.51775794518E+03  0.10566000000E+00 0.  1.
          4    1    3    3  502    0  0.70595487142E+02  0.39729352425E+03 -0.59557403298E+03  0.71939856545E+03  0.00000000000E+00 0.  1.
         13    1    4    4    0    0 -0.40717210884E+03 -0.19687611624E+03 -0.41905591841E+02  0.45420856569E+03  0.10566000000E+00 0. -1.
         -4    1    4    4    0  501  0.33808514708E+03  0.30737523390E+03 -0.53450579774E+03  0.70319097613E+03  0.00000000000E+00 0. -1.
<mgrwt>
<rscale>  2 0.10129659E+04</rscale>
<asrwt>0</asrwt>
<pdfrwt beam="2">  1        2 0.28212491E+00 0.10129659E+04</pdfrwt>
<pdfrwt beam="1">  1       -2 0.86268330E-01 0.10129659E+04</pdfrwt>
<totfact> 0.14830359E+01</totfact>
</mgrwt>
</event>
<event>
 8    1  0.7046235E-006  0.1393153E+04  0.7818608E-02  0.8473774E-01
          2   -1    0    0  502    0  0.00000000000E+00  0.00000000000E+00  0.13013069750E+04  0.13013069750E+04  0.00000000000E+00 0. -1.
         -2   -1    0    0    0  501 -0.00000000000E+00 -0.00000000000E+00 -0.15188599841E+04  0.15188599841E+04  0.00000000000E+00 0.  1.
    9000010    2    1    2  502    0  0.62864104188E+03  0.71870296043E+03  0.80927229325E+02  0.13890469887E+04  0.10055738737E+04 0.  0.
   -9000010    2    1    2    0  501 -0.62864104188E+03 -0.71870296043E+03 -0.29848023840E+03  0.14311199704E+04  0.10233720790E+04 0.  0.
        -13    1    3    3    0    0  0.89281956831E+03  0.50907921362E+03  0.16639869652E+03  0.10411421443E+04  0.10566000000E+00 0.  1.
          4    1    3    3  502    0 -0.26417852642E+03  0.20962374681E+03 -0.85471467199E+02  0.34790484440E+03  0.00000000000E+00 0.  1.
         13    1    4    4    0    0 -0.72875258131E+02 -0.45557633702E+03  0.31804182080E+03  0.56036703422E+03  0.10566000000E+00 0. -1.
         -4    1    4    4    0  501 -0.55576578375E+03 -0.26312662341E+03 -0.61652205920E+03  0.87075293616E+03  0.00000000000E+00 0. -1.
<mgrwt>
<rscale>  2 0.13931526E+04</rscale>
<asrwt>0</asrwt>
<pdfrwt beam="1">  1        2 0.20020107E+00 0.13931526E+04</pdfrwt>
<pdfrwt beam="2">  1       -2 0.23367077E+00 0.13931526E+04</pdfrwt>
<totfact> 0.13361221E+00</totfact>
</mgrwt>
</event>
<event>
 8    1  0.7046235E-006  0.1126151E+04  0.7818608E-02  0.8664349E-01
          2   -1    0    0  502    0  0.00000000000E+00  0.00000000000E+00  0.17369682439E+04  0.17369682439E+04  0.00000000000E+00 0.  1.
         -2   -1    0    0    0  501 -0.00000000000E+00 -0.00000000000E+00 -0.92389035008E+03  0.92389035008E+03  0.00000000000E+00 0. -1.
    9000010    2    1    2  502    0  0.26808321241E+03 -0.42964462002E+03 -0.20084035961E+03  0.11503147530E+04  0.10131258918E+04 0.  0.
   -9000010    2    1    2    0  501 -0.26808321241E+03  0.42964462002E+03  0.10139182534E+04  0.15105438410E+04  0.99862373425E+03 0.  0.
        -13    1    3    3    0    0  0.59981223407E+02  0.26443565338E+03 -0.31624624871E+03  0.41657611900E+03  0.10566000000E+00 0.  1.
          4    1    3    3  502    0  0.20810198900E+03 -0.69408027340E+03  0.11540588910E+03  0.73373863397E+03  0.00000000000E+00 0.  1.
         13    1    4    4    0    0  0.20751208556E+03  0.26959313720E+03 -0.40694049166E+02  0.34263353905E+03  0.10566000000E+00 0. -1.
         -4    1    4    4    0  501 -0.47559529797E+03  0.16005148282E+03  0.10546123026E+04  0.11679103019E+04  0.00000000000E+00 0. -1.
<mgrwt>
<rscale>  2 0.11261509E+04</rscale>
<asrwt>0</asrwt>
<pdfrwt beam="1">  1        2 0.26722588E+00 0.11261509E+04</pdfrwt>
<pdfrwt beam="2">  1       -2 0.14213698E+00 0.11261509E+04</pdfrwt>
<totfact> 0.46268672E+00</totfact>
</mgrwt>
</event>
<event>
 8    1  0.7046235E-006  0.1307508E+04  0.7818608E-02  0.8529725E-01
         -2   -1    0    0    0  501 -0.00000000000E+00  0.00000000000E+00  0.32779795424E+04  0.32779795424E+04  0.00000000000E+00 0. -1.
          2   -1    0    0  502    0  0.00000000000E+00 -0.00000000000E+00 -0.52485508944E+03  0.52485508944E+03  0.00000000000E+00 0.  1.
    9000010    2    1    2  502    0 -0.42361415664E+02  0.84063457185E+03  0.15217634302E+04  0.20026970432E+04  0.99326257161E+03 0.  0.
   -9000010    2    1    2    0  501  0.42361415664E+02 -0.84063457185E+03  0.12313610227E+04  0.18001375887E+04  0.10078612985E+04 0.  0.
        -13    1    3    3    0    0 -0.35650164333E+03  0.42266388396E+03  0.13392344072E+04  0.14488916416E+04  0.10566000000E+00 0.  1.
          4    1    3    3  502    0  0.31414022766E+03  0.41797068789E+03  0.18252902307E+03  0.55380540160E+03  0.00000000000E+00 0.  1.
         13    1    4    4    0    0  0.13163674895E+03 -0.50961527767E+03  0.45928650511E+01  0.52636210966E+03  0.10566000000E+00 0. -1.
         -4    1    4    4    0  501 -0.89275333285E+02 -0.33101929418E+03  0.12267681577E+04  0.12737754790E+04  0.00000000000E+00 0. -1.
<mgrwt>
<rscale>  2 0.13075076E+04</rscale>
<asrwt>0</asrwt>
<pdfrwt beam="2">  1        2 0.80746939E-01 0.13075076E+04</pdfrwt>
<pdfrwt beam="1">  1       -2 0.50430453E+00 0.13075076E+04</pdfrwt>
<totfact> 0.21903045E-01</totfact>
</mgrwt>
</event>
<event>
 8    1  0.7046235E-006  0.1069836E+04  0.7818608E-02  0.8711606E-01
         -2   -1    0    0    0  501 -0.00000000000E+00  0.00000000000E+00  0.79714712832E+03  0.79714712832E+03  0.00000000000E+00 0. -1.
          2   -1    0    0  502    0  0.00000000000E+00 -0.00000000000E+00 -0.14372216976E+04  0.14372216976E+04  0.00000000000E+00 0.  1.
    9000010    2    1    2  502    0 -0.33330345193E+03 -0.12910784959E+03 -0.28365496966E+03  0.11000577969E+04  0.10009530393E+04 0.  0.
   -9000010    2    1    2    0  501  0.33330345193E+03  0.12910784959E+03 -0.35641959965E+03  0.11343110291E+04  0.10158083243E+04 0.  0.
        -13    1    3    3    0    0  0.21603610470E+03 -0.31892477457E+03 -0.34305477735E+03  0.51582090089E+03  0.10566000000E+00 0.  1.
          4    1    3    3  502    0 -0.54933955663E+03  0.18981692498E+03  0.59399807695E+02  0.58423689599E+03  0.00000000000E+00 0.  1.
         13    1    4    4    0    0  0.52471129399E+03  0.11307552296E+03  0.17873229293E+03  0.56573249830E+03  0.10566000000E+00 0. -1.
         -4    1    4    4    0  501 -0.19140784206E+03  0.16032326634E+02 -0.53515189258E+03  0.56857853075E+03  0.00000000000E+00 0. -1.
<mgrwt>
<rscale>  2 0.10698359E+04</rscale>
<asrwt>0</asrwt>
<pdfrwt beam="2">  1        2 0.22111103E+00 0.10698359E+04</pdfrwt>
<pdfrwt beam="1">  1       -2 0.12263802E+00 0.10698359E+04</pdfrwt>
<totfact> 0.10253867E+01</totfact>
</mgrwt>
</event>
<event>
 8    1  0.7046235E-006  0.1438693E+04  0.7818608E-02  0.8445679E-01
          2   -1    0    0  502    0  0.00000000000E+00  0.00000000000E+00  0.21878306179E+04  0.21878306179E+04  0.00000000000E+00 0. -1.
         -2   -1    0    0    0  501 -0.00000000000E+00 -0.00000000000E+00 -0.97763785457E+03  0.97763785457E+03  0.00000000000E+00 0.  1.
    9000010    2    1    2  502    0 -0.36759422532E+03 -0.98997160227E+03  0.31549650350E+03  0.14595401957E+04  0.95684390128E+03 0.  0.
   -9000010    2    1    2    0  501  0.36759422532E+03  0.98997160227E+03  0.89469625983E+03  0.17059282767E+04  0.99726656429E+03 0.  0.
        -13    1    3    3    0    0 -0.59004462414E+03 -0.23261765758E+03  0.10795461583E+03  0.64336447162E+03  0.10566000000E+00 0.  1.
          4    1    3    3  502    0  0.22245039882E+03 -0.75735394469E+03  0.20754188767E+03  0.81617572410E+03  0.00000000000E+00 0.  1.
         13    1    4    4    0    0  0.55080173782E+02 -0.18194281954E+02 -0.18628404798E+03  0.19510667629E+03  0.10566000000E+00 0. -1.
         -4    1    4    4    0  501  0.31251405154E+03  0.10081658842E+04  0.10809803078E+04  0.15108216004E+04  0.00000000000E+00 0. -1.
<mgrwt>
<rscale>  2 0.14386931E+04</rscale>
<asrwt>0</asrwt>
<pdfrwt beam="1">  1        2 0.33658933E+00 0.14386931E+04</pdfrwt>
<pdfrwt beam="2">  1       -2 0.15040582E+00 0.14386931E+04</pdfrwt>
<totfact> 0.21426071E+00</totfact>
</mgrwt>
</event>
<event>
 8    1  0.7046235E-006  0.1207876E+04  0.7818608E-02  0.8600655E-01
         -1   -1    0    0    0  501 -0.00000000000E+00  0.00000000000E+00  0.79282068256E+03  0.79282068256E+03  0.00000000000E+00 0. -1.
          1   -1    0    0  502    0  0.00000000000E+00 -0.00000000000E+00 -0.18664293288E+04  0.18664293288E+04  0.00000000000E+00 0.  1.
    9000010    2    1    2  502    0 -0.36718918951E+03  0.58876208058E+03 -0.69462469117E+03  0.13938781302E+04  0.98940592873E+03 0.  0.
   -9000010    2    1    2    0  501  0.36718918951E+03 -0.58876208058E+03 -0.37898395502E+03  0.12653718811E+04  0.98796177606E+03 0.  0.
        -13    1    3    3    0    0 -0.14711937704E+03  0.12827484759E+03  0.25181063067E+03  0.31860187148E+03  0.10566000000E+00 0.  1.
          4    1    3    3  502    0 -0.22006981247E+03  0.46048723299E+03 -0.94643532184E+03  0.10752762587E+04  0.00000000000E+00 0.  1.
         13    1    4    4    0    0  0.18561171207E+03  0.40967233818E+02  0.27840180024E+03  0.33710175829E+03  0.10566000000E+00 0. -1.
         -4    1    4    4    0  501  0.18157747744E+03 -0.62972931439E+03 -0.65738575526E+03  0.92827012283E+03  0.00000000000E+00 0. -1.
<mgrwt>
<rscale>  2 0.12078759E+04</rscale>
<asrwt>0</asrwt>
<pdfrwt beam="2">  1        1 0.28714297E+00 0.12078759E+04</pdfrwt>
<pdfrwt beam="1">  1       -1 0.12197241E+00 0.12078759E+04</pdfrwt>
<totfact> 0.30102519E+00</totfact>
</mgrwt>
</event>
<event>
 8    1  0.7046235E-006  0.1248961E+04  0.7818608E-02  0.8570578E-01
          1   -1    0    0  502    0  0.00000000000E+00  0.00000000000E+00  0.17119309048E+04  0.17119309048E+04  0.00000000000E+00 0. -1.
         -1   -1    0    0    0  501 -0.00000000000E+00 -0.00000000000E+00 -0.91359933310E+03  0.91359933310E+03  0.00000000000E+00 0.  1.
    9000010    2    1    2  502    0  0.42468046229E+03  0.61598951214E+03  0.46497500706E+03  0.13286768680E+04  0.99467778111E+03 0.  0.
   -9000010    2    1    2    0  501 -0.42468046229E+03 -0.61598951214E+03  0.33335656463E+03  0.12968533699E+04  0.10054379592E+04 0.  0.
        -13    1    3    3    0    0  0.62717829286E-01  0.78667229297E+03  0.27873324858E+03  0.83459303585E+03  0.10566000000E+00 0.  1.
          4    1    3    3  502    0  0.42461774446E+03 -0.17068278083E+03  0.18624175848E+03  0.49408383214E+03  0.00000000000E+00 0.  1.
         13    1    4    4    0    0  0.32536106745E+03 -0.28826410439E+03  0.10905765516E+03  0.44816247211E+03  0.10566000000E+00 0. -1.
         -4    1    4    4    0  501 -0.75004152973E+03 -0.32772540775E+03  0.22429890947E+03  0.84869089779E+03  0.00000000000E+00 0. -1.
<mgrwt>
<rscale>  2 0.12489612E+04</rscale>
<asrwt>0</asrwt>
<pdfrwt beam="1">  1        1 0.26337398E+00 0.12489612E+04</pdfrwt>
<pdfrwt beam="2">  1       -1 0.14055374E+00 0.12489612E+04</pdfrwt>
<totfact> 0.26833495E+00</totfact>
</mgrwt>
</event>
<event>
 8    1  0.7046235E-006  0.1520870E+04  0.7818608E-02  0.8397588E-01
          1   -1    0    0  502    0  0.00000000000E+00  0.00000000000E+00  0.21897503089E+04  0.21897503089E+04  0.00000000000E+00 0.  1.
         -1   -1    0    0    0  501 -0.00000000000E+00 -0.00000000000E+00 -0.10945374158E+04  0.10945374158E+04  0.00000000000E+00 0. -1.
    9000010    2    1    2  502    0 -0.11376554369E+04  0.22399513710E+03  0.23839086253E+03  0.15326339580E+04  0.97350035002E+03 0.  0.
   -9000010    2    1    2    0  501  0.11376554369E+04 -0.22399513710E+03  0.85682203064E+03  0.17516537667E+04  0.99484331008E+03 0.  0.
        -13    1    3    3    0    0 -0.40813313805E+03 -0.27741262651E+03  0.39695293118E+03  0.63332619120E+03  0.10566000000E+00 0.  1.
          4    1    3    3  502    0 -0.72952229881E+03  0.50140776360E+03 -0.15856206865E+03  0.89930776683E+03  0.00000000000E+00 0.  1.
         13    1    4    4    0    0  0.67207780970E+03 -0.53436012470E+03  0.18677937610E+03  0.87870124141E+03  0.10566000000E+00 0. -1.
         -4    1    4    4    0  501  0.46557762716E+03  0.31036498760E+03  0.67004265454E+03  0.87295252525E+03  0.00000000000E+00 0. -1.
<mgrwt>
<rscale>  2 0.15208703E+04</rscale>
<asrwt>0</asrwt>
<pdfrwt beam="1">  1        1 0.33688466E+00 0.15208703E+04</pdfrwt>
<pdfrwt beam="2">  1       -1 0.16839037E+00 0.15208703E+04</pdfrwt>
<totfact> 0.64055738E-01</totfact>
</mgrwt>
</event>
<event>
 8    1  0.7046235E-006  0.1090085E+04  0.7818608E-02  0.8694272E-01
          1   -1    0    0  502    0  0.00000000000E+00  0.00000000000E+00  0.13907910674E+04  0.13907910674E+04  0.00000000000E+00 0.  1.
         -1   -1    0    0    0  501 -0.00000000000E+00 -0.00000000000E+00 -0.93250472574E+03  0.93250472574E+03  0.00000000000E+00 0. -1.
    9000010    2    1    2  502    0  0.16709915636E+03 -0.40402506044E+03  0.56388708882E+03  0.12209824013E+04  0.99079311557E+03 0.  0.
   -9000010    2    1    2    0  501 -0.16709915636E+03  0.40402506044E+03 -0.10560074717E+03  0.11023133918E+04  0.10063721570E+04 0.  0.
        -13    1    3    3    0    0 -0.47857312038E+02 -0.53496703357E+03 -0.67449712537E+02  0.54132201526E+03  0.10566000000E+00 0.  1.
          4    1    3    3  502    0  0.21495646840E+03  0.13094197312E+03  0.63133680136E+03  0.67966038606E+03  0.00000000000E+00 0.  1.
         13    1    4    4    0    0 -0.56828619236E+03  0.16424097666E+03 -0.20201781575E+03  0.62508839686E+03  0.10566000000E+00 0. -1.
         -4    1    4    4    0  501  0.40118703600E+03  0.23978408378E+03  0.96417068585E+02  0.47722499495E+03  0.00000000000E+00 0. -1.
<mgrwt>
<rscale>  2 0.10900846E+04</rscale>
<asrwt>0</asrwt>
<pdfrwt beam="1">  1        1 0.21396786E+00 0.10900846E+04</pdfrwt>
<pdfrwt beam="2">  1       -1 0.14346227E+00 0.10900846E+04</pdfrwt>
<totfact> 0.44770229E+00</totfact>
</mgrwt>
</event>
<event>
 8    1  0.7046235E-006  0.1541547E+04  0.7818608E-02  0.8385982E-01
          2   -1    0    0  502    0  0.00000000000E+00  0.00000000000E+00  0.26775755230E+04  0.26775755230E+04  0.00000000000E+00 0. -1.
         -2   -1    0    0    0  501 -0.00000000000E+00 -0.00000000000E+00 -0.94275332979E+03  0.94275332979E+03  0.00000000000E+00 0.  1.
    9000010    2    1    2  502    0  0.10847606989E+04  0.43642576166E+03  0.13046130613E+04  0.20180768027E+04  0.10017212797E+04 0.  0.
   -9000010    2    1    2    0  501 -0.10847606989E+04 -0.43642576166E+03  0.43020913184E+03  0.16022520501E+04  0.10074514954E+04 0.  0.
        -13    1    3    3    0    0  0.89631036108E+03  0.58553882206E+03  0.13974798737E+04  0.17604482339E+04  0.10566000000E+00 0.  1.
          4    1    3    3  502    0  0.18845033785E+03 -0.14911306041E+03 -0.92866812366E+02  0.25762856879E+03  0.00000000000E+00 0.  1.
         13    1    4    4    0    0 -0.42825899596E+03  0.30645122124E+03  0.13337727533E+02  0.52677891449E+03  0.10566000000E+00 0. -1.
         -4    1    4    4    0  501 -0.65650170297E+03 -0.74287698289E+03  0.41687140431E+03  0.10754731356E+04  0.00000000000E+00 0. -1.
<mgrwt>
<rscale>  2 0.15415474E+04</rscale>
<asrwt>0</asrwt>
<pdfrwt beam="1">  1        2 0.41193469E+00 0.15415474E+04</pdfrwt>
<pdfrwt beam="2">  1       -2 0.14503897E+00 0.15415474E+04</pdfrwt>
<totfact> 0.12560559E+00</totfact>
</mgrwt>
</event>
<event>
 8    1  0.7046235E-006  0.1272220E+04  0.7818608E-02  0.8554077E-01
         -2   -1    0    0    0  501 -0.00000000000E+00  0.00000000000E+00  0.71173056161E+03  0.71173056161E+03  0.00000000000E+00 0. -1.
          2   -1    0    0  502    0  0.00000000000E+00 -0.00000000000E+00 -0.26905182256E+04  0.26905182256E+04  0.00000000000E+00 0.  1.
    9000010    2    1    2  502    0 -0.29527075833E+02  0.78842745556E+03 -0.32133096705E+03  0.13139120610E+04  0.10003107581E+04 0.  0.
   -9000010    2    1    2    0  501  0.29527075833E+02 -0.78842745556E+03 -0.16574566969E+04  0.20883367262E+04  0.99573986513E+03 0.  0.
        -13    1    3    3    0    0 -0.48827466748E+03  0.45344597439E+03 -0.10585418268E+02  0.66643639219E+03  0.10566000000E+00 0.  1.
          4    1    3    3  502    0  0.45874759164E+03  0.33498148117E+03 -0.31074554878E+03  0.64747566877E+03  0.00000000000E+00 0.  1.
         13    1    4    4    0    0  0.21380949205E+03  0.83594194068E+02 -0.86750995691E+03  0.89737173160E+03  0.10566000000E+00 0. -1.
         -4    1    4    4    0  501 -0.18428241622E+03 -0.87202164963E+03 -0.78994673999E+03  0.11909649946E+04  0.00000000000E+00 0. -1.
<mgrwt>
<rscale>  2 0.12722197E+04</rscale>
<asrwt>0</asrwt>
<pdfrwt beam="2">  1        2 0.41392588E+00 0.12722197E+04</pdfrwt>
<pdfrwt beam="1">  1       -2 0.10949701E+00 0.12722197E+04</pdfrwt>
<totfact> 0.27439129E+00</totfact>
</mgrwt>
</event>
<event>
 8    1  0.7046235E-006  0.1439340E+04  0.7818608E-02  0.8445288E-01
         -2   -1    0    0    0  501 -0.00000000000E+00  0.00000000000E+00  0.61525596541E+03  0.61525596541E+03  0.00000000000E+00 0.  1.
          2   -1    0    0  502    0  0.00000000000E+00 -0.00000000000E+00 -0.34292162821E+04  0.34292162821E+04  0.00000000000E+00 0. -1.
    9000010    2    1    2  502    0  0.92289002727E+03 -0.45257531375E+03 -0.11201544384E+04  0.18108752764E+04  0.98385612958E+03 0.  0.
   -9000010    2    1    2    0  501 -0.92289002727E+03  0.45257531375E+03 -0.16938058782E+04  0.22335969711E+04  0.10312258041E+04 0.  0.
        -13    1    3    3    0    0  0.79913572936E+03 -0.11620909706E+03 -0.11973763169E+04  0.14442411584E+04  0.10566000000E+00 0.  1.
          4    1    3    3  502    0  0.12375429792E+03 -0.33636621669E+03  0.77221878461E+02  0.36663411802E+03  0.00000000000E+00 0.  1.
         13    1    4    4    0    0 -0.58373269017E+03 -0.26723807290E+03 -0.58307505260E+03  0.86725807538E+03  0.10566000000E+00 0. -1.
         -4    1    4    4    0  501 -0.33915733710E+03  0.71981338665E+03 -0.11107308256E+04  0.13663388957E+04  0.00000000000E+00 0. -1.
<mgrwt>
<rscale>  2 0.14393403E+04</rscale>
<asrwt>0</asrwt>
<pdfrwt beam="2">  1        2 0.52757174E+00 0.14393403E+04</pdfrwt>
<pdfrwt beam="1">  1       -2 0.94654762E-01 0.14393403E+04</pdfrwt>
<totfact> 0.13027137E+00</totfact>
</mgrwt>
</event>
<event>
 8    1  0.7046235E-006  0.1357082E+04  0.7818608E-02  0.8496820E-01
          2   -1    0    0  502    0  0.00000000000E+00  0.00000000000E+00  0.33998452885E+04  0.33998452885E+04  0.00000000000E+00 0.  1.
         -2   -1    0    0    0  501 -0.00000000000E+00 -0.00000000000E+00 -0.62277659525E+03  0.62277659525E+03  0.00000000000E+00 0. -1.
    9000010    2    1    2  502    0 -0.92140436877E+03 -0.21902925353E+02  0.66497604726E+03  0.15134391890E+04  0.99941947466E+03 0.  0.
   -9000010    2    1    2    0  501  0.92140436877E+03  0.21902925353E+02  0.21120926459E+04  0.25091826947E+04  0.99277223046E+03 0.  0.
        -13    1    3    3    0    0 -0.15310818452E+03 -0.43249477552E+03  0.38348929795E+03  0.59796145346E+03  0.10566000000E+00 0.  1.
          4    1    3    3  502    0 -0.76829618425E+03  0.41059185017E+03  0.28148674931E+03  0.91547773550E+03  0.00000000000E+00 0.  1.
         13    1    4    4    0    0  0.62716545919E+03 -0.26102328380E+03  0.19586348108E+04  0.20730943058E+04  0.10566000000E+00 0. -1.
         -4    1    4    4    0  501  0.29423890958E+03  0.28292620915E+03  0.15345783519E+03  0.43608838889E+03  0.00000000000E+00 0. -1.
<mgrwt>
<rscale>  2 0.13570821E+04</rscale>
<asrwt>0</asrwt>
<pdfrwt beam="1">  1        2 0.52305311E+00 0.13570821E+04</pdfrwt>
<pdfrwt beam="2">  1       -2 0.95811786E-01 0.13570821E+04</pdfrwt>
<totfact> 0.13411769E+00</totfact>
</mgrwt>
</event>
<event>
 8    1  0.7046235E-006  0.1099872E+04  0.7818608E-02  0.8686034E-01
         -1   -1    0    0    0  501 -0.00000000000E+00  0.00000000000E+00  0.41566852197E+03  0.41566852197E+03  0.00000000000E+00 0.  1.
          1   -1    0    0  502    0  0.00000000000E+00 -0.00000000000E+00 -0.30137536813E+04  0.30137536813E+04  0.00000000000E+00 0. -1.
    9000010    2    1    2  502    0 -0.40638957742E+03 -0.18470335810E+03 -0.16254801567E+04  0.19670609568E+04  0.10138418264E+04 0.  0.
   -9000010    2    1    2    0  501  0.40638957742E+03  0.18470335810E+03 -0.97260500271E+03  0.14623612465E+04  0.99663037522E+03 0.  0.
        -13    1    3    3    0    0 -0.56577858909E+03 -0.30263212641E+03 -0.47168346350E+03  0.79635225667E+03  0.10566000000E+00 0.  1.
          4    1    3    3  502    0  0.15938901167E+03  0.11792876832E+03 -0.11537966932E+04  0.11707087001E+04  0.00000000000E+00 0.  1.
         13    1    4    4    0    0 -0.30612384545E+03  0.13966050049E+03 -0.13700150084E+03  0.36329916948E+03  0.10566000000E+00 0. -1.
         -4    1    4    4    0  501  0.71251342287E+03  0.45042857611E+02 -0.83560350187E+03  0.10990620770E+04  0.00000000000E+00 0. -1.
<mgrwt>
<rscale>  2 0.10998717E+04</rscale>
<asrwt>0</asrwt>
<pdfrwt beam="2">  1        1 0.46365443E+00 0.10998717E+04</pdfrwt>
<pdfrwt beam="1">  1       -1 0.63949000E-01 0.10998717E+04</pdfrwt>
<totfact> 0.11176823E+00</totfact>
</mgrwt>
</event>
<event>
 8    1  0.7046235E-006  0.1142959E+04  0.7818608E-02  0.8650800E-01
         -1   -1    0    0    0  501 -0.00000000000E+00  0.00000000000E+00  0.62440461262E+03  0.62440461262E+03  0.00000000000E+00 0.  1.
          1   -1    0    0  502    0  0.00000000000E+00 -0.00000000000E+00 -0.23351836772E+04  0.23351836772E+04  0.00000000000E+00 0. -1.
    9000010    2    1    2  502    0  0.45554360127E+03 -0.25922605387E+03 -0.36846055436E+03  0.11868897416E+04  0.99911258570E+03 0.  0.
   -9000010    2    1    2    0  501 -0.45554360127E+03  0.25922605387E+03 -0.13423185102E+04  0.17726985482E+04  0.10324354897E+04 0.  0.
        -13    1    3    3    0    0 -0.27488707899E+03 -0.16776482872E+03  0.70705460437E+02  0.32970777554E+03  0.10566000000E+00 0.  1.
          4    1    3    3  502    0  0.73043068025E+03 -0.91461225143E+02 -0.43916601480E+03  0.85718196605E+03  0.00000000000E+00 0.  1.
         13    1    4    4    0    0 -0.43833547333E+03  0.17557272139E+02 -0.14445797674E+04  0.15097208221E+04  0.10566000000E+00 0. -1.
         -4    1    4    4    0  501 -0.17208127934E+02  0.24166878173E+03  0.10226125721E+03  0.26297772616E+03  0.00000000000E+00 0. -1.
<mgrwt>
<rscale>  2 0.11429585E+04</rscale>
<asrwt>0</asrwt>
<pdfrwt beam="2">  1        1 0.35925903E+00 0.11429585E+04</pdfrwt>
<pdfrwt beam="1">  1       -1 0.96062248E-01 0.11429585E+04</pdfrwt>
<totfact> 0.22417564E+00</totfact>
</mgrwt>
</event>
<event>
 8    1  0.7046235E-006  0.1134497E+04  0.7818608E-02  0.8657590E-01
         -1   -1    0    0    0  501 -0.00000000000E+00  0.00000000000E+00  0.63901049820E+03  0.63901049820E+03  0.00000000000E+00 0.  1.
          1   -1    0    0  502    0  0.00000000000E+00 -0.00000000000E+00 -0.21536746063E+04  0.21536746063E+04  0.00000000000E+00 0. -1.
    9000010    2    1    2  502    0  0.28176428135E+03  0.50318210421E+03 -0.11254428510E+04  0.16139267546E+04  0.10027734630E+04 0.  0.
   -9000010    2    1    2    0  501 -0.28176428135E+03 -0.50318210421E+03 -0.38922125718E+03  0.11787583500E+04  0.95152231734E+03 0.  0.
        -13    1    3    3    0    0  0.66018172708E+03  0.29675578434E+03 -0.74972321343E+03  0.10421078717E+04  0.10566000000E+00 0.  1.
          4    1    3    3  502    0 -0.37841744573E+03  0.20642631987E+03 -0.37571963754E+03  0.57181888287E+03  0.00000000000E+00 0.  1.
         13    1    4    4    0    0 -0.33091423439E+03  0.17144466126E+03  0.44343929084E+02  0.37531839498E+03  0.10566000000E+00 0. -1.
         -4    1    4    4    0  501  0.49149953040E+02 -0.67462676548E+03 -0.43356518627E+03  0.80343995502E+03  0.00000000000E+00 0. -1.
<mgrwt>
<rscale>  2 0.11344973E+04</rscale>
<asrwt>0</asrwt>
<pdfrwt beam="2">  1        1 0.33133455E+00 0.11344973E+04</pdfrwt>
<pdfrwt beam="1">  1       -1 0.98309308E-01 0.11344973E+04</pdfrwt>
<totfact> 0.30095678E+00</totfact>
</mgrwt>
</event>
<event>
 8    1  0.7046235E-006  0.1343111E+04  0.7818608E-02  0.8505945E-01
          1   -1    0    0  502    0  0.00000000000E+00  0.00000000000E+00  0.11872766045E+04  0.11872766045E+04  0.00000000000E+00 0. -1.
         -1   -1    0    0    0  501 -0.00000000000E+00 -0.00000000000E+00 -0.15203616289E+04  0.15203616289E+04  0.00000000000E+00 0.  1.
    9000010    2    1    2  502    0  0.88046283385E+03 -0.13932049267E+03 -0.13247993047E+03  0.13414548284E+04  0.99364235176E+03 0.  0.
   -9000010    2    1    2    0  501 -0.88046283385E+03  0.13932049267E+03 -0.20060509396E+03  0.13661834050E+04  0.10156720390E+04 0.  0.
        -13    1    3    3    0    0 -0.24640215480E+01 -0.32281898174E+03  0.20064374099E+03  0.38010010305E+03  0.10566000000E+00 0.  1.
          4    1    3    3  502    0  0.88292685540E+03  0.18349848907E+03 -0.33312367146E+03  0.96135472536E+03  0.00000000000E+00 0.  1.
         13    1    4    4    0    0 -0.55633113162E+03 -0.12333099063E+03  0.35501040784E+03  0.67137713850E+03  0.10566000000E+00 0. -1.
         -4    1    4    4    0  501 -0.32413170223E+03  0.26265148331E+03 -0.55561550180E+03  0.69480626646E+03  0.00000000000E+00 0. -1.
<mgrwt>
<rscale>  2 0.13431108E+04</rscale>
<asrwt>0</asrwt>
<pdfrwt beam="1">  1        1 0.18265794E+00 0.13431108E+04</pdfrwt>
<pdfrwt beam="2">  1       -1 0.23390179E+00 0.13431108E+04</pdfrwt>
<totfact> 0.96828719E-01</totfact>
</mgrwt>
</event>
<event>
 8    1  0.7046235E-006  0.1500723E+04  0.7818608E-02  0.8409083E-01
         -1   -1    0    0    0  501 -0.00000000000E+00  0.00000000000E+00  0.77531038304E+03  0.77531038304E+03  0.00000000000E+00 0.  1.
          1   -1    0    0  502    0  0.00000000000E+00 -0.00000000000E+00 -0.29481370865E+04  0.29481370865E+04  0.00000000000E+00 0. -1.
    9000010    2    1    2  502    0 -0.71885226609E+03  0.85706356074E+03 -0.86006780797E+03  0.17287490681E+04  0.99877433822E+03 0.  0.
   -9000010    2    1    2    0  501  0.71885226609E+03 -0.85706356074E+03 -0.13127588954E+04  0.19946984014E+04  0.10020874549E+04 0.  0.
        -13    1    3    3    0    0 -0.53157642512E+03  0.86007376182E+03 -0.10530158598E+04  0.14598434107E+04  0.10566000000E+00 0.  1.
          4    1    3    3  502    0 -0.18727584097E+03 -0.30102010833E+01  0.19294805182E+03  0.26890565748E+03  0.00000000000E+00 0.  1.
         13    1    4    4    0    0 -0.56013497918E+02 -0.40281708020E+03 -0.31922368803E+01  0.40670543836E+03  0.10566000000E+00 0. -1.
         -4    1    4    4    0  501  0.77486576400E+03 -0.45424648054E+03 -0.13095666586E+04  0.15879929630E+04  0.00000000000E+00 0. -1.
<mgrwt>
<rscale>  2 0.15007228E+04</rscale>
<asrwt>0</asrwt>
<pdfrwt beam="2">  1        1 0.45355957E+00 0.15007228E+04</pdfrwt>
<pdfrwt beam="1">  1       -1 0.11927852E+00 0.15007228E+04</pdfrwt>
<totfact> 0.34196411E-01</totfact>
</mgrwt>
</event>
<event>
 8    1  0.7046235E-006  0.1081265E+04  0.7818608E-02  0.8701774E-01
          1   -1    0    0  502    0  0.00000000000E+00  0.00000000000E+00  0.14966835405E+04  0.14966835405E+04  0.00000000000E+00 0.  1.
         -1   -1    0    0    0  501 -0.00000000000E+00 -0.00000000000E+00 -0.78730776378E+03  0.78730776378E+03  0.00000000000E+00 0. -1.
    9000010    2    1    2  502    0 -0.23919480953E+03  0.33399860086E+03  0.45434014580E+03  0.11692595907E+04  0.99597881506E+03 0.  0.
   -9000010    2    1    2    0  501  0.23919480953E+03 -0.33399860086E+03  0.25503563089E+03  0.11147317136E+04  0.10043975298E+04 0.  0.
        -13    1    3    3    0    0 -0.29348949387E+02  0.24012986907E+03  0.75383991550E+03  0.79170597081E+03  0.10566000000E+00 0.  1.
          4    1    3    3  502    0 -0.20984586014E+03  0.93868731790E+02 -0.29949976971E+03  0.37755361987E+03  0.00000000000E+00 0.  1.
         13    1    4    4    0    0  0.44659407533E+03 -0.56569606377E+03  0.13294048118E+02  0.72085716169E+03  0.10566000000E+00 0. -1.
         -4    1    4    4    0  501 -0.20739926580E+03  0.23169746291E+03  0.24174158277E+03  0.39387455188E+03  0.00000000000E+00 0. -1.
<mgrwt>
<rscale>  2 0.10812645E+04</rscale>
<asrwt>0</asrwt>
<pdfrwt beam="1">  1        1 0.23025901E+00 0.10812645E+04</pdfrwt>
<pdfrwt beam="2">  1       -1 0.12112427E+00 0.10812645E+04</pdfrwt>
<totfact> 0.58667744E+00</totfact>
</mgrwt>
</event>
<event>
 8    1  0.7046235E-006  0.1517895E+04  0.7818608E-02  0.8399274E-01
         -2   -1    0    0    0  501 -0.00000000000E+00  0.00000000000E+00  0.42582994377E+04  0.42582994377E+04  0.00000000000E+00 0. -1.
          2   -1    0    0  502    0  0.00000000000E+00 -0.00000000000E+00 -0.55749217105E+03  0.55749217105E+03  0.00000000000E+00 0.  1.
    9000010    2    1    2  502    0  0.16279823454E+03  0.11566266968E+04  0.22540969474E+04  0.27130727792E+04  0.95682928262E+03 0.  0.
   -9000010    2    1    2    0  501 -0.16279823454E+03 -0.11566266968E+04  0.14467103193E+04  0.21027188296E+04  0.98192013297E+03 0.  0.
        -13    1    3    3    0    0  0.30551327543E+02 -0.11092802705E+03 -0.94171022648E+01  0.11544307593E+03  0.10566000000E+00 0.  1.
          4    1    3    3  502    0  0.13224690700E+03  0.12675547238E+04  0.22635140496E+04  0.25976297032E+04  0.00000000000E+00 0.  1.
         13    1    4    4    0    0  0.25187325419E+03 -0.39162463538E+03  0.10455348067E+04  0.11445317970E+04  0.10566000000E+00 0. -1.
         -4    1    4    4    0  501 -0.41467148873E+03 -0.76500206138E+03  0.40117551260E+03  0.95818703257E+03  0.00000000000E+00 0. -1.
<mgrwt>
<rscale>  2 0.15178949E+04</rscale>
<asrwt>0</asrwt>
<pdfrwt beam="2">  1        2 0.85768029E-01 0.15178949E+04</pdfrwt>
<pdfrwt beam="1">  1       -2 0.65512297E+00 0.15178949E+04</pdfrwt>
<totfact> 0.23386197E-01</totfact>
</mgrwt>
</event>
<event>
 8    1  0.7046235E-006  0.1229217E+04  0.7818608E-02  0.8584880E-01
          1   -1    0    0  502    0  0.00000000000E+00  0.00000000000E+00  0.14401456027E+04  0.14401456027E+04  0.00000000000E+00 0.  1.
         -1   -1    0    0    0  501 -0.00000000000E+00 -0.00000000000E+00 -0.11952229568E+04  0.11952229568E+04  0.00000000000E+00 0. -1.
    9000010    2    1    2  502    0  0.63480593547E+03  0.17189096065E+03  0.58178535869E+03  0.13487748737E+04  0.10238136443E+04 0.  0.
   -9000010    2    1    2    0  501 -0.63480593547E+03 -0.17189096065E+03 -0.33686271279E+03  0.12865936859E+04  0.10532434415E+04 0.  0.
        -13    1    3    3    0    0  0.29171741795E+03  0.20607948487E+02 -0.28253064931E+03  0.40662921494E+03  0.10566000000E+00 0.  1.
          4    1    3    3  502    0  0.34308851751E+03  0.15128301217E+03  0.86431600799E+03  0.94214565875E+03  0.00000000000E+00 0.  1.
         13    1    4    4    0    0 -0.74816773723E+03  0.13442344100E+03  0.71701426644E+02  0.76352192521E+03  0.10566000000E+00 0. -1.
         -4    1    4    4    0  501  0.11336180176E+03 -0.30631440166E+03 -0.40856413943E+03  0.52307176065E+03  0.00000000000E+00 0. -1.
<mgrwt>
<rscale>  2 0.12292168E+04</rscale>
<asrwt>0</asrwt>
<pdfrwt beam="1">  1        1 0.22156086E+00 0.12292168E+04</pdfrwt>
<pdfrwt beam="2">  1       -1 0.18388045E+00 0.12292168E+04</pdfrwt>
<totfact> 0.18020672E+00</totfact>
</mgrwt>
</event>
<event>
 8    1  0.7046235E-006  0.1944064E+04  0.7818608E-02  0.8191554E-01
         -2   -1    0    0    0  501 -0.00000000000E+00  0.00000000000E+00  0.15610049284E+04  0.15610049284E+04  0.00000000000E+00 0.  1.
          2   -1    0    0  502    0  0.00000000000E+00 -0.00000000000E+00 -0.24862255817E+04  0.24862255817E+04  0.00000000000E+00 0. -1.
    9000010    2    1    2  502    0  0.10562555809E+04  0.12880917594E+04 -0.79014919642E+03  0.20988253125E+04  0.10029335505E+04 0.  0.
   -9000010    2    1    2    0  501 -0.10562555809E+04 -0.12880917594E+04 -0.13507145682E+03  0.19484051977E+04  0.10015898776E+04 0.  0.
        -13    1    3    3    0    0  0.79064480463E+03  0.24340399651E+03 -0.55313816296E+03  0.99515152168E+03  0.10566000000E+00 0.  1.
          4    1    3    3  502    0  0.26561077628E+03  0.10446877629E+04 -0.23701103346E+03  0.11036737908E+04  0.00000000000E+00 0.  1.
         13    1    4    4    0    0 -0.60948030329E+03 -0.21695736469E+03  0.29457697874E+03  0.71085325192E+03  0.10566000000E+00 0. -1.
         -4    1    4    4    0  501 -0.44677527762E+03 -0.10711343947E+04 -0.42964843556E+03  0.12375519458E+04  0.00000000000E+00 0. -1.
<mgrwt>
<rscale>  2 0.19440640E+04</rscale>
<asrwt>0</asrwt>
<pdfrwt beam="2">  1        2 0.38249624E+00 0.19440640E+04</pdfrwt>
<pdfrwt beam="1">  1       -2 0.24015460E+00 0.19440640E+04</pdfrwt>
<totfact> 0.24932966E-01</totfact>
</mgrwt>
</event>
<event>
 8    1  0.7046235E-006  0.1350721E+04  0.7818608E-02  0.8500960E-01
         -1   -1    0    0    0  501 -0.00000000000E+00  0.00000000000E+00  0.61999004239E+03  0.61999004239E+03  0.00000000000E+00 0.  1.
          1   -1    0    0  502    0  0.00000000000E+00 -0.00000000000E+00 -0.30926649598E+04  0.30926649598E+04  0.00000000000E+00 0. -1.
    9000010    2    1    2  502    0 -0.68903178379E+03  0.59681914360E+03 -0.82057771230E+03  0.15734545079E+04  0.98562336481E+03 0.  0.
   -9000010    2    1    2    0  501  0.68903178379E+03 -0.59681914360E+03 -0.16520972051E+04  0.21392004943E+04  0.10078669011E+04 0.  0.
        -13    1    3    3    0    0 -0.87700265898E+03  0.39091381363E+03 -0.34139631218E+03  0.10190675771E+04  0.10566000000E+00 0.  1.
          4    1    3    3  502    0  0.18797087519E+03  0.20590532997E+03 -0.47918140012E+03  0.55438693081E+03  0.00000000000E+00 0.  1.
         13    1    4    4    0    0 -0.60163481600E+02 -0.46850889505E+03 -0.22700841660E+03  0.52407352693E+03  0.10566000000E+00 0. -1.
         -4    1    4    4    0  501  0.74919526539E+03 -0.12831024855E+03 -0.14250887885E+04  0.16151269673E+04  0.00000000000E+00 0. -1.
<mgrwt>
<rscale>  2 0.13507212E+04</rscale>
<asrwt>0</asrwt>
<pdfrwt beam="2">  1        1 0.47579460E+00 0.13507212E+04</pdfrwt>
<pdfrwt beam="1">  1       -1 0.95383086E-01 0.13507212E+04</pdfrwt>
<totfact> 0.40139404E-01</totfact>
</mgrwt>
</event>
<event>
 8    1  0.7046235E-006  0.1423839E+04  0.7818608E-02  0.8454725E-01
          1   -1    0    0  502    0  0.00000000000E+00  0.00000000000E+00  0.52831842619E+04  0.52831842619E+04  0.00000000000E+00 0.  1.
         -1   -1    0    0    0  501 -0.00000000000E+00 -0.00000000000E+00 -0.38464152108E+03  0.38464152108E+03  0.00000000000E+00 0. -1.
    9000010    2    1    2  502    0  0.27306398255E+03  0.10030373804E+04  0.25796191593E+04  0.29444186232E+04  0.96670476186E+03 0.  0.
   -9000010    2    1    2    0  501 -0.27306398255E+03 -0.10030373804E+04  0.23189235814E+04  0.27234071597E+04  0.97923033858E+03 0.  0.
        -13    1    3    3    0    0  0.14467904604E+03  0.11848230908E+04  0.22441955710E+04  0.25418795319E+04  0.10566000000E+00 0.  1.
          4    1    3    3  502    0  0.12838493651E+03 -0.18178571037E+03  0.33542358836E+03  0.40253909133E+03  0.00000000000E+00 0.  1.
         13    1    4    4    0    0 -0.27839543586E+03 -0.11089904953E+04  0.23495427452E+04  0.26129896786E+04  0.10566000000E+00 0. -1.
         -4    1    4    4    0  501  0.53314533087E+01  0.10595311491E+03 -0.30619163801E+02  0.11041748116E+03  0.00000000000E+00 0. -1.
<mgrwt>
<rscale>  2 0.14238386E+04</rscale>
<asrwt>0</asrwt>
<pdfrwt beam="1">  1        1 0.81279753E+00 0.14238386E+04</pdfrwt>
<pdfrwt beam="2">  1       -1 0.59175622E-01 0.14238386E+04</pdfrwt>
<totfact> 0.13786458E-02</totfact>
</mgrwt>
</event>
<event>
 8    1  0.7046235E-006  0.1113001E+04  0.7818608E-02  0.8675122E-01
         -1   -1    0    0    0  501 -0.00000000000E+00  0.00000000000E+00  0.59061491647E+03  0.59061491647E+03  0.00000000000E+00 0. -1.
          1   -1    0    0  502    0  0.00000000000E+00 -0.00000000000E+00 -0.20996626768E+04  0.20996626768E+04  0.00000000000E+00 0.  1.
    9000010    2    1    2  502    0 -0.47540614588E+03  0.11985530655E+03 -0.74137657763E+03  0.13592501966E+04  0.10283703463E+04 0.  0.
   -9000010    2    1    2    0  501  0.47540614588E+03 -0.11985530655E+03 -0.76767118273E+03  0.13310273967E+04  0.97053520692E+03 0.  0.
        -13    1    3    3    0    0 -0.69420894490E+03  0.93122678563E+02 -0.13402453970E+03  0.71313426565E+03  0.10566000000E+00 0.  1.
          4    1    3    3  502    0  0.21880279902E+03  0.26732627984E+02 -0.60735203792E+03  0.64611593095E+03  0.00000000000E+00 0.  1.
         13    1    4    4    0    0 -0.20880180996E+03  0.12902846941E+03  0.34331823415E+02  0.24784113263E+03  0.10566000000E+00 0. -1.
         -4    1    4    4    0  501  0.68420795584E+03 -0.24888377596E+03 -0.80200300614E+03  0.10831862641E+04  0.00000000000E+00 0. -1.
<mgrwt>
<rscale>  2 0.11130007E+04</rscale>
<asrwt>0</asrwt>
<pdfrwt beam="2">  1        1 0.32302503E+00 0.11130007E+04</pdfrwt>
<pdfrwt beam="1">  1       -1 0.90863833E-01 0.11130007E+04</pdfrwt>
<totfact> 0.39218625E+00</totfact>
</mgrwt>
</event>
<event>
 8    1  0.7046235E-006  0.1395822E+04  0.7818608E-02  0.8472097E-01
         -1   -1    0    0    0  501 -0.00000000000E+00  0.00000000000E+00  0.11001155701E+04  0.11001155701E+04  0.00000000000E+00 0.  1.
          1   -1    0    0  502    0  0.00000000000E+00 -0.00000000000E+00 -0.18118853587E+04  0.18118853587E+04  0.00000000000E+00 0. -1.
    9000010    2    1    2  502    0 -0.81323167325E+03 -0.52652680370E+03 -0.57345147362E+03  0.15050738464E+04  0.99891163829E+03 0.  0.
   -9000010    2    1    2    0  501  0.81323167325E+03  0.52652680370E+03 -0.13831831498E+03  0.14069270825E+04  0.10108093933E+04 0.  0.
        -13    1    3    3    0    0 -0.31127899448E+03  0.23465755868E+03  0.60595233025E+02  0.39450041277E+03  0.10566000000E+00 0.  1.
          4    1    3    3  502    0 -0.50195267878E+03 -0.76118436238E+03 -0.63404670664E+03  0.11105734336E+04  0.00000000000E+00 0.  1.
         13    1    4    4    0    0 -0.32891945738E+01 -0.13483879754E+03  0.25214836345E+03  0.28595651501E+03  0.10566000000E+00 0. -1.
         -4    1    4    4    0  501  0.81652086783E+03  0.66136560124E+03 -0.39046667844E+03  0.11209705674E+04  0.00000000000E+00 0. -1.
<mgrwt>
<rscale>  2 0.13958222E+04</rscale>
<asrwt>0</asrwt>
<pdfrwt beam="2">  1        1 0.27875159E+00 0.13958222E+04</pdfrwt>
<pdfrwt beam="1">  1       -1 0.16924855E+00 0.13958222E+04</pdfrwt>
<totfact> 0.12497773E+00</totfact>
</mgrwt>
</event>
<event>
 8    1  0.7046235E-006  0.1606941E+04  0.7818608E-02  0.8350480E-01
         -2   -1    0    0    0  501 -0.00000000000E+00  0.00000000000E+00  0.86731944325E+03  0.86731944325E+03  0.00000000000E+00 0.  1.
          2   -1    0    0  502    0  0.00000000000E+00 -0.00000000000E+00 -0.30005112404E+04  0.30005112404E+04  0.00000000000E+00 0. -1.
    9000010    2    1    2  502    0  0.31624916941E+03 -0.12233919332E+04 -0.89147470882E+03  0.18307027450E+04  0.97981836310E+03 0.  0.
   -9000010    2    1    2    0  501 -0.31624916941E+03  0.12233919332E+04 -0.12417170884E+04  0.20371279387E+04  0.10056478269E+04 0.  0.
        -13    1    3    3    0    0 -0.34757336151E+03 -0.31803422332E+03 -0.33218659273E+03  0.57645550772E+03  0.10566000000E+00 0.  1.
          4    1    3    3  502    0  0.66382253091E+03 -0.90535770986E+03 -0.55928811609E+03  0.12542472373E+04  0.00000000000E+00 0.  1.
         13    1    4    4    0    0  0.28762386993E+03  0.69047697887E+03 -0.32126852228E+03  0.81406352546E+03  0.10566000000E+00 0. -1.
         -4    1    4    4    0  501 -0.60387303934E+03  0.53291495431E+03 -0.92044856608E+03  0.12230644133E+04  0.00000000000E+00 0. -1.
<mgrwt>
<rscale>  2 0.16069411E+04</rscale>
<asrwt>0</asrwt>
<pdfrwt beam="2">  1        2 0.46161711E+00 0.16069411E+04</pdfrwt>
<pdfrwt beam="1">  1       -2 0.13343376E+00 0.16069411E+04</pdfrwt>
<totfact> 0.10148718E+00</totfact>
</mgrwt>
</event>
<event>
 8    1  0.7046235E-006  0.1297320E+04  0.7818608E-02  0.8536673E-01
          2   -1    0    0  502    0  0.00000000000E+00  0.00000000000E+00  0.70728568996E+03  0.70728568996E+03  0.00000000000E+00 0.  1.
         -2   -1    0    0    0  501 -0.00000000000E+00 -0.00000000000E+00 -0.24627901203E+04  0.24627901203E+04  0.00000000000E+00 0. -1.
    9000010    2    1    2  502    0 -0.55665830687E+03  0.58151154451E+03 -0.59281180188E+03  0.14349968341E+04  0.10294493356E+04 0.  0.
   -9000010    2    1    2    0  501  0.55665830687E+03 -0.58151154451E+03 -0.11626926285E+04  0.17350789761E+04  0.10052963534E+04 0.  0.
        -13    1    3    3    0    0 -0.24315617430E+03 -0.28531337557E+03 -0.25449767476E+03  0.45309791988E+03  0.10566000000E+00 0.  1.
          4    1    3    3  502    0 -0.31350213257E+03  0.86682492008E+03 -0.33831412711E+03  0.98189891425E+03  0.00000000000E+00 0.  1.
         13    1    4    4    0    0  0.83003322145E+03 -0.52023989325E+03 -0.73874844685E+03  0.12269286752E+04  0.10566000000E+00 0. -1.
         -4    1    4    4    0  501 -0.27337491458E+03 -0.61271651254E+02 -0.42394418162E+03  0.50815030089E+03  0.00000000000E+00 0. -1.
<mgrwt>
<rscale>  2 0.12973196E+04</rscale>
<asrwt>0</asrwt>
<pdfrwt beam="1">  1        2 0.10881318E+00 0.12973196E+04</pdfrwt>
<pdfrwt beam="2">  1       -2 0.37889079E+00 0.12973196E+04</pdfrwt>
<totfact> 0.27316871E-01</totfact>
</mgrwt>
</event>
<event>
 8    1  0.7046235E-006  0.1315473E+04  0.7818608E-02  0.8524337E-01
         -1   -1    0    0    0  501 -0.00000000000E+00  0.00000000000E+00  0.14288868372E+04  0.14288868372E+04  0.00000000000E+00 0. -1.
          1   -1    0    0  502    0  0.00000000000E+00 -0.00000000000E+00 -0.12142185890E+04  0.12142185890E+04  0.00000000000E+00 0.  1.
    9000010    2    1    2  502    0 -0.81290950655E+03 -0.25608940862E+03  0.39848225979E+02  0.13146749791E+04  0.10001893664E+04 0.  0.
   -9000010    2    1    2    0  501  0.81290950655E+03  0.25608940862E+03  0.17482002225E+03  0.13284304470E+04  0.10038733791E+04 0.  0.
        -13    1    3    3    0    0  0.33047846665E+02 -0.42720513490E+03 -0.10085554327E+03  0.44019113942E+03  0.10566000000E+00 0.  1.
          4    1    3    3  502    0 -0.84595735321E+03  0.17111572628E+03  0.14070376925E+03  0.87448383971E+03  0.00000000000E+00 0.  1.
         13    1    4    4    0    0  0.48154221890E+03  0.55830529458E+03  0.38655800439E+03  0.83247511221E+03  0.10566000000E+00 0. -1.
         -4    1    4    4    0  501  0.33136728765E+03 -0.30221588595E+03 -0.21173798213E+03  0.49595533481E+03  0.00000000000E+00 0. -1.
<mgrwt>
<rscale>  2 0.13154733E+04</rscale>
<asrwt>0</asrwt>
<pdfrwt beam="2">  1        1 0.18680286E+00 0.13154733E+04</pdfrwt>
<pdfrwt beam="1">  1       -1 0.21982875E+00 0.13154733E+04</pdfrwt>
<totfact> 0.12538932E+00</totfact>
</mgrwt>
</event>
<event>
 8    1  0.7046235E-006  0.1317884E+04  0.7818608E-02  0.8522714E-01
         -2   -1    0    0    0  501 -0.00000000000E+00  0.00000000000E+00  0.64662052972E+03  0.64662052972E+03  0.00000000000E+00 0.  1.
          2   -1    0    0  502    0  0.00000000000E+00 -0.00000000000E+00 -0.29671072062E+04  0.29671072062E+04  0.00000000000E+00 0. -1.
    9000010    2    1    2  502    0 -0.79427919602E+03 -0.42728687021E+03 -0.58032198686E+03  0.14111658928E+04  0.91714887448E+03 0.  0.
   -9000010    2    1    2    0  501  0.79427919602E+03  0.42728687021E+03 -0.17401646896E+04  0.22025618431E+04  0.10048144182E+04 0.  0.
        -13    1    3    3    0    0  0.20510655043E+02 -0.43166315739E+03 -0.41105204397E+02  0.43410069962E+03  0.10566000000E+00 0.  1.
          4    1    3    3  502    0 -0.81478985106E+03  0.43762871778E+01 -0.53921678246E+03  0.97706519320E+03  0.00000000000E+00 0.  1.
         13    1    4    4    0    0  0.21368267801E+03  0.45266854940E+03 -0.17056626312E+03  0.52883075154E+03  0.10566000000E+00 0. -1.
         -4    1    4    4    0  501  0.58059651801E+03 -0.25381679188E+02 -0.15695984265E+04  0.16737310915E+04  0.00000000000E+00 0. -1.
<mgrwt>
<rscale>  2 0.13178841E+04</rscale>
<asrwt>0</asrwt>
<pdfrwt beam="2">  1        2 0.45647803E+00 0.13178841E+04</pdfrwt>
<pdfrwt beam="1">  1       -2 0.99480083E-01 0.13178841E+04</pdfrwt>
<totfact> 0.23584912E+00</totfact>
</mgrwt>
</event>
<event>
 8    1  0.7046235E-006  0.1260959E+04  0.7818608E-02  0.8562020E-01
          1   -1    0    0  502    0  0.00000000000E+00  0.00000000000E+00  0.24024619197E+04  0.24024619197E+04  0.00000000000E+00 0.  1.
         -1   -1    0    0    0  501 -0.00000000000E+00 -0.00000000000E+00 -0.69482708185E+03  0.69482708185E+03  0.00000000000E+00 0. -1.
    9000010    2    1    2  502    0 -0.73493229975E+03 -0.22197961943E+03  0.51633539360E+03  0.13625884259E+04  0.10003222197E+04 0.  0.
   -9000010    2    1    2    0  501  0.73493229975E+03  0.22197961943E+03  0.11912994442E+04  0.17347005756E+04  0.10002955986E+04 0.  0.
        -13    1    3    3    0    0 -0.16768579243E+03  0.19566244836E+03  0.60022408348E+03  0.65320079626E+03  0.10566000000E+00 0.  1.
          4    1    3    3  502    0 -0.56724650732E+03 -0.41764206779E+03 -0.83888689874E+02  0.70938762969E+03  0.00000000000E+00 0.  1.
         13    1    4    4    0    0  0.33909104920E+03  0.11312747374E+03  0.12676844395E+04  0.13171197418E+04  0.10566000000E+00 0. -1.
         -4    1    4    4    0  501  0.39584125055E+03  0.10885214569E+03 -0.76384995250E+02  0.41758083380E+03  0.00000000000E+00 0. -1.
<mgrwt>
<rscale>  2 0.12609593E+04</rscale>
<asrwt>0</asrwt>
<pdfrwt beam="1">  1        1 0.36960952E+00 0.12609593E+04</pdfrwt>
<pdfrwt beam="2">  1       -1 0.10689648E+00 0.12609593E+04</pdfrwt>
<totfact> 0.15248516E+00</totfact>
</mgrwt>
</event>
<event>
 8    1  0.7046235E-006  0.1140626E+04  0.7818608E-02  0.8652666E-01
         -2   -1    0    0    0  501 -0.00000000000E+00  0.00000000000E+00  0.11574868237E+04  0.11574868237E+04  0.00000000000E+00 0.  1.
          2   -1    0    0  502    0  0.00000000000E+00 -0.00000000000E+00 -0.11246761086E+04  0.11246761086E+04  0.00000000000E+00 0. -1.
    9000010    2    1    2  502    0 -0.49003119847E+03 -0.36003223716E+03  0.35179335502E+02  0.11211974012E+04  0.94132472586E+03 0.  0.
   -9000010    2    1    2    0  501  0.49003119847E+03  0.36003223716E+03 -0.23686203195E+01  0.11609655311E+04  0.98898006388E+03 0.  0.
        -13    1    3    3    0    0  0.13035338826E+03  0.22341795038E+03  0.72838653047E+02  0.26872489078E+03  0.10566000000E+00 0.  1.
          4    1    3    3  502    0 -0.62038458673E+03 -0.58345018755E+03 -0.37659317545E+02  0.85247251041E+03  0.00000000000E+00 0.  1.
         13    1    4    4    0    0  0.47411730646E+03  0.20294411930E+03 -0.45115699827E+03  0.68521251017E+03  0.10566000000E+00 0. -1.
         -4    1    4    4    0  501  0.15913892002E+02  0.15708811786E+03  0.44878837795E+03  0.47575302092E+03  0.00000000000E+00 0. -1.
<mgrwt>
<rscale>  2 0.11406261E+04</rscale>
<asrwt>0</asrwt>
<pdfrwt beam="2">  1        2 0.17302709E+00 0.11406261E+04</pdfrwt>
<pdfrwt beam="1">  1       -2 0.17807490E+00 0.11406261E+04</pdfrwt>
<totfact> 0.49429680E+00</totfact>
</mgrwt>
</event>
<event>
 8    1  0.7046235E-006  0.1292038E+04  0.7818608E-02  0.8540301E-01
         -2   -1    0    0    0  501 -0.00000000000E+00  0.00000000000E+00  0.15697176803E+04  0.15697176803E+04  0.00000000000E+00 0. -1.
          2   -1    0    0  502    0  0.00000000000E+00 -0.00000000000E+00 -0.10916947689E+04  0.10916947689E+04  0.00000000000E+00 0.  1.
    9000010    2    1    2  502    0 -0.74618591547E+02  0.81076271386E+03  0.45421569988E+03  0.13770582470E+04  0.10134462991E+04 0.  0.
   -9000010    2    1    2    0  501  0.74618591547E+02 -0.81076271386E+03  0.23807211526E+02  0.12843542022E+04  0.99302307180E+03 0.  0.
        -13    1    3    3    0    0 -0.44441906408E+01 -0.24231098283E+03  0.53853809994E+02  0.24826318141E+03  0.10566000000E+00 0.  1.
          4    1    3    3  502    0 -0.70174400906E+02  0.10530736967E+04  0.40036188989E+03  0.11287950656E+04  0.00000000000E+00 0.  1.
         13    1    4    4    0    0  0.19457714744E+03 -0.11591494919E+03 -0.40143964320E+03  0.46092335594E+03  0.10566000000E+00 0. -1.
         -4    1    4    4    0  501 -0.11995855589E+03 -0.69484776467E+03  0.42524685473E+03  0.82343084631E+03  0.00000000000E+00 0. -1.
<mgrwt>
<rscale>  2 0.12920381E+04</rscale>
<asrwt>0</asrwt>
<pdfrwt beam="2">  1        2 0.16795304E+00 0.12920381E+04</pdfrwt>
<pdfrwt beam="1">  1       -2 0.24149503E+00 0.12920381E+04</pdfrwt>
<totfact> 0.15432021E+00</totfact>
</mgrwt>
</event>
<event>
 8    1  0.7046235E-006  0.1064283E+04  0.7818608E-02  0.8716429E-01
          4   -1    0    0  502    0  0.00000000000E+00  0.00000000000E+00  0.13269290466E+04  0.13269290466E+04  0.00000000000E+00 0.  1.
         -4   -1    0    0    0  501 -0.00000000000E+00 -0.00000000000E+00 -0.10646663979E+04  0.10646663979E+04  0.00000000000E+00 0. -1.
    9000010    2    1    2  502    0  0.16386040199E+03 -0.33386397291E+03  0.66328125361E+03  0.12519880795E+04  0.99459375928E+03 0.  0.
   -9000010    2    1    2    0  501 -0.16386040199E+03  0.33386397291E+03 -0.40101860491E+03  0.11396073650E+04  0.99978679787E+03 0.  0.
        -13    1    3    3    0    0 -0.13185103944E+03 -0.62541438882E+03  0.32884571627E+03  0.71879577810E+03  0.10566000000E+00 0.  1.
          4    1    3    3  502    0  0.29571144143E+03  0.29155041590E+03  0.33443553734E+03  0.53319230137E+03  0.00000000000E+00 0.  1.
         13    1    4    4    0    0 -0.57505789783E+03  0.11176454674E+03 -0.31248523072E+03  0.66395024689E+03  0.10566000000E+00 0. -1.
         -4    1    4    4    0  501  0.41119749584E+03  0.22209942618E+03 -0.88533374191E+02  0.47565711814E+03  0.00000000000E+00 0. -1.
<mgrwt>
<rscale>  2 0.10642832E+04</rscale>
<asrwt>0</asrwt>
<pdfrwt beam="1">  1        4 0.20414293E+00 0.10642832E+04</pdfrwt>
<pdfrwt beam="2">  1       -4 0.16379483E+00 0.10642832E+04</pdfrwt>
<totfact> 0.23247407E-01</totfact>
</mgrwt>
</event>
<event>
 8    1  0.7046235E-006  0.1218431E+04  0.7818608E-02  0.8592811E-01
          1   -1    0    0  502    0  0.00000000000E+00  0.00000000000E+00  0.24122896134E+04  0.24122896134E+04  0.00000000000E+00 0. -1.
         -1   -1    0    0    0  501 -0.00000000000E+00 -0.00000000000E+00 -0.68823661036E+03  0.68823661036E+03  0.00000000000E+00 0.  1.
    9000010    2    1    2  502    0  0.81695274992E+02 -0.65234684734E+03  0.13584994198E+04  0.18169449694E+04  0.10117004601E+04 0.  0.
   -9000010    2    1    2    0  501 -0.81695274992E+02  0.65234684734E+03  0.36555358326E+03  0.12835812544E+04  0.10400581172E+04 0.  0.
        -13    1    3    3    0    0  0.45446056484E+03 -0.21210593121E+03  0.10480212005E+04  0.11618398250E+04  0.10566000000E+00 0.  1.
          4    1    3    3  502    0 -0.37276528985E+03 -0.44024091613E+03  0.31047821924E+03  0.65510514436E+03  0.00000000000E+00 0.  1.
         13    1    4    4    0    0 -0.12571675380E+03  0.25090220582E+03 -0.35804052896E+03  0.45491719094E+03  0.10566000000E+00 0. -1.
         -4    1    4    4    0  501  0.44021478812E+02  0.40144464152E+03  0.72359411222E+03  0.82866406344E+03  0.00000000000E+00 0. -1.
<mgrwt>
<rscale>  2 0.12184313E+04</rscale>
<asrwt>0</asrwt>
<pdfrwt beam="1">  1        1 0.37112148E+00 0.12184313E+04</pdfrwt>
<pdfrwt beam="2">  1       -1 0.10588256E+00 0.12184313E+04</pdfrwt>
<totfact> 0.15360784E+00</totfact>
</mgrwt>
</event>
<event>
 8    1  0.7046235E-006  0.1174554E+04  0.7818608E-02  0.8625974E-01
         -2   -1    0    0    0  501 -0.00000000000E+00  0.00000000000E+00  0.88743703711E+03  0.88743703711E+03  0.00000000000E+00 0.  1.
          2   -1    0    0  502    0  0.00000000000E+00 -0.00000000000E+00 -0.15549128961E+04  0.15549128961E+04  0.00000000000E+00 0. -1.
    9000010    2    1    2  502    0  0.62766137864E+03  0.18468059597E+02 -0.31506759089E+03  0.12147386427E+04  0.99097048788E+03 0.  0.
   -9000010    2    1    2    0  501 -0.62766137864E+03 -0.18468059597E+02 -0.35240826809E+03  0.12276112905E+04  0.99425249187E+03 0.  0.
        -13    1    3    3    0    0  0.19489543104E+03  0.43847453982E+02  0.36043739591E+03  0.41209459569E+03  0.10566000000E+00 0.  1.
          4    1    3    3  502    0  0.43276594760E+03 -0.25379394385E+02 -0.67550498680E+03  0.80264404704E+03  0.00000000000E+00 0.  1.
         13    1    4    4    0    0 -0.86820209222E+03  0.14904426271E+03 -0.23378792008E+03  0.91139775505E+03  0.10566000000E+00 0. -1.
         -4    1    4    4    0  501  0.24054071358E+03 -0.16751232231E+03 -0.11862034801E+03  0.31621353541E+03  0.00000000000E+00 0. -1.
<mgrwt>
<rscale>  2 0.11745537E+04</rscale>
<asrwt>0</asrwt>
<pdfrwt beam="2">  1        2 0.23921737E+00 0.11745537E+04</pdfrwt>
<pdfrwt beam="1">  1       -2 0.13652877E+00 0.11745537E+04</pdfrwt>
<totfact> 0.64967561E+00</totfact>
</mgrwt>
</event>
<event>
 8    1  0.7046235E-006  0.1449234E+04  0.7818608E-02  0.8439328E-01
         -2   -1    0    0    0  501 -0.00000000000E+00  0.00000000000E+00  0.10833563018E+04  0.10833563018E+04  0.00000000000E+00 0. -1.
          2   -1    0    0  502    0  0.00000000000E+00 -0.00000000000E+00 -0.21021348365E+04  0.21021348365E+04  0.00000000000E+00 0.  1.
    9000010    2    1    2  502    0  0.48090808298E+03  0.93381395197E+03 -0.95219105758E+03  0.17306753855E+04  0.99261694465E+03 0.  0.
   -9000010    2    1    2    0  501 -0.48090808298E+03 -0.93381395197E+03 -0.66587477055E+02  0.14548157527E+04  0.10043773699E+04 0.  0.
        -13    1    3    3    0    0  0.63963249028E+03  0.58309685885E+03 -0.10221862504E+04  0.13394015123E+04  0.10566000000E+00 0.  1.
          4    1    3    3  502    0 -0.15872440730E+03  0.35071709312E+03  0.69995192821E+02  0.39127387326E+03  0.00000000000E+00 0.  1.
         13    1    4    4    0    0 -0.47166577528E+03 -0.11452424186E+04 -0.90334967769E+02  0.12418571651E+04  0.10566000000E+00 0. -1.
         -4    1    4    4    0  501 -0.92423077015E+01  0.21142846661E+03  0.23747490714E+02  0.21295858767E+03  0.00000000000E+00 0. -1.
<mgrwt>
<rscale>  2 0.14492341E+04</rscale>
<asrwt>0</asrwt>
<pdfrwt beam="2">  1        2 0.32340536E+00 0.14492341E+04</pdfrwt>
<pdfrwt beam="1">  1       -2 0.16667020E+00 0.14492341E+04</pdfrwt>
<totfact> 0.17218999E+00</totfact>
</mgrwt>
</event>
<event>
 8    1  0.7046235E-006  0.1133527E+04  0.7818608E-02  0.8658373E-01
         -2   -1    0    0    0  501 -0.00000000000E+00  0.00000000000E+00  0.16280152088E+04  0.16280152088E+04  0.00000000000E+00 0.  1.
          2   -1    0    0  502    0  0.00000000000E+00 -0.00000000000E+00 -0.80434256661E+03  0.80434256661E+03  0.00000000000E+00 0. -1.
    9000010    2    1    2  502    0  0.48384817769E+03 -0.25600615497E+03  0.24711777570E+03  0.11653007893E+04  0.99860428796E+03 0.  0.
   -9000010    2    1    2    0  501 -0.48384817769E+03  0.25600615497E+03  0.57655486652E+03  0.12670569862E+04  0.98659499375E+03 0.  0.
        -13    1    3    3    0    0  0.59200848019E+02 -0.58352143827E+03  0.22617830197E+03  0.62861645284E+03  0.10566000000E+00 0.  1.
          4    1    3    3  502    0  0.42464732967E+03  0.32751528331E+03  0.20939473730E+02  0.53668433642E+03  0.00000000000E+00 0.  1.
         13    1    4    4    0    0  0.78887325633E+02  0.28580620511E+03  0.63470386499E+03  0.70054079426E+03  0.10566000000E+00 0. -1.
         -4    1    4    4    0  501 -0.56273550332E+03 -0.29800050139E+02 -0.58148998475E+02  0.56651619192E+03  0.00000000000E+00 0. -1.
<mgrwt>
<rscale>  2 0.11335268E+04</rscale>
<asrwt>0</asrwt>
<pdfrwt beam="2">  1        2 0.12374501E+00 0.11335268E+04</pdfrwt>
<pdfrwt beam="1">  1       -2 0.25046388E+00 0.11335268E+04</pdfrwt>
<totfact> 0.20264299E+00</totfact>
</mgrwt>
</event>
<event>
 8    1  0.7046235E-006  0.1400154E+04  0.7818608E-02  0.8469384E-01
         -2   -1    0    0    0  501 -0.00000000000E+00  0.00000000000E+00  0.87528079962E+03  0.87528079962E+03  0.00000000000E+00 0.  1.
          2   -1    0    0  502    0  0.00000000000E+00 -0.00000000000E+00 -0.33168061523E+04  0.33168061523E+04  0.00000000000E+00 0. -1.
    9000010    2    1    2  502    0  0.26248857341E+03  0.94370110026E+03 -0.25036605318E+02  0.13981428024E+04  0.99734870856E+03 0.  0.
   -9000010    2    1    2    0  501 -0.26248857341E+03 -0.94370110026E+03 -0.24164887474E+04  0.27939441495E+04  0.10036104955E+04 0.  0.
        -13    1    3    3    0    0  0.23587707993E+03 -0.32188035654E+01 -0.32760683885E+03  0.40370113891E+03  0.10566000000E+00 0.  1.
          4    1    3    3  502    0  0.26611493484E+02  0.94691990383E+03  0.30257023353E+03  0.99444166348E+03  0.00000000000E+00 0.  1.
         13    1    4    4    0    0 -0.88816195893E+02 -0.16221342821E+03  0.57488325728E+02  0.19366577318E+03  0.10566000000E+00 0. -1.
         -4    1    4    4    0  501 -0.17367237752E+03 -0.78148767206E+03 -0.24739770731E+04  0.26002783764E+04  0.00000000000E+00 0. -1.
<mgrwt>
<rscale>  2 0.14001540E+04</rscale>
<asrwt>0</asrwt>
<pdfrwt beam="2">  1        2 0.51027786E+00 0.14001540E+04</pdfrwt>
<pdfrwt beam="1">  1       -2 0.13465859E+00 0.14001540E+04</pdfrwt>
<totfact> 0.63254322E-01</totfact>
</mgrwt>
</event>
<event>
 8    1  0.7046235E-006  0.1083241E+04  0.7818608E-02  0.8700087E-01
         -1   -1    0    0    0  501 -0.00000000000E+00  0.00000000000E+00  0.21104001111E+04  0.21104001111E+04  0.00000000000E+00 0. -1.
          1   -1    0    0  502    0  0.00000000000E+00 -0.00000000000E+00 -0.58143880233E+03  0.58143880233E+03  0.00000000000E+00 0.  1.
    9000010    2    1    2  502    0 -0.42537349873E+03  0.72178114687E+02  0.10426731421E+04  0.15001196063E+04  0.98845296202E+03 0.  0.
   -9000010    2    1    2    0  501  0.42537349873E+03 -0.72178114687E+02  0.48628816666E+03  0.11917193072E+04  0.99878247502E+03 0.  0.
        -13    1    3    3    0    0 -0.61633563268E+03  0.30565620210E+03  0.97113536716E+03  0.11901257238E+04  0.10566000000E+00 0.  1.
          4    1    3    3  502    0  0.19096213395E+03 -0.23347808741E+03  0.71537774974E+02  0.30999388245E+03  0.00000000000E+00 0.  1.
         13    1    4    4    0    0  0.16163241842E+03  0.15837264904E+03 -0.27355175481E+03  0.35501761699E+03  0.10566000000E+00 0. -1.
         -4    1    4    4    0  501  0.26374108031E+03 -0.23055076373E+03  0.75983992147E+03  0.83670169019E+03  0.00000000000E+00 0. -1.
<mgrwt>
<rscale>  2 0.10832406E+04</rscale>
<asrwt>0</asrwt>
<pdfrwt beam="2">  1        1 0.89452125E-01 0.10832406E+04</pdfrwt>
<pdfrwt beam="1">  1       -1 0.32467694E+00 0.10832406E+04</pdfrwt>
<totfact> 0.52858383E-01</totfact>
</mgrwt>
</event>
<event>
 8    1  0.7046235E-006  0.1200601E+04  0.7818608E-02  0.8606110E-01
         -2   -1    0    0    0  501 -0.00000000000E+00  0.00000000000E+00  0.87339407691E+03  0.87339407691E+03  0.00000000000E+00 0.  1.
          2   -1    0    0  502    0  0.00000000000E+00 -0.00000000000E+00 -0.23392757821E+04  0.23392757821E+04  0.00000000000E+00 0. -1.
    9000010    2    1    2  502    0  0.58967606095E+03 -0.63720089409E+02 -0.15940709383E+04  0.19817934876E+04  0.10171849214E+04 0.  0.
   -9000010    2    1    2    0  501 -0.58967606095E+03  0.63720089409E+02  0.12818923311E+03  0.12308763715E+04  0.10709089857E+04 0.  0.
        -13    1    3    3    0    0  0.17350298984E+03  0.79022446637E+02  0.11117831716E+03  0.22069994093E+03  0.10566000000E+00 0.  1.
          4    1    3    3  502    0  0.41617307112E+03 -0.14274253605E+03 -0.17052492555E+04  0.17610935467E+04  0.00000000000E+00 0.  1.
         13    1    4    4    0    0 -0.25588196508E+03 -0.28050444694E+03  0.49737079451E+03  0.62572841010E+03  0.10566000000E+00 0. -1.
         -4    1    4    4    0  501 -0.33379409587E+03  0.34422453635E+03 -0.36918156140E+03  0.60514796136E+03  0.00000000000E+00 0. -1.
<mgrwt>
<rscale>  2 0.12006010E+04</rscale>
<asrwt>0</asrwt>
<pdfrwt beam="2">  1        2 0.35988858E+00 0.12006010E+04</pdfrwt>
<pdfrwt beam="1">  1       -2 0.13436832E+00 0.12006010E+04</pdfrwt>
<totfact> 0.25306656E+00</totfact>
</mgrwt>
</event>
<event>
 8    1  0.7046235E-006  0.1029329E+04  0.7818608E-02  0.8747512E-01
         -2   -1    0    0    0  501 -0.00000000000E+00  0.00000000000E+00  0.47986059285E+03  0.47986059285E+03  0.00000000000E+00 0. -1.
          2   -1    0    0  502    0  0.00000000000E+00 -0.00000000000E+00 -0.22122157493E+04  0.22122157493E+04  0.00000000000E+00 0.  1.
    9000010    2    1    2  502    0 -0.15055166054E+03 -0.33851349122E+03 -0.89307599148E+03  0.13973468505E+04  0.10088291767E+04 0.  0.
   -9000010    2    1    2    0  501  0.15055166054E+03  0.33851349122E+03 -0.83927916493E+03  0.12947294916E+04  0.91360700174E+03 0.  0.
        -13    1    3    3    0    0  0.23542082518E+03  0.21592253593E+03 -0.60417494217E+02  0.32510889133E+03  0.10566000000E+00 0.  1.
          4    1    3    3  502    0 -0.38597248572E+03 -0.55443602715E+03 -0.83265849727E+03  0.10722379591E+04  0.00000000000E+00 0.  1.
         13    1    4    4    0    0  0.55582599556E+01  0.54076613995E+03 -0.14897546433E+03  0.56093904527E+03  0.10566000000E+00 0. -1.
         -4    1    4    4    0  501  0.14499340059E+03 -0.20225264874E+03 -0.69030370060E+03  0.73379044637E+03  0.00000000000E+00 0. -1.
<mgrwt>
<rscale>  2 0.10293289E+04</rscale>
<asrwt>0</asrwt>
<pdfrwt beam="2">  1        2 0.34034088E+00 0.10293289E+04</pdfrwt>
<pdfrwt beam="1">  1       -2 0.73824708E-01 0.10293289E+04</pdfrwt>
<totfact> 0.12953940E+01</totfact>
</mgrwt>
</event>
<event>
 8    1  0.7046235E-006  0.1307171E+04  0.7818608E-02  0.8529954E-01
         -2   -1    0    0    0  501 -0.00000000000E+00  0.00000000000E+00  0.11395364607E+04  0.11395364607E+04  0.00000000000E+00 0. -1.
          2   -1    0    0  502    0  0.00000000000E+00 -0.00000000000E+00 -0.19085225701E+04  0.19085225701E+04  0.00000000000E+00 0.  1.
    9000010    2    1    2  502    0  0.70357223324E+03  0.46477554582E+03  0.31995263125E+03  0.13503835371E+04  0.10050551306E+04 0.  0.
   -9000010    2    1    2    0  501 -0.70357223324E+03 -0.46477554582E+03 -0.10889387406E+04  0.16976754937E+04  0.99261488297E+03 0.  0.
        -13    1    3    3    0    0  0.31543189067E+03  0.68876209211E+03 -0.64011607097E+02  0.76025521648E+03  0.10566000000E+00 0.  1.
          4    1    3    3  502    0  0.38814034257E+03 -0.22398654629E+03  0.38396423835E+03  0.59012832060E+03  0.00000000000E+00 0.  1.
         13    1    4    4    0    0 -0.42717300711E+03  0.54579374962E+02  0.31887864341E+02  0.43182465565E+03  0.10566000000E+00 0. -1.
         -4    1    4    4    0  501 -0.27639922613E+03 -0.51935492079E+03 -0.11208266049E+04  0.12658508381E+04  0.00000000000E+00 0. -1.
<mgrwt>
<rscale>  2 0.13071706E+04</rscale>
<asrwt>0</asrwt>
<pdfrwt beam="2">  1        2 0.29361885E+00 0.13071706E+04</pdfrwt>
<pdfrwt beam="1">  1       -2 0.17531330E+00 0.13071706E+04</pdfrwt>
<totfact> 0.18872652E+00</totfact>
</mgrwt>
</event>
<event>
 8    1  0.7046235E-006  0.1159851E+04  0.7818608E-02  0.8637424E-01
         -1   -1    0    0    0  501 -0.00000000000E+00  0.00000000000E+00  0.17891732731E+04  0.17891732731E+04  0.00000000000E+00 0. -1.
          1   -1    0    0  502    0  0.00000000000E+00 -0.00000000000E+00 -0.93455954671E+03  0.93455954671E+03  0.00000000000E+00 0.  1.
    9000010    2    1    2  502    0  0.39102648695E+03 -0.30824339389E+03 -0.16404619764E+03  0.12038857253E+04  0.10837499625E+04 0.  0.
   -9000010    2    1    2    0  501 -0.39102648695E+03  0.30824339389E+03  0.10186599241E+04  0.15198470945E+04  0.10121024882E+04 0.  0.
        -13    1    3    3    0    0  0.97516911169E+02 -0.53453239126E+03 -0.47376578821E+03  0.72089420757E+03  0.10566000000E+00 0.  1.
          4    1    3    3  502    0  0.29350957578E+03  0.22628899737E+03  0.30971959057E+03  0.48299151772E+03  0.00000000000E+00 0.  1.
         13    1    4    4    0    0  0.33667724158E+03  0.15772285967E+03  0.45243750470E+03  0.58560035202E+03  0.10566000000E+00 0. -1.
         -4    1    4    4    0  501 -0.72770372853E+03  0.15052053422E+03  0.56622241936E+03  0.93424674253E+03  0.00000000000E+00 0. -1.
<mgrwt>
<rscale>  2 0.11598512E+04</rscale>
<asrwt>0</asrwt>
<pdfrwt beam="2">  1        1 0.14377839E+00 0.11598512E+04</pdfrwt>
<pdfrwt beam="1">  1       -1 0.27525743E+00 0.11598512E+04</pdfrwt>
<totfact> 0.62157163E-01</totfact>
</mgrwt>
</event>
<event>
 8    1  0.7046235E-006  0.1305833E+04  0.7818608E-02  0.8530862E-01
          2   -1    0    0  502    0  0.00000000000E+00  0.00000000000E+00  0.21352650617E+04  0.21352650617E+04  0.00000000000E+00 0. -1.
         -2   -1    0    0    0  501 -0.00000000000E+00 -0.00000000000E+00 -0.81228954630E+03  0.81228954630E+03  0.00000000000E+00 0.  1.
    9000010    2    1    2  502    0 -0.81440730503E+03  0.15561788152E+03  0.46649188745E+03  0.13795119707E+04  0.99898068683E+03 0.  0.
   -9000010    2    1    2    0  501  0.81440730503E+03 -0.15561788152E+03  0.85648362797E+03  0.15680426373E+04  0.10186841139E+04 0.  0.
        -13    1    3    3    0    0 -0.85699366679E+03 -0.95794009251E+02  0.16728744550E+02  0.86249318791E+03  0.10566000000E+00 0.  1.
          4    1    3    3  502    0  0.42586361761E+02  0.25141189077E+03  0.44976314290E+03  0.51701878277E+03  0.00000000000E+00 0.  1.
         13    1    4    4    0    0  0.97550306395E+03  0.86546505391E+02  0.47533510690E+03  0.10885954255E+04  0.10566000000E+00 0. -1.
         -4    1    4    4    0  501 -0.16109575892E+03 -0.24216438691E+03  0.38114852107E+03  0.47944721185E+03  0.00000000000E+00 0. -1.
<mgrwt>
<rscale>  2 0.13058331E+04</rscale>
<asrwt>0</asrwt>
<pdfrwt beam="1">  1        2 0.32850231E+00 0.13058331E+04</pdfrwt>
<pdfrwt beam="2">  1       -2 0.12496762E+00 0.13058331E+04</pdfrwt>
<totfact> 0.39586275E+00</totfact>
</mgrwt>
</event>
<event>
 8    1  0.7046235E-006  0.1360230E+04  0.7818608E-02  0.8494779E-01
         -1   -1    0    0    0  501 -0.00000000000E+00  0.00000000000E+00  0.29079764970E+04  0.29079764970E+04  0.00000000000E+00 0.  1.
          1   -1    0    0  502    0  0.00000000000E+00 -0.00000000000E+00 -0.64145296503E+03  0.64145296503E+03  0.00000000000E+00 0. -1.
    9000010    2    1    2  502    0  0.42801607461E+02 -0.91512968733E+03  0.12906871677E+04  0.18731696480E+04  0.10017968073E+04 0.  0.
   -9000010    2    1    2    0  501 -0.42801607461E+02  0.91512968733E+03  0.97583636427E+03  0.16762598140E+04  0.10091065514E+04 0.  0.
        -13    1    3    3    0    0 -0.46427965794E+03 -0.53477072774E+03  0.53953620681E+03  0.89030032104E+03  0.10566000000E+00 0.  1.
          4    1    3    3  502    0  0.50708126540E+03 -0.38035895959E+03  0.75115096088E+03  0.98286932697E+03  0.00000000000E+00 0.  1.
         13    1    4    4    0    0  0.29715835184E+03  0.92590468633E+03  0.90591536512E+03  0.13290166418E+04  0.10566000000E+00 0. -1.
         -4    1    4    4    0  501 -0.33995995930E+03 -0.10774998999E+02  0.69920999157E+02  0.34724317222E+03  0.00000000000E+00 0. -1.
<mgrwt>
<rscale>  2 0.13602302E+04</rscale>
<asrwt>0</asrwt>
<pdfrwt beam="2">  1        1 0.98685073E-01 0.13602302E+04</pdfrwt>
<pdfrwt beam="1">  1       -1 0.44738099E+00 0.13602302E+04</pdfrwt>
<totfact> 0.46991393E-01</totfact>
</mgrwt>
</event>
<event>
 8    1  0.7046235E-006  0.1861732E+04  0.7818608E-02  0.8227134E-01
          2   -1    0    0  502    0  0.00000000000E+00  0.00000000000E+00  0.33085949725E+04  0.33085949725E+04  0.00000000000E+00 0. -1.
         -2   -1    0    0    0  501 -0.00000000000E+00 -0.00000000000E+00 -0.10700428990E+04  0.10700428990E+04  0.00000000000E+00 0.  1.
    9000010    2    1    2  502    0 -0.50400050140E+03 -0.14582402150E+04  0.14289033910E+04  0.23372253487E+04  0.10199884310E+04 0.  0.
   -9000010    2    1    2    0  501  0.50400050140E+03  0.14582402150E+04  0.80964868248E+03  0.20414125228E+04  0.10636508211E+04 0.  0.
        -13    1    3    3    0    0  0.95636486153E+02  0.50230575982E+02 -0.69206846401E+02  0.12829281741E+03  0.10566000000E+00 0.  1.
          4    1    3    3  502    0 -0.59963698756E+03 -0.15084707910E+04  0.14981102374E+04  0.22089325312E+04  0.00000000000E+00 0.  1.
         13    1    4    4    0    0  0.76188376023E+03  0.59395068036E+03  0.33705779107E+03  0.10231579744E+04  0.10566000000E+00 0. -1.
         -4    1    4    4    0  501 -0.25788325883E+03  0.86428953462E+03  0.47259089140E+03  0.10182545485E+04  0.00000000000E+00 0. -1.
<mgrwt>
<rscale>  2 0.18617323E+04</rscale>
<asrwt>0</asrwt>
<pdfrwt beam="1">  1        2 0.50901461E+00 0.18617323E+04</pdfrwt>
<pdfrwt beam="2">  1       -2 0.16462199E+00 0.18617323E+04</pdfrwt>
<totfact> 0.32922519E-01</totfact>
</mgrwt>
</event>
<event>
 8    1  0.7046235E-006  0.1261990E+04  0.7818608E-02  0.8561289E-01
          1   -1    0    0  502    0  0.00000000000E+00  0.00000000000E+00  0.21971555544E+04  0.21971555544E+04  0.00000000000E+00 0.  1.
         -1   -1    0    0    0  501 -0.00000000000E+00 -0.00000000000E+00 -0.84104305378E+03  0.84104305378E+03  0.00000000000E+00 0. -1.
    9000010    2    1    2  502    0 -0.75423853155E+03  0.10850000676E+03  0.12454633901E+04  0.17774459804E+04  0.10136504049E+04 0.  0.
   -9000010    2    1    2    0  501  0.75423853155E+03 -0.10850000676E+03  0.11064911054E+03  0.12607526278E+04  0.99830153203E+03 0.  0.
        -13    1    3    3    0    0 -0.34106346349E+03  0.18530844821E+03  0.12971924371E+04  0.13540205822E+04  0.10566000000E+00 0.  1.
          4    1    3    3  502    0 -0.41317506806E+03 -0.76808441444E+02 -0.51729046978E+02  0.42342539820E+03  0.00000000000E+00 0.  1.
         13    1    4    4    0    0  0.62287188030E+03 -0.44866811660E+03  0.32960769158E+03  0.83541229320E+03  0.10566000000E+00 0. -1.
         -4    1    4    4    0  501  0.13136665124E+03  0.34016810984E+03 -0.21895858103E+03  0.42534033458E+03  0.00000000000E+00 0. -1.
<mgrwt>
<rscale>  2 0.12619904E+04</rscale>
<asrwt>0</asrwt>
<pdfrwt beam="1">  1        1 0.33802393E+00 0.12619904E+04</pdfrwt>
<pdfrwt beam="2">  1       -1 0.12939124E+00 0.12619904E+04</pdfrwt>
<totfact> 0.14284665E+00</totfact>
</mgrwt>
</event>
<event>
 8    1  0.7046235E-006  0.1778944E+04  0.7818608E-02  0.8264865E-01
         -2   -1    0    0    0  501 -0.00000000000E+00  0.00000000000E+00  0.21026192479E+04  0.21026192479E+04  0.00000000000E+00 0. -1.
          2   -1    0    0  502    0  0.00000000000E+00 -0.00000000000E+00 -0.36516679152E+04  0.36516679152E+04  0.00000000000E+00 0.  1.
    9000010    2    1    2  502    0  0.12706442786E+04  0.73687593353E+03 -0.29812133515E+04  0.34738746522E+04  0.10112611078E+04 0.  0.
   -9000010    2    1    2    0  501 -0.12706442786E+04 -0.73687593353E+03  0.14321646843E+04  0.22804125109E+04  0.99582253079E+03 0.  0.
        -13    1    3    3    0    0  0.52784460067E+03  0.88058389718E+03 -0.17020570773E+04  0.19877238812E+04  0.10566000000E+00 0.  1.
          4    1    3    3  502    0  0.74279967793E+03 -0.14370796365E+03 -0.12791562742E+04  0.14861507710E+04  0.00000000000E+00 0.  1.
         13    1    4    4    0    0 -0.25014786242E+03 -0.71085513571E+03  0.62441078893E+03  0.97866123942E+03  0.10566000000E+00 0. -1.
         -4    1    4    4    0  501 -0.10204964162E+04 -0.26020797815E+02  0.80775389534E+03  0.13017512715E+04  0.00000000000E+00 0. -1.
<mgrwt>
<rscale>  2 0.17789438E+04</rscale>
<asrwt>0</asrwt>
<pdfrwt beam="2">  1        2 0.56179506E+00 0.17789438E+04</pdfrwt>
<pdfrwt beam="1">  1       -2 0.32347989E+00 0.17789438E+04</pdfrwt>
<totfact> 0.11048666E-02</totfact>
</mgrwt>
</event>
<event>
 8    1  0.7046235E-006  0.1627802E+04  0.7818608E-02  0.8339521E-01
          2   -1    0    0  502    0  0.00000000000E+00  0.00000000000E+00  0.17726522971E+04  0.17726522971E+04  0.00000000000E+00 0.  1.
         -2   -1    0    0    0  501 -0.00000000000E+00 -0.00000000000E+00 -0.15054387365E+04  0.15054387365E+04  0.00000000000E+00 0. -1.
    9000010    2    1    2  502    0  0.10015833824E+04  0.75650943581E+03  0.27134152396E+03  0.16736600525E+04  0.10733293765E+04 0.  0.
   -9000010    2    1    2    0  501 -0.10015833824E+04 -0.75650943581E+03 -0.41279633807E+01  0.16044309810E+04  0.99935275778E+03 0.  0.
        -13    1    3    3    0    0  0.91029590774E+03  0.10055136270E+04  0.10458490002E+03  0.13603802065E+04  0.10566000000E+00 0.  1.
          4    1    3    3  502    0  0.91287474615E+02 -0.24900419124E+03  0.16675662394E+03  0.31327984599E+03  0.00000000000E+00 0.  1.
         13    1    4    4    0    0 -0.15144118342E+03 -0.73732679439E+03 -0.34761344598E+02  0.75352079998E+03  0.10566000000E+00 0. -1.
         -4    1    4    4    0  501 -0.85014219894E+03 -0.19182641423E+02  0.30633381217E+02  0.85091018104E+03  0.00000000000E+00 0. -1.
<mgrwt>
<rscale>  2 0.16278016E+04</rscale>
<asrwt>0</asrwt>
<pdfrwt beam="1">  1        2 0.27271574E+00 0.16278016E+04</pdfrwt>
<pdfrwt beam="2">  1       -2 0.23160596E+00 0.16278016E+04</pdfrwt>
<totfact> 0.74498292E-01</totfact>
</mgrwt>
</event>
<event>
 8    1  0.7046235E-006  0.1081698E+04  0.7818608E-02  0.8701404E-01
         -1   -1    0    0    0  501 -0.00000000000E+00  0.00000000000E+00  0.10158156462E+04  0.10158156462E+04  0.00000000000E+00 0.  1.
          1   -1    0    0  502    0  0.00000000000E+00 -0.00000000000E+00 -0.11533585111E+04  0.11533585111E+04  0.00000000000E+00 0. -1.
    9000010    2    1    2  502    0 -0.10745418071E+03  0.41177566860E+03 -0.29853839447E+02  0.10848626623E+04  0.99746184992E+03 0.  0.
   -9000010    2    1    2    0  501  0.10745418071E+03 -0.41177566860E+03 -0.10768902551E+03  0.10843114951E+04  0.99147813385E+03 0.  0.
        -13    1    3    3    0    0  0.53956629342E+02 -0.30769824026E+03  0.11596896675E+03  0.33322415477E+03  0.10566000000E+00 0.  1.
          4    1    3    3  502    0 -0.16141081005E+03  0.71947390886E+03 -0.14582280620E+03  0.75163850749E+03  0.00000000000E+00 0.  1.
         13    1    4    4    0    0 -0.97680631705E+02  0.57825717135E+02 -0.45258743428E+03  0.46660552526E+03  0.10566000000E+00 0. -1.
         -4    1    4    4    0  501  0.20513481242E+03 -0.46960138574E+03  0.34489840877E+03  0.61770596980E+03  0.00000000000E+00 0. -1.
<mgrwt>
<rscale>  2 0.10816977E+04</rscale>
<asrwt>0</asrwt>
<pdfrwt beam="2">  1        1 0.17743977E+00 0.10816977E+04</pdfrwt>
<pdfrwt beam="1">  1       -1 0.15627933E+00 0.10816977E+04</pdfrwt>
<totfact> 0.52613375E+00</totfact>
</mgrwt>
</event>
<event>
 8    1  0.7046235E-006  0.1222236E+04  0.7818608E-02  0.8590004E-01
         -1   -1    0    0    0  501 -0.00000000000E+00  0.00000000000E+00  0.75563780358E+03  0.75563780358E+03  0.00000000000E+00 0. -1.
          1   -1    0    0  502    0  0.00000000000E+00 -0.00000000000E+00 -0.19871305626E+04  0.19871305626E+04  0.00000000000E+00 0.  1.
    9000010    2    1    2  502    0  0.62681936646E+03  0.36430455157E+03 -0.71221646272E+03  0.14118421389E+04  0.98001306675E+03 0.  0.
   -9000010    2    1    2    0  501 -0.62681936646E+03 -0.36430455157E+03 -0.51927629626E+03  0.13309262272E+04  0.98797592377E+03 0.  0.
        -13    1    3    3    0    0 -0.12717114702E+03  0.43144792538E+03 -0.36392410639E+03  0.57858498021E+03  0.10566000000E+00 0.  1.
          4    1    3    3  502    0  0.75399051349E+03 -0.67143373806E+02 -0.34829235633E+03  0.83325715872E+03  0.00000000000E+00 0.  1.
         13    1    4    4    0    0 -0.46597165977E+03 -0.20433161536E+03  0.22243344502E+03  0.55529959965E+03  0.10566000000E+00 0. -1.
         -4    1    4    4    0  501 -0.16084770670E+03 -0.15997293621E+03 -0.74170974128E+03  0.77562662756E+03  0.00000000000E+00 0. -1.
<mgrwt>
<rscale>  2 0.12222360E+04</rscale>
<asrwt>0</asrwt>
<pdfrwt beam="2">  1        1 0.30571239E+00 0.12222360E+04</pdfrwt>
<pdfrwt beam="1">  1       -1 0.11625197E+00 0.12222360E+04</pdfrwt>
<totfact> 0.27390044E+00</totfact>
</mgrwt>
</event>
<event>
 8    1  0.7046235E-006  0.1202324E+04  0.7818608E-02  0.8604815E-01
          2   -1    0    0  502    0  0.00000000000E+00  0.00000000000E+00  0.17239900547E+04  0.17239900547E+04  0.00000000000E+00 0. -1.
         -2   -1    0    0    0  501 -0.00000000000E+00 -0.00000000000E+00 -0.87180722644E+03  0.87180722644E+03  0.00000000000E+00 0.  1.
    9000010    2    1    2  502    0 -0.60769141409E+03 -0.13763308754E+03  0.68654168674E+03  0.14054051242E+04  0.10562160546E+04 0.  0.
   -9000010    2    1    2    0  501  0.60769141409E+03  0.13763308754E+03  0.16564114157E+03  0.11903921569E+04  0.10006821563E+04 0.  0.
        -13    1    3    3    0    0 -0.73179647887E+01 -0.51493061410E+03  0.24714311650E+03  0.57121521438E+03  0.10566000000E+00 0.  1.
          4    1    3    3  502    0 -0.60037344930E+03  0.37729752656E+03  0.43939857024E+03  0.83418990986E+03  0.00000000000E+00 0.  1.
         13    1    4    4    0    0 -0.25450350703E+03  0.11185363662E+03  0.17364625605E+03  0.32777477713E+03  0.10566000000E+00 0. -1.
         -4    1    4    4    0  501  0.86219492112E+03  0.25779450915E+02 -0.80051144819E+01  0.86261737982E+03  0.00000000000E+00 0. -1.
<mgrwt>
<rscale>  2 0.12023238E+04</rscale>
<asrwt>0</asrwt>
<pdfrwt beam="1">  1        2 0.26522924E+00 0.12023238E+04</pdfrwt>
<pdfrwt beam="2">  1       -2 0.13412419E+00 0.12023238E+04</pdfrwt>
<totfact> 0.55116970E+00</totfact>
</mgrwt>
</event>
<event>
 8    1  0.7046235E-006  0.2254326E+04  0.7818608E-02  0.8072056E-01
         -2   -1    0    0    0  501 -0.00000000000E+00  0.00000000000E+00  0.30470809557E+04  0.30470809557E+04  0.00000000000E+00 0. -1.
          2   -1    0    0  502    0  0.00000000000E+00 -0.00000000000E+00 -0.18376638187E+04  0.18376638187E+04  0.00000000000E+00 0.  1.
    9000010    2    1    2  502    0  0.13890125478E+04  0.14893605742E+04 -0.14041989471E+03  0.22475827749E+04  0.94040406481E+03 0.  0.
   -9000010    2    1    2    0  501 -0.13890125478E+04 -0.14893605742E+04  0.13498370317E+04  0.26371619995E+04  0.99247802065E+03 0.  0.
        -13    1    3    3    0    0  0.10122256384E+04  0.88471059231E+03  0.34199156068E+03  0.13871812477E+04  0.10566000000E+00 0.  1.
          4    1    3    3  502    0  0.37678690943E+03  0.60464998194E+03 -0.48241145539E+03  0.86040152723E+03  0.00000000000E+00 0.  1.
         13    1    4    4    0    0 -0.84431172558E+03 -0.23242013507E+03  0.35877123184E+03  0.94636051117E+03  0.10566000000E+00 0. -1.
         -4    1    4    4    0  501 -0.54470082223E+03 -0.12569404392E+04  0.99106579986E+03  0.16908014884E+04  0.00000000000E+00 0. -1.
<mgrwt>
<rscale>  2 0.22543265E+04</rscale>
<asrwt>0</asrwt>
<pdfrwt beam="2">  1        2 0.28271751E+00 0.22543265E+04</pdfrwt>
<pdfrwt beam="1">  1       -2 0.46878168E+00 0.22543265E+04</pdfrwt>
<totfact> 0.34856602E-02</totfact>
</mgrwt>
</event>
<event>
 8    1  0.7046235E-006  0.1107348E+04  0.7818608E-02  0.8679801E-01
         -2   -1    0    0    0  501 -0.00000000000E+00  0.00000000000E+00  0.82603601389E+03  0.82603601389E+03  0.00000000000E+00 0.  1.
          2   -1    0    0  502    0  0.00000000000E+00 -0.00000000000E+00 -0.22072347280E+04  0.22072347280E+04  0.00000000000E+00 0. -1.
    9000010    2    1    2  502    0 -0.46234208347E+03  0.21299204599E+03 -0.15603585871E+04  0.19159920322E+04  0.98852452326E+03 0.  0.
   -9000010    2    1    2    0  501  0.46234208347E+03 -0.21299204599E+03  0.17915987297E+03  0.11172787098E+04  0.97830856145E+03 0.  0.
        -13    1    3    3    0    0 -0.39898215828E+02 -0.50739542196E+02 -0.13872549526E+04  0.13887558041E+04  0.10566000000E+00 0.  1.
          4    1    3    3  502    0 -0.42244386764E+03  0.26373158818E+03 -0.17310363456E+03  0.52723622809E+03  0.00000000000E+00 0.  1.
         13    1    4    4    0    0  0.68953559771E+03  0.95212006311E+02  0.36743178381E+01  0.69608776633E+03  0.10566000000E+00 0. -1.
         -4    1    4    4    0  501 -0.22719351425E+03 -0.30820405230E+03  0.17548555513E+03  0.42119094343E+03  0.00000000000E+00 0. -1.
<mgrwt>
<rscale>  2 0.11073477E+04</rscale>
<asrwt>0</asrwt>
<pdfrwt beam="2">  1        2 0.33957456E+00 0.11073477E+04</pdfrwt>
<pdfrwt beam="1">  1       -2 0.12708247E+00 0.11073477E+04</pdfrwt>
<totfact> 0.35341628E+00</totfact>
</mgrwt>
</event>
<event>
 8    1  0.7046235E-006  0.2023851E+04  0.7818608E-02  0.8158750E-01
         -2   -1    0    0    0  501 -0.00000000000E+00  0.00000000000E+00  0.15812405057E+04  0.15812405057E+04  0.00000000000E+00 0.  1.
          2   -1    0    0  502    0  0.00000000000E+00 -0.00000000000E+00 -0.31808252955E+04  0.31808252955E+04  0.00000000000E+00 0. -1.
    9000010    2    1    2  502    0  0.35637777978E+03 -0.17149130806E+04 -0.18239459745E+04  0.27205450632E+04  0.10033217465E+04 0.  0.
   -9000010    2    1    2    0  501 -0.35637777978E+03  0.17149130806E+04  0.22436118468E+03  0.20415207381E+04  0.10244691244E+04 0.  0.
        -13    1    3    3    0    0 -0.16389464782E+03 -0.86170759634E+03 -0.13610622286E+04  0.16192256910E+04  0.10566000000E+00 0.  1.
          4    1    3    3  502    0  0.52027242760E+03 -0.85320548428E+03 -0.46288374591E+03  0.11013193722E+04  0.00000000000E+00 0.  1.
         13    1    4    4    0    0 -0.51881970061E+03  0.29991769557E+03  0.13590613753E+03  0.61448758754E+03  0.10566000000E+00 0. -1.
         -4    1    4    4    0  501  0.16244192082E+03  0.14149953850E+04  0.88455047148E+02  0.14270331505E+04  0.00000000000E+00 0. -1.
<mgrwt>
<rscale>  2 0.20238507E+04</rscale>
<asrwt>0</asrwt>
<pdfrwt beam="2">  1        2 0.48935773E+00 0.20238507E+04</pdfrwt>
<pdfrwt beam="1">  1       -2 0.24326777E+00 0.20238507E+04</pdfrwt>
<totfact> 0.88567032E-02</totfact>
</mgrwt>
</event>
<event>
 8    1  0.7046235E-006  0.1140987E+04  0.7818608E-02  0.8652377E-01
         -2   -1    0    0    0  501 -0.00000000000E+00  0.00000000000E+00  0.11678477754E+04  0.11678477754E+04  0.00000000000E+00 0. -1.
          2   -1    0    0  502    0  0.00000000000E+00 -0.00000000000E+00 -0.11184016894E+04  0.11184016894E+04  0.00000000000E+00 0.  1.
    9000010    2    1    2  502    0 -0.56043816802E+03 -0.36936675466E+02  0.89905741387E+02  0.11510905646E+04  0.10007353234E+04 0.  0.
   -9000010    2    1    2    0  501  0.56043816802E+03  0.36936675466E+02 -0.40459655373E+02  0.11351589002E+04  0.98564369160E+03 0.  0.
        -13    1    3    3    0    0 -0.46381453879E+03 -0.49537656631E+03  0.68931850077E+02  0.68210958061E+03  0.10566000000E+00 0.  1.
          4    1    3    3  502    0 -0.96623629226E+02  0.45843989084E+03  0.20973891309E+02  0.46898098401E+03  0.00000000000E+00 0.  1.
         13    1    4    4    0    0  0.84388425029E+03 -0.40840025984E+01  0.12080110306E+02  0.84398059646E+03  0.10566000000E+00 0. -1.
         -4    1    4    4    0  501 -0.28344608227E+03  0.41020678065E+02 -0.52539765679E+02  0.29117830373E+03  0.00000000000E+00 0. -1.
<mgrwt>
<rscale>  2 0.11409870E+04</rscale>
<asrwt>0</asrwt>
<pdfrwt beam="2">  1        2 0.17206180E+00 0.11409870E+04</pdfrwt>
<pdfrwt beam="1">  1       -2 0.17966889E+00 0.11409870E+04</pdfrwt>
<totfact> 0.48348356E+00</totfact>
</mgrwt>
</event>
<event>
 8    1  0.7046235E-006  0.1041475E+04  0.7818608E-02  0.8736569E-01
         -1   -1    0    0    0  501 -0.00000000000E+00  0.00000000000E+00  0.79268517532E+03  0.79268517532E+03  0.00000000000E+00 0. -1.
          1   -1    0    0  502    0  0.00000000000E+00 -0.00000000000E+00 -0.13692054435E+04  0.13692054435E+04  0.00000000000E+00 0.  1.
    9000010    2    1    2  502    0 -0.12408127111E+03 -0.27573462901E+03 -0.31245980110E+03  0.10808035081E+04  0.98948438506E+03 0.  0.
   -9000010    2    1    2    0  501  0.12408127111E+03  0.27573462901E+03 -0.26406046709E+03  0.10810871108E+04  0.10037906471E+04 0.  0.
        -13    1    3    3    0    0  0.74642235517E+02  0.22936422560E+02  0.33317150632E+03  0.34219995118E+03  0.10566000000E+00 0.  1.
          4    1    3    3  502    0 -0.19872350663E+03 -0.29867105157E+03 -0.64563130741E+03  0.73860355689E+03  0.00000000000E+00 0.  1.
         13    1    4    4    0    0 -0.38598070039E+03  0.34444375640E+03 -0.37263517997E+02  0.51866288024E+03  0.10566000000E+00 0. -1.
         -4    1    4    4    0  501  0.51006197150E+03 -0.68709127391E+02 -0.22679694909E+03  0.56242423052E+03  0.00000000000E+00 0. -1.
<mgrwt>
<rscale>  2 0.10414747E+04</rscale>
<asrwt>0</asrwt>
<pdfrwt beam="2">  1        1 0.21064699E+00 0.10414747E+04</pdfrwt>
<pdfrwt beam="1">  1       -1 0.12195157E+00 0.10414747E+04</pdfrwt>
<totfact> 0.72133595E+00</totfact>
</mgrwt>
</event>
<event>
 8    1  0.7046235E-006  0.1167512E+04  0.7818608E-02  0.8631436E-01
          1   -1    0    0  502    0  0.00000000000E+00  0.00000000000E+00  0.12124428476E+04  0.12124428476E+04  0.00000000000E+00 0. -1.
         -1   -1    0    0    0  501 -0.00000000000E+00 -0.00000000000E+00 -0.16459075993E+04  0.16459075993E+04  0.00000000000E+00 0.  1.
    9000010    2    1    2  502    0  0.35623195112E+02 -0.59697792681E+03 -0.10209025597E+04  0.15484513901E+04  0.99890340579E+03 0.  0.
   -9000010    2    1    2    0  501 -0.35623195112E+02  0.59697792681E+03  0.58743780794E+03  0.13098990567E+04  0.10065290376E+04 0.  0.
        -13    1    3    3    0    0  0.64735276919E+02  0.12780940901E+03 -0.76647945941E+03  0.77975423947E+03  0.10566000000E+00 0.  1.
          4    1    3    3  502    0 -0.29112081807E+02 -0.72478733583E+03 -0.25442310028E+03  0.76869715066E+03  0.00000000000E+00 0.  1.
         13    1    4    4    0    0  0.37118914960E+03 -0.46531643069E+02  0.35031525916E+03  0.51251084921E+03  0.10566000000E+00 0. -1.
         -4    1    4    4    0  501 -0.40681234471E+03  0.64350956988E+03  0.23712254878E+03  0.79738820751E+03  0.00000000000E+00 0. -1.
<mgrwt>
<rscale>  2 0.11675121E+04</rscale>
<asrwt>0</asrwt>
<pdfrwt beam="1">  1        1 0.18652967E+00 0.11675121E+04</pdfrwt>
<pdfrwt beam="2">  1       -1 0.25321655E+00 0.11675121E+04</pdfrwt>
<totfact> 0.61625191E-01</totfact>
</mgrwt>
</event>
<event>
 8    1  0.7046235E-006  0.1370385E+04  0.7818608E-02  0.8488236E-01
         -2   -1    0    0    0  501 -0.00000000000E+00  0.00000000000E+00  0.14529951536E+04  0.14529951536E+04  0.00000000000E+00 0.  1.
          2   -1    0    0  502    0  0.00000000000E+00 -0.00000000000E+00 -0.15487329098E+04  0.15487329098E+04  0.00000000000E+00 0. -1.
    9000010    2    1    2  502    0  0.51623016657E+03  0.79961421669E+03 -0.65786113552E+03  0.15087859537E+04  0.96838902315E+03 0.  0.
   -9000010    2    1    2    0  501 -0.51623016657E+03 -0.79961421669E+03  0.56212337927E+03  0.14929421096E+04  0.10035023512E+04 0.  0.
        -13    1    3    3    0    0 -0.23214051680E+03  0.19757678944E+03  0.58737717424E+02  0.31044474207E+03  0.10566000000E+00 0.  1.
          4    1    3    3  502    0  0.74837068337E+03  0.60203742725E+03 -0.71659885294E+03  0.11983412117E+04  0.00000000000E+00 0.  1.
         13    1    4    4    0    0 -0.32808399463E+03 -0.47263251535E+03  0.84439905632E+03  0.10217780481E+04  0.10566000000E+00 0. -1.
         -4    1    4    4    0  501 -0.18814617194E+03 -0.32698170133E+03 -0.28227567705E+03  0.47116406153E+03  0.00000000000E+00 0. -1.
<mgrwt>
<rscale>  2 0.13703848E+04</rscale>
<asrwt>0</asrwt>
<pdfrwt beam="2">  1        2 0.23826660E+00 0.13703848E+04</pdfrwt>
<pdfrwt beam="1">  1       -2 0.22353772E+00 0.13703848E+04</pdfrwt>
<totfact> 0.11767030E+00</totfact>
</mgrwt>
</event>
<event>
 8    1  0.7046235E-006  0.1182790E+04  0.7818608E-02  0.8619635E-01
         -4   -1    0    0    0  501 -0.00000000000E+00  0.00000000000E+00  0.66748696550E+03  0.66748696550E+03  0.00000000000E+00 0. -1.
          4   -1    0    0  502    0  0.00000000000E+00 -0.00000000000E+00 -0.25963255071E+04  0.25963255071E+04  0.00000000000E+00 0.  1.
    9000010    2    1    2  502    0 -0.10785053345E+03 -0.63222909241E+03 -0.16822894492E+04  0.20577310632E+04  0.99640050908E+03 0.  0.
   -9000010    2    1    2    0  501  0.10785053345E+03  0.63222909241E+03 -0.24654909234E+03  0.12060814094E+04  0.99121165666E+03 0.  0.
        -13    1    3    3    0    0 -0.17727532439E+03  0.12781151657E+03 -0.91435845573E+01  0.21873714981E+03  0.10566000000E+00 0.  1.
          4    1    3    3  502    0  0.69424790939E+02 -0.76004060899E+03 -0.16731458647E+04  0.18389939133E+04  0.00000000000E+00 0.  1.
         13    1    4    4    0    0  0.19662165130E+03  0.69714725154E+03 -0.53295539220E+03  0.89928628664E+03  0.10566000000E+00 0. -1.
         -4    1    4    4    0  501 -0.88771117851E+02 -0.64918159126E+02  0.28640629987E+03  0.30679512276E+03  0.00000000000E+00 0. -1.
<mgrwt>
<rscale>  2 0.11827904E+04</rscale>
<asrwt>0</asrwt>
<pdfrwt beam="2">  1        4 0.39943468E+00 0.11827904E+04</pdfrwt>
<pdfrwt beam="1">  1       -4 0.10269030E+00 0.11827904E+04</pdfrwt>
<totfact> 0.13296969E-01</totfact>
</mgrwt>
</event>
<event>
 8    1  0.7046235E-006  0.1118093E+04  0.7818608E-02  0.8670932E-01
         -1   -1    0    0    0  501 -0.00000000000E+00  0.00000000000E+00  0.94423646113E+03  0.94423646113E+03  0.00000000000E+00 0. -1.
          1   -1    0    0  502    0  0.00000000000E+00 -0.00000000000E+00 -0.15632854471E+04  0.15632854471E+04  0.00000000000E+00 0.  1.
    9000010    2    1    2  502    0 -0.46428204745E+03 -0.29149222902E+03 -0.80156906255E+03  0.13811000615E+04  0.98203812491E+03 0.  0.
   -9000010    2    1    2    0  501  0.46428204745E+03  0.29149222902E+03  0.18252007656E+03  0.11264218467E+04  0.96694728877E+03 0.  0.
        -13    1    3    3    0    0 -0.32895643299E+03  0.26934264468E+03 -0.41938171357E+02  0.42721963488E+03  0.10566000000E+00 0.  1.
          4    1    3    3  502    0 -0.13532561446E+03 -0.56083487371E+03 -0.75963089120E+03  0.95388042666E+03  0.00000000000E+00 0.  1.
         13    1    4    4    0    0  0.18635920965E+03  0.52640013138E+03  0.41399614686E+03  0.69514003921E+03  0.10566000000E+00 0. -1.
         -4    1    4    4    0  501  0.27792283780E+03 -0.23490790236E+03 -0.23147607030E+03  0.43128180750E+03  0.00000000000E+00 0. -1.
<mgrwt>
<rscale>  2 0.11180930E+04</rscale>
<asrwt>0</asrwt>
<pdfrwt beam="2">  1        1 0.24050545E+00 0.11180930E+04</pdfrwt>
<pdfrwt beam="1">  1       -1 0.14526715E+00 0.11180930E+04</pdfrwt>
<totfact> 0.32022827E+00</totfact>
</mgrwt>
</event>
<event>
 8    1  0.7046235E-006  0.1072643E+04  0.7818608E-02  0.8709179E-01
         -2   -1    0    0    0  501 -0.00000000000E+00  0.00000000000E+00  0.78176902878E+03  0.78176902878E+03  0.00000000000E+00 0.  1.
          2   -1    0    0  502    0  0.00000000000E+00 -0.00000000000E+00 -0.14963190183E+04  0.14963190183E+04  0.00000000000E+00 0. -1.
    9000010    2    1    2  502    0 -0.24169382206E+03  0.27064434015E+03 -0.21255893338E+03  0.10971159806E+04  0.10133202417E+04 0.  0.
   -9000010    2    1    2    0  501  0.24169382206E+03 -0.27064434015E+03 -0.50199105618E+03  0.11809720665E+04  0.10055027294E+04 0.  0.
        -13    1    3    3    0    0 -0.49472883448E+03  0.51885729668E+03 -0.19143103873E+03  0.74203461357E+03  0.10566000000E+00 0.  1.
          4    1    3    3  502    0  0.25303501242E+03 -0.24821295653E+03 -0.21127894649E+02  0.35508136706E+03  0.00000000000E+00 0.  1.
         13    1    4    4    0    0  0.34953760369E+03 -0.61532630210E+03 -0.32337328357E+03  0.77805737972E+03  0.10566000000E+00 0. -1.
         -4    1    4    4    0  501 -0.10784378163E+03  0.34468196195E+03 -0.17861777260E+03  0.40291468677E+03  0.00000000000E+00 0. -1.
<mgrwt>
<rscale>  2 0.10726435E+04</rscale>
<asrwt>0</asrwt>
<pdfrwt beam="2">  1        2 0.23020292E+00 0.10726435E+04</pdfrwt>
<pdfrwt beam="1">  1       -2 0.12027216E+00 0.10726435E+04</pdfrwt>
<totfact> 0.10018765E+01</totfact>
</mgrwt>
</event>
<event>
 8    1  0.7046235E-006  0.1352972E+04  0.7818608E-02  0.8499493E-01
          2   -1    0    0  502    0  0.00000000000E+00  0.00000000000E+00  0.41839607141E+04  0.41839607141E+04  0.00000000000E+00 0. -1.
         -2   -1    0    0    0  501 -0.00000000000E+00 -0.00000000000E+00 -0.85373486239E+03  0.85373486239E+03  0.00000000000E+00 0.  1.
    9000010    2    1    2  502    0 -0.44061555886E+03 -0.80066581743E+03 -0.11318081183E+03  0.13259757016E+04  0.95404079740E+03 0.  0.
   -9000010    2    1    2    0  501  0.44061555886E+03  0.80066581743E+03  0.34434066635E+04  0.37117198749E+04  0.10414447452E+04 0.  0.
        -13    1    3    3    0    0  0.45976491121E+02 -0.60702538770E+03  0.28101246424E+03  0.67049360569E+03  0.10566000000E+00 0.  1.
          4    1    3    3  502    0 -0.48659204999E+03 -0.19364042973E+03 -0.39419327607E+03  0.65548209589E+03  0.00000000000E+00 0.  1.
         13    1    4    4    0    0 -0.80689158975E+02  0.20084964804E+03  0.23504212479E+04  0.23603667883E+04  0.10566000000E+00 0. -1.
         -4    1    4    4    0  501  0.52130471784E+03  0.59981616939E+03  0.10929854156E+04  0.13513530866E+04  0.00000000000E+00 0. -1.
<mgrwt>
<rscale>  2 0.13529716E+04</rscale>
<asrwt>0</asrwt>
<pdfrwt beam="1">  1        2 0.64368625E+00 0.13529716E+04</pdfrwt>
<pdfrwt beam="2">  1       -2 0.13134383E+00 0.13529716E+04</pdfrwt>
<totfact> 0.13451980E-01</totfact>
</mgrwt>
</event>
<event>
 8    1  0.7046235E-006  0.1345199E+04  0.7818608E-02  0.8504574E-01
          2   -1    0    0  502    0  0.00000000000E+00  0.00000000000E+00  0.40989204997E+04  0.40989204997E+04  0.00000000000E+00 0. -1.
         -2   -1    0    0    0  501 -0.00000000000E+00 -0.00000000000E+00 -0.58978141867E+03  0.58978141867E+03  0.00000000000E+00 0.  1.
    9000010    2    1    2  502    0  0.44002343570E+03  0.78466195373E+03  0.58049988658E+03  0.14665480719E+04  0.10022315717E+04 0.  0.
   -9000010    2    1    2    0  501 -0.44002343570E+03 -0.78466195373E+03  0.29286391945E+04  0.32221538465E+04  0.99801446553E+03 0.  0.
        -13    1    3    3    0    0 -0.11647734699E+03  0.37947271359E+03  0.66350477864E+03  0.77317857909E+03  0.10566000000E+00 0.  1.
          4    1    3    3  502    0  0.55650078270E+03  0.40518924014E+03 -0.83004892065E+02  0.69336949282E+03  0.00000000000E+00 0.  1.
         13    1    4    4    0    0 -0.62988719052E+03 -0.13831360833E+03  0.11237983822E+04  0.12956895238E+04  0.10566000000E+00 0. -1.
         -4    1    4    4    0  501  0.18986375482E+03 -0.64634834541E+03  0.18048408123E+04  0.19264643227E+04  0.00000000000E+00 0. -1.
<mgrwt>
<rscale>  2 0.13451991E+04</rscale>
<asrwt>0</asrwt>
<pdfrwt beam="1">  1        2 0.63060314E+00 0.13451991E+04</pdfrwt>
<pdfrwt beam="2">  1       -2 0.90735605E-01 0.13451991E+04</pdfrwt>
<totfact> 0.41074764E-01</totfact>
</mgrwt>
</event>
<event>
 8    1  0.7046235E-006  0.1428173E+04  0.7818608E-02  0.8452074E-01
         -4   -1    0    0    0  501 -0.00000000000E+00  0.00000000000E+00  0.10680658089E+04  0.10680658089E+04  0.00000000000E+00 0.  1.
          4   -1    0    0  502    0  0.00000000000E+00 -0.00000000000E+00 -0.27290216451E+04  0.27290216451E+04  0.00000000000E+00 0. -1.
    9000010    2    1    2  502    0  0.82970338223E+03 -0.58203947627E+03  0.20901549666E+03  0.14452698177E+04  0.10089299845E+04 0.  0.
   -9000010    2    1    2    0  501 -0.82970338223E+03  0.58203947627E+03 -0.18699713329E+04  0.23518176363E+04  0.10035316408E+04 0.  0.
        -13    1    3    3    0    0  0.32761672989E+03 -0.80202974338E+03  0.23110878838E+03  0.89665808099E+03  0.10566000000E+00 0.  1.
          4    1    3    3  502    0  0.50208665235E+03  0.21999026711E+03 -0.22093291717E+02  0.54861173668E+03  0.00000000000E+00 0.  1.
         13    1    4    4    0    0 -0.17755848564E+03 -0.19325596939E+03 -0.47527511921E+02  0.26670913197E+03  0.10566000000E+00 0. -1.
         -4    1    4    4    0  501 -0.65214489659E+03  0.77529544566E+03 -0.18224438210E+04  0.20851085044E+04  0.00000000000E+00 0. -1.
<mgrwt>
<rscale>  2 0.14281730E+04</rscale>
<asrwt>0</asrwt>
<pdfrwt beam="2">  1        4 0.41984948E+00 0.14281730E+04</pdfrwt>
<pdfrwt beam="1">  1       -4 0.16431782E+00 0.14281730E+04</pdfrwt>
<totfact> 0.50197615E-02</totfact>
</mgrwt>
</event>
<event>
 8    1  0.7046235E-006  0.1453160E+04  0.7818608E-02  0.8436977E-01
         -2   -1    0    0    0  501 -0.00000000000E+00  0.00000000000E+00  0.66821235389E+03  0.66821235389E+03  0.00000000000E+00 0. -1.
          2   -1    0    0  502    0  0.00000000000E+00 -0.00000000000E+00 -0.31666971411E+04  0.31666971411E+04  0.00000000000E+00 0.  1.
    9000010    2    1    2  502    0  0.13135880090E+03  0.10536435571E+04 -0.11473896350E+04  0.18163445749E+04  0.92476200199E+03 0.  0.
   -9000010    2    1    2    0  501 -0.13135880090E+03 -0.10536435571E+04 -0.13510951522E+04  0.20185649201E+04  0.10591158322E+04 0.  0.
        -13    1    3    3    0    0  0.36326617908E+02 -0.16177534978E+03 -0.42814132148E+02  0.17124236638E+03  0.10566000000E+00 0.  1.
          4    1    3    3  502    0  0.95032182993E+02  0.12154189069E+04 -0.11045755029E+04  0.16451022086E+04  0.00000000000E+00 0.  1.
         13    1    4    4    0    0 -0.35189746004E+02 -0.66017176177E+02 -0.94245497815E+03  0.94541947450E+03  0.10566000000E+00 0. -1.
         -4    1    4    4    0  501 -0.96169054897E+02 -0.98762638096E+03 -0.40864017410E+03  0.10731454456E+04  0.00000000000E+00 0. -1.
<mgrwt>
<rscale>  2 0.14531601E+04</rscale>
<asrwt>0</asrwt>
<pdfrwt beam="2">  1        2 0.48718417E+00 0.14531601E+04</pdfrwt>
<pdfrwt beam="1">  1       -2 0.10280190E+00 0.14531601E+04</pdfrwt>
<totfact> 0.16063204E+00</totfact>
</mgrwt>
</event>
<event>
 8    1  0.7046235E-006  0.1948150E+04  0.7818608E-02  0.8189835E-01
          2   -1    0    0  502    0  0.00000000000E+00  0.00000000000E+00  0.28705511311E+04  0.28705511311E+04  0.00000000000E+00 0.  1.
         -2   -1    0    0    0  501 -0.00000000000E+00 -0.00000000000E+00 -0.13223392303E+04  0.13223392303E+04  0.00000000000E+00 0. -1.
    9000010    2    1    2  502    0  0.41843075995E+03 -0.15990854400E+04  0.75363217343E+03  0.20697284882E+04  0.99179434197E+03 0.  0.
   -9000010    2    1    2    0  501 -0.41843075995E+03  0.15990854400E+04  0.79457972731E+03  0.21231618732E+04  0.10697199874E+04 0.  0.
        -13    1    3    3    0    0  0.42702767311E+03 -0.31939649721E+03 -0.84587890557E+02  0.53992766036E+03  0.10566000000E+00 0.  1.
          4    1    3    3  502    0 -0.85969131523E+01 -0.12796889428E+04  0.83822006398E+03  0.15298008278E+04  0.00000000000E+00 0.  1.
         13    1    4    4    0    0 -0.63004406865E+03  0.43140545163E+03  0.45483472157E+03  0.88878615384E+03  0.10566000000E+00 0. -1.
         -4    1    4    4    0  501  0.21161330870E+03  0.11676799884E+04  0.33974500573E+03  0.12343757194E+04  0.00000000000E+00 0. -1.
<mgrwt>
<rscale>  2 0.19481497E+04</rscale>
<asrwt>0</asrwt>
<pdfrwt beam="1">  1        2 0.44162325E+00 0.19481497E+04</pdfrwt>
<pdfrwt beam="2">  1       -2 0.20343681E+00 0.19481497E+04</pdfrwt>
<totfact> 0.29438320E-01</totfact>
</mgrwt>
</event>
<event>
 8    1  0.7046235E-006  0.9961185E+03  0.7818608E-02  0.8778247E-01
         -2   -1    0    0    0  501 -0.00000000000E+00  0.00000000000E+00  0.33313234606E+03  0.33313234606E+03  0.00000000000E+00 0. -1.
          2   -1    0    0  502    0  0.00000000000E+00 -0.00000000000E+00 -0.30870669924E+04  0.30870669924E+04  0.00000000000E+00 0.  1.
    9000010    2    1    2  502    0  0.35354546372E+02 -0.16499453887E+03 -0.10581141757E+04  0.14541288179E+04  0.98306249472E+03 0.  0.
   -9000010    2    1    2    0  501 -0.35354546372E+02  0.16499453887E+03 -0.16958204706E+04  0.19660705205E+04  0.98038414983E+03 0.  0.
        -13    1    3    3    0    0 -0.12920520523E+03 -0.23268109782E+03 -0.11983649722E+04  0.12275638868E+04  0.10566000000E+00 0.  1.
          4    1    3    3  502    0  0.16455975160E+03  0.67686558947E+02  0.14025079651E+03  0.22656493116E+03  0.00000000000E+00 0.  1.
         13    1    4    4    0    0  0.19591924380E+03  0.19987854395E+03 -0.27274135915E+02  0.28121108100E+03  0.10566000000E+00 0. -1.
         -4    1    4    4    0  501 -0.23127379017E+03 -0.34884005083E+02 -0.16685463347E+04  0.16848594395E+04  0.00000000000E+00 0. -1.
<mgrwt>
<rscale>  2 0.99611853E+03</rscale>
<asrwt>0</asrwt>
<pdfrwt beam="2">  1        2 0.47493337E+00 0.99611853E+03</pdfrwt>
<pdfrwt beam="1">  1       -2 0.51251131E-01 0.99611853E+03</pdfrwt>
<totfact> 0.85103868E+00</totfact>
</mgrwt>
</event>
<event>
 8    1  0.7046235E-006  0.1746993E+04  0.7818608E-02  0.8279994E-01
         -2   -1    0    0    0  501 -0.00000000000E+00  0.00000000000E+00  0.14418905779E+04  0.14418905779E+04  0.00000000000E+00 0. -1.
          2   -1    0    0  502    0  0.00000000000E+00 -0.00000000000E+00 -0.34584024521E+04  0.34584024521E+04  0.00000000000E+00 0.  1.
    9000010    2    1    2  502    0 -0.22235024591E+03  0.14140274521E+04  0.51890467530E+03  0.18196043084E+04  0.99638572355E+03 0.  0.
   -9000010    2    1    2    0  501  0.22235024591E+03 -0.14140274521E+04 -0.25354165495E+04  0.30806887216E+04  0.10066740548E+04 0.  0.
        -13    1    3    3    0    0  0.31434720854E+03  0.86580628731E+03  0.54322406111E+02  0.92270560290E+03  0.10566000000E+00 0.  1.
          4    1    3    3  502    0 -0.53669745445E+03  0.54822116475E+03  0.46458226918E+03  0.89689870550E+03  0.00000000000E+00 0.  1.
         13    1    4    4    0    0 -0.13212543259E+03 -0.38002695048E+03 -0.10505291168E+03  0.41582897740E+03  0.10566000000E+00 0. -1.
         -4    1    4    4    0  501  0.35447567851E+03 -0.10340005016E+04 -0.24303636379E+04  0.26648597442E+04  0.00000000000E+00 0. -1.
<mgrwt>
<rscale>  2 0.17469930E+04</rscale>
<asrwt>0</asrwt>
<pdfrwt beam="2">  1        2 0.53206191E+00 0.17469930E+04</pdfrwt>
<pdfrwt beam="1">  1       -2 0.22182932E+00 0.17469930E+04</pdfrwt>
<totfact> 0.87269009E-02</totfact>
</mgrwt>
</event>
<event>
 8    1  0.7046235E-006  0.1089785E+04  0.7818608E-02  0.8694526E-01
          2   -1    0    0  502    0  0.00000000000E+00  0.00000000000E+00  0.21257380879E+04  0.21257380879E+04  0.00000000000E+00 0.  1.
         -2   -1    0    0    0  501 -0.00000000000E+00 -0.00000000000E+00 -0.59928558426E+03  0.59928558426E+03  0.00000000000E+00 0. -1.
    9000010    2    1    2  502    0  0.38254518305E+03  0.15842396140E+03  0.40937906307E+03  0.11652377528E+04  0.10093308846E+04 0.  0.
   -9000010    2    1    2    0  501 -0.38254518305E+03 -0.15842396140E+03  0.11170734406E+04  0.15597859194E+04  0.10067969378E+04 0.  0.
        -13    1    3    3    0    0 -0.10817541152E+03 -0.33316943571E+03 -0.16134960789E+02  0.35066243122E+03  0.10566000000E+00 0.  1.
          4    1    3    3  502    0  0.49072059457E+03  0.49159339711E+03  0.42551402386E+03  0.81457532157E+03  0.00000000000E+00 0.  1.
         13    1    4    4    0    0 -0.70542858601E+03 -0.18062460954E+03  0.94570233897E+03  0.11935692961E+04  0.10566000000E+00 0. -1.
         -4    1    4    4    0  501  0.32288340296E+03  0.22200648142E+02  0.17137110161E+03  0.36621662326E+03  0.00000000000E+00 0. -1.
<mgrwt>
<rscale>  2 0.10897847E+04</rscale>
<asrwt>0</asrwt>
<pdfrwt beam="1">  1        2 0.32703663E+00 0.10897847E+04</pdfrwt>
<pdfrwt beam="2">  1       -2 0.92197783E-01 0.10897847E+04</pdfrwt>
<totfact> 0.87588667E+00</totfact>
</mgrwt>
</event>
<event>
 8    1  0.7046235E-006  0.1065233E+04  0.7818608E-02  0.8715602E-01
          2   -1    0    0  502    0  0.00000000000E+00  0.00000000000E+00  0.29434768201E+04  0.29434768201E+04  0.00000000000E+00 0.  1.
         -2   -1    0    0    0  501 -0.00000000000E+00 -0.00000000000E+00 -0.40872506796E+03  0.40872506796E+03  0.00000000000E+00 0. -1.
    9000010    2    1    2  502    0  0.35935433980E+03 -0.43907726241E+02  0.88153974798E+03  0.13918541996E+04  0.10144369649E+04 0.  0.
   -9000010    2    1    2    0  501 -0.35935433980E+03  0.43907726241E+02  0.16532120041E+04  0.19603476884E+04  0.98933801045E+03 0.  0.
        -13    1    3    3    0    0 -0.33599210819E+03  0.81245929250E+02  0.15632883047E+03  0.37938148635E+03  0.10566000000E+00 0.  1.
          4    1    3    3  502    0  0.69534644799E+03 -0.12515365549E+03  0.72521091751E+03  0.10124727133E+04  0.00000000000E+00 0.  1.
         13    1    4    4    0    0 -0.27563215364E+03 -0.21824434496E+03  0.76500204787E+02  0.35979990373E+03  0.10566000000E+00 0. -1.
         -4    1    4    4    0  501 -0.83722186161E+02  0.26215207120E+03  0.15767117993E+04  0.16005477847E+04  0.00000000000E+00 0. -1.
<mgrwt>
<rscale>  2 0.10652328E+04</rscale>
<asrwt>0</asrwt>
<pdfrwt beam="1">  1        2 0.45284257E+00 0.10652328E+04</pdfrwt>
<pdfrwt beam="2">  1       -2 0.62880782E-01 0.10652328E+04</pdfrwt>
<totfact> 0.68959101E+00</totfact>
</mgrwt>
</event>
<event>
 8    1  0.7046235E-006  0.1400638E+04  0.7818608E-02  0.8469081E-01
          1   -1    0    0  502    0  0.00000000000E+00  0.00000000000E+00  0.23878826413E+04  0.23878826413E+04  0.00000000000E+00 0.  1.
         -1   -1    0    0    0  501 -0.00000000000E+00 -0.00000000000E+00 -0.86040302262E+03  0.86040302262E+03  0.00000000000E+00 0. -1.
    9000010    2    1    2  502    0  0.28685743184E+03 -0.96428870664E+03  0.42690463834E+03  0.14787015893E+04  0.99607777006E+03 0.  0.
   -9000010    2    1    2    0  501 -0.28685743184E+03  0.96428870664E+03  0.11005749803E+04  0.17695840746E+04  0.95290220582E+03 0.  0.
        -13    1    3    3    0    0 -0.12591309514E+03 -0.99122579180E+03  0.34459823716E+03  0.10569440071E+04  0.10566000000E+00 0.  1.
          4    1    3    3  502    0  0.41277052698E+03  0.26937085156E+02  0.82306401180E+02  0.42175758224E+03  0.00000000000E+00 0.  1.
         13    1    4    4    0    0 -0.21528312021E+03  0.52325634766E+03  0.11865809644E+04  0.13145791812E+04  0.10566000000E+00 0. -1.
         -4    1    4    4    0  501 -0.71574311634E+02  0.44103235898E+03 -0.86005984120E+02  0.45500489345E+03  0.00000000000E+00 0. -1.
<mgrwt>
<rscale>  2 0.14006375E+04</rscale>
<asrwt>0</asrwt>
<pdfrwt beam="1">  1        1 0.36736656E+00 0.14006375E+04</pdfrwt>
<pdfrwt beam="2">  1       -1 0.13236970E+00 0.14006375E+04</pdfrwt>
<totfact> 0.91247944E-01</totfact>
</mgrwt>
</event>
<event>
 8    1  0.7046235E-006  0.1147198E+04  0.7818608E-02  0.8647421E-01
          2   -1    0    0  502    0  0.00000000000E+00  0.00000000000E+00  0.25610949941E+04  0.25610949941E+04  0.00000000000E+00 0.  1.
         -2   -1    0    0    0  501 -0.00000000000E+00 -0.00000000000E+00 -0.52390467626E+03  0.52390467626E+03  0.00000000000E+00 0. -1.
    9000010    2    1    2  502    0 -0.38725086596E+03  0.41913335688E+03  0.12408074670E+04  0.16970764060E+04  0.10073872907E+04 0.  0.
   -9000010    2    1    2    0  501  0.38725086596E+03 -0.41913335688E+03  0.79638285086E+03  0.13879232644E+04  0.98309172445E+03 0.  0.
        -13    1    3    3    0    0 -0.32832761847E+03  0.33490139068E+03  0.14172712239E+04  0.14928548824E+04  0.10566000000E+00 0.  1.
          4    1    3    3  502    0 -0.58923247483E+02  0.84231966204E+02 -0.17646375688E+03  0.20422152363E+03  0.00000000000E+00 0.  1.
         13    1    4    4    0    0  0.18424111815E+03  0.28355471319E+03  0.48124867526E+02  0.34156123759E+03  0.10566000000E+00 0. -1.
         -4    1    4    4    0  501  0.20300974780E+03 -0.70268807007E+03  0.74825798334E+03  0.10463620268E+04  0.00000000000E+00 0. -1.
<mgrwt>
<rscale>  2 0.11471980E+04</rscale>
<asrwt>0</asrwt>
<pdfrwt beam="1">  1        2 0.39401461E+00 0.11471980E+04</pdfrwt>
<pdfrwt beam="2">  1       -2 0.80600721E-01 0.11471980E+04</pdfrwt>
<totfact> 0.67859172E+00</totfact>
</mgrwt>
</event>
<event>
 8    1  0.7046235E-006  0.1093113E+04  0.7818608E-02  0.8691714E-01
          2   -1    0    0  502    0  0.00000000000E+00  0.00000000000E+00  0.16145197143E+04  0.16145197143E+04  0.00000000000E+00 0.  1.
         -2   -1    0    0    0  501 -0.00000000000E+00 -0.00000000000E+00 -0.99564801777E+03  0.99564801777E+03  0.00000000000E+00 0. -1.
    9000010    2    1    2  502    0 -0.38251258198E+03  0.26607222229E+03 -0.34901431278E+03  0.11592710926E+04  0.10024909838E+04 0.  0.
   -9000010    2    1    2    0  501  0.38251258198E+03 -0.26607222229E+03  0.96788600935E+03  0.14508966395E+04  0.97528838232E+03 0.  0.
        -13    1    3    3    0    0 -0.50015962320E+02 -0.32329817119E+03 -0.35473421345E+03  0.48255536194E+03  0.10566000000E+00 0.  1.
          4    1    3    3  502    0 -0.33249661966E+03  0.58937039349E+03  0.57199006728E+01  0.67671573062E+03  0.00000000000E+00 0.  1.
         13    1    4    4    0    0  0.83874490120E+02 -0.75534302164E+02 -0.20044573558E+03  0.23004100716E+03  0.10566000000E+00 0. -1.
         -4    1    4    4    0  501  0.29863809186E+03 -0.19053792013E+03  0.11683317449E+04  0.12208556324E+04  0.00000000000E+00 0. -1.
<mgrwt>
<rscale>  2 0.10931127E+04</rscale>
<asrwt>0</asrwt>
<pdfrwt beam="1">  1        2 0.24838765E+00 0.10931127E+04</pdfrwt>
<pdfrwt beam="2">  1       -2 0.15317662E+00 0.10931127E+04</pdfrwt>
<totfact> 0.43228879E+00</totfact>
</mgrwt>
</event>
<event>
 8    1  0.7046235E-006  0.1363994E+04  0.7818608E-02  0.8492347E-01
          2   -1    0    0  502    0  0.00000000000E+00  0.00000000000E+00  0.19668995490E+04  0.19668995490E+04  0.00000000000E+00 0.  1.
         -2   -1    0    0    0  501 -0.00000000000E+00 -0.00000000000E+00 -0.95490398142E+03  0.95490398142E+03  0.00000000000E+00 0. -1.
    9000010    2    1    2  502    0 -0.12052458542E+03 -0.89874619368E+03  0.64227947572E+03  0.14956586436E+04  0.10010998736E+04 0.  0.
   -9000010    2    1    2    0  501  0.12052458542E+03  0.89874619368E+03  0.36971609191E+03  0.14261448868E+04  0.10367875160E+04 0.  0.
        -13    1    3    3    0    0 -0.26746197707E+03 -0.10846817990E+03  0.62863045406E+03  0.69172069086E+03  0.10566000000E+00 0.  1.
          4    1    3    3  502    0  0.14693739165E+03 -0.79027801379E+03  0.13649021665E+02  0.80393795279E+03  0.00000000000E+00 0.  1.
         13    1    4    4    0    0  0.27617346311E+02 -0.67397103792E+02 -0.25943834057E+03  0.26946864593E+03  0.10566000000E+00 0. -1.
         -4    1    4    4    0  501  0.92907239109E+02  0.96614329748E+03  0.62915443248E+03  0.11566762409E+04  0.00000000000E+00 0. -1.
<mgrwt>
<rscale>  2 0.13639942E+04</rscale>
<asrwt>0</asrwt>
<pdfrwt beam="1">  1        2 0.30259993E+00 0.13639942E+04</pdfrwt>
<pdfrwt beam="2">  1       -2 0.14690830E+00 0.13639942E+04</pdfrwt>
<totfact> 0.30654859E+00</totfact>
</mgrwt>
</event>
<event>
 8    1  0.7046235E-006  0.1279908E+04  0.7818608E-02  0.8548702E-01
         -1   -1    0    0    0  501 -0.00000000000E+00  0.00000000000E+00  0.75815195356E+03  0.75815195356E+03  0.00000000000E+00 0. -1.
          1   -1    0    0  502    0  0.00000000000E+00 -0.00000000000E+00 -0.21841805593E+04  0.21841805593E+04  0.00000000000E+00 0.  1.
    9000010    2    1    2  502    0 -0.14804429166E+03  0.55715139247E+03 -0.76909244828E+03  0.16141979008E+04  0.12968411169E+04 0.  0.
   -9000010    2    1    2    0  501  0.14804429166E+03 -0.55715139247E+03 -0.65693615746E+03  0.13281346120E+04  0.10000208229E+04 0.  0.
        -13    1    3    3    0    0 -0.13621130758E+03  0.42980401476E+02  0.35248421198E+03  0.38032350188E+03  0.10566000000E+00 0.  1.
          4    1    3    3  502    0 -0.11832984084E+02  0.51417099099E+03 -0.11215766603E+04  0.12338743989E+04  0.00000000000E+00 0.  1.
         13    1    4    4    0    0 -0.23216154082E+03 -0.64887083113E+03 -0.18180009490E+03  0.71272969785E+03  0.10566000000E+00 0. -1.
         -4    1    4    4    0  501  0.38020583248E+03  0.91719438660E+02 -0.47513606256E+03  0.61540491420E+03  0.00000000000E+00 0. -1.
<mgrwt>
<rscale>  2 0.12799078E+04</rscale>
<asrwt>0</asrwt>
<pdfrwt beam="2">  1        1 0.33602778E+00 0.12799078E+04</pdfrwt>
<pdfrwt beam="1">  1       -1 0.11663876E+00 0.12799078E+04</pdfrwt>
<totfact> 0.18946337E+00</totfact>
</mgrwt>
</event>
<event>
 8    1  0.7046235E-006  0.1240488E+04  0.7818608E-02  0.8576682E-01
          2   -1    0    0  502    0  0.00000000000E+00  0.00000000000E+00  0.15220147216E+04  0.15220147216E+04  0.00000000000E+00 0. -1.
         -2   -1    0    0    0  501 -0.00000000000E+00 -0.00000000000E+00 -0.10578017510E+04  0.10578017510E+04  0.00000000000E+00 0.  1.
    9000010    2    1    2  502    0  0.44436113044E+03  0.61541755156E+03  0.49085327088E+03  0.12921796963E+04  0.92336117366E+03 0.  0.
   -9000010    2    1    2    0  501 -0.44436113044E+03 -0.61541755156E+03 -0.26640300304E+02  0.12876367764E+04  0.10397611193E+04 0.  0.
        -13    1    3    3    0    0  0.39936886349E+03  0.78617063495E+03  0.13117939172E+03  0.89149750440E+03  0.10566000000E+00 0.  1.
          4    1    3    3  502    0  0.44992266958E+02 -0.17075308339E+03  0.35967387916E+03  0.40068219192E+03  0.00000000000E+00 0.  1.
         13    1    4    4    0    0 -0.11929669559E+03 -0.48584966605E+03 -0.49447252056E+03  0.70340932915E+03  0.10566000000E+00 0. -1.
         -4    1    4    4    0  501 -0.32506443486E+03 -0.12956788551E+03  0.46783222025E+03  0.58422744721E+03  0.00000000000E+00 0. -1.
<mgrwt>
<rscale>  2 0.12404876E+04</rscale>
<asrwt>0</asrwt>
<pdfrwt beam="1">  1        2 0.23415611E+00 0.12404876E+04</pdfrwt>
<pdfrwt beam="2">  1       -2 0.16273873E+00 0.12404876E+04</pdfrwt>
<totfact> 0.39429885E+00</totfact>
</mgrwt>
</event>
<event>
 8    1  0.7046235E-006  0.1427720E+04  0.7818608E-02  0.8452350E-01
         -2   -1    0    0    0  501 -0.00000000000E+00  0.00000000000E+00  0.10129443029E+04  0.10129443029E+04  0.00000000000E+00 0.  1.
          2   -1    0    0  502    0  0.00000000000E+00 -0.00000000000E+00 -0.20849532917E+04  0.20849532917E+04  0.00000000000E+00 0. -1.
    9000010    2    1    2  502    0  0.60681522992E+03  0.83093370174E+03 -0.82528552835E+03  0.16495860893E+04  0.99063743256E+03 0.  0.
   -9000010    2    1    2    0  501 -0.60681522992E+03 -0.83093370174E+03 -0.24672346043E+03  0.14483115052E+04  0.98896825545E+03 0.  0.
        -13    1    3    3    0    0  0.82710455632E+03  0.50481476301E+03 -0.34481512316E+03  0.10285122130E+04  0.10566000000E+00 0.  1.
          4    1    3    3  502    0 -0.22028932640E+03  0.32611893873E+03 -0.48047040519E+03  0.62107387627E+03  0.00000000000E+00 0.  1.
         13    1    4    4    0    0 -0.62730405729E+03 -0.86108148212E+03  0.12692907011E+03  0.10728852218E+04  0.10566000000E+00 0. -1.
         -4    1    4    4    0  501  0.20488827362E+02  0.30147780386E+02 -0.37365253055E+03  0.37542628343E+03  0.00000000000E+00 0. -1.
<mgrwt>
<rscale>  2 0.14277203E+04</rscale>
<asrwt>0</asrwt>
<pdfrwt beam="2">  1        2 0.32076204E+00 0.14277203E+04</pdfrwt>
<pdfrwt beam="1">  1       -2 0.15583759E+00 0.14277203E+04</pdfrwt>
<totfact> 0.21876101E+00</totfact>
</mgrwt>
</event>
<event>
 8    1  0.7046235E-006  0.1097722E+04  0.7818608E-02  0.8687836E-01
         -1   -1    0    0    0  501 -0.00000000000E+00  0.00000000000E+00  0.47571451574E+03  0.47571451574E+03  0.00000000000E+00 0.  1.
          1   -1    0    0  502    0  0.00000000000E+00 -0.00000000000E+00 -0.25651547515E+04  0.25651547515E+04  0.00000000000E+00 0. -1.
    9000010    2    1    2  502    0  0.20347802849E+03 -0.52276095760E+03 -0.12429145632E+04  0.16849847315E+04  0.98977502858E+03 0.  0.
   -9000010    2    1    2    0  501 -0.20347802849E+03  0.52276095760E+03 -0.84652567256E+03  0.13558845357E+04  0.89840683044E+03 0.  0.
        -13    1    3    3    0    0  0.42853028387E+03 -0.15458631773E+03 -0.10430210342E+03  0.46734791512E+03  0.10566000000E+00 0.  1.
          4    1    3    3  502    0 -0.22505225539E+03 -0.36817463987E+03 -0.11386124598E+04  0.12176368164E+04  0.00000000000E+00 0.  1.
         13    1    4    4    0    0  0.14784064233E+03  0.19110064650E+03 -0.83856656744E+03  0.87267990226E+03  0.10566000000E+00 0. -1.
         -4    1    4    4    0  501 -0.35131867082E+03  0.33166031110E+03 -0.79591051144E+01  0.48320463344E+03  0.00000000000E+00 0. -1.
<mgrwt>
<rscale>  2 0.10977220E+04</rscale>
<asrwt>0</asrwt>
<pdfrwt beam="2">  1        1 0.39463920E+00 0.10977220E+04</pdfrwt>
<pdfrwt beam="1">  1       -1 0.73186848E-01 0.10977220E+04</pdfrwt>
<totfact> 0.24267723E+00</totfact>
</mgrwt>
</event>
<event>
 8    1  0.7046235E-006  0.1317834E+04  0.7818608E-02  0.8522748E-01
          1   -1    0    0  502    0  0.00000000000E+00  0.00000000000E+00  0.87482171930E+03  0.87482171930E+03  0.00000000000E+00 0. -1.
         -1   -1    0    0    0  501 -0.00000000000E+00 -0.00000000000E+00 -0.28443087263E+04  0.28443087263E+04  0.00000000000E+00 0.  1.
    9000010    2    1    2  502    0 -0.79341227888E+03  0.35748968743E+03  0.33868713074E+02  0.13247030193E+04  0.99819290658E+03 0.  0.
   -9000010    2    1    2    0  501  0.79341227888E+03 -0.35748968743E+03 -0.20033557200E+04  0.23944274263E+04  0.98109461202E+03 0.  0.
        -13    1    3    3    0    0 -0.52135377046E+03  0.48989538635E+03 -0.38153645758E+03  0.81078808771E+03  0.10566000000E+00 0.  1.
          4    1    3    3  502    0 -0.27205850842E+03 -0.13240569892E+03  0.41540517066E+03  0.51391493160E+03  0.00000000000E+00 0.  1.
         13    1    4    4    0    0  0.66136421834E+03 -0.27874062623E+03 -0.20956259940E+04  0.22151178939E+04  0.10566000000E+00 0. -1.
         -4    1    4    4    0  501  0.13204806053E+03 -0.78749061197E+02  0.92270273975E+02  0.17930953235E+03  0.00000000000E+00 0. -1.
<mgrwt>
<rscale>  2 0.13178343E+04</rscale>
<asrwt>0</asrwt>
<pdfrwt beam="1">  1        1 0.13458796E+00 0.13178343E+04</pdfrwt>
<pdfrwt beam="2">  1       -1 0.43758595E+00 0.13178343E+04</pdfrwt>
<totfact> 0.29159675E-01</totfact>
</mgrwt>
</event>
<event>
 8    1  0.7046235E-006  0.1275339E+04  0.7818608E-02  0.8551891E-01
          1   -1    0    0  502    0  0.00000000000E+00  0.00000000000E+00  0.20672318756E+04  0.20672318756E+04  0.00000000000E+00 0. -1.
         -1   -1    0    0    0  501 -0.00000000000E+00 -0.00000000000E+00 -0.79868433004E+03  0.79868433004E+03  0.00000000000E+00 0.  1.
    9000010    2    1    2  502    0  0.72843957238E+03 -0.30619156245E+03  0.79152547117E+03  0.14763676578E+04  0.96372786922E+03 0.  0.
   -9000010    2    1    2    0  501 -0.72843957238E+03  0.30619156245E+03  0.47702207443E+03  0.13895485479E+04  0.10387095956E+04 0.  0.
        -13    1    3    3    0    0  0.76769952474E+02 -0.36652874648E+03 -0.83493755255E+02  0.38367716368E+03  0.10566000000E+00 0.  1.
          4    1    3    3  502    0  0.65166961991E+03  0.60337184031E+02  0.87501922643E+03  0.10926904941E+04  0.00000000000E+00 0.  1.
         13    1    4    4    0    0 -0.22483409216E+03 -0.34610173977E+03  0.37778585060E+03  0.55951670516E+03  0.10566000000E+00 0. -1.
         -4    1    4    4    0  501 -0.50360548023E+03  0.65229330222E+03  0.99236223822E+02  0.83003184274E+03  0.00000000000E+00 0. -1.
<mgrwt>
<rscale>  2 0.12753393E+04</rscale>
<asrwt>0</asrwt>
<pdfrwt beam="1">  1        1 0.31803567E+00 0.12753393E+04</pdfrwt>
<pdfrwt beam="2">  1       -1 0.12287451E+00 0.12753393E+04</pdfrwt>
<totfact> 0.20617354E+00</totfact>
</mgrwt>
</event>
<event>
 8    1  0.7046235E-006  0.1044376E+04  0.7818608E-02  0.8733978E-01
          4   -1    0    0  502    0  0.00000000000E+00  0.00000000000E+00  0.44536574003E+03  0.44536574003E+03  0.00000000000E+00 0.  1.
         -4   -1    0    0    0  501 -0.00000000000E+00 -0.00000000000E+00 -0.28174799677E+04  0.28174799677E+04  0.00000000000E+00 0. -1.
    9000010    2    1    2  502    0 -0.24505695360E+03 -0.51673471066E+02 -0.62801704417E+03  0.12451972027E+04  0.10456517622E+04 0.  0.
   -9000010    2    1    2    0  501  0.24505695360E+03  0.51673471066E+02 -0.17440971835E+04  0.20176485050E+04  0.98300938253E+03 0.  0.
        -13    1    3    3    0    0  0.30098934971E+03 -0.30103209648E+03 -0.81567235193E+02  0.43343758117E+03  0.10566000000E+00 0.  1.
          4    1    3    3  502    0 -0.54604630331E+03  0.24935862541E+03 -0.54644980897E+03  0.81175962154E+03  0.00000000000E+00 0.  1.
         13    1    4    4    0    0 -0.12581492053E+03 -0.18225455046E+02 -0.16131852232E+04  0.16181866817E+04  0.10566000000E+00 0. -1.
         -4    1    4    4    0  501  0.37087187413E+03  0.69898926112E+02 -0.13091196029E+03  0.39946182326E+03  0.00000000000E+00 0. -1.
<mgrwt>
<rscale>  2 0.10443761E+04</rscale>
<asrwt>0</asrwt>
<pdfrwt beam="1">  1        4 0.68517805E-01 0.10443761E+04</pdfrwt>
<pdfrwt beam="2">  1       -4 0.43345846E+00 0.10443761E+04</pdfrwt>
<totfact> 0.22007075E-01</totfact>
</mgrwt>
</event>
<event>
 8    1  0.7046235E-006  0.1092694E+04  0.7818608E-02  0.8692067E-01
          2   -1    0    0  502    0  0.00000000000E+00  0.00000000000E+00  0.12913164987E+04  0.12913164987E+04  0.00000000000E+00 0. -1.
         -2   -1    0    0    0  501 -0.00000000000E+00 -0.00000000000E+00 -0.92489626431E+03  0.92489626431E+03  0.00000000000E+00 0.  1.
    9000010    2    1    2  502    0 -0.14823438119E+03 -0.39021679159E+03  0.20001142155E+03  0.11044709224E+04  0.10028005153E+04 0.  0.
   -9000010    2    1    2    0  501  0.14823438119E+03  0.39021679159E+03  0.16640881283E+03  0.11117418406E+04  0.10168753370E+04 0.  0.
        -13    1    3    3    0    0 -0.45378798013E+03 -0.54126856833E+03 -0.57117733613E+01  0.70634823529E+03  0.10566000000E+00 0.  1.
          4    1    3    3  502    0  0.30555359894E+03  0.15105177674E+03  0.20572319492E+03  0.39812268713E+03  0.00000000000E+00 0.  1.
         13    1    4    4    0    0  0.56035452517E+03  0.39071482300E+03  0.57871707242E+02  0.68556867814E+03  0.10566000000E+00 0. -1.
         -4    1    4    4    0  501 -0.41212014397E+03 -0.49803140883E+00  0.10853710559E+03  0.42617316245E+03  0.00000000000E+00 0. -1.
<mgrwt>
<rscale>  2 0.10926940E+04</rscale>
<asrwt>0</asrwt>
<pdfrwt beam="1">  1        2 0.19866408E+00 0.10926940E+04</pdfrwt>
<pdfrwt beam="2">  1       -2 0.14229173E+00 0.10926940E+04</pdfrwt>
<totfact> 0.81243983E+00</totfact>
</mgrwt>
</event>
<event>
 8    1  0.7046235E-006  0.1319893E+04  0.7818608E-02  0.8521365E-01
         -2   -1    0    0    0  501 -0.00000000000E+00  0.00000000000E+00  0.55896528988E+03  0.55896528988E+03  0.00000000000E+00 0.  1.
          2   -1    0    0  502    0  0.00000000000E+00 -0.00000000000E+00 -0.38154873834E+04  0.38154873834E+04  0.00000000000E+00 0. -1.
    9000010    2    1    2  502    0 -0.52304996230E+03  0.68177406584E+03 -0.25627005671E+04  0.28819030374E+04  0.99976686291E+03 0.  0.
   -9000010    2    1    2    0  501  0.52304996230E+03 -0.68177406584E+03 -0.69382152642E+03  0.14925496359E+04  0.10039516748E+04 0.  0.
        -13    1    3    3    0    0 -0.13927009078E+03  0.21407741545E+03 -0.21122320669E+04  0.21276159459E+04  0.10566000000E+00 0.  1.
          4    1    3    3  502    0 -0.38377987152E+03  0.46769665039E+03 -0.45046850027E+03  0.75428709143E+03  0.00000000000E+00 0.  1.
         13    1    4    4    0    0  0.55431150135E+03 -0.89551597816E+03 -0.71878958321E+03  0.12750955195E+04  0.10566000000E+00 0. -1.
         -4    1    4    4    0  501 -0.31261539052E+02  0.21374191232E+03  0.24968056797E+02  0.21745411646E+03  0.00000000000E+00 0. -1.
<mgrwt>
<rscale>  2 0.13198934E+04</rscale>
<asrwt>0</asrwt>
<pdfrwt beam="2">  1        2 0.58699804E+00 0.13198934E+04</pdfrwt>
<pdfrwt beam="1">  1       -2 0.85994663E-01 0.13198934E+04</pdfrwt>
<totfact> 0.82110435E-01</totfact>
</mgrwt>
</event>
<event>
 8    1  0.7046235E-006  0.1238423E+04  0.7818608E-02  0.8578177E-01
          2   -1    0    0  502    0  0.00000000000E+00  0.00000000000E+00  0.17782216888E+04  0.17782216888E+04  0.00000000000E+00 0.  1.
         -2   -1    0    0    0  501 -0.00000000000E+00 -0.00000000000E+00 -0.91554000300E+03  0.91554000300E+03  0.00000000000E+00 0. -1.
    9000010    2    1    2  502    0 -0.73587208912E+03 -0.82451566493E+02  0.75865396538E+03  0.14608546141E+04  0.10051041598E+04 0.  0.
   -9000010    2    1    2    0  501  0.73587208912E+03  0.82451566493E+02  0.10402772037E+03  0.12329070776E+04  0.98027144360E+03 0.  0.
        -13    1    3    3    0    0 -0.94267815991E+03  0.82660012515E+02  0.43139787445E+03  0.10399898692E+04  0.10566000000E+00 0.  1.
          4    1    3    3  502    0  0.20680607078E+03 -0.16511157901E+03  0.32725609094E+03  0.42086474489E+03  0.00000000000E+00 0.  1.
         13    1    4    4    0    0 -0.72395747044E+01 -0.28723340340E+03  0.26103960030E+03  0.38819727403E+03  0.10566000000E+00 0. -1.
         -4    1    4    4    0  501  0.74311166383E+03  0.36968496989E+03 -0.15701187994E+03  0.84470980362E+03  0.00000000000E+00 0. -1.
<mgrwt>
<rscale>  2 0.12384228E+04</rscale>
<asrwt>0</asrwt>
<pdfrwt beam="1">  1        2 0.27357257E+00 0.12384228E+04</pdfrwt>
<pdfrwt beam="2">  1       -2 0.14085231E+00 0.12384228E+04</pdfrwt>
<totfact> 0.44562238E+00</totfact>
</mgrwt>
</event>
<event>
 8    1  0.7046235E-006  0.1644461E+04  0.7818608E-02  0.8330891E-01
          2   -1    0    0  502    0  0.00000000000E+00  0.00000000000E+00  0.28801298640E+04  0.28801298640E+04  0.00000000000E+00 0. -1.
         -2   -1    0    0    0  501 -0.00000000000E+00 -0.00000000000E+00 -0.25202969420E+04  0.25202969420E+04  0.00000000000E+00 0.  1.
    9000010    2    1    2  502    0  0.12795208405E+04 -0.32951134425E+03  0.23183208242E+04  0.28361347415E+04  0.96088371859E+03 0.  0.
   -9000010    2    1    2    0  501 -0.12795208405E+04  0.32951134425E+03 -0.19584879023E+04  0.25642920645E+04  0.99707954622E+03 0.  0.
        -13    1    3    3    0    0  0.12781797849E+04 -0.23972755476E+03  0.13900712316E+04  0.19035521803E+04  0.10566000000E+00 0.  1.
          4    1    3    3  502    0  0.13410556225E+01 -0.89783789490E+02  0.92824959262E+03  0.93258256121E+03  0.00000000000E+00 0.  1.
         13    1    4    4    0    0 -0.88585399736E+03 -0.24571189737E+03 -0.13815975619E+04  0.16594949459E+04  0.10566000000E+00 0. -1.
         -4    1    4    4    0  501 -0.39366684313E+03  0.57522324162E+03 -0.57689034040E+03  0.90479711865E+03  0.00000000000E+00 0. -1.
<mgrwt>
<rscale>  2 0.16444609E+04</rscale>
<asrwt>0</asrwt>
<pdfrwt beam="1">  1        2 0.44309690E+00 0.16444609E+04</pdfrwt>
<pdfrwt beam="2">  1       -2 0.38773799E+00 0.16444609E+04</pdfrwt>
<totfact> 0.13155858E-02</totfact>
</mgrwt>
</event>
<event>
 8    1  0.7046235E-006  0.1770214E+04  0.7818608E-02  0.8268966E-01
          2   -1    0    0  502    0  0.00000000000E+00  0.00000000000E+00  0.21469989730E+04  0.21469989730E+04  0.00000000000E+00 0.  1.
         -2   -1    0    0    0  501 -0.00000000000E+00 -0.00000000000E+00 -0.15235580945E+04  0.15235580945E+04  0.00000000000E+00 0. -1.
    9000010    2    1    2  502    0  0.13348539747E+04 -0.59625040285E+03 -0.63294172398E+02  0.17778419063E+04  0.10096365757E+04 0.  0.
   -9000010    2    1    2    0  501 -0.13348539747E+04  0.59625040285E+03  0.68673505083E+03  0.18927151612E+04  0.98661845442E+03 0.  0.
        -13    1    3    3    0    0  0.79778129972E+03 -0.86224565578E+03  0.42991414210E+01  0.11747089286E+04  0.10566000000E+00 0.  1.
          4    1    3    3  502    0  0.53707267497E+03  0.26599525293E+03 -0.67593313819E+02  0.60313297775E+03  0.00000000000E+00 0.  1.
         13    1    4    4    0    0 -0.83492127199E+03 -0.11299336166E+03  0.56984505581E+03  0.10171452350E+04  0.10566000000E+00 0. -1.
         -4    1    4    4    0  501 -0.49993270269E+03  0.70924376451E+03  0.11688999501E+03  0.87556992620E+03  0.00000000000E+00 0. -1.
<mgrwt>
<rscale>  2 0.17702137E+04</rscale>
<asrwt>0</asrwt>
<pdfrwt beam="1">  1        2 0.33030754E+00 0.17702137E+04</pdfrwt>
<pdfrwt beam="2">  1       -2 0.23439355E+00 0.17702137E+04</pdfrwt>
<totfact> 0.43486666E-01</totfact>
</mgrwt>
</event>
<event>
 8    1  0.7046235E-006  0.1174150E+04  0.7818608E-02  0.8626286E-01
          1   -1    0    0  502    0  0.00000000000E+00  0.00000000000E+00  0.22813607951E+04  0.22813607951E+04  0.00000000000E+00 0. -1.
         -1   -1    0    0    0  501 -0.00000000000E+00 -0.00000000000E+00 -0.60542772469E+03  0.60542772469E+03  0.00000000000E+00 0.  1.
    9000010    2    1    2  502    0 -0.34860339477E+03 -0.64252872310E+03  0.86935002554E+03  0.15027736041E+04  0.98396725113E+03 0.  0.
   -9000010    2    1    2    0  501  0.34860339477E+03  0.64252872310E+03  0.80658304485E+03  0.13840149157E+04  0.85472427823E+03 0.  0.
        -13    1    3    3    0    0  0.21609893233E+03 -0.15140026242E+03  0.68203148838E+03  0.73129183663E+03  0.10566000000E+00 0.  1.
          4    1    3    3  502    0 -0.56470232710E+03 -0.49112846069E+03  0.18731853717E+03  0.77148176744E+03  0.00000000000E+00 0.  1.
         13    1    4    4    0    0  0.13146512081E+02  0.76557952487E+03  0.58475298502E+03  0.96344221640E+03  0.10566000000E+00 0. -1.
         -4    1    4    4    0  501  0.33545688269E+03 -0.12305080177E+03  0.22183005983E+03  0.42057269931E+03  0.00000000000E+00 0. -1.
<mgrwt>
<rscale>  2 0.11741504E+04</rscale>
<asrwt>0</asrwt>
<pdfrwt beam="1">  1        1 0.35097858E+00 0.11741504E+04</pdfrwt>
<pdfrwt beam="2">  1       -1 0.93142728E-01 0.11741504E+04</pdfrwt>
<totfact> 0.26427215E+00</totfact>
</mgrwt>
</event>
<event>
 8    1  0.7046235E-006  0.1670515E+04  0.7818608E-02  0.8317602E-01
         -2   -1    0    0    0  501 -0.00000000000E+00  0.00000000000E+00  0.12061145596E+04  0.12061145596E+04  0.00000000000E+00 0.  1.
          2   -1    0    0  502    0  0.00000000000E+00 -0.00000000000E+00 -0.23147373475E+04  0.23147373475E+04  0.00000000000E+00 0. -1.
    9000010    2    1    2  502    0 -0.94992830571E+03 -0.99309815004E+03 -0.52900840097E+03  0.17220927088E+04  0.89283015611E+03 0.  0.
   -9000010    2    1    2    0  501  0.94992830571E+03  0.99309815004E+03 -0.57961438688E+03  0.17987591983E+04  0.10054720754E+04 0.  0.
        -13    1    3    3    0    0 -0.10397402021E+04 -0.96122722360E+03 -0.26388998604E+03  0.14403664114E+04  0.10566000000E+00 0.  1.
          4    1    3    3  502    0  0.89811896381E+02 -0.31870926441E+02 -0.26511841492E+03  0.28172629735E+03  0.00000000000E+00 0.  1.
         13    1    4    4    0    0  0.10806375827E+04  0.49843556581E+03 -0.37518612926E+03  0.12477901431E+04  0.10566000000E+00 0. -1.
         -4    1    4    4    0  501 -0.13070927698E+03  0.49466258423E+03 -0.20442825762E+03  0.55096905524E+03  0.00000000000E+00 0. -1.
<mgrwt>
<rscale>  2 0.16705150E+04</rscale>
<asrwt>0</asrwt>
<pdfrwt beam="2">  1        2 0.35611343E+00 0.16705150E+04</pdfrwt>
<pdfrwt beam="1">  1       -2 0.18555609E+00 0.16705150E+04</pdfrwt>
<totfact> 0.89263726E-01</totfact>
</mgrwt>
</event>
<event>
 8    1  0.7046235E-006  0.1680762E+04  0.7818608E-02  0.8312444E-01
         -4   -1    0    0    0  501 -0.00000000000E+00  0.00000000000E+00  0.87108910136E+03  0.87108910136E+03  0.00000000000E+00 0. -1.
          4   -1    0    0  502    0  0.00000000000E+00 -0.00000000000E+00 -0.33581449565E+04  0.33581449565E+04  0.00000000000E+00 0.  1.
    9000010    2    1    2  502    0  0.12739383671E+04 -0.45318277382E+03 -0.16331480369E+04  0.23416327117E+04  0.99387004002E+03 0.  0.
   -9000010    2    1    2    0  501 -0.12739383671E+04  0.45318277382E+03 -0.85390781827E+03  0.18876013462E+04  0.10027894546E+04 0.  0.
        -13    1    3    3    0    0  0.18652176966E+03 -0.25875687416E+03 -0.10399614662E+04  0.10877800112E+04  0.10566000000E+00 0.  1.
          4    1    3    3  502    0  0.10874165975E+04 -0.19442589966E+03 -0.59318657071E+03  0.12538527005E+04  0.00000000000E+00 0.  1.
         13    1    4    4    0    0 -0.30149821095E+03  0.13311374873E+03 -0.79677623075E+03  0.86224869635E+03  0.10566000000E+00 0. -1.
         -4    1    4    4    0  501 -0.97244015617E+03  0.32006902509E+03 -0.57131587524E+02  0.10253526498E+04  0.00000000000E+00 0. -1.
<mgrwt>
<rscale>  2 0.16807622E+04</rscale>
<asrwt>0</asrwt>
<pdfrwt beam="2">  1        4 0.51663768E+00 0.16807622E+04</pdfrwt>
<pdfrwt beam="1">  1       -4 0.13401371E+00 0.16807622E+04</pdfrwt>
<totfact> 0.23744747E-02</totfact>
</mgrwt>
</event>
<event>
 8    1  0.7046235E-006  0.1141935E+04  0.7818608E-02  0.8651618E-01
         -2   -1    0    0    0  501 -0.00000000000E+00  0.00000000000E+00  0.62169325224E+03  0.62169325224E+03  0.00000000000E+00 0.  1.
          2   -1    0    0  502    0  0.00000000000E+00 -0.00000000000E+00 -0.21293224307E+04  0.21293224307E+04  0.00000000000E+00 0. -1.
    9000010    2    1    2  502    0 -0.53422510930E+03 -0.18499904818E+03 -0.92167617448E+03  0.14671973841E+04  0.99174597462E+03 0.  0.
   -9000010    2    1    2    0  501  0.53422510930E+03  0.18499904818E+03 -0.58595300394E+03  0.12838182988E+04  0.99258621096E+03 0.  0.
        -13    1    3    3    0    0 -0.60274534027E+03 -0.50881610465E+03 -0.51145054102E+03  0.94009437858E+03  0.10566000000E+00 0.  1.
          4    1    3    3  502    0  0.68520230974E+02  0.32381705647E+03 -0.41022563346E+03  0.52710300555E+03  0.00000000000E+00 0.  1.
         13    1    4    4    0    0  0.63098480079E+03 -0.26323807603E+03 -0.34514090855E+03  0.76587098223E+03  0.10566000000E+00 0. -1.
         -4    1    4    4    0  501 -0.96759691496E+02  0.44823712421E+03 -0.24081209539E+03  0.51794731654E+03  0.00000000000E+00 0. -1.
<mgrwt>
<rscale>  2 0.11419346E+04</rscale>
<asrwt>0</asrwt>
<pdfrwt beam="2">  1        2 0.32758807E+00 0.11419346E+04</pdfrwt>
<pdfrwt beam="1">  1       -2 0.95645115E-01 0.11419346E+04</pdfrwt>
<totfact> 0.79554555E+00</totfact>
</mgrwt>
</event>
<event>
 8    1  0.7046235E-006  0.1140212E+04  0.7818608E-02  0.8652997E-01
         -1   -1    0    0    0  501 -0.00000000000E+00  0.00000000000E+00  0.10492966488E+04  0.10492966488E+04  0.00000000000E+00 0.  1.
          1   -1    0    0  502    0  0.00000000000E+00 -0.00000000000E+00 -0.16475746590E+04  0.16475746590E+04  0.00000000000E+00 0. -1.
    9000010    2    1    2  502    0 -0.38000759678E+02  0.55110638748E+03  0.37303289852E+03  0.11963534358E+04  0.99345140384E+03 0.  0.
   -9000010    2    1    2    0  501  0.38000759678E+02 -0.55110638748E+03 -0.97131090882E+03  0.15005178720E+04  0.10014722636E+04 0.  0.
        -13    1    3    3    0    0  0.31008279085E+03  0.61093402338E+03  0.34282113973E+01  0.68513026637E+03  0.10566000000E+00 0.  1.
          4    1    3    3  502    0 -0.34808355053E+03 -0.59827635897E+02  0.36960468713E+03  0.51122316938E+03  0.00000000000E+00 0.  1.
         13    1    4    4    0    0 -0.21345200446E+03 -0.76457738346E+03 -0.55132031820E+03  0.96648561186E+03  0.10566000000E+00 0. -1.
         -4    1    4    4    0  501  0.25145276414E+03  0.21347099597E+03 -0.41999059061E+03  0.53403226019E+03  0.00000000000E+00 0. -1.
<mgrwt>
<rscale>  2 0.11402122E+04</rscale>
<asrwt>0</asrwt>
<pdfrwt beam="2">  1        1 0.25347302E+00 0.11402122E+04</pdfrwt>
<pdfrwt beam="1">  1       -1 0.16143025E+00 0.11402122E+04</pdfrwt>
<totfact> 0.20062099E+00</totfact>
</mgrwt>
</event>
<event>
 8    1  0.7046235E-006  0.1237453E+04  0.7818608E-02  0.8578881E-01
         -2   -1    0    0    0  501 -0.00000000000E+00  0.00000000000E+00  0.14411564327E+04  0.14411564327E+04  0.00000000000E+00 0. -1.
          2   -1    0    0  502    0  0.00000000000E+00 -0.00000000000E+00 -0.11214567499E+04  0.11214567499E+04  0.00000000000E+00 0.  1.
    9000010    2    1    2  502    0  0.72870321165E+03 -0.19818677467E+03 -0.13554518022E+03  0.12252294096E+04  0.95526344110E+03 0.  0.
   -9000010    2    1    2    0  501 -0.72870321165E+03  0.19818677467E+03  0.45524486302E+03  0.13373837729E+04  0.10055153417E+04 0.  0.
        -13    1    3    3    0    0 -0.23170339942E+03 -0.38087474959E+02 -0.86827184103E+02  0.25035193651E+03  0.10566000000E+00 0.  1.
          4    1    3    3  502    0  0.96040661107E+03 -0.16009929971E+03 -0.48717996117E+02  0.97487747307E+03  0.00000000000E+00 0.  1.
         13    1    4    4    0    0 -0.38690277988E+03 -0.28105847787E+03  0.56328768202E+03  0.73890503649E+03  0.10566000000E+00 0. -1.
         -4    1    4    4    0  501 -0.34180043177E+03  0.47924525254E+03 -0.10804281901E+03  0.59847873645E+03  0.00000000000E+00 0. -1.
<mgrwt>
<rscale>  2 0.12374525E+04</rscale>
<asrwt>0</asrwt>
<pdfrwt beam="2">  1        2 0.17253181E+00 0.12374525E+04</pdfrwt>
<pdfrwt beam="1">  1       -2 0.22171637E+00 0.12374525E+04</pdfrwt>
<totfact> 0.21440345E+00</totfact>
</mgrwt>
</event>
<event>
 8    1  0.7046235E-006  0.1692309E+04  0.7818608E-02  0.8306677E-01
         -1   -1    0    0    0  501 -0.00000000000E+00  0.00000000000E+00  0.12163759144E+04  0.12163759144E+04  0.00000000000E+00 0.  1.
          1   -1    0    0  502    0  0.00000000000E+00 -0.00000000000E+00 -0.23604161444E+04  0.23604161444E+04  0.00000000000E+00 0. -1.
    9000010    2    1    2  502    0 -0.23474029551E+03 -0.13458273152E+04 -0.66067816044E+03  0.18136314783E+04  0.99318142285E+03 0.  0.
   -9000010    2    1    2    0  501  0.23474029551E+03  0.13458273152E+04 -0.48336206957E+03  0.17631605805E+04  0.10043615752E+04 0.  0.
        -13    1    3    3    0    0 -0.17115639106E+03  0.27196885493E+02  0.14012807266E+03  0.22286782785E+03  0.10566000000E+00 0.  1.
          4    1    3    3  502    0 -0.63583904450E+02 -0.13730242006E+04 -0.80080623310E+03  0.15907636504E+04  0.00000000000E+00 0.  1.
         13    1    4    4    0    0  0.15850041209E+03  0.23159974178E+03 -0.57779182323E+03  0.64234276144E+03  0.10566000000E+00 0. -1.
         -4    1    4    4    0  501  0.76239883420E+02  0.11142275734E+04  0.94429753662E+02  0.11208178190E+04  0.00000000000E+00 0. -1.
<mgrwt>
<rscale>  2 0.16923085E+04</rscale>
<asrwt>0</asrwt>
<pdfrwt beam="2">  1        1 0.36314094E+00 0.16923085E+04</pdfrwt>
<pdfrwt beam="1">  1       -1 0.18713476E+00 0.16923085E+04</pdfrwt>
<totfact> 0.30930590E-01</totfact>
</mgrwt>
</event>
<event>
 8    1  0.7046235E-006  0.1062785E+04  0.7818608E-02  0.8717736E-01
          1   -1    0    0  502    0  0.00000000000E+00  0.00000000000E+00  0.17297039506E+04  0.17297039506E+04  0.00000000000E+00 0. -1.
         -1   -1    0    0    0  501 -0.00000000000E+00 -0.00000000000E+00 -0.65366026050E+03  0.65366026050E+03  0.00000000000E+00 0.  1.
    9000010    2    1    2  502    0 -0.75613969079E+02  0.36618810733E+03  0.49677094163E+03  0.11599802168E+04  0.97926581312E+03 0.  0.
   -9000010    2    1    2    0  501  0.75613969079E+02 -0.36618810733E+03  0.57927274849E+03  0.12233839943E+04  0.10105940224E+04 0.  0.
        -13    1    3    3    0    0 -0.45474392157E+03 -0.79615188911E+02  0.18997923076E+03  0.49922212671E+03  0.10566000000E+00 0.  1.
          4    1    3    3  502    0  0.37912995249E+03  0.44580329624E+03  0.30679171087E+03  0.66075809013E+03  0.00000000000E+00 0.  1.
         13    1    4    4    0    0 -0.28263752954E+03  0.17588391364E+03 -0.27935448229E+02  0.33406515026E+03  0.10566000000E+00 0. -1.
         -4    1    4    4    0  501  0.35825149862E+03 -0.54207202097E+03  0.60720819671E+03  0.88931884403E+03  0.00000000000E+00 0. -1.
<mgrwt>
<rscale>  2 0.10627851E+04</rscale>
<asrwt>0</asrwt>
<pdfrwt beam="1">  1        1 0.26610830E+00 0.10627851E+04</pdfrwt>
<pdfrwt beam="2">  1       -1 0.10056312E+00 0.10627851E+04</pdfrwt>
<totfact> 0.60637569E+00</totfact>
</mgrwt>
</event>
<event>
 8    1  0.7046235E-006  0.1292643E+04  0.7818608E-02  0.8539885E-01
          1   -1    0    0  502    0  0.00000000000E+00  0.00000000000E+00  0.69040391508E+03  0.69040391508E+03  0.00000000000E+00 0.  1.
         -1   -1    0    0    0  501 -0.00000000000E+00 -0.00000000000E+00 -0.24207645853E+04  0.24207645853E+04  0.00000000000E+00 0. -1.
    9000010    2    1    2  502    0 -0.69439929512E+02  0.83029467270E+03 -0.84042028954E+03  0.15400413632E+04  0.98549986802E+03 0.  0.
   -9000010    2    1    2    0  501  0.69439929512E+02 -0.83029467270E+03 -0.88994038069E+03  0.15711271372E+04  0.99107792471E+03 0.  0.
        -13    1    3    3    0    0  0.42861992887E+02 -0.65069864094E+02 -0.60155758013E+03  0.60658286410E+03  0.10566000000E+00 0.  1.
          4    1    3    3  502    0 -0.11230192240E+03  0.89536453679E+03 -0.23886270941E+03  0.93345849906E+03  0.00000000000E+00 0.  1.
         13    1    4    4    0    0 -0.33952099602E+03 -0.22293919598E+02 -0.45045376612E+03  0.56451761015E+03  0.10566000000E+00 0. -1.
         -4    1    4    4    0  501  0.40896092554E+03 -0.80800075310E+03 -0.43948661456E+03  0.10066095271E+04  0.00000000000E+00 0. -1.
<mgrwt>
<rscale>  2 0.12926426E+04</rscale>
<asrwt>0</asrwt>
<pdfrwt beam="1">  1        1 0.10621599E+00 0.12926426E+04</pdfrwt>
<pdfrwt beam="2">  1       -1 0.37242532E+00 0.12926426E+04</pdfrwt>
<totfact> 0.39552946E-01</totfact>
</mgrwt>
</event>
<event>
 8    1  0.7046235E-006  0.1570836E+04  0.7818608E-02  0.8369861E-01
         -2   -1    0    0    0  501 -0.00000000000E+00  0.00000000000E+00  0.64957172899E+03  0.64957172899E+03  0.00000000000E+00 0. -1.
          2   -1    0    0  502    0  0.00000000000E+00 -0.00000000000E+00 -0.38856412869E+04  0.38856412869E+04  0.00000000000E+00 0.  1.
    9000010    2    1    2  502    0  0.75274552512E+03 -0.94501067145E+03 -0.12851010553E+04  0.20342789734E+04  0.10134768002E+04 0.  0.
   -9000010    2    1    2    0  501 -0.75274552512E+03  0.94501067145E+03 -0.19509685026E+04  0.25009340425E+04  0.99434500658E+03 0.  0.
        -13    1    3    3    0    0  0.60858573355E+03 -0.88715772773E+03 -0.41930876462E+03  0.11546624096E+04  0.10566000000E+00 0.  1.
          4    1    3    3  502    0  0.14415979158E+03 -0.57852943716E+02 -0.86579229073E+03  0.87961656379E+03  0.00000000000E+00 0.  1.
         13    1    4    4    0    0 -0.50627389331E+03  0.11123414516E+04 -0.12957737264E+04  0.17811923874E+04  0.10566000000E+00 0. -1.
         -4    1    4    4    0  501 -0.24647163182E+03 -0.16733078012E+03 -0.65519477622E+03  0.71974165507E+03  0.00000000000E+00 0. -1.
<mgrwt>
<rscale>  2 0.15708357E+04</rscale>
<asrwt>0</asrwt>
<pdfrwt beam="2">  1        2 0.59779097E+00 0.15708357E+04</pdfrwt>
<pdfrwt beam="1">  1       -2 0.99934112E-01 0.15708357E+04</pdfrwt>
<totfact> 0.48941221E-01</totfact>
</mgrwt>
</event>
<event>
 8    1  0.7046235E-006  0.1275232E+04  0.7818608E-02  0.8551966E-01
          2   -1    0    0  502    0  0.00000000000E+00  0.00000000000E+00  0.32193795392E+04  0.32193795392E+04  0.00000000000E+00 0. -1.
         -2   -1    0    0    0  501 -0.00000000000E+00 -0.00000000000E+00 -0.50580671171E+03  0.50580671171E+03  0.00000000000E+00 0.  1.
    9000010    2    1    2  502    0  0.28102844951E+03 -0.74254440610E+03  0.14242255934E+04  0.19114048862E+04  0.99734693736E+03 0.  0.
   -9000010    2    1    2    0  501 -0.28102844951E+03  0.74254440610E+03  0.12893472341E+04  0.18137813647E+04  0.99851758352E+03 0.  0.
        -13    1    3    3    0    0  0.20276109059E+03 -0.54031096515E+03  0.15546819340E+04  0.16583376996E+04  0.10566000000E+00 0.  1.
          4    1    3    3  502    0  0.78267358920E+02 -0.20223344094E+03 -0.13045634058E+03  0.25306718655E+03  0.00000000000E+00 0.  1.
         13    1    4    4    0    0  0.16353882564E+03  0.80074461498E+03  0.93842426713E+03  0.12444183389E+04  0.10566000000E+00 0. -1.
         -4    1    4    4    0  501 -0.44456727515E+03 -0.58200208885E+02  0.35092296694E+03  0.56936302582E+03  0.00000000000E+00 0. -1.
<mgrwt>
<rscale>  2 0.12752325E+04</rscale>
<asrwt>0</asrwt>
<pdfrwt beam="1">  1        2 0.49528915E+00 0.12752325E+04</pdfrwt>
<pdfrwt beam="2">  1       -2 0.77816419E-01 0.12752325E+04</pdfrwt>
<totfact> 0.28808300E+00</totfact>
</mgrwt>
</event>
<event>
 8    1  0.7046235E-006  0.1154426E+04  0.7818608E-02  0.8641694E-01
          1   -1    0    0  502    0  0.00000000000E+00  0.00000000000E+00  0.73319282109E+03  0.73319282109E+03  0.00000000000E+00 0.  1.
         -1   -1    0    0    0  501 -0.00000000000E+00 -0.00000000000E+00 -0.18521726780E+04  0.18521726780E+04  0.00000000000E+00 0. -1.
    9000010    2    1    2  502    0  0.39766546247E+03  0.37787470246E+03 -0.39139538569E+03  0.12339564996E+04  0.10336978205E+04 0.  0.
   -9000010    2    1    2    0  501 -0.39766546247E+03 -0.37787470246E+03 -0.72758447118E+03  0.13514089995E+04  0.99799800120E+03 0.  0.
        -13    1    3    3    0    0  0.11490230170E+03  0.71511238824E+03 -0.30279586501E+03  0.78503096358E+03  0.10566000000E+00 0.  1.
          4    1    3    3  502    0  0.28276316077E+03 -0.33723768577E+03 -0.88599520681E+02  0.44892553598E+03  0.00000000000E+00 0.  1.
         13    1    4    4    0    0  0.19965686034E+02 -0.49908613907E+03  0.49617248874E+01  0.49950999260E+03  0.10566000000E+00 0. -1.
         -4    1    4    4    0  501 -0.41763114850E+03  0.12121143661E+03 -0.73254619606E+03  0.85189900688E+03  0.00000000000E+00 0. -1.
<mgrwt>
<rscale>  2 0.11544260E+04</rscale>
<asrwt>0</asrwt>
<pdfrwt beam="1">  1        1 0.11279890E+00 0.11544260E+04</pdfrwt>
<pdfrwt beam="2">  1       -1 0.28494964E+00 0.11544260E+04</pdfrwt>
<totfact> 0.75795536E-01</totfact>
</mgrwt>
</event>
<event>
 8    1  0.7046235E-006  0.1662933E+04  0.7818608E-02  0.8321444E-01
         -1   -1    0    0    0  501 -0.00000000000E+00  0.00000000000E+00  0.43258812241E+04  0.43258812241E+04  0.00000000000E+00 0. -1.
          1   -1    0    0  502    0  0.00000000000E+00 -0.00000000000E+00 -0.74050214458E+03  0.74050214458E+03  0.00000000000E+00 0.  1.
    9000010    2    1    2  502    0 -0.92223577358E+03  0.95580086650E+03  0.85334949534E+03  0.18665609599E+04  0.99587666778E+03 0.  0.
   -9000010    2    1    2    0  501  0.92223577358E+03 -0.95580086650E+03  0.27320295842E+04  0.31998224087E+04  0.10053873285E+04 0.  0.
        -13    1    3    3    0    0 -0.43071813385E+03  0.17073428586E+03  0.81745302543E+03  0.93962639764E+03  0.10566000000E+00 0.  1.
          4    1    3    3  502    0 -0.49151763973E+03  0.78506658063E+03  0.35896469908E+02  0.92693456227E+03  0.00000000000E+00 0.  1.
         13    1    4    4    0    0  0.37194100378E+03 -0.45182701207E+03  0.30350839216E+03  0.65924586795E+03  0.10566000000E+00 0. -1.
         -4    1    4    4    0  501  0.55029476980E+03 -0.50397385442E+03  0.24285211920E+04  0.25405765408E+04  0.00000000000E+00 0. -1.
<mgrwt>
<rscale>  2 0.16629326E+04</rscale>
<asrwt>0</asrwt>
<pdfrwt beam="2">  1        1 0.11392341E+00 0.16629326E+04</pdfrwt>
<pdfrwt beam="1">  1       -1 0.66552017E+00 0.16629326E+04</pdfrwt>
<totfact> 0.37449692E-02</totfact>
</mgrwt>
</event>
<event>
 8    1  0.7046235E-006  0.1223692E+04  0.7818608E-02  0.8588932E-01
          2   -1    0    0  502    0  0.00000000000E+00  0.00000000000E+00  0.14783373505E+04  0.14783373505E+04  0.00000000000E+00 0.  1.
         -2   -1    0    0    0  501 -0.00000000000E+00 -0.00000000000E+00 -0.10130116155E+04  0.10130116155E+04  0.00000000000E+00 0. -1.
    9000010    2    1    2  502    0  0.68571356978E+03 -0.13842574738E+03  0.22049955378E+03  0.12379488093E+04  0.99726245992E+03 0.  0.
   -9000010    2    1    2    0  501 -0.68571356978E+03  0.13842574738E+03  0.24482618124E+03  0.12534001566E+04  0.10107953830E+04 0.  0.
        -13    1    3    3    0    0  0.31700753007E+03 -0.61224273422E+02 -0.39877998465E+03  0.51309616360E+03  0.10566000000E+00 0.  1.
          4    1    3    3  502    0  0.36870603970E+03 -0.77201473960E+02  0.61927953843E+03  0.72485264572E+03  0.00000000000E+00 0.  1.
         13    1    4    4    0    0  0.10379397609E+03 -0.30551735003E+03  0.44163014970E+02  0.32567533480E+03  0.10566000000E+00 0. -1.
         -4    1    4    4    0  501 -0.78950754586E+03  0.44394309741E+03  0.20066316627E+03  0.92772482181E+03  0.00000000000E+00 0. -1.
<mgrwt>
<rscale>  2 0.12236924E+04</rscale>
<asrwt>0</asrwt>
<pdfrwt beam="1">  1        2 0.22743652E+00 0.12236924E+04</pdfrwt>
<pdfrwt beam="2">  1       -2 0.15584794E+00 0.12236924E+04</pdfrwt>
<totfact> 0.47902676E+00</totfact>
</mgrwt>
</event>
<event>
 8    1  0.7046235E-006  0.1869340E+04  0.7818608E-02  0.8223768E-01
         -2   -1    0    0    0  501 -0.00000000000E+00  0.00000000000E+00  0.42066848568E+04  0.42066848568E+04  0.00000000000E+00 0.  1.
          2   -1    0    0  502    0  0.00000000000E+00 -0.00000000000E+00 -0.83124003394E+03  0.83124003394E+03  0.00000000000E+00 0. -1.
    9000010    2    1    2  502    0  0.73372461507E+03  0.14039692313E+04  0.16192186294E+04  0.24700339880E+04  0.98474236152E+03 0.  0.
   -9000010    2    1    2    0  501 -0.73372461507E+03 -0.14039692313E+04  0.17562261934E+04  0.25678909028E+04  0.10001259085E+04 0.  0.
        -13    1    3    3    0    0  0.18588208431E+03  0.33391403512E+03 -0.78155056096E+02  0.39007557739E+03  0.10566000000E+00 0.  1.
          4    1    3    3  502    0  0.54784253076E+03  0.10700551962E+04  0.16973736855E+04  0.20799584106E+04  0.00000000000E+00 0.  1.
         13    1    4    4    0    0  0.16040325998E+03 -0.68491357876E+03  0.86566872339E+03  0.11154452770E+04  0.10566000000E+00 0. -1.
         -4    1    4    4    0  501 -0.89412787504E+03 -0.71905565255E+03  0.89055747003E+03  0.14524456258E+04  0.00000000000E+00 0. -1.
<mgrwt>
<rscale>  2 0.18693402E+04</rscale>
<asrwt>0</asrwt>
<pdfrwt beam="2">  1        2 0.12788308E+00 0.18693402E+04</pdfrwt>
<pdfrwt beam="1">  1       -2 0.64718227E+00 0.18693402E+04</pdfrwt>
<totfact> 0.15531610E-01</totfact>
</mgrwt>
</event>
<event>
 8    1  0.7046235E-006  0.1137301E+04  0.7818608E-02  0.8655333E-01
          2   -1    0    0  502    0  0.00000000000E+00  0.00000000000E+00  0.22507298190E+04  0.22507298190E+04  0.00000000000E+00 0. -1.
         -2   -1    0    0    0  501 -0.00000000000E+00 -0.00000000000E+00 -0.58611306156E+03  0.58611306156E+03  0.00000000000E+00 0.  1.
    9000010    2    1    2  502    0  0.62314748333E+03 -0.30526446408E+03  0.10611274553E+04  0.16173894197E+04  0.10042200354E+04 0.  0.
   -9000010    2    1    2    0  501 -0.62314748333E+03  0.30526446408E+03  0.60348930215E+03  0.12194534609E+04  0.80085468494E+03 0.  0.
        -13    1    3    3    0    0  0.42034012346E+03 -0.18371336536E+02 -0.75710545627E+02  0.42749903307E+03  0.10566000000E+00 0.  1.
          4    1    3    3  502    0  0.20280735987E+03 -0.28689312754E+03  0.11368380009E+04  0.11898903866E+04  0.00000000000E+00 0.  1.
         13    1    4    4    0    0 -0.28726851114E+03  0.15596156943E+03 -0.16605251343E+03  0.36663422783E+03  0.10566000000E+00 0. -1.
         -4    1    4    4    0  501 -0.33587897219E+03  0.14930289464E+03  0.76954181559E+03  0.85281923304E+03  0.00000000000E+00 0. -1.
<mgrwt>
<rscale>  2 0.11373014E+04</rscale>
<asrwt>0</asrwt>
<pdfrwt beam="1">  1        2 0.34626612E+00 0.11373014E+04</pdfrwt>
<pdfrwt beam="2">  1       -2 0.90171242E-01 0.11373014E+04</pdfrwt>
<totfact> 0.78379325E+00</totfact>
</mgrwt>
</event>
<event>
 8    1  0.7046235E-006  0.1094109E+04  0.7818608E-02  0.8690873E-01
         -2   -1    0    0    0  501 -0.00000000000E+00  0.00000000000E+00  0.68573800670E+03  0.68573800670E+03  0.00000000000E+00 0. -1.
          2   -1    0    0  502    0  0.00000000000E+00 -0.00000000000E+00 -0.17689310350E+04  0.17689310350E+04  0.00000000000E+00 0.  1.
    9000010    2    1    2  502    0 -0.79848323277E+02 -0.46655236234E+03 -0.38890863291E+03  0.11261376219E+04  0.94492812271E+03 0.  0.
   -9000010    2    1    2    0  501  0.79848323277E+02  0.46655236234E+03 -0.69428439540E+03  0.13285314199E+04  0.10290374387E+04 0.  0.
        -13    1    3    3    0    0  0.16896258250E+03 -0.20775752841E+03  0.26716109289E+03  0.37826790191E+03  0.10566000000E+00 0.  1.
          4    1    3    3  502    0 -0.24881090578E+03 -0.25879483393E+03 -0.65606972580E+03  0.74786971995E+03  0.00000000000E+00 0.  1.
         13    1    4    4    0    0  0.15404795854E+03  0.50650491372E+03 -0.93445564820E+03  0.10740043625E+04  0.10566000000E+00 0. -1.
         -4    1    4    4    0  501 -0.74199635263E+02 -0.39952551385E+02  0.24017125279E+03  0.25452705731E+03  0.00000000000E+00 0. -1.
<mgrwt>
<rscale>  2 0.10941094E+04</rscale>
<asrwt>0</asrwt>
<pdfrwt beam="2">  1        2 0.27214324E+00 0.10941094E+04</pdfrwt>
<pdfrwt beam="1">  1       -2 0.10549815E+00 0.10941094E+04</pdfrwt>
<totfact> 0.99137861E+00</totfact>
</mgrwt>
</event>
<event>
 8    1  0.7046235E-006  0.1075584E+04  0.7818608E-02  0.8706645E-01
         -2   -1    0    0    0  501 -0.00000000000E+00  0.00000000000E+00  0.12616793132E+04  0.12616793132E+04  0.00000000000E+00 0. -1.
          2   -1    0    0  502    0  0.00000000000E+00 -0.00000000000E+00 -0.96139168405E+03  0.96139168405E+03  0.00000000000E+00 0.  1.
    9000010    2    1    2  502    0 -0.35917986982E+03  0.23144840989E+03 -0.86256686400E+02  0.10946935781E+04  0.10041589858E+04 0.  0.
   -9000010    2    1    2    0  501  0.35917986982E+03 -0.23144840989E+03  0.38654431557E+03  0.11283774192E+04  0.97017552374E+03 0.  0.
        -13    1    3    3    0    0 -0.47561254654E+02 -0.38662739910E+03 -0.10072914358E+03  0.40235455783E+03  0.10566000000E+00 0.  1.
          4    1    3    3  502    0 -0.31161861517E+03  0.61807580899E+03  0.14472457177E+02  0.69233902027E+03  0.00000000000E+00 0.  1.
         13    1    4    4    0    0 -0.32145240032E+03 -0.16743807426E+03  0.48329456551E+02  0.36565407412E+03  0.10566000000E+00 0. -1.
         -4    1    4    4    0  501  0.68063227014E+03 -0.64010335634E+02  0.33821485902E+03  0.76272334505E+03  0.00000000000E+00 0. -1.
<mgrwt>
<rscale>  2 0.10755836E+04</rscale>
<asrwt>0</asrwt>
<pdfrwt beam="2">  1        2 0.14790641E+00 0.10755836E+04</pdfrwt>
<pdfrwt beam="1">  1       -2 0.19410451E+00 0.10755836E+04</pdfrwt>
<totfact> 0.45839794E+00</totfact>
</mgrwt>
</event>
<event>
 8    1  0.7046235E-006  0.1006889E+04  0.7818608E-02  0.8768145E-01
          2   -1    0    0  502    0  0.00000000000E+00  0.00000000000E+00  0.24881319687E+04  0.24881319687E+04  0.00000000000E+00 0. -1.
         -2   -1    0    0    0  501 -0.00000000000E+00 -0.00000000000E+00 -0.42578442521E+03  0.42578442521E+03  0.00000000000E+00 0.  1.
    9000010    2    1    2  502    0  0.19469408228E+02  0.26627254412E+03  0.13583703168E+04  0.17081167818E+04  0.10006062648E+04 0.  0.
   -9000010    2    1    2    0  501 -0.19469408228E+02 -0.26627254412E+03  0.70397722674E+03  0.12057996122E+04  0.94185383331E+03 0.  0.
        -13    1    3    3    0    0 -0.41159520167E+03  0.35810298990E+03  0.48562109387E+03  0.73039456419E+03  0.10566000000E+00 0.  1.
          4    1    3    3  502    0  0.43106460990E+03 -0.91830445783E+02  0.87274922292E+03  0.97772221760E+03  0.00000000000E+00 0.  1.
         13    1    4    4    0    0 -0.38025356486E+03  0.15770681375E+03  0.21291725520E+03  0.46346303134E+03  0.10566000000E+00 0. -1.
         -4    1    4    4    0  501  0.36078415663E+03 -0.42397935787E+03  0.49105997154E+03  0.74233658082E+03  0.00000000000E+00 0. -1.
<mgrwt>
<rscale>  2 0.10068894E+04</rscale>
<asrwt>0</asrwt>
<pdfrwt beam="1">  1        2 0.38278952E+00 0.10068894E+04</pdfrwt>
<pdfrwt beam="2">  1       -2 0.65505298E-01 0.10068894E+04</pdfrwt>
<totfact> 0.11770608E+01</totfact>
</mgrwt>
</event>
<event>
 8    1  0.7046235E-006  0.1161622E+04  0.7818608E-02  0.8636036E-01
          1   -1    0    0  502    0  0.00000000000E+00  0.00000000000E+00  0.13944929437E+04  0.13944929437E+04  0.00000000000E+00 0. -1.
         -1   -1    0    0    0  501 -0.00000000000E+00 -0.00000000000E+00 -0.10239164774E+04  0.10239164774E+04  0.00000000000E+00 0.  1.
    9000010    2    1    2  502    0  0.31796780035E+03  0.51296898140E+03 -0.98305660757E+02  0.11650644581E+04  0.99170080697E+03 0.  0.
   -9000010    2    1    2    0  501 -0.31796780035E+03 -0.51296898140E+03  0.46888212702E+03  0.12533449631E+04  0.99336924124E+03 0.  0.
        -13    1    3    3    0    0  0.62137414873E+03  0.57612433932E+03 -0.11267369998E+03  0.85482188841E+03  0.10566000000E+00 0.  1.
          4    1    3    3  502    0 -0.30340634838E+03 -0.63155357924E+02  0.14368039223E+02  0.31024256965E+03  0.00000000000E+00 0.  1.
         13    1    4    4    0    0 -0.60865002832E+02  0.28027251427E+03 -0.18656351136E+02  0.28741138013E+03  0.10566000000E+00 0. -1.
         -4    1    4    4    0  501 -0.25710279752E+03 -0.79324149567E+03  0.48753847816E+03  0.96593358293E+03  0.00000000000E+00 0. -1.
<mgrwt>
<rscale>  2 0.11616222E+04</rscale>
<asrwt>0</asrwt>
<pdfrwt beam="1">  1        1 0.21453738E+00 0.11616222E+04</pdfrwt>
<pdfrwt beam="2">  1       -1 0.15752561E+00 0.11616222E+04</pdfrwt>
<totfact> 0.33339150E+00</totfact>
</mgrwt>
</event>
<event>
 8    1  0.7046235E-006  0.1413989E+04  0.7818608E-02  0.8460785E-01
         -2   -1    0    0    0  501 -0.00000000000E+00  0.00000000000E+00  0.83216885854E+03  0.83216885854E+03  0.00000000000E+00 0.  1.
          2   -1    0    0  502    0  0.00000000000E+00 -0.00000000000E+00 -0.24588262184E+04  0.24588262184E+04  0.00000000000E+00 0. -1.
    9000010    2    1    2  502    0 -0.78362568438E+03 -0.60286790021E+03 -0.56248727438E+03  0.15183983222E+04  0.10057945182E+04 0.  0.
   -9000010    2    1    2    0  501  0.78362568438E+03  0.60286790021E+03 -0.10641700854E+04  0.17725967547E+04  0.10159342329E+04 0.  0.
        -13    1    3    3    0    0 -0.49240032937E+03 -0.87549783607E+03 -0.33327035067E+03  0.10583117136E+04  0.10566000000E+00 0.  1.
          4    1    3    3  502    0 -0.29122535501E+03  0.27262993586E+03 -0.22921692371E+03  0.46008660863E+03  0.00000000000E+00 0.  1.
         13    1    4    4    0    0  0.72706979013E+03  0.85559304641E+02 -0.19178567334E+03  0.75679100813E+03  0.10566000000E+00 0. -1.
         -4    1    4    4    0  501  0.56555894251E+02  0.51730859557E+03 -0.87238441210E+03  0.10158057465E+04  0.00000000000E+00 0. -1.
<mgrwt>
<rscale>  2 0.14139891E+04</rscale>
<asrwt>0</asrwt>
<pdfrwt beam="2">  1        2 0.37828095E+00 0.14139891E+04</pdfrwt>
<pdfrwt beam="1">  1       -2 0.12802598E+00 0.14139891E+04</pdfrwt>
<totfact> 0.24296999E+00</totfact>
</mgrwt>
</event>
<event>
 8    1  0.7046235E-006  0.1221024E+04  0.7818608E-02  0.8590897E-01
         -2   -1    0    0    0  501 -0.00000000000E+00  0.00000000000E+00  0.60169098757E+03  0.60169098757E+03  0.00000000000E+00 0.  1.
          2   -1    0    0  502    0  0.00000000000E+00 -0.00000000000E+00 -0.24810110036E+04  0.24810110036E+04  0.00000000000E+00 0. -1.
    9000010    2    1    2  502    0  0.19202319714E+03 -0.68166903769E+03 -0.88445234978E+03  0.15074919984E+04  0.99434932547E+03 0.  0.
   -9000010    2    1    2    0  501 -0.19202319714E+03  0.68166903769E+03 -0.99486766622E+03  0.15752099927E+04  0.99497701619E+03 0.  0.
        -13    1    3    3    0    0  0.51770232377E+03 -0.71165208921E+03 -0.53999817997E+03  0.10325029964E+04  0.10566000000E+00 0.  1.
          4    1    3    3  502    0 -0.32567912663E+03  0.29983051516E+02 -0.34445416981E+03  0.47498900198E+03  0.00000000000E+00 0.  1.
         13    1    4    4    0    0  0.27638778830E+03  0.69299543133E+03 -0.68981221394E+03  0.10161071691E+04  0.10566000000E+00 0. -1.
         -4    1    4    4    0  501 -0.46841098544E+03 -0.11326393641E+02 -0.30505545229E+03  0.55910282367E+03  0.00000000000E+00 0. -1.
<mgrwt>
<rscale>  2 0.12210243E+04</rscale>
<asrwt>0</asrwt>
<pdfrwt beam="2">  1        2 0.38169400E+00 0.12210243E+04</pdfrwt>
<pdfrwt beam="1">  1       -2 0.92567844E-01 0.12210243E+04</pdfrwt>
<totfact> 0.54560629E+00</totfact>
</mgrwt>
</event>
<event>
 8    1  0.7046235E-006  0.1161701E+04  0.7818608E-02  0.8635974E-01
          2   -1    0    0  502    0  0.00000000000E+00  0.00000000000E+00  0.25217382899E+04  0.25217382899E+04  0.00000000000E+00 0. -1.
         -2   -1    0    0    0  501 -0.00000000000E+00 -0.00000000000E+00 -0.57698129782E+03  0.57698129782E+03  0.00000000000E+00 0.  1.
    9000010    2    1    2  502    0 -0.63148633057E+03  0.17849612723E+03  0.14127947114E+04  0.18505242376E+04  0.99890700484E+03 0.  0.
   -9000010    2    1    2    0  501  0.63148633057E+03 -0.17849612723E+03  0.53196228077E+03  0.12481953502E+04  0.91889711663E+03 0.  0.
        -13    1    3    3    0    0  0.79541540933E+02  0.41807846776E+03  0.35821580360E+03  0.55626885141E+03  0.10566000000E+00 0.  1.
          4    1    3    3  502    0 -0.71102787150E+03 -0.23958234053E+03  0.10545789078E+04  0.12942553862E+04  0.00000000000E+00 0.  1.
         13    1    4    4    0    0  0.11319619655E+03  0.58756710267E+02 -0.24992726554E+03  0.28058756056E+03  0.10566000000E+00 0. -1.
         -4    1    4    4    0  501  0.51829013402E+03 -0.23725283749E+03  0.78188954631E+03  0.96760778963E+03  0.00000000000E+00 0. -1.
<mgrwt>
<rscale>  2 0.11617015E+04</rscale>
<asrwt>0</asrwt>
<pdfrwt beam="1">  1        2 0.38795973E+00 0.11617015E+04</pdfrwt>
<pdfrwt beam="2">  1       -2 0.88766355E-01 0.11617015E+04</pdfrwt>
<totfact> 0.57420586E+00</totfact>
</mgrwt>
</event>
<event>
 8    1  0.7046235E-006  0.1225299E+04  0.7818608E-02  0.8587751E-01
          2   -1    0    0  502    0  0.00000000000E+00  0.00000000000E+00  0.25848895497E+04  0.25848895497E+04  0.00000000000E+00 0.  1.
         -2   -1    0    0    0  501 -0.00000000000E+00 -0.00000000000E+00 -0.65389512802E+03  0.65389512802E+03  0.00000000000E+00 0. -1.
    9000010    2    1    2  502    0  0.70259551452E+03  0.50407957114E+02  0.42201805661E+03  0.12930494766E+04  0.99884748071E+03 0.  0.
   -9000010    2    1    2    0  501 -0.70259551452E+03 -0.50407957114E+02  0.15089763650E+04  0.19457352011E+04  0.10063271751E+04 0.  0.
        -13    1    3    3    0    0  0.11782576670E+03 -0.36946327975E+03 -0.10394611498E+03  0.40148578102E+03  0.10566000000E+00 0.  1.
          4    1    3    3  502    0  0.58476974782E+03  0.41987123686E+03  0.52596417159E+03  0.89156369560E+03  0.00000000000E+00 0.  1.
         13    1    4    4    0    0 -0.48981583735E+03  0.17630137135E+03  0.13607798123E+03  0.53806965738E+03  0.10566000000E+00 0. -1.
         -4    1    4    4    0  501 -0.21277967718E+03 -0.22670932846E+03  0.13728983838E+04  0.14076655437E+04  0.00000000000E+00 0. -1.
<mgrwt>
<rscale>  2 0.12252992E+04</rscale>
<asrwt>0</asrwt>
<pdfrwt beam="1">  1        2 0.39767531E+00 0.12252992E+04</pdfrwt>
<pdfrwt beam="2">  1       -2 0.10059925E+00 0.12252992E+04</pdfrwt>
<totfact> 0.39098377E+00</totfact>
</mgrwt>
</event>
<event>
 8    1  0.7046235E-006  0.1204162E+04  0.7818608E-02  0.8603435E-01
         -2   -1    0    0    0  501 -0.00000000000E+00  0.00000000000E+00  0.88076572305E+03  0.88076572305E+03  0.00000000000E+00 0. -1.
          2   -1    0    0  502    0  0.00000000000E+00 -0.00000000000E+00 -0.16465027471E+04  0.16465027471E+04  0.00000000000E+00 0.  1.
    9000010    2    1    2  502    0  0.56347542765E+03 -0.35712413533E+03 -0.37831699000E+03  0.12726677010E+04  0.10156363161E+04 0.  0.
   -9000010    2    1    2    0  501 -0.56347542765E+03  0.35712413533E+03 -0.38742003407E+03  0.12546007692E+04  0.98938698276E+03 0.  0.
        -13    1    3    3    0    0 -0.30612203093E+02 -0.36293377351E+03 -0.54510020872E+03  0.65558544801E+03  0.10566000000E+00 0.  1.
          4    1    3    3  502    0  0.59408763074E+03  0.58096381813E+01  0.16678321872E+03  0.61708225298E+03  0.00000000000E+00 0.  1.
         13    1    4    4    0    0 -0.56409953976E+03  0.56988216632E+03 -0.56215804995E+03  0.97928323713E+03  0.10566000000E+00 0. -1.
         -4    1    4    4    0  501  0.62411211312E+00 -0.21275803099E+03  0.17473801587E+03  0.27531753206E+03  0.00000000000E+00 0. -1.
<mgrwt>
<rscale>  2 0.12041617E+04</rscale>
<asrwt>0</asrwt>
<pdfrwt beam="2">  1        2 0.25330811E+00 0.12041617E+04</pdfrwt>
<pdfrwt beam="1">  1       -2 0.13550242E+00 0.12041617E+04</pdfrwt>
<totfact> 0.59005960E+00</totfact>
</mgrwt>
</event>
<event>
 8    1  0.7046235E-006  0.1522633E+04  0.7818608E-02  0.8396591E-01
         -2   -1    0    0    0  501 -0.00000000000E+00  0.00000000000E+00  0.74480761253E+03  0.74480761253E+03  0.00000000000E+00 0. -1.
          2   -1    0    0  502    0  0.00000000000E+00 -0.00000000000E+00 -0.33764421044E+04  0.33764421044E+04  0.00000000000E+00 0.  1.
    9000010    2    1    2  502    0  0.29627244390E+03 -0.11070179209E+04 -0.74267958541E+03  0.16971384294E+04  0.10076903511E+04 0.  0.
   -9000010    2    1    2    0  501 -0.29627244390E+03  0.11070179209E+04 -0.18889549064E+04  0.24241112875E+04  0.99744616763E+03 0.  0.
        -13    1    3    3    0    0 -0.36647910490E+03 -0.32760511045E+03 -0.14610893981E+03  0.51281563566E+03  0.10566000000E+00 0.  1.
          4    1    3    3  502    0  0.66275154880E+03 -0.77941281049E+03 -0.59657064560E+03  0.11843227937E+04  0.00000000000E+00 0.  1.
         13    1    4    4    0    0 -0.25143096406E+03 -0.75571234353E+02 -0.10381199148E+03  0.28232159303E+03  0.10566000000E+00 0. -1.
         -4    1    4    4    0  501 -0.44841479842E+02  0.11825891553E+04 -0.17851429149E+04  0.21417896945E+04  0.00000000000E+00 0. -1.
<mgrwt>
<rscale>  2 0.15226335E+04</rscale>
<asrwt>0</asrwt>
<pdfrwt beam="2">  1        2 0.51945263E+00 0.15226335E+04</pdfrwt>
<pdfrwt beam="1">  1       -2 0.11458579E+00 0.15226335E+04</pdfrwt>
<totfact> 0.87773966E-01</totfact>
</mgrwt>
</event>
<event>
 8    1  0.7046235E-006  0.1064886E+04  0.7818608E-02  0.8715905E-01
         -2   -1    0    0    0  501 -0.00000000000E+00  0.00000000000E+00  0.18482535723E+04  0.18482535723E+04  0.00000000000E+00 0.  1.
          2   -1    0    0  502    0  0.00000000000E+00 -0.00000000000E+00 -0.71061488190E+03  0.71061488190E+03  0.00000000000E+00 0. -1.
    9000010    2    1    2  502    0 -0.12771414880E+03 -0.31654794592E+03  0.10459827601E+04  0.14995569051E+04  0.10188608695E+04 0.  0.
   -9000010    2    1    2    0  501  0.12771414880E+03  0.31654794592E+03  0.91655930322E+02  0.10593115491E+04  0.99861235855E+03 0.  0.
        -13    1    3    3    0    0 -0.17170019325E+03 -0.35276838531E+02 -0.17388847244E+03  0.24690610302E+03  0.10566000000E+00 0.  1.
          4    1    3    3  502    0  0.43986044446E+02 -0.28127110739E+03  0.12198712325E+04  0.12526508020E+04  0.00000000000E+00 0.  1.
         13    1    4    4    0    0 -0.39671019281E+03 -0.24464477406E+02 -0.90788594895E+02  0.40770095396E+03  0.10566000000E+00 0. -1.
         -4    1    4    4    0  501  0.52442434161E+03  0.34101242332E+03  0.18244452522E+03  0.65161059515E+03  0.00000000000E+00 0. -1.
<mgrwt>
<rscale>  2 0.10648857E+04</rscale>
<asrwt>0</asrwt>
<pdfrwt beam="2">  1        2 0.10932537E+00 0.10648857E+04</pdfrwt>
<pdfrwt beam="1">  1       -2 0.28434670E+00 0.10648857E+04</pdfrwt>
<totfact> 0.13178245E+00</totfact>
</mgrwt>
</event>
<event>
 8    1  0.7046235E-006  0.1700107E+04  0.7818608E-02  0.8302809E-01
         -2   -1    0    0    0  501 -0.00000000000E+00  0.00000000000E+00  0.15563106115E+04  0.15563106115E+04  0.00000000000E+00 0. -1.
          2   -1    0    0  502    0  0.00000000000E+00 -0.00000000000E+00 -0.22285815996E+04  0.22285815996E+04  0.00000000000E+00 0.  1.
    9000010    2    1    2  502    0  0.67956809582E+03  0.11982387564E+04  0.43582381196E+03  0.17584888503E+04  0.10023730480E+04 0.  0.
   -9000010    2    1    2    0  501 -0.67956809582E+03 -0.11982387564E+04 -0.11080948000E+04  0.20264033607E+04  0.99037749388E+03 0.  0.
        -13    1    3    3    0    0 -0.17584059349E+03  0.20332024055E+03 -0.16496230385E+03  0.31539119739E+03  0.10566000000E+00 0.  1.
          4    1    3    3  502    0  0.85540868931E+03  0.99491851589E+03  0.60078611582E+03  0.14430976530E+04  0.00000000000E+00 0.  1.
         13    1    4    4    0    0  0.13584473036E+03 -0.72329769988E+03 -0.62892063192E+03  0.96806741802E+03  0.10566000000E+00 0. -1.
         -4    1    4    4    0  501 -0.81541282618E+03 -0.47494105656E+03 -0.47917416805E+03  0.10583359427E+04  0.00000000000E+00 0. -1.
<mgrwt>
<rscale>  2 0.17001070E+04</rscale>
<asrwt>0</asrwt>
<pdfrwt beam="2">  1        2 0.34285871E+00 0.17001070E+04</pdfrwt>
<pdfrwt beam="1">  1       -2 0.23943240E+00 0.17001070E+04</pdfrwt>
<totfact> 0.35978889E-01</totfact>
</mgrwt>
</event>
<event>
 8    1  0.7046235E-006  0.1056699E+04  0.7818608E-02  0.8723068E-01
         -1   -1    0    0    0  501 -0.00000000000E+00  0.00000000000E+00  0.33099883582E+04  0.33099883582E+04  0.00000000000E+00 0.  1.
          1   -1    0    0  502    0  0.00000000000E+00 -0.00000000000E+00 -0.36338318532E+03  0.36338318532E+03  0.00000000000E+00 0. -1.
    9000010    2    1    2  502    0  0.20552093235E+03 -0.17257290928E+03  0.19971833163E+04  0.22722092728E+04  0.10498445208E+04 0.  0.
   -9000010    2    1    2    0  501 -0.20552093235E+03  0.17257290928E+03  0.94942185658E+03  0.14011622707E+04  0.99490380662E+03 0.  0.
        -13    1    3    3    0    0  0.47130350264E+03  0.28488519616E+03  0.92313083951E+03  0.10749219156E+04  0.10566000000E+00 0.  1.
          4    1    3    3  502    0 -0.26578257029E+03 -0.45745810544E+03  0.10740524768E+04  0.11972873572E+04  0.00000000000E+00 0.  1.
         13    1    4    4    0    0 -0.43325420935E+03  0.44157422105E+03  0.81670017668E+03  0.10245468229E+04  0.10566000000E+00 0. -1.
         -4    1    4    4    0  501  0.22773327700E+03 -0.26900131177E+03  0.13272167990E+03  0.37661544777E+03  0.00000000000E+00 0. -1.
<mgrwt>
<rscale>  2 0.10566986E+04</rscale>
<asrwt>0</asrwt>
<pdfrwt beam="2">  1        1 0.55905108E-01 0.10566986E+04</pdfrwt>
<pdfrwt beam="1">  1       -1 0.50922896E+00 0.10566986E+04</pdfrwt>
<totfact> 0.85537100E-01</totfact>
</mgrwt>
</event>
<event>
 8    1  0.7046235E-006  0.1178870E+04  0.7818608E-02  0.8622646E-01
         -1   -1    0    0    0  501 -0.00000000000E+00  0.00000000000E+00  0.13223652687E+04  0.13223652687E+04  0.00000000000E+00 0. -1.
          1   -1    0    0  502    0  0.00000000000E+00 -0.00000000000E+00 -0.10528744444E+04  0.10528744444E+04  0.00000000000E+00 0.  1.
    9000010    2    1    2  502    0  0.47791440156E+03  0.41595402867E+03  0.83631928441E+02  0.11778764486E+04  0.98943352460E+03 0.  0.
   -9000010    2    1    2    0  501 -0.47791440156E+03 -0.41595402867E+03  0.18585889586E+03  0.11973632644E+04  0.99885701106E+03 0.  0.
        -13    1    3    3    0    0  0.64048885341E+03  0.61342167022E+03  0.17928389562E+03  0.90479547039E+03  0.10566000000E+00 0.  1.
          4    1    3    3  502    0 -0.16257445185E+03 -0.19746764155E+03 -0.95651967183E+02  0.27308097825E+03  0.00000000000E+00 0.  1.
         13    1    4    4    0    0 -0.10315817303E+02  0.27070922494E+03 -0.14005164764E+03  0.30496618784E+03  0.10566000000E+00 0. -1.
         -4    1    4    4    0  501 -0.46759858426E+03 -0.68666325361E+03  0.32591054351E+03  0.89239707654E+03  0.00000000000E+00 0. -1.
<mgrwt>
<rscale>  2 0.11788704E+04</rscale>
<asrwt>0</asrwt>
<pdfrwt beam="2">  1        1 0.16198068E+00 0.11788704E+04</pdfrwt>
<pdfrwt beam="1">  1       -1 0.20344081E+00 0.11788704E+04</pdfrwt>
<totfact> 0.24084270E+00</totfact>
</mgrwt>
</event>
<event>
 8    1  0.7046235E-006  0.1190728E+04  0.7818608E-02  0.8613577E-01
          2   -1    0    0  502    0  0.00000000000E+00  0.00000000000E+00  0.38899096509E+04  0.38899096509E+04  0.00000000000E+00 0.  1.
         -2   -1    0    0    0  501 -0.00000000000E+00 -0.00000000000E+00 -0.36566722390E+03  0.36566722390E+03  0.00000000000E+00 0. -1.
    9000010    2    1    2  502    0  0.14913795755E+03  0.62911219974E+03  0.16461673400E+04  0.20335190874E+04  0.10036476860E+04 0.  0.
   -9000010    2    1    2    0  501 -0.14913795755E+03 -0.62911219974E+03  0.18780750871E+04  0.22220577874E+04  0.99616790131E+03 0.  0.
        -13    1    3    3    0    0  0.57249516616E+03  0.43651344110E+03  0.11181041127E+04  0.13298313869E+04  0.10566000000E+00 0.  1.
          4    1    3    3  502    0 -0.42335720861E+03  0.19259875864E+03  0.52806322722E+03  0.70368770051E+03  0.00000000000E+00 0.  1.
         13    1    4    4    0    0 -0.91811285737E+02 -0.77379538098E+03  0.74404969584E+03  0.10774036221E+04  0.10566000000E+00 0. -1.
         -4    1    4    4    0  501 -0.57326671816E+02  0.14468318124E+03  0.11340253912E+04  0.11446541653E+04  0.00000000000E+00 0. -1.
<mgrwt>
<rscale>  2 0.11907284E+04</rscale>
<asrwt>0</asrwt>
<pdfrwt beam="1">  1        2 0.59844761E+00 0.11907284E+04</pdfrwt>
<pdfrwt beam="2">  1       -2 0.56256499E-01 0.11907284E+04</pdfrwt>
<totfact> 0.17737124E+00</totfact>
</mgrwt>
</event>
<event>
 8    1  0.7046235E-006  0.1320638E+04  0.7818608E-02  0.8520865E-01
          2   -1    0    0  502    0  0.00000000000E+00  0.00000000000E+00  0.25570595016E+04  0.25570595016E+04  0.00000000000E+00 0. -1.
         -2   -1    0    0    0  501 -0.00000000000E+00 -0.00000000000E+00 -0.70215552374E+03  0.70215552374E+03  0.00000000000E+00 0.  1.
    9000010    2    1    2  502    0 -0.29732412335E+03  0.80513693984E+03  0.11995121680E+04  0.17802781230E+04  0.99695216934E+03 0.  0.
   -9000010    2    1    2    0  501  0.29732412335E+03 -0.80513693984E+03  0.65539180990E+03  0.14789369023E+04  0.10104794953E+04 0.  0.
        -13    1    3    3    0    0 -0.41106719107E+03 -0.81505196908E+02  0.43514756407E+03  0.60412974300E+03  0.10566000000E+00 0.  1.
          4    1    3    3  502    0  0.11374306772E+03  0.88664213675E+03  0.76436460390E+03  0.11761483800E+04  0.00000000000E+00 0.  1.
         13    1    4    4    0    0  0.53841069478E+03 -0.62437866368E+02  0.22053609948E+03  0.58516728015E+03  0.10566000000E+00 0. -1.
         -4    1    4    4    0  501 -0.24108657143E+03 -0.74269907348E+03  0.43485571042E+03  0.89376962219E+03  0.00000000000E+00 0. -1.
<mgrwt>
<rscale>  2 0.13206383E+04</rscale>
<asrwt>0</asrwt>
<pdfrwt beam="1">  1        2 0.39339376E+00 0.13206383E+04</pdfrwt>
<pdfrwt beam="2">  1       -2 0.10802393E+00 0.13206383E+04</pdfrwt>
<totfact> 0.33691053E+00</totfact>
</mgrwt>
</event>
<event>
 8    1  0.7046235E-006  0.2005693E+04  0.7818608E-02  0.8166078E-01
          2   -1    0    0  502    0  0.00000000000E+00  0.00000000000E+00  0.25803819307E+04  0.25803819307E+04  0.00000000000E+00 0. -1.
         -2   -1    0    0    0  501 -0.00000000000E+00 -0.00000000000E+00 -0.15591530337E+04  0.15591530337E+04  0.00000000000E+00 0.  1.
    9000010    2    1    2  502    0 -0.53758466982E+03 -0.16299364363E+04  0.51026966973E+03  0.20506082720E+04  0.99946439950E+03 0.  0.
   -9000010    2    1    2    0  501  0.53758466982E+03  0.16299364363E+04  0.51095922721E+03  0.20889266924E+04  0.10755674459E+04 0.  0.
        -13    1    3    3    0    0 -0.47962077175E+03 -0.16182394995E+04  0.16000461238E+03  0.16953868732E+04  0.10566000000E+00 0.  1.
          4    1    3    3  502    0 -0.57963898070E+02 -0.11696936752E+02  0.35026505735E+03  0.35522139886E+03  0.00000000000E+00 0.  1.
         13    1    4    4    0    0  0.72418477113E+03  0.11803356647E+04  0.21867868246E+01  0.13847890299E+04  0.10566000000E+00 0. -1.
         -4    1    4    4    0  501 -0.18660010131E+03  0.44960077162E+03  0.50877244038E+03  0.70413766250E+03  0.00000000000E+00 0. -1.
<mgrwt>
<rscale>  2 0.20056925E+04</rscale>
<asrwt>0</asrwt>
<pdfrwt beam="1">  1        2 0.39698184E+00 0.20056925E+04</pdfrwt>
<pdfrwt beam="2">  1       -2 0.23986970E+00 0.20056925E+04</pdfrwt>
<totfact> 0.22010250E-01</totfact>
</mgrwt>
</event>
<event>
 8    1  0.7046235E-006  0.1180056E+04  0.7818608E-02  0.8621734E-01
          2   -1    0    0  502    0  0.00000000000E+00  0.00000000000E+00  0.17114100446E+04  0.17114100446E+04  0.00000000000E+00 0. -1.
         -2   -1    0    0    0  501 -0.00000000000E+00 -0.00000000000E+00 -0.81450908800E+03  0.81450908800E+03  0.00000000000E+00 0.  1.
    9000010    2    1    2  502    0 -0.10810868266E+03  0.61705835132E+03  0.48887513167E+03  0.12773484519E+04  0.10000858348E+04 0.  0.
   -9000010    2    1    2    0  501  0.10810868266E+03 -0.61705835132E+03  0.40802582491E+03  0.12485706807E+04  0.99999758730E+03 0.  0.
        -13    1    3    3    0    0 -0.38690801156E+03  0.99559475742E+02  0.55714001170E+03  0.68557632866E+03  0.10566000000E+00 0.  1.
          4    1    3    3  502    0  0.27879932889E+03  0.51749887558E+03 -0.68264880034E+02  0.59177212326E+03  0.00000000000E+00 0.  1.
         13    1    4    4    0    0  0.48071988869E+03 -0.56198830373E+03  0.45606619495E+03  0.86886066216E+03  0.10566000000E+00 0. -1.
         -4    1    4    4    0  501 -0.37261120602E+03 -0.55070047587E+02 -0.48040370040E+02  0.37971001850E+03  0.00000000000E+00 0. -1.
<mgrwt>
<rscale>  2 0.11800559E+04</rscale>
<asrwt>0</asrwt>
<pdfrwt beam="1">  1        2 0.26329385E+00 0.11800559E+04</pdfrwt>
<pdfrwt beam="2">  1       -2 0.12530909E+00 0.11800559E+04</pdfrwt>
<totfact> 0.67792668E+00</totfact>
</mgrwt>
</event>
<event>
 8    1  0.7046235E-006  0.1217734E+04  0.7818608E-02  0.8593327E-01
          1   -1    0    0  502    0  0.00000000000E+00  0.00000000000E+00  0.22387791000E+04  0.22387791000E+04  0.00000000000E+00 0.  1.
         -1   -1    0    0    0  501 -0.00000000000E+00 -0.00000000000E+00 -0.89619917967E+03  0.89619917967E+03  0.00000000000E+00 0. -1.
    9000010    2    1    2  502    0 -0.34753792362E+03 -0.55247092399E+03 -0.12823901091E+03  0.12272746925E+04  0.10313831473E+04 0.  0.
   -9000010    2    1    2    0  501  0.34753792362E+03  0.55247092399E+03  0.14708189313E+04  0.19077035872E+04  0.10247038196E+04 0.  0.
        -13    1    3    3    0    0 -0.30154456694E+03  0.15468016254E+03 -0.34758489292E+03  0.48545890401E+03  0.10566000000E+00 0.  1.
          4    1    3    3  502    0 -0.45993356678E+02 -0.70715108653E+03  0.21934588201E+03  0.74181578845E+03  0.00000000000E+00 0.  1.
         13    1    4    4    0    0 -0.23744998360E+03 -0.14659638579E+03  0.19808652544E+03  0.34221525063E+03  0.10566000000E+00 0. -1.
         -4    1    4    4    0  501  0.58498790722E+03  0.69906730978E+03  0.12727324058E+04  0.15654883366E+04  0.00000000000E+00 0. -1.
<mgrwt>
<rscale>  2 0.12177337E+04</rscale>
<asrwt>0</asrwt>
<pdfrwt beam="1">  1        1 0.34442755E+00 0.12177337E+04</pdfrwt>
<pdfrwt beam="2">  1       -1 0.13787680E+00 0.12177337E+04</pdfrwt>
<totfact> 0.11194580E+00</totfact>
</mgrwt>
</event>
<event>
 8    1  0.7046235E-006  0.1231840E+04  0.7818608E-02  0.8582964E-01
          2   -1    0    0  502    0  0.00000000000E+00  0.00000000000E+00  0.10331445325E+04  0.10331445325E+04  0.00000000000E+00 0.  1.
         -2   -1    0    0    0  501 -0.00000000000E+00 -0.00000000000E+00 -0.15272305598E+04  0.15272305598E+04  0.00000000000E+00 0. -1.
    9000010    2    1    2  502    0 -0.47795765922E+03  0.54237028755E+03  0.42700821291E+01  0.12274930250E+04  0.99202411267E+03 0.  0.
   -9000010    2    1    2    0  501  0.47795765922E+03 -0.54237028755E+03 -0.49835610937E+03  0.13328820673E+04  0.10027994519E+04 0.  0.
        -13    1    3    3    0    0 -0.25416157843E+02 -0.18802923227E+03  0.26829897506E+03  0.32861120560E+03  0.10566000000E+00 0.  1.
          4    1    3    3  502    0 -0.45254150138E+03  0.73039951982E+03 -0.26402889293E+03  0.89888181944E+03  0.00000000000E+00 0.  1.
         13    1    4    4    0    0  0.77565201186E+03 -0.50656818141E+03 -0.30169908385E+03  0.97430473379E+03  0.10566000000E+00 0. -1.
         -4    1    4    4    0  501 -0.29769435264E+03 -0.35802106136E+02 -0.19665702552E+03  0.35857733348E+03  0.00000000000E+00 0. -1.
<mgrwt>
<rscale>  2 0.12318402E+04</rscale>
<asrwt>0</asrwt>
<pdfrwt beam="1">  1        2 0.15894531E+00 0.12318402E+04</pdfrwt>
<pdfrwt beam="2">  1       -2 0.23495855E+00 0.12318402E+04</pdfrwt>
<totfact> 0.18956036E+00</totfact>
</mgrwt>
</event>
<event>
 8    1  0.7046235E-006  0.1268842E+04  0.7818608E-02  0.8556450E-01
         -2   -1    0    0    0  501 -0.00000000000E+00  0.00000000000E+00  0.46423164298E+03  0.46423164298E+03  0.00000000000E+00 0. -1.
          2   -1    0    0  502    0  0.00000000000E+00 -0.00000000000E+00 -0.34697810165E+04  0.34697810165E+04  0.00000000000E+00 0.  1.
    9000010    2    1    2  502    0 -0.73253594107E+03 -0.25713635382E+03 -0.15453995675E+04  0.19986314465E+04  0.10017683497E+04 0.  0.
   -9000010    2    1    2    0  501  0.73253594107E+03  0.25713635382E+03 -0.14601498061E+04  0.19353812130E+04  0.10054526215E+04 0.  0.
        -13    1    3    3    0    0 -0.64299244124E+03  0.11127550881E+03 -0.14751545540E+04  0.16130413782E+04  0.10566000000E+00 0.  1.
          4    1    3    3  502    0 -0.89543499830E+02 -0.36841186263E+03 -0.70245013486E+02  0.38559006835E+03  0.00000000000E+00 0.  1.
         13    1    4    4    0    0  0.83531698276E+03 -0.94093152255E+02 -0.70841268129E+03  0.10992981948E+04  0.10566000000E+00 0. -1.
         -4    1    4    4    0  501 -0.10278104169E+03  0.35122950608E+03 -0.75173712479E+03  0.83608301816E+03  0.00000000000E+00 0. -1.
<mgrwt>
<rscale>  2 0.12688425E+04</rscale>
<asrwt>0</asrwt>
<pdfrwt beam="2">  1        2 0.53381245E+00 0.12688425E+04</pdfrwt>
<pdfrwt beam="1">  1       -2 0.71420254E-01 0.12688425E+04</pdfrwt>
<totfact> 0.23300189E+00</totfact>
</mgrwt>
</event>
<event>
 8    1  0.7046235E-006  0.1190986E+04  0.7818608E-02  0.8613381E-01
          4   -1    0    0  502    0  0.00000000000E+00  0.00000000000E+00  0.17878542553E+04  0.17878542553E+04  0.00000000000E+00 0. -1.
         -4   -1    0    0    0  501 -0.00000000000E+00 -0.00000000000E+00 -0.82400318671E+03  0.82400318671E+03  0.00000000000E+00 0.  1.
    9000010    2    1    2  502    0  0.69188695744E+02  0.64460621291E+03  0.22778089521E+03  0.12063300373E+04  0.99148564152E+03 0.  0.
   -9000010    2    1    2    0  501 -0.69188695744E+02 -0.64460621291E+03  0.73607017339E+03  0.14055274047E+04  0.10066795617E+04 0.  0.
        -13    1    3    3    0    0 -0.32680979463E+03  0.40376658960E+03 -0.21792247208E+03  0.56331369214E+03  0.10566000000E+00 0.  1.
          4    1    3    3  502    0  0.39599849038E+03  0.24083962331E+03  0.44570336729E+03  0.64301634517E+03  0.00000000000E+00 0.  1.
         13    1    4    4    0    0 -0.86146347453E+01 -0.18470875566E+03  0.89598539642E+03  0.91486686360E+03  0.10566000000E+00 0. -1.
         -4    1    4    4    0  501 -0.60574060999E+02 -0.45989745725E+03 -0.15991522303E+03  0.49066054111E+03  0.00000000000E+00 0. -1.
<mgrwt>
<rscale>  2 0.11909856E+04</rscale>
<asrwt>0</asrwt>
<pdfrwt beam="1">  1        4 0.27505450E+00 0.11909856E+04</pdfrwt>
<pdfrwt beam="2">  1       -4 0.12676972E+00 0.11909856E+04</pdfrwt>
<totfact> 0.22838232E-01</totfact>
</mgrwt>
</event>
<event>
 8    1  0.7046235E-006  0.1249403E+04  0.7818608E-02  0.8570261E-01
          2   -1    0    0  502    0  0.00000000000E+00  0.00000000000E+00  0.38651980830E+04  0.38651980830E+04  0.00000000000E+00 0. -1.
         -2   -1    0    0    0  501 -0.00000000000E+00 -0.00000000000E+00 -0.12431592784E+04  0.12431592784E+04  0.00000000000E+00 0.  1.
    9000010    2    1    2  502    0 -0.18633887446E+02 -0.77095009692E+03 -0.78968524308E+03  0.14729839417E+04  0.97538076445E+03 0.  0.
   -9000010    2    1    2    0  501  0.18633887446E+02  0.77095009692E+03  0.34117240477E+04  0.36353734197E+04  0.99064001998E+03 0.  0.
        -13    1    3    3    0    0 -0.12811259888E+03 -0.19696387075E+03 -0.85342985942E+03  0.88518367613E+03  0.10566000000E+00 0.  1.
          4    1    3    3  502    0  0.10947871143E+03 -0.57398622617E+03  0.63744616339E+02  0.58780026557E+03  0.00000000000E+00 0.  1.
         13    1    4    4    0    0 -0.10724254282E+03 -0.14276930768E+03  0.11579753939E+03  0.21282180222E+03  0.10566000000E+00 0. -1.
         -4    1    4    4    0  501  0.12587643027E+03  0.91371940460E+03  0.32959265083E+04  0.34225516175E+04  0.00000000000E+00 0. -1.
<mgrwt>
<rscale>  2 0.12494026E+04</rscale>
<asrwt>0</asrwt>
<pdfrwt beam="1">  1        2 0.59464585E+00 0.12494026E+04</pdfrwt>
<pdfrwt beam="2">  1       -2 0.19125528E+00 0.12494026E+04</pdfrwt>
<totfact> 0.79512747E-02</totfact>
</mgrwt>
</event>
<event>
 8    1  0.7046235E-006  0.1153370E+04  0.7818608E-02  0.8642528E-01
          2   -1    0    0  502    0  0.00000000000E+00  0.00000000000E+00  0.17645663257E+04  0.17645663257E+04  0.00000000000E+00 0.  1.
         -2   -1    0    0    0  501 -0.00000000000E+00 -0.00000000000E+00 -0.75523687487E+03  0.75523687487E+03  0.00000000000E+00 0. -1.
    9000010    2    1    2  502    0  0.11883511128E+03  0.59149645388E+03  0.49062338015E+03  0.12097727729E+04  0.92674107618E+03 0.  0.
   -9000010    2    1    2    0  501 -0.11883511128E+03 -0.59149645388E+03  0.51870607069E+03  0.13100304277E+04  0.10407371883E+04 0.  0.
        -13    1    3    3    0    0 -0.35662135114E+03  0.35540703359E+03  0.25732681818E+02  0.50413800660E+03  0.10566000000E+00 0.  1.
          4    1    3    3  502    0  0.47545646242E+03  0.23608942029E+03  0.46489069834E+03  0.70563476631E+03  0.00000000000E+00 0.  1.
         13    1    4    4    0    0  0.44864133944E+02  0.22028224874E+03  0.41956732028E+03  0.47599769646E+03  0.10566000000E+00 0. -1.
         -4    1    4    4    0  501 -0.16369924522E+03 -0.81177870262E+03  0.99138750404E+02  0.83403273122E+03  0.00000000000E+00 0. -1.
<mgrwt>
<rscale>  2 0.11533702E+04</rscale>
<asrwt>0</asrwt>
<pdfrwt beam="1">  1        2 0.27147174E+00 0.11533702E+04</pdfrwt>
<pdfrwt beam="2">  1       -2 0.11619029E+00 0.11533702E+04</pdfrwt>
<totfact> 0.77652863E+00</totfact>
</mgrwt>
</event>
<event>
 8    1  0.7046235E-006  0.1635978E+04  0.7818608E-02  0.8335272E-01
          2   -1    0    0  502    0  0.00000000000E+00  0.00000000000E+00  0.14113481056E+04  0.14113481056E+04  0.00000000000E+00 0. -1.
         -2   -1    0    0    0  501 -0.00000000000E+00 -0.00000000000E+00 -0.19455824376E+04  0.19455824376E+04  0.00000000000E+00 0.  1.
    9000010    2    1    2  502    0 -0.14260713927E+03  0.12801223065E+04 -0.53350366661E+03  0.17174102521E+04  0.10029067234E+04 0.  0.
   -9000010    2    1    2    0  501  0.14260713927E+03 -0.12801223065E+04 -0.73066538970E+00  0.16395202911E+04  0.10143847078E+04 0.  0.
        -13    1    3    3    0    0  0.23432858316E+03 -0.58660383648E+02 -0.74186863091E+02  0.25269473148E+03  0.10566000000E+00 0.  1.
          4    1    3    3  502    0 -0.37693572244E+03  0.13387826901E+04 -0.45931680352E+03  0.14647155206E+04  0.00000000000E+00 0.  1.
         13    1    4    4    0    0  0.20918918409E+03 -0.13415757856E+04 -0.24434851985E+03  0.13795984610E+04  0.10566000000E+00 0. -1.
         -4    1    4    4    0  501 -0.66582044812E+02  0.61453479074E+02  0.24361785446E+03  0.25992183016E+03  0.00000000000E+00 0. -1.
<mgrwt>
<rscale>  2 0.16359780E+04</rscale>
<asrwt>0</asrwt>
<pdfrwt beam="1">  1        2 0.21713048E+00 0.16359780E+04</pdfrwt>
<pdfrwt beam="2">  1       -2 0.29932037E+00 0.16359780E+04</pdfrwt>
<totfact> 0.36405427E-01</totfact>
</mgrwt>
</event>
<event>
 8    1  0.7046235E-006  0.1172278E+04  0.7818608E-02  0.8627735E-01
          2   -1    0    0  502    0  0.00000000000E+00  0.00000000000E+00  0.23045209769E+04  0.23045209769E+04  0.00000000000E+00 0. -1.
         -2   -1    0    0    0  501 -0.00000000000E+00 -0.00000000000E+00 -0.76364692298E+03  0.76364692298E+03  0.00000000000E+00 0.  1.
    9000010    2    1    2  502    0  0.54977532020E+03 -0.15552219513E+03  0.14987028265E+04  0.19156986927E+04  0.10475453512E+04 0.  0.
   -9000010    2    1    2    0  501 -0.54977532020E+03  0.15552219513E+03  0.42171227407E+02  0.11524692073E+04  0.99998340255E+03 0.  0.
        -13    1    3    3    0    0  0.30437080718E+03 -0.77135509261E+01  0.15869825260E+04  0.16159253189E+04  0.10566000000E+00 0.  1.
          4    1    3    3  502    0  0.24540451301E+03 -0.14780864420E+03 -0.88279699452E+02  0.29977337381E+03  0.00000000000E+00 0.  1.
         13    1    4    4    0    0 -0.83556907067E+03  0.20144392466E+03  0.65945556165E+02  0.86203489151E+03  0.10566000000E+00 0. -1.
         -4    1    4    4    0  501  0.28579375047E+03 -0.45921729532E+02 -0.23774328758E+02  0.29043431574E+03  0.00000000000E+00 0. -1.
<mgrwt>
<rscale>  2 0.11722784E+04</rscale>
<asrwt>0</asrwt>
<pdfrwt beam="1">  1        2 0.35454169E+00 0.11722784E+04</pdfrwt>
<pdfrwt beam="2">  1       -2 0.11748414E+00 0.11722784E+04</pdfrwt>
<totfact> 0.38221961E+00</totfact>
</mgrwt>
</event>
<event>
 8    1  0.7046235E-006  0.1198108E+04  0.7818608E-02  0.8607988E-01
          2   -1    0    0  502    0  0.00000000000E+00  0.00000000000E+00  0.15820912622E+04  0.15820912622E+04  0.00000000000E+00 0.  1.
         -2   -1    0    0    0  501 -0.00000000000E+00 -0.00000000000E+00 -0.10093464263E+04  0.10093464263E+04  0.00000000000E+00 0. -1.
    9000010    2    1    2  502    0  0.29889873665E+03  0.59293268376E+03  0.69919741148E+03  0.13908238822E+04  0.10022995704E+04 0.  0.
   -9000010    2    1    2    0  501 -0.29889873665E+03 -0.59293268376E+03 -0.12645257563E+03  0.12006138063E+04  0.99225683959E+03 0.  0.
        -13    1    3    3    0    0 -0.13701089070E+03 -0.20091296666E+03 -0.55889931053E+01  0.24324730698E+03  0.10566000000E+00 0.  1.
          4    1    3    3  502    0  0.43590962735E+03  0.79384565043E+03  0.70478640459E+03  0.11475765752E+04  0.00000000000E+00 0.  1.
         13    1    4    4    0    0  0.79419273417E+02 -0.71515867639E+03 -0.28316953117E+03  0.77326861306E+03  0.10566000000E+00 0. -1.
         -4    1    4    4    0  501 -0.37831801006E+03  0.12222599262E+03  0.15671695555E+03  0.42734519322E+03  0.00000000000E+00 0. -1.
<mgrwt>
<rscale>  2 0.11981084E+04</rscale>
<asrwt>0</asrwt>
<pdfrwt beam="1">  1        2 0.24339866E+00 0.11981084E+04</pdfrwt>
<pdfrwt beam="2">  1       -2 0.15528407E+00 0.11981084E+04</pdfrwt>
<totfact> 0.42627251E+00</totfact>
</mgrwt>
</event>
<event>
 8    1  0.7046235E-006  0.1280641E+04  0.7818608E-02  0.8548192E-01
         -2   -1    0    0    0  501 -0.00000000000E+00  0.00000000000E+00  0.54633483084E+03  0.54633483084E+03  0.00000000000E+00 0.  1.
          2   -1    0    0  502    0  0.00000000000E+00 -0.00000000000E+00 -0.34964875955E+04  0.34964875955E+04  0.00000000000E+00 0. -1.
    9000010    2    1    2  502    0  0.33157783979E+03 -0.74382634019E+03 -0.70546364479E+03  0.14537178414E+04  0.97590733177E+03 0.  0.
   -9000010    2    1    2    0  501 -0.33157783979E+03  0.74382634019E+03 -0.22446891199E+04  0.25891045849E+04  0.10008055848E+04 0.  0.
        -13    1    3    3    0    0  0.34469063854E+03 -0.93727001961E+03 -0.75696216771E+03  0.12531075215E+04  0.10566000000E+00 0.  1.
          4    1    3    3  502    0 -0.13112798749E+02  0.19344367942E+03  0.51498522921E+02  0.20061031993E+03  0.00000000000E+00 0.  1.
         13    1    4    4    0    0 -0.31377028155E+03  0.90299095583E+03 -0.12098278052E+04  0.15419234044E+04  0.10566000000E+00 0. -1.
         -4    1    4    4    0  501 -0.17807558237E+02 -0.15916461564E+03 -0.10348613147E+04  0.10471811804E+04  0.00000000000E+00 0. -1.
<mgrwt>
<rscale>  2 0.12806406E+04</rscale>
<asrwt>0</asrwt>
<pdfrwt beam="2">  1        2 0.53792116E+00 0.12806406E+04</pdfrwt>
<pdfrwt beam="1">  1       -2 0.84051514E-01 0.12806406E+04</pdfrwt>
<totfact> 0.15632582E+00</totfact>
</mgrwt>
</event>
<event>
 8    1  0.7046235E-006  0.1350443E+04  0.7818608E-02  0.8501142E-01
         -2   -1    0    0    0  501 -0.00000000000E+00  0.00000000000E+00  0.93649394316E+03  0.93649394316E+03  0.00000000000E+00 0. -1.
          2   -1    0    0  502    0  0.00000000000E+00 -0.00000000000E+00 -0.19828012714E+04  0.19828012714E+04  0.00000000000E+00 0.  1.
    9000010    2    1    2  502    0  0.94931737764E+03 -0.11551187395E+03 -0.32009195382E+03  0.13625092840E+04  0.91620205943E+03 0.  0.
   -9000010    2    1    2    0  501 -0.94931737764E+03  0.11551187395E+03 -0.72621537439E+03  0.15567859305E+04  0.99078109936E+03 0.  0.
        -13    1    3    3    0    0  0.11101884164E+04 -0.64816908006E+02 -0.14858769662E+03  0.11219616153E+04  0.10566000000E+00 0.  1.
          4    1    3    3  502    0 -0.16087103878E+03 -0.50694965939E+02 -0.17150425720E+03  0.24054766872E+03  0.00000000000E+00 0.  1.
         13    1    4    4    0    0 -0.48901867790E+03 -0.38440509736E+03 -0.94864078088E+02  0.62921041845E+03  0.10566000000E+00 0. -1.
         -4    1    4    4    0  501 -0.46029869974E+03  0.49991697131E+03 -0.63135129630E+03  0.92757551203E+03  0.00000000000E+00 0. -1.
<mgrwt>
<rscale>  2 0.13504434E+04</rscale>
<asrwt>0</asrwt>
<pdfrwt beam="2">  1        2 0.30504635E+00 0.13504434E+04</pdfrwt>
<pdfrwt beam="1">  1       -2 0.14407599E+00 0.13504434E+04</pdfrwt>
<totfact> 0.31887971E+00</totfact>
</mgrwt>
</event>
<event>
 8    1  0.7046235E-006  0.2001040E+04  0.7818608E-02  0.8167969E-01
          4   -1    0    0  502    0  0.00000000000E+00  0.00000000000E+00  0.16341400442E+04  0.16341400442E+04  0.00000000000E+00 0. -1.
         -4   -1    0    0    0  501 -0.00000000000E+00 -0.00000000000E+00 -0.29367333268E+04  0.29367333268E+04  0.00000000000E+00 0.  1.
    9000010    2    1    2  502    0  0.14280675788E+04  0.98288008492E+03 -0.15812680962E+04  0.25499621732E+04  0.99823244866E+03 0.  0.
   -9000010    2    1    2    0  501 -0.14280675788E+04 -0.98288008492E+03  0.27867481360E+03  0.20209111979E+04  0.10004959505E+04 0.  0.
        -13    1    3    3    0    0  0.80524868977E+03  0.10384410134E+04 -0.13481470155E+04  0.18826273070E+04  0.10566000000E+00 0.  1.
          4    1    3    3  502    0  0.62281888902E+03 -0.55560928475E+02 -0.23312108078E+03  0.66733486616E+03  0.00000000000E+00 0.  1.
         13    1    4    4    0    0 -0.92659381303E+03 -0.25667490366E+03  0.53709325284E+03  0.11013297753E+04  0.10566000000E+00 0. -1.
         -4    1    4    4    0  501 -0.50147376576E+03 -0.72620518126E+03 -0.25841843924E+03  0.91958142259E+03  0.00000000000E+00 0. -1.
<mgrwt>
<rscale>  2 0.20010397E+04</rscale>
<asrwt>0</asrwt>
<pdfrwt beam="1">  1        4 0.25140616E+00 0.20010397E+04</pdfrwt>
<pdfrwt beam="2">  1       -4 0.45180512E+00 0.20010397E+04</pdfrwt>
<totfact> 0.19318466E-02</totfact>
</mgrwt>
</event>
<event>
 8    1  0.7046235E-006  0.1481184E+04  0.7818608E-02  0.8420411E-01
          2   -1    0    0  502    0  0.00000000000E+00  0.00000000000E+00  0.19151125504E+04  0.19151125504E+04  0.00000000000E+00 0.  1.
         -2   -1    0    0    0  501 -0.00000000000E+00 -0.00000000000E+00 -0.11464602218E+04  0.11464602218E+04  0.00000000000E+00 0. -1.
    9000010    2    1    2  502    0 -0.60425307393E+03  0.84648433718E+03  0.40484680412E+03  0.15746204311E+04  0.11107974869E+04 0.  0.
   -9000010    2    1    2    0  501  0.60425307393E+03 -0.84648433718E+03  0.36380552452E+03  0.14869523410E+04  0.99850653197E+03 0.  0.
        -13    1    3    3    0    0  0.19914919468E+03  0.53422181135E+03  0.42711988492E+03  0.71237964086E+03  0.10566000000E+00 0.  1.
          4    1    3    3  502    0 -0.80340226861E+03  0.31226252584E+03 -0.22273080793E+02  0.86224079025E+03  0.00000000000E+00 0.  1.
         13    1    4    4    0    0 -0.16436752574E+03 -0.31643835631E+03 -0.18729401644E+03  0.40277658400E+03  0.10566000000E+00 0. -1.
         -4    1    4    4    0  501  0.76862059967E+03 -0.53004598087E+03  0.55109954096E+03  0.10841757570E+04  0.00000000000E+00 0. -1.
<mgrwt>
<rscale>  2 0.14811842E+04</rscale>
<asrwt>0</asrwt>
<pdfrwt beam="1">  1        2 0.29463270E+00 0.14811842E+04</pdfrwt>
<pdfrwt beam="2">  1       -2 0.17637850E+00 0.14811842E+04</pdfrwt>
<totfact> 0.18006351E+00</totfact>
</mgrwt>
</event>
<event>
 8    1  0.7046235E-006  0.1094925E+04  0.7818608E-02  0.8690187E-01
          2   -1    0    0  502    0  0.00000000000E+00  0.00000000000E+00  0.29175780660E+04  0.29175780660E+04  0.00000000000E+00 0.  1.
         -2   -1    0    0    0  501 -0.00000000000E+00 -0.00000000000E+00 -0.41794602431E+03  0.41794602431E+03  0.00000000000E+00 0. -1.
    9000010    2    1    2  502    0  0.41221533760E+03  0.23081366214E+03  0.14693262746E+04  0.18341051358E+04  0.99087108984E+03 0.  0.
   -9000010    2    1    2    0  501 -0.41221533760E+03 -0.23081366214E+03  0.10303057671E+04  0.15014189546E+04  0.98464840028E+03 0.  0.
        -13    1    3    3    0    0 -0.26537950659E+03  0.37608286313E+01  0.89300201417E+02  0.28002671924E+03  0.10566000000E+00 0.  1.
          4    1    3    3  502    0  0.67759484419E+03  0.22705283351E+03  0.13800260732E+04  0.15540784165E+04  0.00000000000E+00 0.  1.
         13    1    4    4    0    0 -0.43587888769E+03  0.26388912033E+03  0.22724027628E+03  0.55791220357E+03  0.10566000000E+00 0. -1.
         -4    1    4    4    0  501  0.23663550097E+02 -0.49470278247E+03  0.80306549083E+03  0.94350675098E+03  0.00000000000E+00 0. -1.
<mgrwt>
<rscale>  2 0.10949245E+04</rscale>
<asrwt>0</asrwt>
<pdfrwt beam="1">  1        2 0.44885815E+00 0.10949245E+04</pdfrwt>
<pdfrwt beam="2">  1       -2 0.64299390E-01 0.10949245E+04</pdfrwt>
<totfact> 0.68067932E+00</totfact>
</mgrwt>
</event>
<event>
 8    1  0.7046235E-006  0.1065042E+04  0.7818608E-02  0.8715769E-01
         -2   -1    0    0    0  501 -0.00000000000E+00  0.00000000000E+00  0.10414000649E+04  0.10414000649E+04  0.00000000000E+00 0.  1.
          2   -1    0    0  502    0  0.00000000000E+00 -0.00000000000E+00 -0.11245972090E+04  0.11245972090E+04  0.00000000000E+00 0. -1.
    9000010    2    1    2  502    0 -0.23791479718E+03 -0.42555583698E+03 -0.23238145071E+03  0.11198557763E+04  0.98100693164E+03 0.  0.
   -9000010    2    1    2    0  501  0.23791479718E+03  0.42555583698E+03  0.14918430665E+03  0.10461414976E+04  0.91348500507E+03 0.  0.
        -13    1    3    3    0    0 -0.24235685789E+03 -0.32700274714E+03 -0.60790791127E+03  0.73158709868E+03  0.10566000000E+00 0.  1.
          4    1    3    3  502    0  0.44420607133E+01 -0.98553089842E+02  0.37552646056E+03  0.38826867760E+03  0.00000000000E+00 0.  1.
         13    1    4    4    0    0  0.13718920088E+02 -0.28717669921E+03  0.59730808819E+02  0.29364339942E+03  0.10566000000E+00 0. -1.
         -4    1    4    4    0  501  0.22419587709E+03  0.71273253619E+03  0.89453497835E+02  0.75249809815E+03  0.00000000000E+00 0. -1.
<mgrwt>
<rscale>  2 0.10650419E+04</rscale>
<asrwt>0</asrwt>
<pdfrwt beam="2">  1        2 0.17301495E+00 0.10650419E+04</pdfrwt>
<pdfrwt beam="1">  1       -2 0.16021539E+00 0.10650419E+04</pdfrwt>
<totfact> 0.70460820E+00</totfact>
</mgrwt>
</event>
<event>
 8    1  0.7046235E-006  0.1717811E+04  0.7818608E-02  0.8294107E-01
          2   -1    0    0  502    0  0.00000000000E+00  0.00000000000E+00  0.28910267243E+04  0.28910267243E+04  0.00000000000E+00 0. -1.
         -2   -1    0    0    0  501 -0.00000000000E+00 -0.00000000000E+00 -0.10898915594E+04  0.10898915594E+04  0.00000000000E+00 0.  1.
    9000010    2    1    2  502    0  0.69009323934E+03 -0.12408508518E+04  0.38863512036E+03  0.17393338932E+04  0.92644785052E+03 0.  0.
   -9000010    2    1    2    0  501 -0.69009323934E+03  0.12408508518E+04  0.14125000445E+04  0.22415843906E+04  0.10067793645E+04 0.  0.
        -13    1    3    3    0    0  0.60471052600E+03 -0.36171706175E+03 -0.12784848483E+03  0.71614195468E+03  0.10566000000E+00 0.  1.
          4    1    3    3  502    0  0.85382713339E+02 -0.87913379008E+03  0.51648360519E+03  0.10231919385E+04  0.00000000000E+00 0.  1.
         13    1    4    4    0    0  0.50366258421E+02 -0.14235835965E+03  0.23748935691E+03  0.28143181831E+03  0.10566000000E+00 0. -1.
         -4    1    4    4    0  501 -0.74045949776E+03  0.13832092115E+04  0.11750106876E+04  0.19601525722E+04  0.00000000000E+00 0. -1.
<mgrwt>
<rscale>  2 0.17178106E+04</rscale>
<asrwt>0</asrwt>
<pdfrwt beam="1">  1        2 0.44477334E+00 0.17178106E+04</pdfrwt>
<pdfrwt beam="2">  1       -2 0.16767563E+00 0.17178106E+04</pdfrwt>
<totfact> 0.58288032E-01</totfact>
</mgrwt>
</event>
<event>
 8    1  0.7046235E-006  0.1050719E+04  0.7818608E-02  0.8728343E-01
         -4   -1    0    0    0  501 -0.00000000000E+00  0.00000000000E+00  0.17150876891E+04  0.17150876891E+04  0.00000000000E+00 0. -1.
          4   -1    0    0  502    0  0.00000000000E+00 -0.00000000000E+00 -0.64407136406E+03  0.64407136406E+03  0.00000000000E+00 0.  1.
    9000010    2    1    2  502    0  0.15604241242E+03  0.27079181934E+03  0.56054132548E+03  0.11864897013E+04  0.99793476228E+03 0.  0.
   -9000010    2    1    2    0  501 -0.15604241242E+03 -0.27079181934E+03  0.51047499960E+03  0.11726693519E+04  0.10084102537E+04 0.  0.
        -13    1    3    3    0    0  0.28321587871E+03  0.33325946943E+03 -0.14969594773E+03  0.46225749950E+03  0.10566000000E+00 0.  1.
          4    1    3    3  502    0 -0.12717346629E+03 -0.62467650090E+02  0.71023727321E+03  0.72423220178E+03  0.00000000000E+00 0.  1.
         13    1    4    4    0    0  0.27454202275E+03  0.23912424386E+03  0.63895821595E+02  0.36964363032E+03  0.10566000000E+00 0. -1.
         -4    1    4    4    0  501 -0.43058443518E+03 -0.50991606320E+03  0.44657917801E+03  0.80302572160E+03  0.00000000000E+00 0. -1.
<mgrwt>
<rscale>  2 0.10507188E+04</rscale>
<asrwt>0</asrwt>
<pdfrwt beam="2">  1        4 0.99087903E-01 0.10507188E+04</pdfrwt>
<pdfrwt beam="1">  1       -4 0.26385964E+00 0.10507188E+04</pdfrwt>
<totfact> 0.37733264E-01</totfact>
</mgrwt>
</event>
<event>
 8    1  0.7046235E-006  0.1304397E+04  0.7818608E-02  0.8531839E-01
          1   -1    0    0  502    0  0.00000000000E+00  0.00000000000E+00  0.17661808182E+04  0.17661808182E+04  0.00000000000E+00 0.  1.
         -1   -1    0    0    0  501 -0.00000000000E+00 -0.00000000000E+00 -0.97549469953E+03  0.97549469953E+03  0.00000000000E+00 0. -1.
    9000010    2    1    2  502    0  0.12598493057E+03 -0.82861469291E+03  0.23944558778E+03  0.13150007184E+04  0.98459036547E+03 0.  0.
   -9000010    2    1    2    0  501 -0.12598493057E+03  0.82861469291E+03  0.55124053090E+03  0.14266747994E+04  0.10144261177E+04 0.  0.
        -13    1    3    3    0    0 -0.11446234089E+03  0.11726163558E+02 -0.27687294292E+03  0.29982956505E+03  0.10566000000E+00 0.  1.
          4    1    3    3  502    0  0.24044727146E+03 -0.84034085646E+03  0.51631853070E+03  0.10151711533E+04  0.00000000000E+00 0.  1.
         13    1    4    4    0    0  0.15607430133E+03  0.69058318649E+03 -0.88998094595E+02  0.71357199847E+03  0.10566000000E+00 0. -1.
         -4    1    4    4    0  501 -0.28205923190E+03  0.13803150642E+03  0.64023862549E+03  0.71310280089E+03  0.00000000000E+00 0. -1.
<mgrwt>
<rscale>  2 0.13043974E+04</rscale>
<asrwt>0</asrwt>
<pdfrwt beam="1">  1        1 0.27172012E+00 0.13043974E+04</pdfrwt>
<pdfrwt beam="2">  1       -1 0.15007611E+00 0.13043974E+04</pdfrwt>
<totfact> 0.20059080E+00</totfact>
</mgrwt>
</event>
<event>
 8    1  0.7046235E-006  0.1480031E+04  0.7818608E-02  0.8421085E-01
          1   -1    0    0  502    0  0.00000000000E+00  0.00000000000E+00  0.82810670603E+03  0.82810670603E+03  0.00000000000E+00 0. -1.
         -1   -1    0    0    0  501 -0.00000000000E+00 -0.00000000000E+00 -0.27575168128E+04  0.27575168128E+04  0.00000000000E+00 0.  1.
    9000010    2    1    2  502    0  0.43803292260E+03 -0.98831531152E+03 -0.60636675098E+03  0.16045505669E+04  0.10189513673E+04 0.  0.
   -9000010    2    1    2    0  501 -0.43803292260E+03  0.98831531152E+03 -0.13230433558E+04  0.19810729519E+04  0.10027792993E+04 0.  0.
        -13    1    3    3    0    0  0.49055415097E+03 -0.30144904651E+03  0.13619573299E+03  0.59166222756E+03  0.10566000000E+00 0.  1.
          4    1    3    3  502    0 -0.52521228370E+02 -0.68686626501E+03 -0.74256248398E+03  0.10128883394E+04  0.00000000000E+00 0.  1.
         13    1    4    4    0    0 -0.31165255448E+03  0.12207790162E+03  0.64104671732E+02  0.34079282398E+03  0.10566000000E+00 0. -1.
         -4    1    4    4    0  501 -0.12638036813E+03  0.86623740990E+03 -0.13871480275E+04  0.16402801279E+04  0.00000000000E+00 0. -1.
<mgrwt>
<rscale>  2 0.14800315E+04</rscale>
<asrwt>0</asrwt>
<pdfrwt beam="1">  1        1 0.12740103E+00 0.14800315E+04</pdfrwt>
<pdfrwt beam="2">  1       -1 0.42423335E+00 0.14800315E+04</pdfrwt>
<totfact> 0.32127316E-01</totfact>
</mgrwt>
</event>
<event>
 8    1  0.7046235E-006  0.1836807E+04  0.7818608E-02  0.8238279E-01
          2   -1    0    0  502    0  0.00000000000E+00  0.00000000000E+00  0.31586056956E+04  0.31586056956E+04  0.00000000000E+00 0. -1.
         -2   -1    0    0    0  501 -0.00000000000E+00 -0.00000000000E+00 -0.10936052269E+04  0.10936052269E+04  0.00000000000E+00 0.  1.
    9000010    2    1    2  502    0  0.13780561581E+04 -0.66051086367E+03  0.70285947649E+03  0.19574234557E+04  0.10010902884E+04 0.  0.
   -9000010    2    1    2    0  501 -0.13780561581E+04  0.66051086367E+03  0.13621409923E+04  0.22947874667E+04  0.10369706162E+04 0.  0.
        -13    1    3    3    0    0  0.68469056245E+03 -0.86204202644E+03  0.36121627916E+03  0.11586176389E+04  0.10566000000E+00 0.  1.
          4    1    3    3  502    0  0.69336559562E+03  0.20153116277E+03  0.34164319732E+03  0.79880581685E+03  0.00000000000E+00 0.  1.
         13    1    4    4    0    0  0.39454231332E+02  0.24238854766E+03 -0.50090351252E+02  0.25063499129E+03  0.10566000000E+00 0. -1.
         -4    1    4    4    0  501 -0.14175103894E+04  0.41812231601E+03  0.14122313435E+04  0.20441524755E+04  0.00000000000E+00 0. -1.
<mgrwt>
<rscale>  2 0.18368071E+04</rscale>
<asrwt>0</asrwt>
<pdfrwt beam="1">  1        2 0.48593934E+00 0.18368071E+04</pdfrwt>
<pdfrwt beam="2">  1       -2 0.16824696E+00 0.18368071E+04</pdfrwt>
<totfact> 0.38677133E-01</totfact>
</mgrwt>
</event>
<event>
 8    1  0.7046235E-006  0.1067677E+04  0.7818608E-02  0.8713478E-01
         -1   -1    0    0    0  501 -0.00000000000E+00  0.00000000000E+00  0.49192192357E+03  0.49192192357E+03  0.00000000000E+00 0.  1.
          1   -1    0    0  502    0  0.00000000000E+00 -0.00000000000E+00 -0.24222636678E+04  0.24222636678E+04  0.00000000000E+00 0. -1.
    9000010    2    1    2  502    0 -0.33870952699E+03 -0.22428636481E+02 -0.63491860504E+03  0.12121855222E+04  0.97521531862E+03 0.  0.
   -9000010    2    1    2    0  501  0.33870952699E+03  0.22428636481E+02 -0.12954231392E+04  0.17020000692E+04  0.10504551103E+04 0.  0.
        -13    1    3    3    0    0 -0.38165661718E+03  0.30118814259E+03 -0.72555057981E+03  0.87338406540E+03  0.10566000000E+00 0.  1.
          4    1    3    3  502    0  0.42947090184E+02 -0.32361677907E+03  0.90631974762E+02  0.33880145676E+03  0.00000000000E+00 0.  1.
         13    1    4    4    0    0  0.24673498568E+03 -0.24238543590E+02  0.12512807816E+03  0.27770975363E+03  0.10566000000E+00 0. -1.
         -4    1    4    4    0  501  0.91974541309E+02  0.46667180071E+02 -0.14205512174E+04  0.14242903156E+04  0.00000000000E+00 0. -1.
<mgrwt>
<rscale>  2 0.10676766E+04</rscale>
<asrwt>0</asrwt>
<pdfrwt beam="2">  1        1 0.37265595E+00 0.10676766E+04</pdfrwt>
<pdfrwt beam="1">  1       -1 0.75680295E-01 0.10676766E+04</pdfrwt>
<totfact> 0.30675045E+00</totfact>
</mgrwt>
</event>
<event>
 8    1  0.7046235E-006  0.1725841E+04  0.7818608E-02  0.8290195E-01
         -2   -1    0    0    0  501 -0.00000000000E+00  0.00000000000E+00  0.84576333170E+03  0.84576333170E+03  0.00000000000E+00 0. -1.
          2   -1    0    0  502    0  0.00000000000E+00 -0.00000000000E+00 -0.35225225673E+04  0.35225225673E+04  0.00000000000E+00 0.  1.
    9000010    2    1    2  502    0 -0.29506690919E+03 -0.13935862347E+04 -0.13629620050E+04  0.21922432001E+04  0.95870628817E+03 0.  0.
   -9000010    2    1    2    0  501  0.29506690919E+03  0.13935862347E+04 -0.13137972306E+04  0.21760426989E+04  0.98992504249E+03 0.  0.
        -13    1    3    3    0    0 -0.65143978206E+02 -0.14077425499E+04 -0.13649092120E+04  0.19618766508E+04  0.10566000000E+00 0.  1.
          4    1    3    3  502    0 -0.22992293098E+03  0.14156315138E+02  0.19472070414E+01  0.23036654936E+03  0.00000000000E+00 0.  1.
         13    1    4    4    0    0  0.50255826226E+03  0.14216008485E+04 -0.10414700278E+04  0.18325320214E+04  0.10566000000E+00 0. -1.
         -4    1    4    4    0  501 -0.20749135307E+03 -0.28014613765E+02 -0.27232720280E+03  0.34351067752E+03  0.00000000000E+00 0. -1.
<mgrwt>
<rscale>  2 0.17258408E+04</rscale>
<asrwt>0</asrwt>
<pdfrwt beam="2">  1        2 0.54192656E+00 0.17258408E+04</pdfrwt>
<pdfrwt beam="1">  1       -2 0.13011743E+00 0.17258408E+04</pdfrwt>
<totfact> 0.47854761E-01</totfact>
</mgrwt>
</event>
<event>
 8    1  0.7046235E-006  0.1385792E+04  0.7818608E-02  0.8478418E-01
         -2   -1    0    0    0  501 -0.00000000000E+00  0.00000000000E+00  0.12839641991E+04  0.12839641991E+04  0.00000000000E+00 0. -1.
          2   -1    0    0  502    0  0.00000000000E+00 -0.00000000000E+00 -0.22590362233E+04  0.22590362233E+04  0.00000000000E+00 0.  1.
    9000010    2    1    2  502    0 -0.80902432038E+03  0.50248259575E+03  0.54215837682E+03  0.14883590349E+04  0.10071086342E+04 0.  0.
   -9000010    2    1    2    0  501  0.80902432038E+03 -0.50248259575E+03 -0.15172304010E+04  0.20546413875E+04  0.10062574379E+04 0.  0.
        -13    1    3    3    0    0 -0.14008643552E+03 -0.15946205074E+03 -0.19862106959E+03  0.29069347343E+03  0.10566000000E+00 0.  1.
          4    1    3    3  502    0 -0.66893788486E+03  0.66194464650E+03  0.74077944641E+03  0.11976655614E+04  0.00000000000E+00 0.  1.
         13    1    4    4    0    0  0.16197690595E+03 -0.55443294146E+03 -0.12007888151E+04  0.13324887220E+04  0.10566000000E+00 0. -1.
         -4    1    4    4    0  501  0.64704741443E+03  0.51950345703E+02 -0.31644158594E+03  0.72215266547E+03  0.00000000000E+00 0. -1.
<mgrwt>
<rscale>  2 0.13857921E+04</rscale>
<asrwt>0</asrwt>
<pdfrwt beam="2">  1        2 0.34754403E+00 0.13857921E+04</pdfrwt>
<pdfrwt beam="1">  1       -2 0.19753296E+00 0.13857921E+04</pdfrwt>
<totfact> 0.78461808E-01</totfact>
</mgrwt>
</event>
<event>
 8    1  0.7046235E-006  0.1150139E+04  0.7818608E-02  0.8645085E-01
          2   -1    0    0  502    0  0.00000000000E+00  0.00000000000E+00  0.22738346072E+04  0.22738346072E+04  0.00000000000E+00 0. -1.
         -2   -1    0    0    0  501 -0.00000000000E+00 -0.00000000000E+00 -0.72898435559E+03  0.72898435559E+03  0.00000000000E+00 0.  1.
    9000010    2    1    2  502    0 -0.45159160411E+03 -0.31893884804E+03  0.14453861609E+04  0.18451074436E+04  0.10048001587E+04 0.  0.
   -9000010    2    1    2    0  501  0.45159160411E+03  0.31893884804E+03  0.99464090732E+02  0.11577115191E+04  0.10122973330E+04 0.  0.
        -13    1    3    3    0    0 -0.16280543968E+03 -0.91925946681E+02  0.14653544336E+04  0.14772337723E+04  0.10566000000E+00 0.  1.
          4    1    3    3  502    0 -0.28878616443E+03 -0.22701290136E+03 -0.19968272725E+02  0.36787367134E+03  0.00000000000E+00 0.  1.
         13    1    4    4    0    0  0.25932923348E+03  0.34680411743E+02  0.53955005366E+03  0.59964043715E+03  0.10566000000E+00 0. -1.
         -4    1    4    4    0  501  0.19226237062E+03  0.28425843630E+03 -0.44008596293E+03  0.55807108197E+03  0.00000000000E+00 0. -1.
<mgrwt>
<rscale>  2 0.11501391E+04</rscale>
<asrwt>0</asrwt>
<pdfrwt beam="1">  1        2 0.34982071E+00 0.11501391E+04</pdfrwt>
<pdfrwt beam="2">  1       -2 0.11215144E+00 0.11501391E+04</pdfrwt>
<totfact> 0.44895336E+00</totfact>
</mgrwt>
</event>
<event>
 8    1  0.7046235E-006  0.1140614E+04  0.7818608E-02  0.8652675E-01
          2   -1    0    0  502    0  0.00000000000E+00  0.00000000000E+00  0.77430218399E+03  0.77430218399E+03  0.00000000000E+00 0.  1.
         -2   -1    0    0    0  501 -0.00000000000E+00 -0.00000000000E+00 -0.16807882273E+04  0.16807882273E+04  0.00000000000E+00 0. -1.
    9000010    2    1    2  502    0  0.46086384512E+03 -0.30917610871E+03 -0.47678212524E+03  0.12393491274E+04  0.10003397996E+04 0.  0.
   -9000010    2    1    2    0  501 -0.46086384512E+03  0.30917610871E+03 -0.42970391808E+03  0.12157412839E+04  0.99267117527E+03 0.  0.
        -13    1    3    3    0    0 -0.83997526343E+01 -0.43777743450E+03  0.13450933720E+03  0.45805284735E+03  0.10566000000E+00 0.  1.
          4    1    3    3  502    0  0.46926359775E+03  0.12860132579E+03 -0.61129146244E+03  0.78129628005E+03  0.00000000000E+00 0.  1.
         13    1    4    4    0    0 -0.22209579435E+03  0.66781205368E+03 -0.22606113959E+03  0.73919086230E+03  0.10566000000E+00 0. -1.
         -4    1    4    4    0  501 -0.23876805077E+03 -0.35863594497E+03 -0.20364277849E+03  0.47655042160E+03  0.00000000000E+00 0. -1.
<mgrwt>
<rscale>  2 0.11406142E+04</rscale>
<asrwt>0</asrwt>
<pdfrwt beam="1">  1        2 0.11912341E+00 0.11406142E+04</pdfrwt>
<pdfrwt beam="2">  1       -2 0.25858280E+00 0.11406142E+04</pdfrwt>
<totfact> 0.18442512E+00</totfact>
</mgrwt>
</event>
<event>
 8    1  0.7046235E-006  0.1338923E+04  0.7818608E-02  0.8508703E-01
          4   -1    0    0  502    0  0.00000000000E+00  0.00000000000E+00  0.14936970477E+04  0.14936970477E+04  0.00000000000E+00 0.  1.
         -4   -1    0    0    0  501 -0.00000000000E+00 -0.00000000000E+00 -0.12104093935E+04  0.12104093935E+04  0.00000000000E+00 0. -1.
    9000010    2    1    2  502    0  0.88950945992E+03 -0.65912200404E+01  0.26636133072E+03  0.13706628513E+04  0.10082151407E+04 0.  0.
   -9000010    2    1    2    0  501 -0.88950945992E+03  0.65912200404E+01  0.16926323487E+02  0.13334435900E+04  0.99323450595E+03 0.  0.
        -13    1    3    3    0    0  0.10473872746E+04  0.63493237133E+02 -0.46071366088E+01  0.10493201280E+04  0.10566000000E+00 0.  1.
          4    1    3    3  502    0 -0.15787781468E+03 -0.70084457174E+02  0.27096846733E+03  0.32134272326E+03  0.00000000000E+00 0.  1.
         13    1    4    4    0    0 -0.10038960351E+04  0.27378479585E+03 -0.17912552138E+02  0.10407142905E+04  0.10566000000E+00 0. -1.
         -4    1    4    4    0  501  0.11438657519E+03 -0.26719357581E+03  0.34838875625E+02  0.29272929951E+03  0.00000000000E+00 0. -1.
<mgrwt>
<rscale>  2 0.13389227E+04</rscale>
<asrwt>0</asrwt>
<pdfrwt beam="1">  1        4 0.22979955E+00 0.13389227E+04</pdfrwt>
<pdfrwt beam="2">  1       -4 0.18621683E+00 0.13389227E+04</pdfrwt>
<totfact> 0.16534974E-01</totfact>
</mgrwt>
</event>
<event>
 8    1  0.7046235E-006  0.1301344E+04  0.7818608E-02  0.8533921E-01
          1   -1    0    0  502    0  0.00000000000E+00  0.00000000000E+00  0.30127990015E+04  0.30127990015E+04  0.00000000000E+00 0. -1.
         -1   -1    0    0    0  501 -0.00000000000E+00 -0.00000000000E+00 -0.13961557844E+04  0.13961557844E+04  0.00000000000E+00 0.  1.
    9000010    2    1    2  502    0 -0.81949666246E+03 -0.13724026898E+03  0.25120913721E+04  0.28289702116E+04  0.10010293330E+04 0.  0.
   -9000010    2    1    2    0  501  0.81949666246E+03  0.13724026898E+03 -0.89544815502E+03  0.15799845743E+04  0.10020549813E+04 0.  0.
        -13    1    3    3    0    0 -0.39811024323E+03 -0.52658039948E+03  0.88777457038E+03  0.11063102557E+04  0.10566000000E+00 0.  1.
          4    1    3    3  502    0 -0.42138641923E+03  0.38934013049E+03  0.16243168017E+04  0.17226599560E+04  0.00000000000E+00 0.  1.
         13    1    4    4    0    0  0.59724853890E+03  0.54331634493E+03 -0.39697806352E+03  0.89971665649E+03  0.10566000000E+00 0. -1.
         -4    1    4    4    0  501  0.22224812356E+03 -0.40607607595E+03 -0.49847009149E+03  0.68026791780E+03  0.00000000000E+00 0. -1.
<mgrwt>
<rscale>  2 0.13013440E+04</rscale>
<asrwt>0</asrwt>
<pdfrwt beam="1">  1        1 0.46350754E+00 0.13013440E+04</pdfrwt>
<pdfrwt beam="2">  1       -1 0.21479320E+00 0.13013440E+04</pdfrwt>
<totfact> 0.43179657E-02</totfact>
</mgrwt>
</event>
<event>
 8    1  0.7046235E-006  0.1015839E+04  0.7818608E-02  0.8759851E-01
         -2   -1    0    0    0  501 -0.00000000000E+00  0.00000000000E+00  0.57914298905E+03  0.57914298905E+03  0.00000000000E+00 0. -1.
          2   -1    0    0  502    0  0.00000000000E+00 -0.00000000000E+00 -0.18353718259E+04  0.18353718259E+04  0.00000000000E+00 0.  1.
    9000010    2    1    2  502    0  0.20595174311E+01  0.23519780108E+03 -0.84902779328E+03  0.13469780892E+04  0.10189109538E+04 0.  0.
   -9000010    2    1    2    0  501 -0.20595174311E+01 -0.23519780108E+03 -0.40720104354E+03  0.10675367257E+04  0.95838391242E+03 0.  0.
        -13    1    3    3    0    0  0.50477100332E+03  0.51776156017E+02 -0.36101126858E+03  0.62273885645E+03  0.10566000000E+00 0.  1.
          4    1    3    3  502    0 -0.50271148589E+03  0.18342164507E+03 -0.48801652470E+03  0.72423923278E+03  0.00000000000E+00 0.  1.
         13    1    4    4    0    0  0.29447910658E+03  0.26949938228E+02  0.18970486343E+03  0.35132917578E+03  0.10566000000E+00 0. -1.
         -4    1    4    4    0  501 -0.29653862401E+03 -0.26214773931E+03 -0.59690590697E+03  0.71620754990E+03  0.00000000000E+00 0. -1.
<mgrwt>
<rscale>  2 0.10158387E+04</rscale>
<asrwt>0</asrwt>
<pdfrwt beam="2">  1        2 0.28236489E+00 0.10158387E+04</pdfrwt>
<pdfrwt beam="1">  1       -2 0.89098923E-01 0.10158387E+04</pdfrwt>
<totfact> 0.13745339E+01</totfact>
</mgrwt>
</event>
<event>
 8    1  0.7046235E-006  0.1115505E+04  0.7818608E-02  0.8673059E-01
          2   -1    0    0  502    0  0.00000000000E+00  0.00000000000E+00  0.16753595138E+04  0.16753595138E+04  0.00000000000E+00 0. -1.
         -2   -1    0    0    0  501 -0.00000000000E+00 -0.00000000000E+00 -0.74660267547E+03  0.74660267547E+03  0.00000000000E+00 0.  1.
    9000010    2    1    2  502    0  0.41355571047E+03  0.17463658860E+03  0.54556768832E+03  0.12310647186E+04  0.10081418428E+04 0.  0.
   -9000010    2    1    2    0  501 -0.41355571047E+03 -0.17463658860E+03  0.38318915002E+03  0.11908974707E+04  0.10343483926E+04 0.  0.
        -13    1    3    3    0    0  0.41035867157E+03 -0.34522404478E+03  0.98138468629E+02  0.54516515902E+03  0.10566000000E+00 0.  1.
          4    1    3    3  502    0  0.31970388981E+01  0.51986063338E+03  0.44742921969E+03  0.68589955958E+03  0.00000000000E+00 0.  1.
         13    1    4    4    0    0 -0.68563276841E+03  0.14121158276E+03  0.31833673794E+03  0.76900669315E+03  0.10566000000E+00 0. -1.
         -4    1    4    4    0  501  0.27207705794E+03 -0.31584817136E+03  0.64852412080E+02  0.42189077753E+03  0.00000000000E+00 0. -1.
<mgrwt>
<rscale>  2 0.11155052E+04</rscale>
<asrwt>0</asrwt>
<pdfrwt beam="1">  1        2 0.25774762E+00 0.11155052E+04</pdfrwt>
<pdfrwt beam="2">  1       -2 0.11486195E+00 0.11155052E+04</pdfrwt>
<totfact> 0.89840052E+00</totfact>
</mgrwt>
</event>
<event>
 8    1  0.7046235E-006  0.1579297E+04  0.7818608E-02  0.8365271E-01
          1   -1    0    0  502    0  0.00000000000E+00  0.00000000000E+00  0.12647768040E+04  0.12647768040E+04  0.00000000000E+00 0. -1.
         -1   -1    0    0    0  501 -0.00000000000E+00 -0.00000000000E+00 -0.20904410590E+04  0.20904410590E+04  0.00000000000E+00 0.  1.
    9000010    2    1    2  502    0 -0.57467840609E+03  0.10763172728E+04 -0.81299997123E+03  0.17795806216E+04  0.10085752791E+04 0.  0.
   -9000010    2    1    2    0  501  0.57467840609E+03 -0.10763172728E+04 -0.12664283784E+02  0.15756372414E+04  0.99687420984E+03 0.  0.
        -13    1    3    3    0    0 -0.76082956096E+03  0.11476322443E+04 -0.65275693292E+03  0.15238152820E+04  0.10566000000E+00 0.  1.
          4    1    3    3  502    0  0.18615115487E+03 -0.71314971544E+02 -0.16024303831E+03  0.25576533962E+03  0.00000000000E+00 0.  1.
         13    1    4    4    0    0 -0.23981965864E+03 -0.42254498087E+03 -0.17952907423E+03  0.51796566410E+03  0.10566000000E+00 0. -1.
         -4    1    4    4    0  501  0.81449806473E+03 -0.65377229194E+03  0.16686479045E+03  0.10576715773E+04  0.00000000000E+00 0. -1.
<mgrwt>
<rscale>  2 0.15792966E+04</rscale>
<asrwt>0</asrwt>
<pdfrwt beam="1">  1        1 0.19458105E+00 0.15792966E+04</pdfrwt>
<pdfrwt beam="2">  1       -1 0.32160631E+00 0.15792966E+04</pdfrwt>
<totfact> 0.13686480E-01</totfact>
</mgrwt>
</event>
<event>
 8    1  0.7046235E-006  0.1369923E+04  0.7818608E-02  0.8488532E-01
         -2   -1    0    0    0  501 -0.00000000000E+00  0.00000000000E+00  0.73441966089E+03  0.73441966089E+03  0.00000000000E+00 0.  1.
          2   -1    0    0  502    0  0.00000000000E+00 -0.00000000000E+00 -0.32308015120E+04  0.32308015120E+04  0.00000000000E+00 0. -1.
    9000010    2    1    2  502    0 -0.89604303708E+03 -0.25596065328E+03 -0.34600668107E+03  0.14187549951E+04  0.10122925133E+04 0.  0.
   -9000010    2    1    2    0  501  0.89604303708E+03  0.25596065328E+03 -0.21503751701E+04  0.25464661778E+04  0.99597572379E+03 0.  0.
        -13    1    3    3    0    0 -0.89510790942E+03 -0.60908345124E+02  0.12792658658E+03  0.90625229309E+03  0.10566000000E+00 0.  1.
          4    1    3    3  502    0 -0.93512765535E+00 -0.19505230816E+03 -0.47393326766E+03  0.51250270201E+03  0.00000000000E+00 0.  1.
         13    1    4    4    0    0  0.10333301542E+04  0.27342796545E+03 -0.12912417852E+04  0.16762575634E+04  0.10566000000E+00 0. -1.
         -4    1    4    4    0  501 -0.13728711716E+03 -0.17467312173E+02 -0.85913338490E+03  0.87020861441E+03  0.00000000000E+00 0. -1.
<mgrwt>
<rscale>  2 0.13699231E+04</rscale>
<asrwt>0</asrwt>
<pdfrwt beam="2">  1        2 0.49704638E+00 0.13699231E+04</pdfrwt>
<pdfrwt beam="1">  1       -2 0.11298764E+00 0.13699231E+04</pdfrwt>
<totfact> 0.11643319E+00</totfact>
</mgrwt>
</event>
<event>
 8    1  0.7046235E-006  0.1191819E+04  0.7818608E-02  0.8612749E-01
          1   -1    0    0  502    0  0.00000000000E+00  0.00000000000E+00  0.21542044822E+04  0.21542044822E+04  0.00000000000E+00 0. -1.
         -1   -1    0    0    0  501 -0.00000000000E+00 -0.00000000000E+00 -0.67158215262E+03  0.67158215262E+03  0.00000000000E+00 0.  1.
    9000010    2    1    2  502    0  0.20800041924E+03 -0.59895666435E+03  0.92934720707E+03  0.15082571464E+04  0.10045596689E+04 0.  0.
   -9000010    2    1    2    0  501 -0.20800041924E+03  0.59895666435E+03  0.55327512255E+03  0.13175294884E+04  0.10137836710E+04 0.  0.
        -13    1    3    3    0    0  0.50665179174E+03 -0.69721909522E+03  0.77023879676E+03  0.11558885413E+04  0.10566000000E+00 0.  1.
          4    1    3    3  502    0 -0.29865137251E+03  0.98262430866E+02  0.15910841030E+03  0.35236860509E+03  0.00000000000E+00 0.  1.
         13    1    4    4    0    0 -0.57329083001E+03  0.58948414161E+03  0.31118733384E+03  0.87919934992E+03  0.10566000000E+00 0. -1.
         -4    1    4    4    0  501  0.36529041078E+03  0.94725227424E+01  0.24208778871E+03  0.43833013852E+03  0.00000000000E+00 0. -1.
<mgrwt>
<rscale>  2 0.11918186E+04</rscale>
<asrwt>0</asrwt>
<pdfrwt beam="1">  1        1 0.33141607E+00 0.11918186E+04</pdfrwt>
<pdfrwt beam="2">  1       -1 0.10332033E+00 0.11918186E+04</pdfrwt>
<totfact> 0.26779406E+00</totfact>
</mgrwt>
</event>
<event>
 8    1  0.7046235E-006  0.1244645E+04  0.7818608E-02  0.8573681E-01
          2   -1    0    0  502    0  0.00000000000E+00  0.00000000000E+00  0.21694048131E+04  0.21694048131E+04  0.00000000000E+00 0.  1.
         -2   -1    0    0    0  501 -0.00000000000E+00 -0.00000000000E+00 -0.75542774986E+03  0.75542774986E+03  0.00000000000E+00 0. -1.
    9000010    2    1    2  502    0 -0.12737071555E+03 -0.73836138207E+03  0.10505198497E+04  0.16307635776E+04  0.99719459564E+03 0.  0.
   -9000010    2    1    2    0  501  0.12737071555E+03  0.73836138207E+03  0.36345721358E+03  0.12940689854E+04  0.99051126357E+03 0.  0.
        -13    1    3    3    0    0 -0.56604332842E+03 -0.41633327357E+03  0.56983334901E+03  0.90468143628E+03  0.10566000000E+00 0.  1.
          4    1    3    3  502    0  0.43867261287E+03 -0.32202810850E+03  0.48068650067E+03  0.72608214127E+03  0.00000000000E+00 0.  1.
         13    1    4    4    0    0 -0.34729296792E+03  0.67089616504E+03  0.15457850959E+03  0.77110868016E+03  0.10566000000E+00 0. -1.
         -4    1    4    4    0  501  0.47466368347E+03  0.67465217032E+02  0.20887870398E+03  0.52296030527E+03  0.00000000000E+00 0. -1.
<mgrwt>
<rscale>  2 0.12446451E+04</rscale>
<asrwt>0</asrwt>
<pdfrwt beam="1">  1        2 0.33375458E+00 0.12446451E+04</pdfrwt>
<pdfrwt beam="2">  1       -2 0.11621965E+00 0.12446451E+04</pdfrwt>
<totfact> 0.46249710E+00</totfact>
</mgrwt>
</event>
<event>
 8    1  0.7046235E-006  0.1220671E+04  0.7818608E-02  0.8591157E-01
          1   -1    0    0  502    0  0.00000000000E+00  0.00000000000E+00  0.96077674253E+03  0.96077674253E+03  0.00000000000E+00 0.  1.
         -1   -1    0    0    0  501 -0.00000000000E+00 -0.00000000000E+00 -0.15571511740E+04  0.15571511740E+04  0.00000000000E+00 0. -1.
    9000010    2    1    2  502    0 -0.47824452906E+03  0.51402636849E+03 -0.37883702737E+03  0.12809828623E+04  0.10022268521E+04 0.  0.
   -9000010    2    1    2    0  501  0.47824452906E+03 -0.51402636849E+03 -0.21753740412E+03  0.12369450543E+04  0.99487165402E+03 0.  0.
        -13    1    3    3    0    0 -0.19913294537E+02 -0.28642465681E+03 -0.17533108627E+03  0.33641733651E+03  0.10566000000E+00 0.  1.
          4    1    3    3  502    0 -0.45833123452E+03  0.80045102530E+03 -0.20350594109E+03  0.94456552579E+03  0.00000000000E+00 0.  1.
         13    1    4    4    0    0  0.52964601350E+03  0.14598332002E+03 -0.16113389195E+03  0.57253835823E+03  0.10566000000E+00 0. -1.
         -4    1    4    4    0  501 -0.51401484443E+02 -0.66000968852E+03 -0.56403512171E+02  0.66440669603E+03  0.00000000000E+00 0. -1.
<mgrwt>
<rscale>  2 0.12206707E+04</rscale>
<asrwt>0</asrwt>
<pdfrwt beam="1">  1        1 0.14781181E+00 0.12206707E+04</pdfrwt>
<pdfrwt beam="2">  1       -1 0.23956172E+00 0.12206707E+04</pdfrwt>
<totfact> 0.13155924E+00</totfact>
</mgrwt>
</event>
<event>
 8    1  0.7046235E-006  0.2033999E+04  0.7818608E-02  0.8154688E-01
          2   -1    0    0  502    0  0.00000000000E+00  0.00000000000E+00  0.26703702341E+04  0.26703702341E+04  0.00000000000E+00 0.  1.
         -2   -1    0    0    0  501 -0.00000000000E+00 -0.00000000000E+00 -0.15500599687E+04  0.15500599687E+04  0.00000000000E+00 0. -1.
    9000010    2    1    2  502    0  0.17475539507E+04 -0.36433824770E+03  0.51618467326E+03  0.21071096509E+04  0.99336664673E+03 0.  0.
   -9000010    2    1    2    0  501 -0.17475539507E+04  0.36433824770E+03  0.60412559207E+03  0.21133205519E+04  0.95627864922E+03 0.  0.
        -13    1    3    3    0    0  0.11623273026E+04  0.23516758026E+03  0.15953275290E+03  0.11965614316E+04  0.10566000000E+00 0.  1.
          4    1    3    3  502    0  0.58522664801E+03 -0.59950582797E+03  0.35665192036E+03  0.91054821926E+03  0.00000000000E+00 0.  1.
         13    1    4    4    0    0 -0.17969503224E+04  0.23317860546E+03  0.70106512610E+03  0.19429089134E+04  0.10566000000E+00 0. -1.
         -4    1    4    4    0  501  0.49396371788E+02  0.13115964224E+03 -0.96939534035E+02  0.17041163856E+03  0.00000000000E+00 0. -1.
<mgrwt>
<rscale>  2 0.20339991E+04</rscale>
<asrwt>0</asrwt>
<pdfrwt beam="1">  1        2 0.41082619E+00 0.20339991E+04</pdfrwt>
<pdfrwt beam="2">  1       -2 0.23847077E+00 0.20339991E+04</pdfrwt>
<totfact> 0.19964744E-01</totfact>
</mgrwt>
</event>
<event>
 8    1  0.7046235E-006  0.1192465E+04  0.7818608E-02  0.8612258E-01
          2   -1    0    0  502    0  0.00000000000E+00  0.00000000000E+00  0.31025091607E+04  0.31025091607E+04  0.00000000000E+00 0. -1.
         -2   -1    0    0    0  501 -0.00000000000E+00 -0.00000000000E+00 -0.49371097275E+03  0.49371097275E+03  0.00000000000E+00 0.  1.
    9000010    2    1    2  502    0 -0.49778490061E+03  0.40160086067E+03  0.17881561313E+04  0.21506196901E+04  0.10092520214E+04 0.  0.
   -9000010    2    1    2    0  501  0.49778490061E+03 -0.40160086067E+03  0.82064205661E+03  0.14456004434E+04  0.10036105809E+04 0.  0.
        -13    1    3    3    0    0  0.90583655562E+02  0.27908277385E+03  0.14107840164E+04  0.14409733326E+04  0.10566000000E+00 0.  1.
          4    1    3    3  502    0 -0.58836855617E+03  0.12251808682E+03  0.37737211493E+03  0.70964635743E+03  0.00000000000E+00 0.  1.
         13    1    4    4    0    0 -0.23428337023E+03 -0.15935602670E+03  0.56698941637E+03  0.63384544666E+03  0.10566000000E+00 0. -1.
         -4    1    4    4    0  501  0.73206827084E+03 -0.24224483397E+03  0.25365264024E+03  0.81175499669E+03  0.00000000000E+00 0. -1.
<mgrwt>
<rscale>  2 0.11924654E+04</rscale>
<asrwt>0</asrwt>
<pdfrwt beam="1">  1        2 0.47730909E+00 0.11924654E+04</pdfrwt>
<pdfrwt beam="2">  1       -2 0.75955536E-01 0.11924654E+04</pdfrwt>
<totfact> 0.36415755E+00</totfact>
</mgrwt>
</event>
<event>
 8    1  0.7046235E-006  0.1154249E+04  0.7818608E-02  0.8641834E-01
          1   -1    0    0  502    0  0.00000000000E+00  0.00000000000E+00  0.23371261088E+04  0.23371261088E+04  0.00000000000E+00 0. -1.
         -1   -1    0    0    0  501 -0.00000000000E+00 -0.00000000000E+00 -0.59075452386E+03  0.59075452386E+03  0.00000000000E+00 0.  1.
    9000010    2    1    2  502    0 -0.54497215642E+03 -0.14038321597E+02  0.57666492866E+03  0.12586452580E+04  0.97696147302E+03 0.  0.
   -9000010    2    1    2    0  501  0.54497215642E+03  0.14038321597E+02  0.11697066562E+04  0.16692353746E+04  0.10587451764E+04 0.  0.
        -13    1    3    3    0    0 -0.66263054449E+02 -0.45841145603E+03  0.19866428014E+03  0.50398349455E+03  0.10566000000E+00 0.  1.
          4    1    3    3  502    0 -0.47870910197E+03  0.44437313444E+03  0.37800064852E+03  0.75466176344E+03  0.00000000000E+00 0.  1.
         13    1    4    4    0    0  0.15585798085E+03  0.37709683357E+03  0.27296112687E+02  0.40894843320E+03  0.10566000000E+00 0. -1.
         -4    1    4    4    0  501  0.38911417557E+03 -0.36305851197E+03  0.11424105435E+04  0.12602869414E+04  0.00000000000E+00 0. -1.
<mgrwt>
<rscale>  2 0.11542492E+04</rscale>
<asrwt>0</asrwt>
<pdfrwt beam="1">  1        1 0.35955786E+00 0.11542492E+04</pdfrwt>
<pdfrwt beam="2">  1       -1 0.90885313E-01 0.11542492E+04</pdfrwt>
<totfact> 0.25024288E+00</totfact>
</mgrwt>
</event>
<event>
 8    1  0.7046235E-006  0.1354269E+04  0.7818608E-02  0.8498648E-01
         -2   -1    0    0    0  501 -0.00000000000E+00  0.00000000000E+00  0.79013324431E+03  0.79013324431E+03  0.00000000000E+00 0.  1.
          2   -1    0    0  502    0  0.00000000000E+00 -0.00000000000E+00 -0.25507547366E+04  0.25507547366E+04  0.00000000000E+00 0. -1.
    9000010    2    1    2  502    0  0.26895440247E+03  0.84564137727E+03 -0.13715555849E+04  0.19163012375E+04  0.10017983334E+04 0.  0.
   -9000010    2    1    2    0  501 -0.26895440247E+03 -0.84564137727E+03 -0.38906590740E+03  0.14245867434E+04  0.10443319873E+04 0.  0.
        -13    1    3    3    0    0  0.54227933857E+03  0.73420597158E+03 -0.13373676939E+04  0.16191595504E+04  0.10566000000E+00 0.  1.
          4    1    3    3  502    0 -0.27332493611E+03  0.11143540569E+03 -0.34187891021E+02  0.29714168713E+03  0.00000000000E+00 0.  1.
         13    1    4    4    0    0  0.12675526383E+02 -0.10252450317E+04 -0.36991986462E+03  0.10900131932E+04  0.10566000000E+00 0. -1.
         -4    1    4    4    0  501 -0.28162992885E+03  0.17960365445E+03 -0.19146042773E+02  0.33457355016E+03  0.00000000000E+00 0. -1.
<mgrwt>
<rscale>  2 0.13542689E+04</rscale>
<asrwt>0</asrwt>
<pdfrwt beam="2">  1        2 0.39242380E+00 0.13542689E+04</pdfrwt>
<pdfrwt beam="1">  1       -2 0.12155896E+00 0.13542689E+04</pdfrwt>
<totfact> 0.24970632E+00</totfact>
</mgrwt>
</event>
<event>
 8    1  0.7046235E-006  0.1837850E+04  0.7818608E-02  0.8237809E-01
         -2   -1    0    0    0  501 -0.00000000000E+00  0.00000000000E+00  0.13963609448E+04  0.13963609448E+04  0.00000000000E+00 0. -1.
          2   -1    0    0  502    0  0.00000000000E+00 -0.00000000000E+00 -0.26349446257E+04  0.26349446257E+04  0.00000000000E+00 0.  1.
    9000010    2    1    2  502    0  0.78378063892E+03 -0.13465246199E+04 -0.12015555168E+04  0.22106195099E+04  0.10078007320E+04 0.  0.
   -9000010    2    1    2    0  501 -0.78378063892E+03  0.13465246199E+04 -0.37028163962E+02  0.18206860606E+04  0.94132141412E+03 0.  0.
        -13    1    3    3    0    0  0.10208656918E+04 -0.11725659227E+04 -0.10768379383E+04  0.18912053195E+04  0.10566000000E+00 0.  1.
          4    1    3    3  502    0 -0.23708505290E+03 -0.17395869720E+03 -0.12471757851E+03  0.31941419040E+03  0.00000000000E+00 0.  1.
         13    1    4    4    0    0 -0.22759744941E+03  0.12203085491E+04 -0.10762653156E+03  0.12460084412E+04  0.10566000000E+00 0. -1.
         -4    1    4    4    0  501 -0.55618318952E+03  0.12621607074E+03  0.70598367596E+02  0.57467761947E+03  0.00000000000E+00 0. -1.
<mgrwt>
<rscale>  2 0.18378502E+04</rscale>
<asrwt>0</asrwt>
<pdfrwt beam="2">  1        2 0.40537609E+00 0.18378502E+04</pdfrwt>
<pdfrwt beam="1">  1       -2 0.21482476E+00 0.18378502E+04</pdfrwt>
<totfact> 0.33081610E-01</totfact>
</mgrwt>
</event>
<event>
 8    1  0.7046235E-006  0.1004291E+04  0.7818608E-02  0.8770570E-01
         -2   -1    0    0    0  501 -0.00000000000E+00  0.00000000000E+00  0.12805065271E+04  0.12805065271E+04  0.00000000000E+00 0.  1.
          2   -1    0    0  502    0  0.00000000000E+00 -0.00000000000E+00 -0.98389016562E+03  0.98389016562E+03  0.00000000000E+00 0. -1.
    9000010    2    1    2  502    0 -0.46981496901E+03 -0.19054969970E+03 -0.32057538996E+03  0.11884227818E+04  0.10259360772E+04 0.  0.
   -9000010    2    1    2    0  501  0.46981496901E+03  0.19054969970E+03  0.61719175141E+03  0.10759739109E+04  0.72094306694E+03 0.  0.
        -13    1    3    3    0    0  0.53243960773E+02 -0.51477794913E+03 -0.23024392534E+03  0.56643051877E+03  0.10566000000E+00 0.  1.
          4    1    3    3  502    0 -0.52305892979E+03  0.32422824943E+03 -0.90331464629E+02  0.62199226302E+03  0.00000000000E+00 0.  1.
         13    1    4    4    0    0  0.33230850321E+03 -0.24374169003E+03  0.38801328221E+03  0.56603292404E+03  0.10566000000E+00 0. -1.
         -4    1    4    4    0  501  0.13750646581E+03  0.43429138973E+03  0.22917846920E+03  0.50994098686E+03  0.00000000000E+00 0. -1.
<mgrwt>
<rscale>  2 0.10042909E+04</rscale>
<asrwt>0</asrwt>
<pdfrwt beam="2">  1        2 0.15136772E+00 0.10042909E+04</pdfrwt>
<pdfrwt beam="1">  1       -2 0.19700101E+00 0.10042909E+04</pdfrwt>
<totfact> 0.42358457E+00</totfact>
</mgrwt>
</event>
<event>
 8    1  0.7046235E-006  0.1371064E+04  0.7818608E-02  0.8487800E-01
          1   -1    0    0  502    0  0.00000000000E+00  0.00000000000E+00  0.12620655988E+04  0.12620655988E+04  0.00000000000E+00 0.  1.
         -1   -1    0    0    0  501 -0.00000000000E+00 -0.00000000000E+00 -0.15726700438E+04  0.15726700438E+04  0.00000000000E+00 0. -1.
    9000010    2    1    2  502    0  0.88839157230E+03  0.28315495098E+03  0.16865886187E+03  0.13967311435E+04  0.10261558183E+04 0.  0.
   -9000010    2    1    2    0  501 -0.88839157230E+03 -0.28315495098E+03 -0.47926330688E+03  0.14380044991E+04  0.98424961785E+03 0.  0.
        -13    1    3    3    0    0  0.62618813096E+03 -0.12035622655E+03  0.50182562256E+03  0.81143463276E+03  0.10566000000E+00 0.  1.
          4    1    3    3  502    0  0.26220344134E+03  0.40351117753E+03 -0.33316676069E+03  0.58529651073E+03  0.00000000000E+00 0.  1.
         13    1    4    4    0    0 -0.12646071056E+03 -0.45503168076E+03 -0.45613458257E+03  0.65658579819E+03  0.10566000000E+00 0. -1.
         -4    1    4    4    0  501 -0.76193086174E+03  0.17187672977E+03 -0.23128724312E+02  0.78141870096E+03  0.00000000000E+00 0. -1.
<mgrwt>
<rscale>  2 0.13710638E+04</rscale>
<asrwt>0</asrwt>
<pdfrwt beam="1">  1        1 0.19416394E+00 0.13710638E+04</pdfrwt>
<pdfrwt beam="2">  1       -1 0.24194924E+00 0.13710638E+04</pdfrwt>
<totfact> 0.70812825E-01</totfact>
</mgrwt>
</event>
<event>
 8    1  0.7046235E-006  0.1102170E+04  0.7818608E-02  0.8684112E-01
          2   -1    0    0  502    0  0.00000000000E+00  0.00000000000E+00  0.10767416886E+04  0.10767416886E+04  0.00000000000E+00 0.  1.
         -2   -1    0    0    0  501 -0.00000000000E+00 -0.00000000000E+00 -0.12101286591E+04  0.12101286591E+04  0.00000000000E+00 0. -1.
    9000010    2    1    2  502    0  0.27372039005E+03 -0.37962007228E+03  0.23088071508E+03  0.11251264957E+04  0.99677955209E+03 0.  0.
   -9000010    2    1    2    0  501 -0.27372039005E+03  0.37962007228E+03 -0.36426768557E+03  0.11617438520E+04  0.99896125033E+03 0.  0.
        -13    1    3    3    0    0  0.65263622455E+03 -0.25821188256E+03  0.17483120109E+03  0.72330725001E+03  0.10566000000E+00 0.  1.
          4    1    3    3  502    0 -0.37891583450E+03 -0.12140818972E+03  0.56049513996E+02  0.40181924566E+03  0.00000000000E+00 0.  1.
         13    1    4    4    0    0 -0.50821059782E+03  0.56179423668E+03 -0.40986371278E+03  0.86132401007E+03  0.10566000000E+00 0. -1.
         -4    1    4    4    0  501  0.23449020777E+03 -0.18217416440E+03  0.45596027215E+02  0.30041984191E+03  0.00000000000E+00 0. -1.
<mgrwt>
<rscale>  2 0.11021701E+04</rscale>
<asrwt>0</asrwt>
<pdfrwt beam="1">  1        2 0.16565257E+00 0.11021701E+04</pdfrwt>
<pdfrwt beam="2">  1       -2 0.18617364E+00 0.11021701E+04</pdfrwt>
<totfact> 0.45348971E+00</totfact>
</mgrwt>
</event>
<event>
 8    1  0.7046235E-006  0.2151497E+04  0.7818608E-02  0.8109353E-01
          1   -1    0    0  502    0  0.00000000000E+00  0.00000000000E+00  0.13238798511E+04  0.13238798511E+04  0.00000000000E+00 0. -1.
         -1   -1    0    0    0  501 -0.00000000000E+00 -0.00000000000E+00 -0.35556477280E+04  0.35556477280E+04  0.00000000000E+00 0.  1.
    9000010    2    1    2  502    0  0.18918832973E+04  0.24612240910E+03 -0.14288146630E+04  0.25798932710E+04  0.98718756949E+03 0.  0.
   -9000010    2    1    2    0  501 -0.18918832973E+04 -0.24612240910E+03 -0.80295321391E+03  0.22996343082E+04  0.10018909306E+04 0.  0.
        -13    1    3    3    0    0  0.17721323477E+04  0.43856398279E+03 -0.14768930812E+04  0.23481917744E+04  0.10566000000E+00 0.  1.
          4    1    3    3  502    0  0.11975094965E+03 -0.19244157369E+03  0.48078418206E+02  0.23170149659E+03  0.00000000000E+00 0.  1.
         13    1    4    4    0    0 -0.11827050330E+04 -0.63674014561E+03 -0.54928148086E+03  0.14511855031E+04  0.10566000000E+00 0. -1.
         -4    1    4    4    0  501 -0.70917826436E+03  0.39061773651E+03 -0.25367173304E+03  0.84844880509E+03  0.00000000000E+00 0. -1.
<mgrwt>
<rscale>  2 0.21514967E+04</rscale>
<asrwt>0</asrwt>
<pdfrwt beam="1">  1        1 0.20367383E+00 0.21514967E+04</pdfrwt>
<pdfrwt beam="2">  1       -1 0.54702272E+00 0.21514967E+04</pdfrwt>
<totfact> 0.60883564E-02</totfact>
</mgrwt>
</event>
<event>
 8    1  0.7046235E-006  0.1476858E+04  0.7818608E-02  0.8422943E-01
         -2   -1    0    0    0  501 -0.00000000000E+00  0.00000000000E+00  0.41097914728E+04  0.41097914728E+04  0.00000000000E+00 0.  1.
          2   -1    0    0  502    0  0.00000000000E+00 -0.00000000000E+00 -0.53189327701E+03  0.53189327701E+03  0.00000000000E+00 0. -1.
    9000010    2    1    2  502    0 -0.24894053547E+03  0.10457039196E+04  0.18907444426E+04  0.23954974254E+04  0.10040046266E+04 0.  0.
   -9000010    2    1    2    0  501  0.24894053547E+03 -0.10457039196E+04  0.16871537531E+04  0.22461873244E+04  0.10214703284E+04 0.  0.
        -13    1    3    3    0    0 -0.92004549753E+02 -0.69068303238E+02  0.86465626465E+03  0.87227618038E+03  0.10566000000E+00 0.  1.
          4    1    3    3  502    0 -0.15693598572E+03  0.11147722228E+04  0.10260881780E+04  0.15232212451E+04  0.00000000000E+00 0.  1.
         13    1    4    4    0    0  0.50264064361E+03 -0.19950487036E+03  0.96067259765E+03  0.11024253539E+04  0.10566000000E+00 0. -1.
         -4    1    4    4    0  501 -0.25370010814E+03 -0.84619904923E+03  0.72648115547E+03  0.11437619704E+04  0.00000000000E+00 0. -1.
<mgrwt>
<rscale>  2 0.14768581E+04</rscale>
<asrwt>0</asrwt>
<pdfrwt beam="2">  1        2 0.81829738E-01 0.14768581E+04</pdfrwt>
<pdfrwt beam="1">  1       -2 0.63227559E+00 0.14768581E+04</pdfrwt>
<totfact> 0.32724431E-01</totfact>
</mgrwt>
</event>
<event>
 8    1  0.7507961E-006  0.1026167E+04  0.7818608E-02  0.8750387E-01
          4   -1    0    0  502    0  0.00000000000E+00  0.00000000000E+00  0.77353878445E+03  0.77353878445E+03  0.00000000000E+00 0.  1.
         -4   -1    0    0    0  501 -0.00000000000E+00 -0.00000000000E+00 -0.13941774845E+04  0.13941774845E+04  0.00000000000E+00 0. -1.
    9000010    2    1    2  502    0  0.44203918204E+03  0.34508608581E+03 -0.38545567664E+03  0.99223638911E+03  0.72213151720E+03 0.  0.
   -9000010    2    1    2    0  501 -0.44203918204E+03 -0.34508608581E+03 -0.23518302340E+03  0.11754798798E+04  0.10059616535E+04 0.  0.
        -13    1    3    3    0    0  0.60381550482E+03  0.89067319956E+02 -0.23446101009E+03  0.65383340979E+03  0.10566000000E+00 0.  1.
          4    1    3    3  502    0 -0.16177632278E+03  0.25601876585E+03 -0.15099466656E+03  0.33840297932E+03  0.00000000000E+00 0.  1.
         13    1    4    4    0    0 -0.57712235927E+03 -0.41689537253E+02 -0.48892295903E+03  0.75753145553E+03  0.10566000000E+00 0. -1.
         -4    1    4    4    0  501  0.13508317723E+03 -0.30339654856E+03  0.25373993563E+03  0.41794842430E+03  0.00000000000E+00 0. -1.
<mgrwt>
<rscale>  2 0.10261670E+04</rscale>
<asrwt>0</asrwt>
<pdfrwt beam="1">  1        4 0.11900597E+00 0.10261670E+04</pdfrwt>
<pdfrwt beam="2">  1       -4 0.21448884E+00 0.10261670E+04</pdfrwt>
<totfact> 0.35669386E-01</totfact>
</mgrwt>
</event>
<event>
 8    1  0.7046235E-006  0.1226997E+04  0.7818608E-02  0.8586506E-01
          2   -1    0    0  502    0  0.00000000000E+00  0.00000000000E+00  0.32525993599E+03  0.32525993599E+03  0.00000000000E+00 0. -1.
         -2   -1    0    0    0  501 -0.00000000000E+00 -0.00000000000E+00 -0.46951709635E+04  0.46951709635E+04  0.00000000000E+00 0.  1.
    9000010    2    1    2  502    0 -0.10906694611E+03  0.68275815811E+03 -0.18668983537E+04  0.22277342033E+04  0.99971791850E+03 0.  0.
   -9000010    2    1    2    0  501  0.10906694611E+03 -0.68275815811E+03 -0.25030126738E+04  0.27926966961E+04  0.10276322738E+04 0.  0.
        -13    1    3    3    0    0 -0.24122516071E+03 -0.19880194105E+03 -0.35862750656E+03  0.47573678599E+03  0.10566000000E+00 0.  1.
          4    1    3    3  502    0  0.13215821460E+03  0.88156009916E+03 -0.15082708471E+04  0.17519974174E+04  0.00000000000E+00 0.  1.
         13    1    4    4    0    0 -0.16825295746E+03 -0.84397145252E+03 -0.13941449949E+04  0.16383641684E+04  0.10566000000E+00 0. -1.
         -4    1    4    4    0  501  0.27731990357E+03  0.16121329440E+03 -0.11088676790E+04  0.11543325278E+04  0.00000000000E+00 0. -1.
<mgrwt>
<rscale>  2 0.12269965E+04</rscale>
<asrwt>0</asrwt>
<pdfrwt beam="1">  1        2 0.50039989E-01 0.12269965E+04</pdfrwt>
<pdfrwt beam="2">  1       -2 0.72233401E+00 0.12269965E+04</pdfrwt>
<totfact> 0.83965773E-02</totfact>
</mgrwt>
</event>
<event>
 8    1  0.7046235E-006  0.1266195E+04  0.7818608E-02  0.8558316E-01
          1   -1    0    0  502    0  0.00000000000E+00  0.00000000000E+00  0.18761731171E+04  0.18761731171E+04  0.00000000000E+00 0.  1.
         -1   -1    0    0    0  501 -0.00000000000E+00 -0.00000000000E+00 -0.89510491177E+03  0.89510491177E+03  0.00000000000E+00 0. -1.
    9000010    2    1    2  502    0  0.56983062467E+03  0.51934023655E+03  0.19293599457E+03  0.12736177465E+04  0.99521688291E+03 0.  0.
   -9000010    2    1    2    0  501 -0.56983062467E+03 -0.51934023655E+03  0.78813221079E+03  0.14976602824E+04  0.10136136926E+04 0.  0.
        -13    1    3    3    0    0  0.82012658409E+03  0.30970078216E+03  0.30535720114E+03  0.92831310443E+03  0.10566000000E+00 0.  1.
          4    1    3    3  502    0 -0.25029595941E+03  0.20963945439E+03 -0.11242120657E+03  0.34530464205E+03  0.00000000000E+00 0.  1.
         13    1    4    4    0    0  0.45093852551E+01  0.28500938980E+03  0.16815035714E+03  0.33094597837E+03  0.10566000000E+00 0. -1.
         -4    1    4    4    0  501 -0.57434000993E+03 -0.80434962635E+03  0.61998185365E+03  0.11667143040E+04  0.00000000000E+00 0. -1.
<mgrwt>
<rscale>  2 0.12661949E+04</rscale>
<asrwt>0</asrwt>
<pdfrwt beam="1">  1        1 0.28864202E+00 0.12661949E+04</pdfrwt>
<pdfrwt beam="2">  1       -1 0.13770845E+00 0.12661949E+04</pdfrwt>
<totfact> 0.21350248E+00</totfact>
</mgrwt>
</event>
<event>
 8    1  0.7046235E-006  0.1373657E+04  0.7818608E-02  0.8486140E-01
          2   -1    0    0  502    0  0.00000000000E+00  0.00000000000E+00  0.17217732822E+04  0.17217732822E+04  0.00000000000E+00 0.  1.
         -2   -1    0    0    0  501 -0.00000000000E+00 -0.00000000000E+00 -0.10973167532E+04  0.10973167532E+04  0.00000000000E+00 0. -1.
    9000010    2    1    2  502    0 -0.92092563984E+03 -0.58420867629E+02  0.34791680288E+03  0.13910731683E+04  0.98108176307E+03 0.  0.
   -9000010    2    1    2    0  501  0.92092563984E+03  0.58420867629E+02  0.27653972618E+03  0.14280168671E+04  0.10541541257E+04 0.  0.
        -13    1    3    3    0    0 -0.10806371387E+02  0.31344278850E+02 -0.27985146157E+03  0.28180861091E+03  0.10566000000E+00 0.  1.
          4    1    3    3  502    0 -0.91011926845E+03 -0.89765146479E+02  0.62776826445E+03  0.11092645573E+04  0.00000000000E+00 0.  1.
         13    1    4    4    0    0  0.83764729476E+03 -0.19239702692E+03  0.57138715115E+03  0.10320624468E+04  0.10566000000E+00 0. -1.
         -4    1    4    4    0  501  0.83278345084E+02  0.25081789454E+03 -0.29484742497E+03  0.39595442035E+03  0.00000000000E+00 0. -1.
<mgrwt>
<rscale>  2 0.13736570E+04</rscale>
<asrwt>0</asrwt>
<pdfrwt beam="1">  1        2 0.26488820E+00 0.13736570E+04</pdfrwt>
<pdfrwt beam="2">  1       -2 0.16881796E+00 0.13736570E+04</pdfrwt>
<totfact> 0.26863857E+00</totfact>
</mgrwt>
</event>
<event>
 8    1  0.7046235E-006  0.1199905E+04  0.7818608E-02  0.8606634E-01
         -4   -1    0    0    0  501 -0.00000000000E+00  0.00000000000E+00  0.33246373922E+04  0.33246373922E+04  0.00000000000E+00 0. -1.
          4   -1    0    0  502    0  0.00000000000E+00 -0.00000000000E+00 -0.49518853298E+03  0.49518853298E+03  0.00000000000E+00 0.  1.
    9000010    2    1    2  502    0  0.25274525980E+03  0.59000535064E+03  0.20855617450E+04  0.24034023885E+04  0.10073672461E+04 0.  0.
   -9000010    2    1    2    0  501 -0.25274525980E+03 -0.59000535064E+03  0.74388711424E+03  0.14164235367E+04  0.10202456158E+04 0.  0.
        -13    1    3    3    0    0  0.62399262621E+03  0.52851349982E+03  0.14581345190E+04  0.16717803694E+04  0.10566000000E+00 0.  1.
          4    1    3    3  502    0 -0.37124736641E+03  0.61491850825E+02  0.62742722603E+03  0.73162201904E+03  0.00000000000E+00 0.  1.
         13    1    4    4    0    0  0.38754953285E+02  0.23925903942E+03  0.40971508422E+03  0.47603917460E+03  0.10566000000E+00 0. -1.
         -4    1    4    4    0  501 -0.29150021308E+03 -0.82926439007E+03  0.33417203002E+03  0.94038436212E+03  0.00000000000E+00 0. -1.
<mgrwt>
<rscale>  2 0.11999051E+04</rscale>
<asrwt>0</asrwt>
<pdfrwt beam="2">  1        4 0.76182853E-01 0.11999051E+04</pdfrwt>
<pdfrwt beam="1">  1       -4 0.51148266E+00 0.11999051E+04</pdfrwt>
<totfact> 0.75265728E-02</totfact>
</mgrwt>
</event>
<event>
 8    1  0.7046235E-006  0.1153802E+04  0.7818608E-02  0.8642187E-01
         -2   -1    0    0    0  501 -0.00000000000E+00  0.00000000000E+00  0.58147394367E+03  0.58147394367E+03  0.00000000000E+00 0. -1.
          2   -1    0    0  502    0  0.00000000000E+00 -0.00000000000E+00 -0.24632233059E+04  0.24632233059E+04  0.00000000000E+00 0.  1.
    9000010    2    1    2  502    0  0.48127979529E+03  0.40070677940E+03 -0.52045921474E+03  0.12453377582E+04  0.94222724082E+03 0.  0.
   -9000010    2    1    2    0  501 -0.48127979529E+03 -0.40070677940E+03 -0.13612901475E+04  0.17993594914E+04  0.99618650323E+03 0.  0.
        -13    1    3    3    0    0 -0.82021340740E+02  0.14039694288E+03  0.22360354920E+03  0.27647307335E+03  0.10566000000E+00 0.  1.
          4    1    3    3  502    0  0.56330113603E+03  0.26030983652E+03 -0.74406276394E+03  0.96886468483E+03  0.00000000000E+00 0.  1.
         13    1    4    4    0    0  0.98533396023E+02  0.13920891086E+03  0.52725838210E+02  0.17851603898E+03  0.10566000000E+00 0. -1.
         -4    1    4    4    0  501 -0.57981319131E+03 -0.53991569026E+03 -0.14140159857E+04  0.16208434525E+04  0.00000000000E+00 0. -1.
<mgrwt>
<rscale>  2 0.11538021E+04</rscale>
<asrwt>0</asrwt>
<pdfrwt beam="2">  1        2 0.37895743E+00 0.11538021E+04</pdfrwt>
<pdfrwt beam="1">  1       -2 0.89457529E-01 0.11538021E+04</pdfrwt>
<totfact> 0.60891959E+00</totfact>
</mgrwt>
</event>
<event>
 8    1  0.7046235E-006  0.1331042E+04  0.7818608E-02  0.8513920E-01
         -2   -1    0    0    0  501 -0.00000000000E+00  0.00000000000E+00  0.86830635145E+03  0.86830635145E+03  0.00000000000E+00 0.  1.
          2   -1    0    0  502    0  0.00000000000E+00 -0.00000000000E+00 -0.23953643227E+04  0.23953643227E+04  0.00000000000E+00 0. -1.
    9000010    2    1    2  502    0  0.47961940064E+03 -0.63069705062E+03 -0.14103244580E+04  0.19690185014E+04  0.11225886348E+04 0.  0.
   -9000010    2    1    2    0  501 -0.47961940064E+03  0.63069705062E+03 -0.11673351323E+03  0.12946521727E+04  0.10171941781E+04 0.  0.
        -13    1    3    3    0    0  0.32222914869E+03 -0.81544200521E+03 -0.14767176932E+04  0.17174028196E+04  0.10566000000E+00 0.  1.
          4    1    3    3  502    0  0.15739025195E+03  0.18474495459E+03  0.66393235244E+02  0.25161568183E+03  0.00000000000E+00 0.  1.
         13    1    4    4    0    0 -0.35853553904E+03  0.82204302929E+03  0.18668457270E+03  0.91605328208E+03  0.10566000000E+00 0. -1.
         -4    1    4    4    0  501 -0.12108386160E+03 -0.19134597867E+03 -0.30341808593E+03  0.37859889060E+03  0.00000000000E+00 0. -1.
<mgrwt>
<rscale>  2 0.13310422E+04</rscale>
<asrwt>0</asrwt>
<pdfrwt beam="2">  1        2 0.36851759E+00 0.13310422E+04</pdfrwt>
<pdfrwt beam="1">  1       -2 0.13358559E+00 0.13310422E+04</pdfrwt>
<totfact> 0.23607267E+00</totfact>
</mgrwt>
</event>
<event>
 8    1  0.7046235E-006  0.1227854E+04  0.7818608E-02  0.8585878E-01
         -2   -1    0    0    0  501 -0.00000000000E+00  0.00000000000E+00  0.11574821335E+04  0.11574821335E+04  0.00000000000E+00 0.  1.
          2   -1    0    0  502    0  0.00000000000E+00 -0.00000000000E+00 -0.18265646346E+04  0.18265646346E+04  0.00000000000E+00 0. -1.
    9000010    2    1    2  502    0 -0.16727866919E+03  0.66064253513E+03  0.46445935968E+03  0.13136588258E+04  0.10225195848E+04 0.  0.
   -9000010    2    1    2    0  501  0.16727866919E+03 -0.66064253513E+03 -0.11335418608E+04  0.16703879424E+04  0.10202195917E+04 0.  0.
        -13    1    3    3    0    0  0.19911774070E+03  0.60976729369E+03 -0.89374374655E+02  0.64765099948E+03  0.10566000000E+00 0.  1.
          4    1    3    3  502    0 -0.36639640989E+03  0.50875241442E+02  0.55383373434E+03  0.66600782627E+03  0.00000000000E+00 0.  1.
         13    1    4    4    0    0  0.14964839523E+03 -0.15102031024E+00  0.15925460133E+03  0.21853307350E+03  0.10566000000E+00 0. -1.
         -4    1    4    4    0  501  0.17630273953E+02 -0.66049151482E+03 -0.12927964622E+04  0.14518548689E+04  0.00000000000E+00 0. -1.
<mgrwt>
<rscale>  2 0.12278542E+04</rscale>
<asrwt>0</asrwt>
<pdfrwt beam="2">  1        2 0.28100994E+00 0.12278542E+04</pdfrwt>
<pdfrwt beam="1">  1       -2 0.17807418E+00 0.12278542E+04</pdfrwt>
<totfact> 0.20017433E+00</totfact>
</mgrwt>
</event>
<event>
 8    1  0.7046235E-006  0.1128963E+04  0.7818608E-02  0.8662065E-01
          2   -1    0    0  502    0  0.00000000000E+00  0.00000000000E+00  0.13418627975E+04  0.13418627975E+04  0.00000000000E+00 0. -1.
         -2   -1    0    0    0  501 -0.00000000000E+00 -0.00000000000E+00 -0.10133936117E+04  0.10133936117E+04  0.00000000000E+00 0.  1.
    9000010    2    1    2  502    0  0.16949852105E+03  0.50277966244E+03  0.45929083914E+03  0.12198639984E+04  0.99779905897E+03 0.  0.
   -9000010    2    1    2    0  501 -0.16949852105E+03 -0.50277966244E+03 -0.13082165339E+03  0.11353924108E+04  0.99523086964E+03 0.  0.
        -13    1    3    3    0    0  0.81241231458E+02  0.10287358079E+03 -0.31652399266E+03  0.34259387094E+03  0.10566000000E+00 0.  1.
          4    1    3    3  502    0  0.88257289592E+02  0.39990608166E+03  0.77581483180E+03  0.87727012747E+03  0.00000000000E+00 0.  1.
         13    1    4    4    0    0  0.18069088992E+03 -0.69922897398E+03 -0.37552697414E+02  0.72317395694E+03  0.10566000000E+00 0. -1.
         -4    1    4    4    0  501 -0.35018941097E+03  0.19644931153E+03 -0.93268955974E+02  0.41221845386E+03  0.00000000000E+00 0. -1.
<mgrwt>
<rscale>  2 0.11289634E+04</rscale>
<asrwt>0</asrwt>
<pdfrwt beam="1">  1        2 0.20644043E+00 0.11289634E+04</pdfrwt>
<pdfrwt beam="2">  1       -2 0.15590671E+00 0.11289634E+04</pdfrwt>
<totfact> 0.57474842E+00</totfact>
</mgrwt>
</event>
<event>
 8    1  0.7046235E-006  0.1208018E+04  0.7818608E-02  0.8600549E-01
          2   -1    0    0  502    0  0.00000000000E+00  0.00000000000E+00  0.27972188503E+04  0.27972188503E+04  0.00000000000E+00 0.  1.
         -2   -1    0    0    0  501 -0.00000000000E+00 -0.00000000000E+00 -0.52290445257E+03  0.52290445257E+03  0.00000000000E+00 0. -1.
    9000010    2    1    2  502    0  0.53319397082E+03  0.37422268493E+03  0.12096548224E+04  0.17045994765E+04  0.10089876896E+04 0.  0.
   -9000010    2    1    2    0  501 -0.53319397082E+03 -0.37422268493E+03  0.10646595754E+04  0.16155238264E+04  0.10257089225E+04 0.  0.
        -13    1    3    3    0    0  0.43655715072E+03  0.57251746480E+03  0.31978231300E+03  0.78779383865E+03  0.10566000000E+00 0.  1.
          4    1    3    3  502    0  0.96636820100E+02 -0.19829477987E+03  0.88987250936E+03  0.91680563787E+03  0.00000000000E+00 0.  1.
         13    1    4    4    0    0  0.47935520660E+02 -0.21622157480E+03  0.98317452041E+03  0.10078103652E+04  0.10566000000E+00 0. -1.
         -4    1    4    4    0  501 -0.58112949148E+03 -0.15800111013E+03  0.81485054996E+02  0.60771346114E+03  0.00000000000E+00 0. -1.
<mgrwt>
<rscale>  2 0.12080177E+04</rscale>
<asrwt>0</asrwt>
<pdfrwt beam="1">  1        2 0.43034135E+00 0.12080177E+04</pdfrwt>
<pdfrwt beam="2">  1       -2 0.80446841E-01 0.12080177E+04</pdfrwt>
<totfact> 0.49387951E+00</totfact>
</mgrwt>
</event>
<event>
 8    1  0.7046235E-006  0.1207962E+04  0.7818608E-02  0.8600591E-01
         -2   -1    0    0    0  501 -0.00000000000E+00  0.00000000000E+00  0.51803586646E+03  0.51803586646E+03  0.00000000000E+00 0.  1.
          2   -1    0    0  502    0  0.00000000000E+00 -0.00000000000E+00 -0.29883815039E+04  0.29883815039E+04  0.00000000000E+00 0. -1.
    9000010    2    1    2  502    0  0.29617235359E+03  0.60716765178E+03 -0.16489736230E+04  0.20402620748E+04  0.99357169053E+03 0.  0.
   -9000010    2    1    2    0  501 -0.29617235359E+03 -0.60716765178E+03 -0.82137201452E+03  0.14661552956E+04  0.10092515763E+04 0.  0.
        -13    1    3    3    0    0 -0.13798772374E+02  0.68841194226E+02 -0.13483058877E+04  0.13501326950E+04  0.10566000000E+00 0.  1.
          4    1    3    3  502    0  0.30997112597E+03  0.53832645756E+03 -0.30066773528E+03  0.69012937981E+03  0.00000000000E+00 0.  1.
         13    1    4    4    0    0 -0.27046236452E+03 -0.18440414167E+03  0.18378417319E+03  0.37540832645E+03  0.10566000000E+00 0. -1.
         -4    1    4    4    0  501 -0.25709989071E+02 -0.42276351011E+03 -0.10051561877E+04  0.10907469692E+04  0.00000000000E+00 0. -1.
<mgrwt>
<rscale>  2 0.12079623E+04</rscale>
<asrwt>0</asrwt>
<pdfrwt beam="2">  1        2 0.45975100E+00 0.12079623E+04</pdfrwt>
<pdfrwt beam="1">  1       -2 0.79697826E-01 0.12079623E+04</pdfrwt>
<totfact> 0.38583471E+00</totfact>
</mgrwt>
</event>
<event>
 8    1  0.7046235E-006  0.1403364E+04  0.7818608E-02  0.8467380E-01
         -2   -1    0    0    0  501 -0.00000000000E+00  0.00000000000E+00  0.16880229960E+04  0.16880229960E+04  0.00000000000E+00 0.  1.
          2   -1    0    0  502    0  0.00000000000E+00 -0.00000000000E+00 -0.12036711216E+04  0.12036711216E+04  0.00000000000E+00 0. -1.
    9000010    2    1    2  502    0  0.90039620810E+03  0.42288186113E+03  0.49689379255E+03  0.14973506749E+04  0.10028026737E+04 0.  0.
   -9000010    2    1    2    0  501 -0.90039620810E+03 -0.42288186113E+03 -0.12541918093E+02  0.13943434427E+04  0.97698205539E+03 0.  0.
        -13    1    3    3    0    0  0.80319282306E+03  0.63103653657E+01 -0.47952128574E+02  0.80464771766E+03  0.10566000000E+00 0.  1.
          4    1    3    3  502    0  0.97203385039E+02  0.41657149577E+03  0.54484592112E+03  0.69270295720E+03  0.00000000000E+00 0.  1.
         13    1    4    4    0    0 -0.37692073668E+02 -0.13470651719E+03 -0.38640363113E+03  0.41094320229E+03  0.10566000000E+00 0. -1.
         -4    1    4    4    0  501 -0.86270413443E+03 -0.28817534394E+03  0.37386171304E+03  0.98340024044E+03  0.00000000000E+00 0. -1.
<mgrwt>
<rscale>  2 0.14033639E+04</rscale>
<asrwt>0</asrwt>
<pdfrwt beam="2">  1        2 0.18518017E+00 0.14033639E+04</pdfrwt>
<pdfrwt beam="1">  1       -2 0.25969585E+00 0.14033639E+04</pdfrwt>
<totfact> 0.95250732E-01</totfact>
</mgrwt>
</event>
<event>
 8    1  0.7046235E-006  0.1674944E+04  0.7818608E-02  0.8315368E-01
         -2   -1    0    0    0  501 -0.00000000000E+00  0.00000000000E+00  0.39174489736E+04  0.39174489736E+04  0.00000000000E+00 0.  1.
          2   -1    0    0  502    0  0.00000000000E+00 -0.00000000000E+00 -0.71654014239E+03  0.71654014239E+03  0.00000000000E+00 0. -1.
    9000010    2    1    2  502    0  0.92443902185E+03  0.97576487465E+03  0.16531208413E+04  0.23517789212E+04  0.99566610007E+03 0.  0.
   -9000010    2    1    2    0  501 -0.92443902185E+03 -0.97576487465E+03  0.15477879899E+04  0.22822101947E+04  0.10030608732E+04 0.  0.
        -13    1    3    3    0    0  0.79293355617E+03  0.19170696027E+03  0.11534706033E+04  0.14127949699E+04  0.10566000000E+00 0.  1.
          4    1    3    3  502    0  0.13150546568E+03  0.78405791438E+03  0.49965023801E+03  0.93898395138E+03  0.00000000000E+00 0.  1.
         13    1    4    4    0    0 -0.59573656063E+03 -0.10830842890E+04  0.14826614507E+04  0.19303519408E+04  0.10566000000E+00 0. -1.
         -4    1    4    4    0  501 -0.32870246123E+03  0.10731941438E+03  0.65126539164E+02  0.35185825388E+03  0.00000000000E+00 0. -1.
<mgrwt>
<rscale>  2 0.16749436E+04</rscale>
<asrwt>0</asrwt>
<pdfrwt beam="2">  1        2 0.11023695E+00 0.16749436E+04</pdfrwt>
<pdfrwt beam="1">  1       -2 0.60268445E+00 0.16749436E+04</pdfrwt>
<totfact> 0.25257589E-01</totfact>
</mgrwt>
</event>
<event>
 8    1  0.7046235E-006  0.1188652E+04  0.7818608E-02  0.8615157E-01
          2   -1    0    0  502    0  0.00000000000E+00  0.00000000000E+00  0.30677673994E+04  0.30677673994E+04  0.00000000000E+00 0.  1.
         -2   -1    0    0    0  501 -0.00000000000E+00 -0.00000000000E+00 -0.48067931818E+03  0.48067931818E+03  0.00000000000E+00 0. -1.
    9000010    2    1    2  502    0 -0.59521712917E+03  0.19183879300E+03  0.90352190338E+03  0.14709084279E+04  0.97782115955E+03 0.  0.
   -9000010    2    1    2    0  501  0.59521712917E+03 -0.19183879300E+03  0.16835661779E+04  0.20775382897E+04  0.10443585191E+04 0.  0.
        -13    1    3    3    0    0  0.55611687840E+01  0.40142875259E+03  0.69265129814E+03  0.80058840985E+03  0.10566000000E+00 0.  1.
          4    1    3    3  502    0 -0.60077829795E+03 -0.20958995960E+03  0.21087060523E+03  0.67032001806E+03  0.00000000000E+00 0.  1.
         13    1    4    4    0    0  0.42680000184E+03  0.32240937762E+03  0.35226643607E+03  0.64046678406E+03  0.10566000000E+00 0. -1.
         -4    1    4    4    0  501  0.16841712733E+03 -0.51424817062E+03  0.13312997418E+04  0.14370715056E+04  0.00000000000E+00 0. -1.
<mgrwt>
<rscale>  2 0.11886523E+04</rscale>
<asrwt>0</asrwt>
<pdfrwt beam="1">  1        2 0.47196420E+00 0.11886523E+04</pdfrwt>
<pdfrwt beam="2">  1       -2 0.73950666E-01 0.11886523E+04</pdfrwt>
<totfact> 0.40558561E+00</totfact>
</mgrwt>
</event>
<event>
 8    1  0.7046235E-006  0.1087222E+04  0.7818608E-02  0.8696699E-01
          1   -1    0    0  502    0  0.00000000000E+00  0.00000000000E+00  0.12876214102E+04  0.12876214102E+04  0.00000000000E+00 0.  1.
         -1   -1    0    0    0  501 -0.00000000000E+00 -0.00000000000E+00 -0.13765858879E+04  0.13765858879E+04  0.00000000000E+00 0. -1.
    9000010    2    1    2  502    0 -0.45706355152E+03  0.88133970428E+02  0.72457852725E+03  0.12950619702E+04  0.96721082383E+03 0.  0.
   -9000010    2    1    2    0  501  0.45706355152E+03 -0.88133970428E+02 -0.81354300490E+03  0.13691453278E+04  0.99801403852E+03 0.  0.
        -13    1    3    3    0    0 -0.68309823712E+03  0.18159115849E+03  0.77115035928E+03  0.10460742986E+04  0.10566000000E+00 0.  1.
          4    1    3    3  502    0  0.22603468559E+03 -0.93457188064E+02 -0.46571832029E+02  0.24898767165E+03  0.00000000000E+00 0.  1.
         13    1    4    4    0    0  0.25753630508E+03 -0.53699665497E+03 -0.33473672789E+03  0.68318302382E+03  0.10566000000E+00 0. -1.
         -4    1    4    4    0  501  0.19952724644E+03  0.44886268454E+03 -0.47880627700E+03  0.68596230402E+03  0.00000000000E+00 0. -1.
<mgrwt>
<rscale>  2 0.10872220E+04</rscale>
<asrwt>0</asrwt>
<pdfrwt beam="1">  1        1 0.19809560E+00 0.10872220E+04</pdfrwt>
<pdfrwt beam="2">  1       -1 0.21178244E+00 0.10872220E+04</pdfrwt>
<totfact> 0.13475538E+00</totfact>
</mgrwt>
</event>
<event>
 8    1  0.7046235E-006  0.1264269E+04  0.7818608E-02  0.8559676E-01
          2   -1    0    0  502    0  0.00000000000E+00  0.00000000000E+00  0.22531673156E+04  0.22531673156E+04  0.00000000000E+00 0.  1.
         -2   -1    0    0    0  501 -0.00000000000E+00 -0.00000000000E+00 -0.74106076662E+03  0.74106076662E+03  0.00000000000E+00 0. -1.
    9000010    2    1    2  502    0 -0.71927108085E+03  0.24979684383E+03  0.10616649647E+04  0.16458689457E+04  0.10010008682E+04 0.  0.
   -9000010    2    1    2    0  501  0.71927108085E+03 -0.24979684383E+03  0.45044158426E+03  0.13483591365E+04  0.10175585434E+04 0.  0.
        -13    1    3    3    0    0  0.17648666114E+03  0.16606062854E+03  0.57282700888E+03  0.62197625934E+03  0.10566000000E+00 0.  1.
          4    1    3    3  502    0 -0.89575774199E+03  0.83736215286E+02  0.48883795580E+03  0.10238926863E+04  0.00000000000E+00 0.  1.
         13    1    4    4    0    0  0.44331834169E+02 -0.37810300594E+03  0.53449454915E+03  0.65621004934E+03  0.10566000000E+00 0. -1.
         -4    1    4    4    0  501  0.67493924668E+03  0.12830616211E+03 -0.84052964896E+02  0.69214908716E+03  0.00000000000E+00 0. -1.
<mgrwt>
<rscale>  2 0.12642690E+04</rscale>
<asrwt>0</asrwt>
<pdfrwt beam="1">  1        2 0.34664112E+00 0.12642690E+04</pdfrwt>
<pdfrwt beam="2">  1       -2 0.11400935E+00 0.12642690E+04</pdfrwt>
<totfact> 0.43627588E+00</totfact>
</mgrwt>
</event>
<event>
 8    1  0.7046235E-006  0.1146321E+04  0.7818608E-02  0.8648118E-01
          4   -1    0    0  502    0  0.00000000000E+00  0.00000000000E+00  0.17445453533E+04  0.17445453533E+04  0.00000000000E+00 0.  1.
         -4   -1    0    0    0  501 -0.00000000000E+00 -0.00000000000E+00 -0.90295311996E+03  0.90295311996E+03  0.00000000000E+00 0. -1.
    9000010    2    1    2  502    0 -0.53039778241E+03  0.22217033683E+03  0.96302481423E+03  0.15055742745E+04  0.10043184939E+04 0.  0.
   -9000010    2    1    2    0  501  0.53039778241E+03 -0.22217033683E+03 -0.12143258084E+03  0.11419241988E+04  0.97906258118E+03 0.  0.
        -13    1    3    3    0    0 -0.23548237268E+03 -0.35826458017E+03  0.66102030125E+03  0.78787899266E+03  0.10566000000E+00 0.  1.
          4    1    3    3  502    0 -0.29491540973E+03  0.58043491700E+03  0.30200451298E+03  0.71769528188E+03  0.00000000000E+00 0.  1.
         13    1    4    4    0    0 -0.21162455920E+03  0.17980940507E+03 -0.10784536603E+03  0.29790436443E+03  0.10566000000E+00 0. -1.
         -4    1    4    4    0  501  0.74202234161E+03 -0.40197974190E+03 -0.13587214808E+02  0.84401983433E+03  0.00000000000E+00 0. -1.
<mgrwt>
<rscale>  2 0.11463212E+04</rscale>
<asrwt>0</asrwt>
<pdfrwt beam="1">  1        4 0.26839159E+00 0.11463212E+04</pdfrwt>
<pdfrwt beam="2">  1       -4 0.13891587E+00 0.11463212E+04</pdfrwt>
<totfact> 0.20541791E-01</totfact>
</mgrwt>
</event>
<event>
 8    1  0.7046235E-006  0.1469084E+04  0.7818608E-02  0.8427517E-01
          2   -1    0    0  502    0  0.00000000000E+00  0.00000000000E+00  0.18230568654E+04  0.18230568654E+04  0.00000000000E+00 0. -1.
         -2   -1    0    0    0  501 -0.00000000000E+00 -0.00000000000E+00 -0.12313038505E+04  0.12313038505E+04  0.00000000000E+00 0.  1.
    9000010    2    1    2  502    0 -0.50548223980E+02  0.10749342344E+04  0.59647356185E+03  0.15893177681E+04  0.10060375375E+04 0.  0.
   -9000010    2    1    2    0  501  0.50548223980E+02 -0.10749342344E+04 -0.47205469432E+01  0.14650429479E+04  0.99412767005E+03 0.  0.
        -13    1    3    3    0    0  0.41521866847E+03  0.57316057882E+03  0.56212692376E+03  0.90382867920E+03  0.10566000000E+00 0.  1.
          4    1    3    3  502    0 -0.46576689245E+03  0.50177365553E+03  0.34346638088E+02  0.68548908893E+03  0.00000000000E+00 0.  1.
         13    1    4    4    0    0 -0.97711142120E+02 -0.89356337608E+03 -0.41696450511E+03  0.99088969318E+03  0.10566000000E+00 0. -1.
         -4    1    4    4    0  501  0.14825936610E+03 -0.18137085828E+03  0.41224395817E+03  0.47415325467E+03  0.00000000000E+00 0. -1.
<mgrwt>
<rscale>  2 0.14690836E+04</rscale>
<asrwt>0</asrwt>
<pdfrwt beam="1">  1        2 0.28047029E+00 0.14690836E+04</pdfrwt>
<pdfrwt beam="2">  1       -2 0.18943136E+00 0.14690836E+04</pdfrwt>
<totfact> 0.15754205E+00</totfact>
</mgrwt>
</event>
<event>
 8    1  0.7046235E-006  0.1182011E+04  0.7818608E-02  0.8620233E-01
         -2   -1    0    0    0  501 -0.00000000000E+00  0.00000000000E+00  0.12561184497E+04  0.12561184497E+04  0.00000000000E+00 0. -1.
          2   -1    0    0  502    0  0.00000000000E+00 -0.00000000000E+00 -0.11164290581E+04  0.11164290581E+04  0.00000000000E+00 0.  1.
    9000010    2    1    2  502    0  0.55294391015E+03  0.32756337500E+03 -0.25444090683E+01  0.11814522431E+04  0.99135170166E+03 0.  0.
   -9000010    2    1    2    0  501 -0.55294391015E+03 -0.32756337500E+03  0.14223380070E+03  0.11910952647E+04  0.99268965099E+03 0.  0.
        -13    1    3    3    0    0 -0.11801058883E+03  0.47918428278E+03 -0.76261243669E+01  0.49356078134E+03  0.10566000000E+00 0.  1.
          4    1    3    3  502    0  0.67095449898E+03 -0.15162090778E+03  0.50817152986E+01  0.68789146180E+03  0.00000000000E+00 0.  1.
         13    1    4    4    0    0 -0.62731599328E+03  0.48850737849E+01  0.41712395809E+03  0.75335358694E+03  0.10566000000E+00 0. -1.
         -4    1    4    4    0  501  0.74372083128E+02 -0.33244844878E+03 -0.27489015739E+03  0.43774167779E+03  0.00000000000E+00 0. -1.
<mgrwt>
<rscale>  2 0.11820108E+04</rscale>
<asrwt>0</asrwt>
<pdfrwt beam="2">  1        2 0.17175832E+00 0.11820108E+04</pdfrwt>
<pdfrwt beam="1">  1       -2 0.19324899E+00 0.11820108E+04</pdfrwt>
<totfact> 0.37220502E+00</totfact>
</mgrwt>
</event>
<event>
 8    1  0.7046235E-006  0.1145405E+04  0.7818608E-02  0.8648848E-01
          1   -1    0    0  502    0  0.00000000000E+00  0.00000000000E+00  0.10240000349E+04  0.10240000349E+04  0.00000000000E+00 0.  1.
         -1   -1    0    0    0  501 -0.00000000000E+00 -0.00000000000E+00 -0.13412052482E+04  0.13412052482E+04  0.00000000000E+00 0. -1.
    9000010    2    1    2  502    0  0.48338314556E+03 -0.34909432253E+03  0.92358240452E+02  0.11421264555E+04  0.96974052423E+03 0.  0.
   -9000010    2    1    2    0  501 -0.48338314556E+03  0.34909432253E+03 -0.40956345377E+03  0.12230788277E+04  0.98623196288E+03 0.  0.
        -13    1    3    3    0    0  0.40385547384E+03 -0.11818532723E+03 -0.40751899025E+03  0.58578046562E+03  0.10566000000E+00 0.  1.
          4    1    3    3  502    0  0.79527671718E+02 -0.23090899530E+03  0.49987723070E+03  0.55634598988E+03  0.00000000000E+00 0.  1.
         13    1    4    4    0    0  0.99203899259E+02 -0.15860320273E+03 -0.40961799328E+03  0.45031466901E+03  0.10566000000E+00 0. -1.
         -4    1    4    4    0  501 -0.58258704482E+03  0.50769752526E+03  0.54539505323E-01  0.77276415867E+03  0.00000000000E+00 0. -1.
<mgrwt>
<rscale>  2 0.11454048E+04</rscale>
<asrwt>0</asrwt>
<pdfrwt beam="1">  1        1 0.15753847E+00 0.11454048E+04</pdfrwt>
<pdfrwt beam="2">  1       -1 0.20633927E+00 0.11454048E+04</pdfrwt>
<totfact> 0.24016134E+00</totfact>
</mgrwt>
</event>
<event>
 8    1  0.7046235E-006  0.1206246E+04  0.7818608E-02  0.8601874E-01
         -2   -1    0    0    0  501 -0.00000000000E+00  0.00000000000E+00  0.12923982553E+04  0.12923982553E+04  0.00000000000E+00 0.  1.
          2   -1    0    0  502    0  0.00000000000E+00 -0.00000000000E+00 -0.11755826761E+04  0.11755826761E+04  0.00000000000E+00 0. -1.
    9000010    2    1    2  502    0 -0.60426942553E+03  0.17792374673E+02  0.31235177337E+03  0.12655895748E+04  0.10670966377E+04 0.  0.
   -9000010    2    1    2    0  501  0.60426942553E+03 -0.17792374673E+02 -0.19553619425E+03  0.12023913566E+04  0.10208097100E+04 0.  0.
        -13    1    3    3    0    0  0.10817116959E+00  0.20661900343E+03 -0.31339196907E+03  0.37537442870E+03  0.10566000000E+00 0.  1.
          4    1    3    3  502    0 -0.60437759670E+03 -0.18882662876E+03  0.62574374244E+03  0.89021514609E+03  0.00000000000E+00 0.  1.
         13    1    4    4    0    0  0.17176078587E+03  0.28106857974E+03 -0.49709242345E+03  0.59632390753E+03  0.10566000000E+00 0. -1.
         -4    1    4    4    0  501  0.43250863966E+03 -0.29886095441E+03  0.30155622920E+03  0.60606744907E+03  0.00000000000E+00 0. -1.
<mgrwt>
<rscale>  2 0.12062462E+04</rscale>
<asrwt>0</asrwt>
<pdfrwt beam="2">  1        2 0.18085887E+00 0.12062462E+04</pdfrwt>
<pdfrwt beam="1">  1       -2 0.19883050E+00 0.12062462E+04</pdfrwt>
<totfact> 0.30844547E+00</totfact>
</mgrwt>
</event>
<event>
 8    1  0.7046235E-006  0.1098822E+04  0.7818608E-02  0.8686913E-01
         -1   -1    0    0    0  501 -0.00000000000E+00  0.00000000000E+00  0.68450842296E+03  0.68450842296E+03  0.00000000000E+00 0. -1.
          1   -1    0    0  502    0  0.00000000000E+00 -0.00000000000E+00 -0.22012608827E+04  0.22012608827E+04  0.00000000000E+00 0.  1.
    9000010    2    1    2  502    0  0.44000209467E+03 -0.10564223082E+02 -0.14034172441E+04  0.17845432309E+04  0.10105944467E+04 0.  0.
   -9000010    2    1    2    0  501 -0.44000209467E+03  0.10564223082E+02 -0.11333521560E+03  0.11012260747E+04  0.10030655763E+04 0.  0.
        -13    1    3    3    0    0  0.16685489189E+03 -0.86681808462E+02 -0.14791469866E+04  0.14910500026E+04  0.10566000000E+00 0.  1.
          4    1    3    3  502    0  0.27314720278E+03  0.76117585380E+02  0.75729742515E+02  0.29349322836E+03  0.00000000000E+00 0.  1.
         13    1    4    4    0    0 -0.40248157570E+03  0.17270919531E+03  0.38045500598E+03  0.58014300622E+03  0.10566000000E+00 0. -1.
         -4    1    4    4    0  501 -0.37520518974E+02 -0.16214497223E+03 -0.49379022158E+03  0.52108306851E+03  0.00000000000E+00 0. -1.
<mgrwt>
<rscale>  2 0.10988223E+04</rscale>
<asrwt>0</asrwt>
<pdfrwt beam="2">  1        1 0.33865552E+00 0.10988223E+04</pdfrwt>
<pdfrwt beam="1">  1       -1 0.10530899E+00 0.10988223E+04</pdfrwt>
<totfact> 0.23823111E+00</totfact>
</mgrwt>
</event>
<event>
 8    1  0.7046235E-006  0.1327875E+04  0.7818608E-02  0.8516027E-01
          2   -1    0    0  502    0  0.00000000000E+00  0.00000000000E+00  0.18253798758E+04  0.18253798758E+04  0.00000000000E+00 0.  1.
         -2   -1    0    0    0  501 -0.00000000000E+00 -0.00000000000E+00 -0.10155352283E+04  0.10155352283E+04  0.00000000000E+00 0. -1.
    9000010    2    1    2  502    0  0.72528487697E+03  0.47958651349E+03  0.90805990218E+02  0.13299800744E+04  0.10022773537E+04 0.  0.
   -9000010    2    1    2    0  501 -0.72528487697E+03 -0.47958651349E+03  0.71903865728E+03  0.15109350297E+04  0.10049212390E+04 0.  0.
        -13    1    3    3    0    0  0.28178365720E+03  0.75427757760E+03  0.53436222925E+02  0.80696476665E+03  0.10566000000E+00 0.  1.
          4    1    3    3  502    0  0.44350121977E+03 -0.27469106411E+03  0.37369767293E+02  0.52301530775E+03  0.00000000000E+00 0.  1.
         13    1    4    4    0    0 -0.51753650276E+03 -0.26461067204E+03 -0.14294720412E+03  0.59857894532E+03  0.10566000000E+00 0. -1.
         -4    1    4    4    0  501 -0.20774837421E+03 -0.21497584145E+03  0.86198586140E+03  0.91235608435E+03  0.00000000000E+00 0. -1.
<mgrwt>
<rscale>  2 0.13278752E+04</rscale>
<asrwt>0</asrwt>
<pdfrwt beam="1">  1        2 0.28082767E+00 0.13278752E+04</pdfrwt>
<pdfrwt beam="2">  1       -2 0.15623619E+00 0.13278752E+04</pdfrwt>
<totfact> 0.30396994E+00</totfact>
</mgrwt>
</event>
<event>
 8    1  0.7046235E-006  0.1203425E+04  0.7818608E-02  0.8603988E-01
         -1   -1    0    0    0  501 -0.00000000000E+00  0.00000000000E+00  0.11318044736E+04  0.11318044736E+04  0.00000000000E+00 0. -1.
          1   -1    0    0  502    0  0.00000000000E+00 -0.00000000000E+00 -0.12916698023E+04  0.12916698023E+04  0.00000000000E+00 0.  1.
    9000010    2    1    2  502    0 -0.15209001871E+03  0.66449305568E+03  0.37439206295E+02  0.12016855143E+04  0.98892061680E+03 0.  0.
   -9000010    2    1    2    0  501  0.15209001871E+03 -0.66449305568E+03 -0.19730453507E+03  0.12217887616E+04  0.99456337333E+03 0.  0.
        -13    1    3    3    0    0 -0.11760735659E+03  0.21718558191E+03 -0.46596761847E+03  0.52737737905E+03  0.10566000000E+00 0.  1.
          4    1    3    3  502    0 -0.34482662118E+02  0.44730747377E+03  0.50340682476E+03  0.67430813527E+03  0.00000000000E+00 0.  1.
         13    1    4    4    0    0 -0.13633884803E+03  0.20758950730E+03  0.82291048880E+02  0.26163622248E+03  0.10566000000E+00 0. -1.
         -4    1    4    4    0  501  0.28842886674E+03 -0.87208256298E+03 -0.27959558395E+03  0.96015253912E+03  0.00000000000E+00 0. -1.
<mgrwt>
<rscale>  2 0.12034250E+04</rscale>
<asrwt>0</asrwt>
<pdfrwt beam="2">  1        1 0.19871843E+00 0.12034250E+04</pdfrwt>
<pdfrwt beam="1">  1       -1 0.17412377E+00 0.12034250E+04</pdfrwt>
<totfact> 0.28421340E+00</totfact>
</mgrwt>
</event>
<event>
 8    1  0.7046235E-006  0.1330617E+04  0.7818608E-02  0.8514203E-01
          4   -1    0    0  502    0  0.00000000000E+00  0.00000000000E+00  0.17089190130E+04  0.17089190130E+04  0.00000000000E+00 0. -1.
         -4   -1    0    0    0  501 -0.00000000000E+00 -0.00000000000E+00 -0.10534083116E+04  0.10534083116E+04  0.00000000000E+00 0.  1.
    9000010    2    1    2  502    0  0.68997291416E+03 -0.54410496611E+03  0.50563168491E+03  0.14259406552E+04  0.10027614447E+04 0.  0.
   -9000010    2    1    2    0  501 -0.68997291416E+03  0.54410496611E+03  0.14987901651E+03  0.13363866694E+04  0.99566699956E+03 0.  0.
        -13    1    3    3    0    0  0.80715763221E+03 -0.41660271921E+02  0.38909400706E+03  0.89701347760E+03  0.10566000000E+00 0.  1.
          4    1    3    3  502    0 -0.11718471806E+03 -0.50244469419E+03  0.11653767785E+03  0.52892717762E+03  0.00000000000E+00 0.  1.
         13    1    4    4    0    0  0.26141998552E+01  0.62611355471E+03  0.16591152123E+02  0.62633880203E+03  0.10566000000E+00 0. -1.
         -4    1    4    4    0  501 -0.69258711401E+03 -0.82008588600E+02  0.13328786439E+03  0.71004786732E+03  0.00000000000E+00 0. -1.
<mgrwt>
<rscale>  2 0.13306165E+04</rscale>
<asrwt>0</asrwt>
<pdfrwt beam="1">  1        4 0.26291062E+00 0.13306165E+04</pdfrwt>
<pdfrwt beam="2">  1       -4 0.16206282E+00 0.13306165E+04</pdfrwt>
<totfact> 0.16712141E-01</totfact>
</mgrwt>
</event>
<event>
 8    1  0.7046235E-006  0.1198380E+04  0.7818608E-02  0.8607783E-01
         -2   -1    0    0    0  501 -0.00000000000E+00  0.00000000000E+00  0.98208723377E+03  0.98208723377E+03  0.00000000000E+00 0. -1.
          2   -1    0    0  502    0  0.00000000000E+00 -0.00000000000E+00 -0.20453438985E+04  0.20453438985E+04  0.00000000000E+00 0.  1.
    9000010    2    1    2  502    0 -0.58452295277E+03  0.31294920461E+03  0.27638626061E+03  0.12303473585E+04  0.99887985785E+03 0.  0.
   -9000010    2    1    2    0  501  0.58452295277E+03 -0.31294920461E+03 -0.13396429253E+04  0.17970837738E+04  0.99762850587E+03 0.  0.
        -13    1    3    3    0    0  0.10493270039E+03  0.44873454283E+03  0.25639544869E+03  0.52736344091E+03  0.10566000000E+00 0.  1.
          4    1    3    3  502    0 -0.68945565317E+03 -0.13578533822E+03  0.19990811916E+02  0.70298391754E+03  0.00000000000E+00 0.  1.
         13    1    4    4    0    0  0.22471763148E+03 -0.55751529341E+03 -0.11966391847E+04  0.13391290699E+04  0.10566000000E+00 0. -1.
         -4    1    4    4    0  501  0.35980532130E+03  0.24456608880E+03 -0.14300374064E+03  0.45795470394E+03  0.00000000000E+00 0. -1.
<mgrwt>
<rscale>  2 0.11983804E+04</rscale>
<asrwt>0</asrwt>
<pdfrwt beam="2">  1        2 0.31466829E+00 0.11983804E+04</pdfrwt>
<pdfrwt beam="1">  1       -2 0.15109035E+00 0.11983804E+04</pdfrwt>
<totfact> 0.25973833E+00</totfact>
</mgrwt>
</event>
<event>
 8    1  0.7046235E-006  0.1105332E+04  0.7818608E-02  0.8681477E-01
         -2   -1    0    0    0  501 -0.00000000000E+00  0.00000000000E+00  0.13138760698E+04  0.13138760698E+04  0.00000000000E+00 0. -1.
          2   -1    0    0  502    0  0.00000000000E+00 -0.00000000000E+00 -0.14449089709E+04  0.14449089709E+04  0.00000000000E+00 0.  1.
    9000010    2    1    2  502    0  0.26425375605E+03 -0.38753147795E+03 -0.88886047740E+03  0.14149249607E+04  0.99595632538E+03 0.  0.
   -9000010    2    1    2    0  501 -0.26425375605E+03  0.38753147795E+03  0.75782757625E+03  0.13438600800E+04  0.10058064354E+04 0.  0.
        -13    1    3    3    0    0  0.37418369939E+02  0.30746909530E+03 -0.70676471227E+02  0.31769884124E+03  0.10566000000E+00 0.  1.
          4    1    3    3  502    0  0.22683538611E+03 -0.69500057325E+03 -0.81818400618E+03  0.10972261194E+04  0.00000000000E+00 0.  1.
         13    1    4    4    0    0 -0.24929187253E+03 -0.28505665712E+03  0.49112872158E+03  0.62017027323E+03  0.10566000000E+00 0. -1.
         -4    1    4    4    0  501 -0.14961883520E+02  0.67258813507E+03  0.26669885467E+03  0.72368980681E+03  0.00000000000E+00 0. -1.
<mgrwt>
<rscale>  2 0.11053319E+04</rscale>
<asrwt>0</asrwt>
<pdfrwt beam="2">  1        2 0.22229369E+00 0.11053319E+04</pdfrwt>
<pdfrwt beam="1">  1       -2 0.20213478E+00 0.11053319E+04</pdfrwt>
<totfact> 0.20708207E+00</totfact>
</mgrwt>
</event>
<event>
 8    1  0.7046235E-006  0.1203446E+04  0.7818608E-02  0.8603972E-01
          2   -1    0    0  502    0  0.00000000000E+00  0.00000000000E+00  0.16902324192E+04  0.16902324192E+04  0.00000000000E+00 0.  1.
         -2   -1    0    0    0  501 -0.00000000000E+00 -0.00000000000E+00 -0.89616558950E+03  0.89616558950E+03  0.00000000000E+00 0. -1.
    9000010    2    1    2  502    0  0.59933723829E+03  0.29463457875E+03  0.66824309554E+03  0.13775295883E+04  0.10025089884E+04 0.  0.
   -9000010    2    1    2    0  501 -0.59933723829E+03 -0.29463457875E+03  0.12582373411E+03  0.12088684203E+04  0.99975826345E+03 0.  0.
        -13    1    3    3    0    0  0.53894540148E+02 -0.18954493093E+03 -0.17435563113E+03  0.26311936373E+03  0.10566000000E+00 0.  1.
          4    1    3    3  502    0  0.54544269814E+03  0.48417950968E+03  0.84259872667E+03  0.11144102246E+04  0.00000000000E+00 0.  1.
         13    1    4    4    0    0 -0.63666533634E+03  0.22316291495E+03 -0.22436041638E+00  0.67464397915E+03  0.10566000000E+00 0. -1.
         -4    1    4    4    0  501  0.37328098049E+02 -0.51779749370E+03  0.12604809453E+03  0.53422444115E+03  0.00000000000E+00 0. -1.
<mgrwt>
<rscale>  2 0.12034461E+04</rscale>
<asrwt>0</asrwt>
<pdfrwt beam="1">  1        2 0.26003576E+00 0.12034461E+04</pdfrwt>
<pdfrwt beam="2">  1       -2 0.13787163E+00 0.12034461E+04</pdfrwt>
<totfact> 0.53155773E+00</totfact>
</mgrwt>
</event>
<event>
 8    1  0.7046235E-006  0.1377785E+04  0.7818608E-02  0.8483504E-01
          2   -1    0    0  502    0  0.00000000000E+00  0.00000000000E+00  0.28141508238E+04  0.28141508238E+04  0.00000000000E+00 0.  1.
         -2   -1    0    0    0  501 -0.00000000000E+00 -0.00000000000E+00 -0.68741179178E+03  0.68741179178E+03  0.00000000000E+00 0. -1.
    9000010    2    1    2  502    0 -0.69179394088E+03  0.77519237768E+03  0.82756838358E+03  0.16112911379E+04  0.91207873698E+03 0.  0.
   -9000010    2    1    2    0  501  0.69179394088E+03 -0.77519237768E+03  0.12991706484E+04  0.18902714777E+04  0.89765238625E+03 0.  0.
        -13    1    3    3    0    0  0.14379062152E+03  0.15393648023E+03  0.46199140429E+03  0.50774821672E+03  0.10566000000E+00 0.  1.
          4    1    3    3  502    0 -0.83558456240E+03  0.62125589746E+03  0.36557697928E+03  0.11035429212E+04  0.00000000000E+00 0.  1.
         13    1    4    4    0    0  0.39940873395E+03 -0.93336184945E+03  0.80964803937E+03  0.12985459705E+04  0.10566000000E+00 0. -1.
         -4    1    4    4    0  501  0.29238520694E+03  0.15816947177E+03  0.48952260905E+03  0.59172550714E+03  0.00000000000E+00 0. -1.
<mgrwt>
<rscale>  2 0.13777848E+04</rscale>
<asrwt>0</asrwt>
<pdfrwt beam="1">  1        2 0.43294628E+00 0.13777848E+04</pdfrwt>
<pdfrwt beam="2">  1       -2 0.10575566E+00 0.13777848E+04</pdfrwt>
<totfact> 0.25004881E+00</totfact>
</mgrwt>
</event>
<event>
 8    1  0.7046235E-006  0.1181919E+04  0.7818608E-02  0.8620303E-01
          2   -1    0    0  502    0  0.00000000000E+00  0.00000000000E+00  0.17528709209E+04  0.17528709209E+04  0.00000000000E+00 0.  1.
         -2   -1    0    0    0  501 -0.00000000000E+00 -0.00000000000E+00 -0.80521023314E+03  0.80521023314E+03  0.00000000000E+00 0. -1.
    9000010    2    1    2  502    0  0.38197233028E+03  0.48593566389E+03  0.34426165555E+03  0.12311639584E+04  0.10075774285E+04 0.  0.
   -9000010    2    1    2    0  501 -0.38197233028E+03 -0.48593566389E+03  0.60339903216E+03  0.13269171956E+04  0.10072648716E+04 0.  0.
        -13    1    3    3    0    0  0.70668063130E+03  0.44576884162E+03  0.34506811858E+03  0.90397975223E+03  0.10566000000E+00 0.  1.
          4    1    3    3  502    0 -0.32470830102E+03  0.40166822275E+02 -0.80646303632E+00  0.32718420614E+03  0.00000000000E+00 0.  1.
         13    1    4    4    0    0 -0.47501740145E+03 -0.74215022725E+03  0.33020191268E+03  0.94098980111E+03  0.10566000000E+00 0. -1.
         -4    1    4    4    0  501  0.93045071169E+02  0.25621456336E+03  0.27319711949E+03  0.38592739452E+03  0.00000000000E+00 0. -1.
<mgrwt>
<rscale>  2 0.11819195E+04</rscale>
<asrwt>0</asrwt>
<pdfrwt beam="1">  1        2 0.26967245E+00 0.11819195E+04</pdfrwt>
<pdfrwt beam="2">  1       -2 0.12387850E+00 0.11819195E+04</pdfrwt>
<totfact> 0.66356349E+00</totfact>
</mgrwt>
</event>
<event>
 8    1  0.7046235E-006  0.1123022E+04  0.7818608E-02  0.8666898E-01
         -1   -1    0    0    0  501 -0.00000000000E+00  0.00000000000E+00  0.15403379356E+04  0.15403379356E+04  0.00000000000E+00 0. -1.
          1   -1    0    0  502    0  0.00000000000E+00 -0.00000000000E+00 -0.10389958519E+04  0.10389958519E+04  0.00000000000E+00 0.  1.
    9000010    2    1    2  502    0 -0.43752240992E+03 -0.26828972433E+03  0.84497911653E+03  0.14079729362E+04  0.10024933148E+04 0.  0.
   -9000010    2    1    2    0  501  0.43752240992E+03  0.26828972433E+03 -0.34363703274E+03  0.11713608513E+04  0.99528618916E+03 0.  0.
        -13    1    3    3    0    0 -0.48183176651E+02 -0.67977172022E+02 -0.23140205699E+03  0.24594600540E+03  0.10566000000E+00 0.  1.
          4    1    3    3  502    0 -0.38933923327E+03 -0.20031255231E+03  0.10763811735E+04  0.11620269308E+04  0.00000000000E+00 0.  1.
         13    1    4    4    0    0  0.53716650652E+03  0.28724334969E+03 -0.62471611209E+03  0.87254044579E+03  0.10566000000E+00 0. -1.
         -4    1    4    4    0  501 -0.99644096596E+02 -0.18953625361E+02  0.28107907935E+03  0.29882040551E+03  0.00000000000E+00 0. -1.
<mgrwt>
<rscale>  2 0.11230220E+04</rscale>
<asrwt>0</asrwt>
<pdfrwt beam="2">  1        1 0.15984551E+00 0.11230220E+04</pdfrwt>
<pdfrwt beam="1">  1       -1 0.23697507E+00 0.11230220E+04</pdfrwt>
<totfact> 0.12178603E+00</totfact>
</mgrwt>
</event>
<event>
 8    1  0.7046235E-006  0.1292449E+04  0.7818608E-02  0.8540018E-01
         -2   -1    0    0    0  501 -0.00000000000E+00  0.00000000000E+00  0.59693450066E+03  0.59693450066E+03  0.00000000000E+00 0. -1.
          2   -1    0    0  502    0  0.00000000000E+00 -0.00000000000E+00 -0.35225364094E+04  0.35225364094E+04  0.00000000000E+00 0.  1.
    9000010    2    1    2  502    0 -0.70655521771E+03  0.40350424781E+03 -0.24045323385E+04  0.27340605933E+04  0.10155174087E+04 0.  0.
   -9000010    2    1    2    0  501  0.70655521771E+03 -0.40350424781E+03 -0.52106957028E+03  0.13854103168E+04  0.99288080609E+03 0.  0.
        -13    1    3    3    0    0 -0.70996910495E+03  0.59313285524E+03 -0.23661227037E+04  0.25405509981E+04  0.10566000000E+00 0.  1.
          4    1    3    3  502    0  0.34138872432E+01 -0.18962860744E+03 -0.38409634798E+02  0.19350959519E+03  0.00000000000E+00 0.  1.
         13    1    4    4    0    0 -0.16773085497E+03  0.11821898531E+03 -0.26576193574E+03  0.33576596887E+03  0.10566000000E+00 0. -1.
         -4    1    4    4    0  501  0.87428607268E+03 -0.52172323312E+03 -0.25530763455E+03  0.10496443479E+04  0.00000000000E+00 0. -1.
<mgrwt>
<rscale>  2 0.12924493E+04</rscale>
<asrwt>0</asrwt>
<pdfrwt beam="2">  1        2 0.54192867E+00 0.12924493E+04</pdfrwt>
<pdfrwt beam="1">  1       -2 0.91836078E-01 0.12924493E+04</pdfrwt>
<totfact> 0.12185719E+00</totfact>
</mgrwt>
</event>
<event>
 8    1  0.7046235E-006  0.1137708E+04  0.7818608E-02  0.8655007E-01
          2   -1    0    0  502    0  0.00000000000E+00  0.00000000000E+00  0.19565507035E+04  0.19565507035E+04  0.00000000000E+00 0.  1.
         -2   -1    0    0    0  501 -0.00000000000E+00 -0.00000000000E+00 -0.68866135149E+03  0.68866135149E+03  0.00000000000E+00 0. -1.
    9000010    2    1    2  502    0  0.67480909821E+02 -0.63296585662E+03  0.82748864341E+03  0.13386362169E+04  0.83786038061E+03 0.  0.
   -9000010    2    1    2    0  501 -0.67480909821E+02  0.63296585662E+03  0.44040070856E+03  0.13065758380E+04  0.10526101784E+04 0.  0.
        -13    1    3    3    0    0 -0.33873160052E+03 -0.17176878034E+03  0.53987961639E+03  0.66008607200E+03  0.10566000000E+00 0.  1.
          4    1    3    3  502    0  0.40621251034E+03 -0.46119707627E+03  0.28760902702E+03  0.67855014490E+03  0.00000000000E+00 0.  1.
         13    1    4    4    0    0  0.41387211561E+03  0.50216743442E+03  0.14854426571E+02  0.65090930660E+03  0.10566000000E+00 0. -1.
         -4    1    4    4    0  501 -0.48135302543E+03  0.13079842220E+03  0.42554628199E+03  0.65566653144E+03  0.00000000000E+00 0. -1.
<mgrwt>
<rscale>  2 0.11377076E+04</rscale>
<asrwt>0</asrwt>
<pdfrwt beam="1">  1        2 0.30100780E+00 0.11377076E+04</pdfrwt>
<pdfrwt beam="2">  1       -2 0.10594790E+00 0.11377076E+04</pdfrwt>
<totfact> 0.77257327E+00</totfact>
</mgrwt>
</event>
<event>
 8    1  0.7046235E-006  0.1035433E+04  0.7818608E-02  0.8741993E-01
          2   -1    0    0  502    0  0.00000000000E+00  0.00000000000E+00  0.14386486114E+04  0.14386486114E+04  0.00000000000E+00 0. -1.
         -2   -1    0    0    0  501 -0.00000000000E+00 -0.00000000000E+00 -0.74754680843E+03  0.74754680843E+03  0.00000000000E+00 0.  1.
    9000010    2    1    2  502    0 -0.92540190081E+02 -0.22367350350E+03  0.34199811851E+03  0.11431992479E+04  0.10636485718E+04 0.  0.
   -9000010    2    1    2    0  501  0.92540190081E+02  0.22367350350E+03  0.34910368448E+03  0.10429961719E+04  0.95256186634E+03 0.  0.
        -13    1    3    3    0    0 -0.37340565852E+03  0.26290191968E+03  0.35936252056E+03  0.58111155343E+03  0.10566000000E+00 0.  1.
          4    1    3    3  502    0  0.28086546844E+03 -0.48657542319E+03 -0.17364402046E+02  0.56208769447E+03  0.00000000000E+00 0.  1.
         13    1    4    4    0    0  0.29143894148E+03 -0.19331539546E+03 -0.13402342365E+03  0.37452608452E+03  0.10566000000E+00 0. -1.
         -4    1    4    4    0  501 -0.19889875140E+03  0.41698889897E+03  0.48312710813E+03  0.66847008742E+03  0.00000000000E+00 0. -1.
<mgrwt>
<rscale>  2 0.10354332E+04</rscale>
<asrwt>0</asrwt>
<pdfrwt beam="1">  1        2 0.22133055E+00 0.10354332E+04</pdfrwt>
<pdfrwt beam="2">  1       -2 0.11500720E+00 0.10354332E+04</pdfrwt>
<totfact> 0.12150431E+01</totfact>
</mgrwt>
</event>
<event>
 8    1  0.7046235E-006  0.1214258E+04  0.7818608E-02  0.8595902E-01
         -2   -1    0    0    0  501 -0.00000000000E+00  0.00000000000E+00  0.80627464100E+03  0.80627464100E+03  0.00000000000E+00 0. -1.
          2   -1    0    0  502    0  0.00000000000E+00 -0.00000000000E+00 -0.23765555496E+04  0.23765555496E+04  0.00000000000E+00 0.  1.
    9000010    2    1    2  502    0  0.68875191545E+03  0.38490709709E+02 -0.15525152198E+04  0.19751070370E+04  0.10074142961E+04 0.  0.
   -9000010    2    1    2    0  501 -0.68875191545E+03 -0.38490709709E+02 -0.17765688833E+02  0.12077231537E+04  0.99117044972E+03 0.  0.
        -13    1    3    3    0    0  0.66384758262E+03  0.45026152832E+03 -0.11176197241E+04  0.13756827090E+04  0.10566000000E+00 0.  1.
          4    1    3    3  502    0  0.24904332828E+02 -0.41177081861E+03 -0.43489549568E+03  0.59942432802E+03  0.00000000000E+00 0.  1.
         13    1    4    4    0    0 -0.11863611835E+03  0.15388665435E+03 -0.43438775846E+03  0.47586591266E+03  0.10566000000E+00 0. -1.
         -4    1    4    4    0  501 -0.57011579710E+03 -0.19237736406E+03  0.41662206962E+03  0.73185724100E+03  0.00000000000E+00 0. -1.
<mgrwt>
<rscale>  2 0.12142580E+04</rscale>
<asrwt>0</asrwt>
<pdfrwt beam="2">  1        2 0.36562392E+00 0.12142580E+04</pdfrwt>
<pdfrwt beam="1">  1       -2 0.12404225E+00 0.12142580E+04</pdfrwt>
<totfact> 0.30082990E+00</totfact>
</mgrwt>
</event>
<event>
 8    1  0.7046235E-006  0.1288966E+04  0.7818608E-02  0.8542420E-01
          2   -1    0    0  502    0  0.00000000000E+00  0.00000000000E+00  0.29560762009E+04  0.29560762009E+04  0.00000000000E+00 0.  1.
         -2   -1    0    0    0  501 -0.00000000000E+00 -0.00000000000E+00 -0.56829651580E+03  0.56829651580E+03  0.00000000000E+00 0. -1.
    9000010    2    1    2  502    0  0.66253935815E+03  0.46534180341E+03  0.13833877294E+04  0.18943525897E+04  0.10096082056E+04 0.  0.
   -9000010    2    1    2    0  501 -0.66253935815E+03 -0.46534180341E+03  0.10043919556E+04  0.16300201270E+04  0.99632375201E+03 0.  0.
        -13    1    3    3    0    0  0.14930152148E+03  0.15482487442E+03  0.12647036348E+04  0.12828628068E+04  0.10566000000E+00 0.  1.
          4    1    3    3  502    0  0.51323783667E+03  0.31051692900E+03  0.11868409461E+03  0.61148978282E+03  0.00000000000E+00 0.  1.
         13    1    4    4    0    0 -0.66346594098E+03  0.86318112182E+02  0.29456859477E+03  0.73103251605E+03  0.10566000000E+00 0. -1.
         -4    1    4    4    0  501  0.92658283778E+00 -0.55165991559E+03  0.70982336086E+03  0.89898761095E+03  0.00000000000E+00 0. -1.
<mgrwt>
<rscale>  2 0.12889658E+04</rscale>
<asrwt>0</asrwt>
<pdfrwt beam="1">  1        2 0.45478095E+00 0.12889658E+04</pdfrwt>
<pdfrwt beam="2">  1       -2 0.87430235E-01 0.12889658E+04</pdfrwt>
<totfact> 0.32537316E+00</totfact>
</mgrwt>
</event>
<event>
 8    1  0.7046235E-006  0.1014694E+04  0.7818608E-02  0.8760907E-01
          1   -1    0    0  502    0  0.00000000000E+00  0.00000000000E+00  0.14757897504E+04  0.14757897504E+04  0.00000000000E+00 0.  1.
         -1   -1    0    0    0  501 -0.00000000000E+00 -0.00000000000E+00 -0.70590846521E+03  0.70590846521E+03  0.00000000000E+00 0. -1.
    9000010    2    1    2  502    0  0.19554860196E+03 -0.10977667426E+02  0.26485689808E+03  0.10425466286E+04  0.98913827724E+03 0.  0.
   -9000010    2    1    2    0  501 -0.19554860196E+03  0.10977667426E+02  0.50502438706E+03  0.11391515869E+04  0.10021262104E+04 0.  0.
        -13    1    3    3    0    0  0.59847582470E+02  0.48587334201E+03  0.84204346653E+02  0.49673435633E+03  0.10566000000E+00 0.  1.
          4    1    3    3  502    0  0.13570101949E+03 -0.49685100943E+03  0.18065255143E+03  0.54581227231E+03  0.00000000000E+00 0.  1.
         13    1    4    4    0    0 -0.10319858741E+03 -0.44749340615E+03  0.48951941804E+03  0.67121499447E+03  0.10566000000E+00 0. -1.
         -4    1    4    4    0  501 -0.92350014544E+02  0.45847107358E+03  0.15504969019E+02  0.46793659246E+03  0.00000000000E+00 0. -1.
<mgrwt>
<rscale>  2 0.10146942E+04</rscale>
<asrwt>0</asrwt>
<pdfrwt beam="1">  1        1 0.22704458E+00 0.10146942E+04</pdfrwt>
<pdfrwt beam="2">  1       -1 0.10860130E+00 0.10146942E+04</pdfrwt>
<totfact> 0.79346226E+00</totfact>
</mgrwt>
</event>
<event>
 8    1  0.7046235E-006  0.1081557E+04  0.7818608E-02  0.8701524E-01
         -4   -1    0    0    0  501 -0.00000000000E+00  0.00000000000E+00  0.76692268802E+03  0.76692268802E+03  0.00000000000E+00 0. -1.
          4   -1    0    0  502    0  0.00000000000E+00 -0.00000000000E+00 -0.16764746908E+04  0.16764746908E+04  0.00000000000E+00 0.  1.
    9000010    2    1    2  502    0  0.97678580255E+02 -0.45629545826E+03 -0.82011659062E+03  0.13541534940E+04  0.97128461996E+03 0.  0.
   -9000010    2    1    2    0  501 -0.97678580255E+02  0.45629545826E+03 -0.89435412150E+02  0.10892438848E+04  0.98015656773E+03 0.  0.
        -13    1    3    3    0    0  0.46250279035E+03 -0.25595133657E+03 -0.77134701020E+03  0.93509151375E+03  0.10566000000E+00 0.  1.
          4    1    3    3  502    0 -0.36482421009E+03 -0.20034412168E+03 -0.48769580418E+02  0.41906198030E+03  0.00000000000E+00 0.  1.
         13    1    4    4    0    0 -0.49980754891E+03  0.18077131779E+03 -0.23410152829E+03  0.58076621114E+03  0.10566000000E+00 0. -1.
         -4    1    4    4    0  501  0.40212896866E+03  0.27552414046E+03  0.14466611614E+03  0.50847767362E+03  0.00000000000E+00 0. -1.
<mgrwt>
<rscale>  2 0.10815567E+04</rscale>
<asrwt>0</asrwt>
<pdfrwt beam="2">  1        4 0.25791918E+00 0.10815567E+04</pdfrwt>
<pdfrwt beam="1">  1       -4 0.11798811E+00 0.10815567E+04</pdfrwt>
<totfact> 0.28329429E-01</totfact>
</mgrwt>
</event>
<event>
 8    1  0.7046235E-006  0.1556250E+04  0.7818608E-02  0.8377843E-01
          2   -1    0    0  502    0  0.00000000000E+00  0.00000000000E+00  0.28369789061E+04  0.28369789061E+04  0.00000000000E+00 0.  1.
         -2   -1    0    0    0  501 -0.00000000000E+00 -0.00000000000E+00 -0.93319032297E+03  0.93319032297E+03  0.00000000000E+00 0. -1.
    9000010    2    1    2  502    0  0.11696333129E+04  0.40014878120E+02  0.40317649303E+03  0.16101701536E+04  0.10297831626E+04 0.  0.
   -9000010    2    1    2    0  501 -0.11696333129E+04 -0.40014878120E+02  0.15006120901E+04  0.21599990755E+04  0.10218199862E+04 0.  0.
        -13    1    3    3    0    0  0.83238696584E+03  0.43805034759E+03 -0.16285425276E+02  0.94075575692E+03  0.10566000000E+00 0.  1.
          4    1    3    3  502    0  0.33724634701E+03 -0.39803546947E+03  0.41946191831E+03  0.66941439665E+03  0.00000000000E+00 0.  1.
         13    1    4    4    0    0 -0.13381948078E+04 -0.79554040572E+02  0.14601368944E+04  0.19821942262E+04  0.10566000000E+00 0. -1.
         -4    1    4    4    0  501  0.16856149497E+03  0.39539162452E+02  0.40475195733E+02  0.17780484927E+03  0.00000000000E+00 0. -1.
<mgrwt>
<rscale>  2 0.15562501E+04</rscale>
<asrwt>0</asrwt>
<pdfrwt beam="1">  1        2 0.43645829E+00 0.15562501E+04</pdfrwt>
<pdfrwt beam="2">  1       -2 0.14356774E+00 0.15562501E+04</pdfrwt>
<totfact> 0.10403137E+00</totfact>
</mgrwt>
</event>
<event>
 8    1  0.7046235E-006  0.1278181E+04  0.7818608E-02  0.8549906E-01
         -2   -1    0    0    0  501 -0.00000000000E+00  0.00000000000E+00  0.14782579048E+04  0.14782579048E+04  0.00000000000E+00 0.  1.
          2   -1    0    0  502    0  0.00000000000E+00 -0.00000000000E+00 -0.15514128810E+04  0.15514128810E+04  0.00000000000E+00 0. -1.
    9000010    2    1    2  502    0 -0.13757782467E+03 -0.79329198229E+03  0.77562556320E+03  0.15020464475E+04  0.10031493853E+04 0.  0.
   -9000010    2    1    2    0  501  0.13757782467E+03  0.79329198229E+03 -0.84878053935E+03  0.15276243383E+04  0.98232779056E+03 0.  0.
        -13    1    3    3    0    0 -0.12207521787E+03 -0.90935360247E+03  0.93123923153E+03  0.13072998320E+04  0.10566000000E+00 0.  1.
          4    1    3    3  502    0 -0.15502606794E+02  0.11606162018E+03 -0.15561366832E+03  0.19474661554E+03  0.00000000000E+00 0.  1.
         13    1    4    4    0    0  0.54043127071E+03  0.54900933623E+03 -0.67880508468E+03  0.10267685054E+04  0.10566000000E+00 0. -1.
         -4    1    4    4    0  501 -0.40285344604E+03  0.24428264606E+03 -0.16997545467E+03  0.50085583289E+03  0.00000000000E+00 0. -1.
<mgrwt>
<rscale>  2 0.12781813E+04</rscale>
<asrwt>0</asrwt>
<pdfrwt beam="2">  1        2 0.23867890E+00 0.12781813E+04</pdfrwt>
<pdfrwt beam="1">  1       -2 0.22742429E+00 0.12781813E+04</pdfrwt>
<totfact> 0.11025152E+00</totfact>
</mgrwt>
</event>
<event>
 8    1  0.7046235E-006  0.1154361E+04  0.7818608E-02  0.8641746E-01
         -2   -1    0    0    0  501 -0.00000000000E+00  0.00000000000E+00  0.63374494075E+03  0.63374494075E+03  0.00000000000E+00 0.  1.
          2   -1    0    0  502    0  0.00000000000E+00 -0.00000000000E+00 -0.21457509574E+04  0.21457509574E+04  0.00000000000E+00 0. -1.
    9000010    2    1    2  502    0 -0.55099414047E+03  0.96048740942E+02 -0.56111779307E+03  0.12863553715E+04  0.10134283698E+04 0.  0.
   -9000010    2    1    2    0  501  0.55099414047E+03 -0.96048740942E+02 -0.95088822355E+03  0.14931405266E+04  0.10062108700E+04 0.  0.
        -13    1    3    3    0    0 -0.22771498840E+03 -0.45886862984E+03 -0.20284902316E+03  0.55096485619E+03  0.10566000000E+00 0.  1.
          4    1    3    3  502    0 -0.32327915207E+03  0.55491737078E+03 -0.35826876990E+03  0.73539051534E+03  0.00000000000E+00 0.  1.
         13    1    4    4    0    0  0.65633341743E+03 -0.33375140939E+03 -0.98620232980E+03  0.12307552984E+04  0.10566000000E+00 0. -1.
         -4    1    4    4    0  501 -0.10533927696E+03  0.23770266845E+03  0.35314106252E+02  0.26238522817E+03  0.00000000000E+00 0. -1.
<mgrwt>
<rscale>  2 0.11543607E+04</rscale>
<asrwt>0</asrwt>
<pdfrwt beam="2">  1        2 0.33011553E+00 0.11543607E+04</pdfrwt>
<pdfrwt beam="1">  1       -2 0.97499222E-01 0.11543607E+04</pdfrwt>
<totfact> 0.74361861E+00</totfact>
</mgrwt>
</event>
<event>
 8    1  0.7046235E-006  0.1045128E+04  0.7818608E-02  0.8733307E-01
         -2   -1    0    0    0  501 -0.00000000000E+00  0.00000000000E+00  0.76213301144E+03  0.76213301144E+03  0.00000000000E+00 0.  1.
          2   -1    0    0  502    0  0.00000000000E+00 -0.00000000000E+00 -0.14461204860E+04  0.14461204860E+04  0.00000000000E+00 0. -1.
    9000010    2    1    2  502    0 -0.31726703758E+03 -0.40043851728E+02 -0.23573223146E+03  0.10649263470E+04  0.98804683911E+03 0.  0.
   -9000010    2    1    2    0  501  0.31726703758E+03  0.40043851728E+02 -0.44825524311E+03  0.11433271505E+04  0.10019991651E+04 0.  0.
        -13    1    3    3    0    0  0.23660637546E+03 -0.33209147232E+03 -0.14210844310E+03  0.43181262564E+03  0.10566000000E+00 0.  1.
          4    1    3    3  502    0 -0.55387341304E+03  0.29204762060E+03 -0.93623788358E+02  0.63311372131E+03  0.00000000000E+00 0.  1.
         13    1    4    4    0    0 -0.13023623922E+03 -0.16337583115E+03  0.22672898638E+03  0.30831669536E+03  0.10566000000E+00 0. -1.
         -4    1    4    4    0  501  0.44750327680E+03  0.20341968288E+03 -0.67498422948E+03  0.83501045513E+03  0.00000000000E+00 0. -1.
<mgrwt>
<rscale>  2 0.10451283E+04</rscale>
<asrwt>0</asrwt>
<pdfrwt beam="2">  1        2 0.22248007E+00 0.10451283E+04</pdfrwt>
<pdfrwt beam="1">  1       -2 0.11725123E+00 0.10451283E+04</pdfrwt>
<totfact> 0.11439561E+01</totfact>
</mgrwt>
</event>
<event>
 8    1  0.7046235E-006  0.1014055E+04  0.7818608E-02  0.8761497E-01
          2   -1    0    0  502    0  0.00000000000E+00  0.00000000000E+00  0.16426951634E+04  0.16426951634E+04  0.00000000000E+00 0. -1.
         -2   -1    0    0    0  501 -0.00000000000E+00 -0.00000000000E+00 -0.68986412702E+03  0.68986412702E+03  0.00000000000E+00 0.  1.
    9000010    2    1    2  502    0 -0.17561442774E+03  0.14411383822E+03  0.12551818639E+03  0.10307751334E+04  0.99756369970E+03 0.  0.
   -9000010    2    1    2    0  501  0.17561442774E+03 -0.14411383822E+03  0.82731285003E+03  0.13017841570E+04  0.97907416170E+03 0.  0.
        -13    1    3    3    0    0 -0.39384838079E+03  0.11947679343E+03 -0.32838996592E+03  0.52652752264E+03  0.10566000000E+00 0.  1.
          4    1    3    3  502    0  0.21823395305E+03  0.24637044783E+02  0.45390815231E+03  0.50424761078E+03  0.00000000000E+00 0.  1.
         13    1    4    4    0    0 -0.24648880639E+02  0.35775744029E+03  0.63306613836E+03  0.72757865562E+03  0.10566000000E+00 0. -1.
         -4    1    4    4    0  501  0.20026330838E+03 -0.50187127851E+03  0.19424671166E+03  0.57420550142E+03  0.00000000000E+00 0. -1.
<mgrwt>
<rscale>  2 0.10140546E+04</rscale>
<asrwt>0</asrwt>
<pdfrwt beam="1">  1        2 0.25272233E+00 0.10140546E+04</pdfrwt>
<pdfrwt beam="2">  1       -2 0.10613294E+00 0.10140546E+04</pdfrwt>
<totfact> 0.11542307E+01</totfact>
</mgrwt>
</event>
<event>
 8    1  0.7046235E-006  0.1343838E+04  0.7818608E-02  0.8505467E-01
         -1   -1    0    0    0  501 -0.00000000000E+00  0.00000000000E+00  0.23678504414E+04  0.23678504414E+04  0.00000000000E+00 0.  1.
          1   -1    0    0  502    0  0.00000000000E+00 -0.00000000000E+00 -0.78207684822E+03  0.78207684822E+03  0.00000000000E+00 0. -1.
    9000010    2    1    2  502    0  0.76660526972E+03 -0.47084779908E+03  0.54568063286E+03  0.14517799671E+04  0.10002581819E+04 0.  0.
   -9000010    2    1    2    0  501 -0.76660526972E+03  0.47084779908E+03  0.10400929603E+04  0.16981473225E+04  0.99625783473E+03 0.  0.
        -13    1    3    3    0    0 -0.18653553917E+03 -0.10669503860E+03  0.35321735075E+03  0.41345114182E+03  0.10566000000E+00 0.  1.
          4    1    3    3  502    0  0.95314080889E+03 -0.36415276048E+03  0.19246328211E+03  0.10383288253E+04  0.00000000000E+00 0.  1.
         13    1    4    4    0    0 -0.17726324376E+03 -0.31200360705E+03  0.22483826582E+03  0.42346282640E+03  0.10566000000E+00 0. -1.
         -4    1    4    4    0  501 -0.58934202595E+03  0.78285140613E+03  0.81525469448E+03  0.12746844961E+04  0.00000000000E+00 0. -1.
<mgrwt>
<rscale>  2 0.13438378E+04</rscale>
<asrwt>0</asrwt>
<pdfrwt beam="2">  1        1 0.12031952E+00 0.13438378E+04</pdfrwt>
<pdfrwt beam="1">  1       -1 0.36428468E+00 0.13438378E+04</pdfrwt>
<totfact> 0.30905607E-01</totfact>
</mgrwt>
</event>
<event>
 8    1  0.7046235E-006  0.1067519E+04  0.7818608E-02  0.8713615E-01
          1   -1    0    0  502    0  0.00000000000E+00  0.00000000000E+00  0.54142617284E+03  0.54142617284E+03  0.00000000000E+00 0. -1.
         -1   -1    0    0    0  501 -0.00000000000E+00 -0.00000000000E+00 -0.22210788482E+04  0.22210788482E+04  0.00000000000E+00 0.  1.
    9000010    2    1    2  502    0  0.40991361755E+03  0.62388073282E+02 -0.11660979499E+04  0.15908203708E+04  0.99950166472E+03 0.  0.
   -9000010    2    1    2    0  501 -0.40991361755E+03 -0.62388073282E+02 -0.51355472541E+03  0.11716846502E+04  0.96808316689E+03 0.  0.
        -13    1    3    3    0    0  0.58593771099E+03  0.38281172115E+03 -0.62843069522E+03  0.94063434175E+03  0.10566000000E+00 0.  1.
          4    1    3    3  502    0 -0.17602409344E+03 -0.32042364787E+03 -0.53766725469E+03  0.65018602904E+03  0.00000000000E+00 0.  1.
         13    1    4    4    0    0  0.92176427616E+02 -0.17988602545E+03 -0.61393282364E+03  0.64635052337E+03  0.10566000000E+00 0. -1.
         -4    1    4    4    0  501 -0.50209004517E+03  0.11749795217E+03  0.10037809823E+03  0.52533412684E+03  0.00000000000E+00 0. -1.
<mgrwt>
<rscale>  2 0.10675189E+04</rscale>
<asrwt>0</asrwt>
<pdfrwt beam="1">  1        1 0.83296336E-01 0.10675189E+04</pdfrwt>
<pdfrwt beam="2">  1       -1 0.34170443E+00 0.10675189E+04</pdfrwt>
<totfact> 0.52211054E-01</totfact>
</mgrwt>
</event>
<event>
 8    1  0.7046235E-006  0.1415947E+04  0.7818608E-02  0.8459576E-01
         -2   -1    0    0    0  501 -0.00000000000E+00  0.00000000000E+00  0.10481788763E+04  0.10481788763E+04  0.00000000000E+00 0.  1.
          2   -1    0    0  502    0  0.00000000000E+00 -0.00000000000E+00 -0.19144979989E+04  0.19144979989E+04  0.00000000000E+00 0. -1.
    9000010    2    1    2  502    0 -0.96039096134E+03 -0.31204608319E+03 -0.47548814693E+03  0.14876980369E+04  0.98358167658E+03 0.  0.
   -9000010    2    1    2    0  501  0.96039096134E+03  0.31204608319E+03 -0.39083097562E+03  0.14749788383E+04  0.10015438908E+04 0.  0.
        -13    1    3    3    0    0 -0.79627719033E+03 -0.20067313794E+03 -0.77456079287E+03  0.11288363500E+04  0.10566000000E+00 0.  1.
          4    1    3    3  502    0 -0.16411377100E+03 -0.11137294525E+03  0.29907264594E+03  0.35886168688E+03  0.00000000000E+00 0.  1.
         13    1    4    4    0    0 -0.14913107986E+03  0.26076065379E+03 -0.91877319628E+01  0.30053389680E+03  0.10566000000E+00 0. -1.
         -4    1    4    4    0  501  0.11095220412E+04  0.51285429399E+02 -0.38164324365E+03  0.11744449415E+04  0.00000000000E+00 0. -1.
<mgrwt>
<rscale>  2 0.14159470E+04</rscale>
<asrwt>0</asrwt>
<pdfrwt beam="2">  1        2 0.29453815E+00 0.14159470E+04</pdfrwt>
<pdfrwt beam="1">  1       -2 0.16125829E+00 0.14159470E+04</pdfrwt>
<totfact> 0.24351786E+00</totfact>
</mgrwt>
</event>
<event>
 8    1  0.7046235E-006  0.1329436E+04  0.7818608E-02  0.8514988E-01
         -2   -1    0    0    0  501 -0.00000000000E+00  0.00000000000E+00  0.19144103709E+04  0.19144103709E+04  0.00000000000E+00 0.  1.
          2   -1    0    0  502    0  0.00000000000E+00 -0.00000000000E+00 -0.15561093885E+04  0.15561093885E+04  0.00000000000E+00 0. -1.
    9000010    2    1    2  502    0  0.75768224949E+03 -0.39285524185E+03 -0.91336650719E+03  0.16981586005E+04  0.11493853242E+04 0.  0.
   -9000010    2    1    2    0  501 -0.75768224949E+03  0.39285524185E+03  0.12716674895E+04  0.17723611589E+04  0.89202479874E+03 0.  0.
        -13    1    3    3    0    0  0.93189597794E+03  0.33453313630E+02 -0.78802760583E+03  0.12208754058E+04  0.10566000000E+00 0.  1.
          4    1    3    3  502    0 -0.17421372845E+03 -0.42630855548E+03 -0.12533890136E+03  0.47728319460E+03  0.00000000000E+00 0.  1.
         13    1    4    4    0    0  0.33697962003E+02 -0.10038055260E+03 -0.78261251463E+02  0.13166868507E+03  0.10566000000E+00 0. -1.
         -4    1    4    4    0  501 -0.79138021150E+03  0.49323579445E+03  0.13499287410E+04  0.16406924739E+04  0.00000000000E+00 0. -1.
<mgrwt>
<rscale>  2 0.13294359E+04</rscale>
<asrwt>0</asrwt>
<pdfrwt beam="2">  1        2 0.23940144E+00 0.13294359E+04</pdfrwt>
<pdfrwt beam="1">  1       -2 0.29452467E+00 0.13294359E+04</pdfrwt>
<totfact> 0.33555768E-01</totfact>
</mgrwt>
</event>
<event>
 8    1  0.7046235E-006  0.1163326E+04  0.7818608E-02  0.8634702E-01
          1   -1    0    0  502    0  0.00000000000E+00  0.00000000000E+00  0.17642115471E+04  0.17642115471E+04  0.00000000000E+00 0. -1.
         -1   -1    0    0    0  501 -0.00000000000E+00 -0.00000000000E+00 -0.84118521394E+03  0.84118521394E+03  0.00000000000E+00 0.  1.
    9000010    2    1    2  502    0 -0.51636115165E+03 -0.29196045136E+03  0.84598182005E+03  0.14337772584E+04  0.99406350035E+03 0.  0.
   -9000010    2    1    2    0  501  0.51636115165E+03  0.29196045136E+03  0.77044513070E+02  0.11716195026E+04  0.10074158316E+04 0.  0.
        -13    1    3    3    0    0  0.10855973654E+03 -0.25625706573E+03 -0.10317056433E+03  0.29681151703E+03  0.10566000000E+00 0.  1.
          4    1    3    3  502    0 -0.62492088819E+03 -0.35703385631E+02  0.94915238438E+03  0.11369657414E+04  0.00000000000E+00 0.  1.
         13    1    4    4    0    0  0.35268433732E+03  0.17681778336E+03 -0.45556625697E+03  0.60265362850E+03  0.10566000000E+00 0. -1.
         -4    1    4    4    0  501  0.16367681434E+03  0.11514266800E+03  0.53261077004E+03  0.56896587411E+03  0.00000000000E+00 0. -1.
<mgrwt>
<rscale>  2 0.11633264E+04</rscale>
<asrwt>0</asrwt>
<pdfrwt beam="1">  1        1 0.27141716E+00 0.11633264E+04</pdfrwt>
<pdfrwt beam="2">  1       -1 0.12941311E+00 0.11633264E+04</pdfrwt>
<totfact> 0.31029458E+00</totfact>
</mgrwt>
</event>
<event>
 8    1  0.7046235E-006  0.1113146E+04  0.7818608E-02  0.8675002E-01
          2   -1    0    0  502    0  0.00000000000E+00  0.00000000000E+00  0.28531057887E+04  0.28531057887E+04  0.00000000000E+00 0.  1.
         -2   -1    0    0    0  501 -0.00000000000E+00 -0.00000000000E+00 -0.49984813716E+03  0.49984813716E+03  0.00000000000E+00 0. -1.
    9000010    2    1    2  502    0 -0.35745325726E+03 -0.32510275180E+03  0.57422035310E+03  0.12570467167E+04  0.10084506947E+04 0.  0.
   -9000010    2    1    2    0  501  0.35745325726E+03  0.32510275180E+03  0.17790372985E+04  0.20959072092E+04  0.99719039804E+03 0.  0.
        -13    1    3    3    0    0 -0.55584256063E+03  0.16965588526E+03  0.24621913147E+03  0.63116395927E+03  0.10566000000E+00 0.  1.
          4    1    3    3  502    0  0.19838930338E+03 -0.49475863706E+03  0.32800122163E+03  0.62588275742E+03  0.00000000000E+00 0.  1.
         13    1    4    4    0    0  0.60720079429E+03 -0.21542817144E+02  0.13944352529E+04  0.15210544314E+04  0.10566000000E+00 0. -1.
         -4    1    4    4    0  501 -0.24974753704E+03  0.34664556895E+03  0.38460204559E+03  0.57485277784E+03  0.00000000000E+00 0. -1.
<mgrwt>
<rscale>  2 0.11131460E+04</rscale>
<asrwt>0</asrwt>
<pdfrwt beam="1">  1        2 0.43893934E+00 0.11131460E+04</pdfrwt>
<pdfrwt beam="2">  1       -2 0.76899715E-01 0.11131460E+04</pdfrwt>
<totfact> 0.51025126E+00</totfact>
</mgrwt>
</event>
<event>
 8    1  0.7046235E-006  0.1221633E+04  0.7818608E-02  0.8590448E-01
         -1   -1    0    0    0  501 -0.00000000000E+00  0.00000000000E+00  0.64879618041E+03  0.64879618041E+03  0.00000000000E+00 0.  1.
          1   -1    0    0  502    0  0.00000000000E+00 -0.00000000000E+00 -0.23056254268E+04  0.23056254268E+04  0.00000000000E+00 0. -1.
    9000010    2    1    2  502    0  0.66187542561E+03  0.15604974930E+03 -0.90609152331E+03  0.15300344207E+04  0.10283836232E+04 0.  0.
   -9000010    2    1    2    0  501 -0.66187542561E+03 -0.15604974930E+03 -0.75073772305E+03  0.14243871865E+04  0.10014195549E+04 0.  0.
        -13    1    3    3    0    0 -0.25024488424E+02  0.21486550057E+03 -0.80462341103E+03  0.83319400688E+03  0.10566000000E+00 0.  1.
          4    1    3    3  502    0  0.68689991404E+03 -0.58815751269E+02 -0.10146811228E+03  0.69684041380E+03  0.00000000000E+00 0.  1.
         13    1    4    4    0    0 -0.88869368820E+03 -0.14021316827E+03 -0.78554372688E+03  0.11943681016E+04  0.10566000000E+00 0. -1.
         -4    1    4    4    0  501  0.22681826258E+03 -0.15836581031E+02  0.34806003832E+02  0.23001908495E+03  0.00000000000E+00 0. -1.
<mgrwt>
<rscale>  2 0.12216328E+04</rscale>
<asrwt>0</asrwt>
<pdfrwt beam="2">  1        1 0.35471160E+00 0.12216328E+04</pdfrwt>
<pdfrwt beam="1">  1       -1 0.99814799E-01 0.12216328E+04</pdfrwt>
<totfact> 0.21654597E+00</totfact>
</mgrwt>
</event>
<event>
 8    1  0.7046235E-006  0.1233987E+04  0.7818608E-02  0.8581400E-01
         -2   -1    0    0    0  501 -0.00000000000E+00  0.00000000000E+00  0.53902977481E+03  0.53902977481E+03  0.00000000000E+00 0. -1.
          2   -1    0    0  502    0  0.00000000000E+00 -0.00000000000E+00 -0.28782410938E+04  0.28782410938E+04  0.00000000000E+00 0.  1.
    9000010    2    1    2  502    0 -0.62134404340E+03  0.39216673107E+03 -0.14024239810E+04  0.18682309840E+04  0.99178164021E+03 0.  0.
   -9000010    2    1    2    0  501  0.62134404340E+03 -0.39216673107E+03 -0.93678733792E+03  0.15490398845E+04  0.99100498596E+03 0.  0.
        -13    1    3    3    0    0 -0.72712803381E+03  0.63646437267E+03 -0.11393108625E+04  0.14939315004E+04  0.10566000000E+00 0.  1.
          4    1    3    3  502    0  0.10578399041E+03 -0.24429764160E+03 -0.26311311854E+03  0.37429948365E+03  0.00000000000E+00 0.  1.
         13    1    4    4    0    0  0.70651299238E+03 -0.11000420215E+03 -0.18065432073E+03  0.73749408652E+03  0.10566000000E+00 0. -1.
         -4    1    4    4    0  501 -0.85168948987E+02 -0.28216252892E+03 -0.75613301719E+03  0.81154579802E+03  0.00000000000E+00 0. -1.
<mgrwt>
<rscale>  2 0.12339870E+04</rscale>
<asrwt>0</asrwt>
<pdfrwt beam="2">  1        2 0.44280633E+00 0.12339870E+04</pdfrwt>
<pdfrwt beam="1">  1       -2 0.82927657E-01 0.12339870E+04</pdfrwt>
<totfact> 0.41169963E+00</totfact>
</mgrwt>
</event>
<event>
 8    1  0.7046235E-006  0.1134390E+04  0.7818608E-02  0.8657677E-01
         -2   -1    0    0    0  501 -0.00000000000E+00  0.00000000000E+00  0.15937099737E+04  0.15937099737E+04  0.00000000000E+00 0.  1.
          2   -1    0    0  502    0  0.00000000000E+00 -0.00000000000E+00 -0.85641533455E+03  0.85641533455E+03  0.00000000000E+00 0. -1.
    9000010    2    1    2  502    0 -0.23407182128E+03  0.46233004040E+03  0.66264348052E+03  0.13168320729E+04  0.10131197571E+04 0.  0.
   -9000010    2    1    2    0  501  0.23407182128E+03 -0.46233004040E+03  0.74651158646E+02  0.11332932353E+04  0.10051079932E+04 0.  0.
        -13    1    3    3    0    0  0.54914013162E+02 -0.28747119284E+03  0.30172072872E+02  0.29422032680E+03  0.10566000000E+00 0.  1.
          4    1    3    3  502    0 -0.28898583444E+03  0.74980123324E+03  0.63247140764E+03  0.10226117461E+04  0.00000000000E+00 0.  1.
         13    1    4    4    0    0  0.20665590959E+03  0.27038645068E+03 -0.14195835361E+03  0.36873795980E+03  0.10566000000E+00 0. -1.
         -4    1    4    4    0  501  0.27415911692E+02 -0.73271649108E+03  0.21660951225E+03  0.76455527551E+03  0.00000000000E+00 0. -1.
<mgrwt>
<rscale>  2 0.11343898E+04</rscale>
<asrwt>0</asrwt>
<pdfrwt beam="2">  1        2 0.13175621E+00 0.11343898E+04</pdfrwt>
<pdfrwt beam="1">  1       -2 0.24518615E+00 0.11343898E+04</pdfrwt>
<totfact> 0.20516145E+00</totfact>
</mgrwt>
</event>
<event>
 8    1  0.7046235E-006  0.1055870E+04  0.7818608E-02  0.8723797E-01
          4   -1    0    0  502    0  0.00000000000E+00  0.00000000000E+00  0.42237271323E+04  0.42237271323E+04  0.00000000000E+00 0.  1.
         -4   -1    0    0    0  501 -0.00000000000E+00 -0.00000000000E+00 -0.28956345616E+03  0.28956345616E+03  0.00000000000E+00 0. -1.
    9000010    2    1    2  502    0 -0.17246882958E+03  0.24312240459E+03  0.26306260110E+04  0.28329732534E+04  0.10083105890E+04 0.  0.
   -9000010    2    1    2    0  501  0.17246882958E+03 -0.24312240459E+03  0.13035376651E+04  0.16803173351E+04  0.10175470020E+04 0.  0.
        -13    1    3    3    0    0 -0.57555310111E+03  0.38826371798E+02  0.17588497196E+04  0.18510324705E+04  0.10566000000E+00 0.  1.
          4    1    3    3  502    0  0.40308427153E+03  0.20429603280E+03  0.87177629141E+03  0.98194078295E+03  0.00000000000E+00 0.  1.
         13    1    4    4    0    0 -0.40559970761E+03 -0.20887230135E+03  0.75818904986E+03  0.88486688692E+03  0.10566000000E+00 0. -1.
         -4    1    4    4    0  501  0.57806853719E+03 -0.34250103240E+02  0.54534861529E+03  0.79545044815E+03  0.00000000000E+00 0. -1.
<mgrwt>
<rscale>  2 0.10558697E+04</rscale>
<asrwt>0</asrwt>
<pdfrwt beam="1">  1        4 0.64980413E+00 0.10558697E+04</pdfrwt>
<pdfrwt beam="2">  1       -4 0.44548227E-01 0.10558697E+04</pdfrwt>
<totfact> 0.44841934E-02</totfact>
</mgrwt>
</event>
<event>
 8    1  0.7046235E-006  0.1112842E+04  0.7818608E-02  0.8675253E-01
         -1   -1    0    0    0  501 -0.00000000000E+00  0.00000000000E+00  0.83761413592E+03  0.83761413592E+03  0.00000000000E+00 0. -1.
          1   -1    0    0  502    0  0.00000000000E+00 -0.00000000000E+00 -0.24933555426E+04  0.24933555426E+04  0.00000000000E+00 0.  1.
    9000010    2    1    2  502    0  0.47766409881E+03  0.12177731583E+03  0.23619940234E+03  0.11342447852E+04  0.99384524402E+03 0.  0.
   -9000010    2    1    2    0  501 -0.47766409881E+03 -0.12177731583E+03 -0.18919408090E+04  0.21967248933E+04  0.10015825110E+04 0.  0.
        -13    1    3    3    0    0  0.35381650096E+03  0.10643910355E+03  0.62492447436E+03  0.72597934471E+03  0.10566000000E+00 0.  1.
          4    1    3    3  502    0  0.12384759784E+03  0.15338212276E+02 -0.38872507203E+03  0.40826544045E+03  0.00000000000E+00 0.  1.
         13    1    4    4    0    0 -0.45623186295E+03 -0.49407581089E+03 -0.15547811862E+04  0.16939902502E+04  0.10566000000E+00 0. -1.
         -4    1    4    4    0  501 -0.21432235862E+02  0.37229849507E+03 -0.33715962281E+03  0.50273464314E+03  0.00000000000E+00 0. -1.
<mgrwt>
<rscale>  2 0.11128417E+04</rscale>
<asrwt>0</asrwt>
<pdfrwt beam="2">  1        1 0.38359316E+00 0.11128417E+04</pdfrwt>
<pdfrwt beam="1">  1       -1 0.12886371E+00 0.11128417E+04</pdfrwt>
<totfact> 0.82394644E-01</totfact>
</mgrwt>
</event>
<event>
 8    1  0.7046235E-006  0.1329440E+04  0.7818608E-02  0.8514985E-01
          2   -1    0    0  502    0  0.00000000000E+00  0.00000000000E+00  0.20678495724E+04  0.20678495724E+04  0.00000000000E+00 0.  1.
         -2   -1    0    0    0  501 -0.00000000000E+00 -0.00000000000E+00 -0.87383542404E+03  0.87383542404E+03  0.00000000000E+00 0. -1.
    9000010    2    1    2  502    0  0.27958387173E+03 -0.82860332815E+03  0.37729902850E+03  0.13771862872E+04  0.99475469134E+03 0.  0.
   -9000010    2    1    2    0  501 -0.27958387173E+03  0.82860332815E+03  0.81671511982E+03  0.15644987092E+04  0.10079097219E+04 0.  0.
        -13    1    3    3    0    0 -0.31960748668E+03 -0.49746552292E+03  0.36021413840E+03  0.69236921415E+03  0.10566000000E+00 0.  1.
          4    1    3    3  502    0  0.59919135841E+03 -0.33113780522E+03  0.17084890097E+02  0.68481707303E+03  0.00000000000E+00 0.  1.
         13    1    4    4    0    0 -0.35017395597E+03  0.98465401033E+03  0.40896547150E+03  0.11222379817E+04  0.10566000000E+00 0. -1.
         -4    1    4    4    0  501  0.70590084249E+02 -0.15605068218E+03  0.40774964832E+03  0.44226072752E+03  0.00000000000E+00 0. -1.
<mgrwt>
<rscale>  2 0.13294401E+04</rscale>
<asrwt>0</asrwt>
<pdfrwt beam="1">  1        2 0.31813070E+00 0.13294401E+04</pdfrwt>
<pdfrwt beam="2">  1       -2 0.13443622E+00 0.13294401E+04</pdfrwt>
<totfact> 0.35098448E+00</totfact>
</mgrwt>
</event>
<event>
 8    1  0.7046235E-006  0.1491409E+04  0.7818608E-02  0.8414460E-01
          1   -1    0    0  502    0  0.00000000000E+00  0.00000000000E+00  0.65340026192E+03  0.65340026192E+03  0.00000000000E+00 0.  1.
         -1   -1    0    0    0  501 -0.00000000000E+00 -0.00000000000E+00 -0.36279304303E+04  0.36279304303E+04  0.00000000000E+00 0. -1.
    9000010    2    1    2  502    0  0.53306975470E+03  0.89514918067E+03 -0.20618394382E+04  0.25756610421E+04  0.11390313938E+04 0.  0.
   -9000010    2    1    2    0  501 -0.53306975470E+03 -0.89514918067E+03 -0.91269073014E+03  0.17056696500E+04  0.99541406819E+03 0.  0.
        -13    1    3    3    0    0 -0.99745154910E+02  0.50429814190E+03 -0.16771560210E+03  0.54073491306E+03  0.10566000000E+00 0.  1.
          4    1    3    3  502    0  0.63281490961E+03  0.39085103877E+03 -0.18941238361E+04  0.20349261291E+04  0.00000000000E+00 0.  1.
         13    1    4    4    0    0 -0.62527413628E+03 -0.10473220068E+04 -0.63315994177E+03  0.13743153402E+04  0.10566000000E+00 0. -1.
         -4    1    4    4    0  501  0.92204381580E+02  0.15217282610E+03 -0.27953078837E+03  0.33135430981E+03  0.00000000000E+00 0. -1.
<mgrwt>
<rscale>  2 0.14914093E+04</rscale>
<asrwt>0</asrwt>
<pdfrwt beam="1">  1        1 0.10052312E+00 0.14914093E+04</pdfrwt>
<pdfrwt beam="2">  1       -1 0.55814315E+00 0.14914093E+04</pdfrwt>
<totfact> 0.20547032E-01</totfact>
</mgrwt>
</event>
<event>
 8    1  0.7046235E-006  0.1394008E+04  0.7818608E-02  0.8473236E-01
          1   -1    0    0  502    0  0.00000000000E+00  0.00000000000E+00  0.13918018223E+04  0.13918018223E+04  0.00000000000E+00 0. -1.
         -1   -1    0    0    0  501 -0.00000000000E+00 -0.00000000000E+00 -0.14267778909E+04  0.14267778909E+04  0.00000000000E+00 0.  1.
    9000010    2    1    2  502    0  0.20083611373E+03  0.93876199320E+03 -0.22353052085E+03  0.14048449400E+04  0.10010065870E+04 0.  0.
   -9000010    2    1    2    0  501 -0.20083611373E+03 -0.93876199320E+03  0.18855445218E+03  0.14137347732E+04  0.10205312357E+04 0.  0.
        -13    1    3    3    0    0 -0.11497836073E+02 -0.99173146912E+02  0.23128477119E+03  0.25191302041E+03  0.10566000000E+00 0.  1.
          4    1    3    3  502    0  0.21233394980E+03  0.10379351401E+04 -0.45481529204E+03  0.11529319196E+04  0.00000000000E+00 0.  1.
         13    1    4    4    0    0  0.91311145176E+02 -0.51013184170E+03  0.56961611473E+03  0.77008749534E+03  0.10566000000E+00 0. -1.
         -4    1    4    4    0  501 -0.29214725890E+03 -0.42863015150E+03 -0.38106166256E+03  0.64364727788E+03  0.00000000000E+00 0. -1.
<mgrwt>
<rscale>  2 0.13940079E+04</rscale>
<asrwt>0</asrwt>
<pdfrwt beam="1">  1        1 0.21412336E+00 0.13940079E+04</pdfrwt>
<pdfrwt beam="2">  1       -1 0.21950429E+00 0.13940079E+04</pdfrwt>
<totfact> 0.91704615E-01</totfact>
</mgrwt>
</event>
<event>
 8    1  0.7046235E-006  0.1021281E+04  0.7818608E-02  0.8754849E-01
         -2   -1    0    0    0  501 -0.00000000000E+00  0.00000000000E+00  0.31083681226E+03  0.31083681226E+03  0.00000000000E+00 0. -1.
          2   -1    0    0  502    0  0.00000000000E+00 -0.00000000000E+00 -0.41581537434E+04  0.41581537434E+04  0.00000000000E+00 0.  1.
    9000010    2    1    2  502    0  0.25817915389E+03  0.49452735258E+02 -0.94259925985E+03  0.13901102979E+04  0.98732528936E+03 0.  0.
   -9000010    2    1    2    0  501 -0.25817915389E+03 -0.49452735258E+02 -0.29047176713E+04  0.30788802578E+04  0.98641616137E+03 0.  0.
        -13    1    3    3    0    0  0.41211855236E+03 -0.47112363097E+02 -0.10834853985E+04  0.11601732180E+04  0.10566000000E+00 0.  1.
          4    1    3    3  502    0 -0.15393939848E+03  0.96565098354E+02  0.14088613863E+03  0.22993707983E+03  0.00000000000E+00 0.  1.
         13    1    4    4    0    0  0.31341379287E+03  0.18264898537E+03 -0.15244907049E+04  0.15670548101E+04  0.10566000000E+00 0. -1.
         -4    1    4    4    0  501 -0.57159294676E+03 -0.23210172062E+03 -0.13802269664E+04  0.15118254477E+04  0.00000000000E+00 0. -1.
<mgrwt>
<rscale>  2 0.10212814E+04</rscale>
<asrwt>0</asrwt>
<pdfrwt beam="2">  1        2 0.63971596E+00 0.10212814E+04</pdfrwt>
<pdfrwt beam="1">  1       -2 0.47821048E-01 0.10212814E+04</pdfrwt>
<totfact> 0.14397165E+00</totfact>
</mgrwt>
</event>
<event>
 8    1  0.7046235E-006  0.1148317E+04  0.7818608E-02  0.8646532E-01
          2   -1    0    0  502    0  0.00000000000E+00  0.00000000000E+00  0.34009976927E+04  0.34009976927E+04  0.00000000000E+00 0. -1.
         -2   -1    0    0    0  501 -0.00000000000E+00 -0.00000000000E+00 -0.45451627060E+03  0.45451627060E+03  0.00000000000E+00 0.  1.
    9000010    2    1    2  502    0  0.20392806869E+03 -0.53617985040E+03  0.22368815154E+04  0.25253079863E+04  0.10219912047E+04 0.  0.
   -9000010    2    1    2    0  501 -0.20392806869E+03  0.53617985040E+03  0.70959990669E+03  0.13302059770E+04  0.96790517330E+03 0.  0.
        -13    1    3    3    0    0 -0.19601691810E+03 -0.69886947529E+03  0.15864832226E+04  0.17446404221E+04  0.10566000000E+00 0.  1.
          4    1    3    3  502    0  0.39994498679E+03  0.16268962489E+03  0.65039829280E+03  0.78066756419E+03  0.00000000000E+00 0.  1.
         13    1    4    4    0    0  0.34252939627E+03  0.20947767913E+03  0.35655789949E+02  0.40308638266E+03  0.10566000000E+00 0. -1.
         -4    1    4    4    0  501 -0.54645746497E+03  0.32670217126E+03  0.67394411674E+03  0.92711959434E+03  0.00000000000E+00 0. -1.
<mgrwt>
<rscale>  2 0.11483167E+04</rscale>
<asrwt>0</asrwt>
<pdfrwt beam="1">  1        2 0.52323040E+00 0.11483167E+04</pdfrwt>
<pdfrwt beam="2">  1       -2 0.69925582E-01 0.11483167E+04</pdfrwt>
<totfact> 0.27698167E+00</totfact>
</mgrwt>
</event>
<event>
 8    1  0.7046235E-006  0.1287984E+04  0.7818608E-02  0.8543098E-01
         -2   -1    0    0    0  501 -0.00000000000E+00  0.00000000000E+00  0.14786826703E+04  0.14786826703E+04  0.00000000000E+00 0. -1.
          2   -1    0    0  502    0  0.00000000000E+00 -0.00000000000E+00 -0.12404250475E+04  0.12404250475E+04  0.00000000000E+00 0.  1.
    9000010    2    1    2  502    0 -0.51912968414E+03  0.64440796606E+03 -0.30061136695E+03  0.13285166210E+04  0.99490299159E+03 0.  0.
   -9000010    2    1    2    0  501  0.51912968414E+03 -0.64440796606E+03  0.53886898975E+03  0.13905910968E+04  0.97908454938E+03 0.  0.
        -13    1    3    3    0    0 -0.69361580310E+03  0.73714744101E+03 -0.55522913105E+02  0.10136922793E+04  0.10566000000E+00 0.  1.
          4    1    3    3  502    0  0.17448611895E+03 -0.92739474942E+02 -0.24508845384E+03  0.31482434170E+03  0.00000000000E+00 0.  1.
         13    1    4    4    0    0  0.57943261267E+03 -0.51923048509E+03 -0.55675062837E+02  0.78002703355E+03  0.10566000000E+00 0. -1.
         -4    1    4    4    0  501 -0.60302928529E+02 -0.12517748098E+03  0.59454405258E+03  0.61056406330E+03  0.00000000000E+00 0. -1.
<mgrwt>
<rscale>  2 0.12879841E+04</rscale>
<asrwt>0</asrwt>
<pdfrwt beam="2">  1        2 0.19083462E+00 0.12879841E+04</pdfrwt>
<pdfrwt beam="1">  1       -2 0.22748964E+00 0.12879841E+04</pdfrwt>
<totfact> 0.16373629E+00</totfact>
</mgrwt>
</event>
<event>
 8    1  0.7046235E-006  0.1264955E+04  0.7818608E-02  0.8559192E-01
          2   -1    0    0  502    0  0.00000000000E+00  0.00000000000E+00  0.10738431096E+04  0.10738431096E+04  0.00000000000E+00 0.  1.
         -2   -1    0    0    0  501 -0.00000000000E+00 -0.00000000000E+00 -0.15586723545E+04  0.15586723545E+04  0.00000000000E+00 0. -1.
    9000010    2    1    2  502    0 -0.84455718980E+03  0.17638203916E+03  0.33057527456E+02  0.12688226868E+04  0.92974767531E+03 0.  0.
   -9000010    2    1    2    0  501  0.84455718980E+03 -0.17638203916E+03 -0.51788677239E+03  0.13636927773E+04  0.92036069636E+03 0.  0.
        -13    1    3    3    0    0  0.41706038036E+02 -0.15835022331E+03 -0.23301537561E+03  0.28479881191E+03  0.10566000000E+00 0.  1.
          4    1    3    3  502    0 -0.88626322783E+03  0.33473226247E+03  0.26607290306E+03  0.98402387486E+03  0.00000000000E+00 0.  1.
         13    1    4    4    0    0  0.75245345371E+03 -0.30666523592E+03  0.96018626604E+01  0.81260197751E+03  0.10566000000E+00 0. -1.
         -4    1    4    4    0  501  0.92103736083E+02  0.13028319676E+03 -0.52748863505E+03  0.55109079984E+03  0.00000000000E+00 0. -1.
<mgrwt>
<rscale>  2 0.12649550E+04</rscale>
<asrwt>0</asrwt>
<pdfrwt beam="1">  1        2 0.16520663E+00 0.12649550E+04</pdfrwt>
<pdfrwt beam="2">  1       -2 0.23979575E+00 0.12649550E+04</pdfrwt>
<totfact> 0.16352710E+00</totfact>
</mgrwt>
</event>
<event>
 8    1  0.7046235E-006  0.1255447E+04  0.7818608E-02  0.8565939E-01
         -1   -1    0    0    0  501 -0.00000000000E+00  0.00000000000E+00  0.89740717370E+03  0.89740717370E+03  0.00000000000E+00 0. -1.
          1   -1    0    0  502    0  0.00000000000E+00 -0.00000000000E+00 -0.17609114921E+04  0.17609114921E+04  0.00000000000E+00 0.  1.
    9000010    2    1    2  502    0 -0.68064528617E+03  0.32793954263E+03 -0.44712326837E+03  0.13944734293E+04  0.10834272374E+04 0.  0.
   -9000010    2    1    2    0  501  0.68064528617E+03 -0.32793954263E+03 -0.41638105001E+03  0.12638452365E+04  0.92363913612E+03 0.  0.
        -13    1    3    3    0    0  0.18950085823E+03 -0.21160076761E+03 -0.18026120644E+03  0.33642172022E+03  0.10566000000E+00 0.  1.
          4    1    3    3  502    0 -0.87014614440E+03  0.53954031024E+03 -0.26686206193E+03  0.10580517091E+04  0.00000000000E+00 0.  1.
         13    1    4    4    0    0  0.19522161020E+03 -0.52484320790E+03 -0.47819604244E+03  0.73637173773E+03  0.10566000000E+00 0. -1.
         -4    1    4    4    0  501  0.48542367597E+03  0.19690366527E+03  0.61814992429E+02  0.52747349875E+03  0.00000000000E+00 0. -1.
<mgrwt>
<rscale>  2 0.12554475E+04</rscale>
<asrwt>0</asrwt>
<pdfrwt beam="2">  1        1 0.27090946E+00 0.12554475E+04</pdfrwt>
<pdfrwt beam="1">  1       -1 0.13806264E+00 0.12554475E+04</pdfrwt>
<totfact> 0.25898136E+00</totfact>
</mgrwt>
</event>
<event>
 8    1  0.7046235E-006  0.1503628E+04  0.7818608E-02  0.8407414E-01
         -2   -1    0    0    0  501 -0.00000000000E+00  0.00000000000E+00  0.16576200095E+04  0.16576200095E+04  0.00000000000E+00 0.  1.
          2   -1    0    0  502    0  0.00000000000E+00 -0.00000000000E+00 -0.14530125367E+04  0.14530125367E+04  0.00000000000E+00 0. -1.
    9000010    2    1    2  502    0 -0.11084765288E+04 -0.25579437045E+03  0.48684840739E+03  0.15735992082E+04  0.97213276935E+03 0.  0.
   -9000010    2    1    2    0  501  0.11084765288E+04  0.25579437045E+03 -0.28224093461E+03  0.15370333381E+04  0.99431411656E+03 0.  0.
        -13    1    3    3    0    0  0.66023296122E+01  0.17853412995E+03 -0.13600124338E+03  0.22453145810E+03  0.10566000000E+00 0.  1.
          4    1    3    3  502    0 -0.11150788584E+04 -0.43432850040E+03  0.62284965077E+03  0.13490677501E+04  0.00000000000E+00 0.  1.
         13    1    4    4    0    0  0.10754002131E+04 -0.16559911299E+03 -0.19413277411E+03  0.11052584448E+04  0.10566000000E+00 0. -1.
         -4    1    4    4    0  501  0.33076315680E+02  0.42139348344E+03 -0.88108160498E+02  0.43177489331E+03  0.00000000000E+00 0. -1.
<mgrwt>
<rscale>  2 0.15036280E+04</rscale>
<asrwt>0</asrwt>
<pdfrwt beam="2">  1        2 0.22354039E+00 0.15036280E+04</pdfrwt>
<pdfrwt beam="1">  1       -2 0.25501846E+00 0.15036280E+04</pdfrwt>
<totfact> 0.74193022E-01</totfact>
</mgrwt>
</event>
<event>
 8    1  0.7046235E-006  0.1505252E+04  0.7818608E-02  0.8406483E-01
         -1   -1    0    0    0  501 -0.00000000000E+00  0.00000000000E+00  0.13257448710E+04  0.13257448710E+04  0.00000000000E+00 0. -1.
          1   -1    0    0  502    0  0.00000000000E+00 -0.00000000000E+00 -0.17395125121E+04  0.17395125121E+04  0.00000000000E+00 0.  1.
    9000010    2    1    2  502    0  0.11830962810E+04 -0.14550910460E+03 -0.16461567409E+02  0.15538101293E+04  0.99657675331E+03 0.  0.
   -9000010    2    1    2    0  501 -0.11830962810E+04  0.14550910460E+03 -0.39730607370E+03  0.15114472538E+04  0.84007795784E+03 0.  0.
        -13    1    3    3    0    0  0.17974667251E+03  0.11390122523E+03  0.38704470571E+03  0.44168537532E+03  0.10566000000E+00 0.  1.
          4    1    3    3  502    0  0.10033496085E+04 -0.25941032983E+03 -0.40350627312E+03  0.11121247540E+04  0.00000000000E+00 0.  1.
         13    1    4    4    0    0 -0.21942950127E+02 -0.51049455852E+02 -0.32698992141E+03  0.33167749376E+03  0.10566000000E+00 0. -1.
         -4    1    4    4    0  501 -0.11611533308E+04  0.19655856046E+03 -0.70316152291E+02  0.11797697600E+04  0.00000000000E+00 0. -1.
<mgrwt>
<rscale>  2 0.15052523E+04</rscale>
<asrwt>0</asrwt>
<pdfrwt beam="2">  1        1 0.26761731E+00 0.15052523E+04</pdfrwt>
<pdfrwt beam="1">  1       -1 0.20396075E+00 0.15052523E+04</pdfrwt>
<totfact> 0.69002228E-01</totfact>
</mgrwt>
</event>
<event>
 8    1  0.7046235E-006  0.1271623E+04  0.7818608E-02  0.8554496E-01
         -1   -1    0    0    0  501 -0.00000000000E+00  0.00000000000E+00  0.58329002774E+03  0.58329002774E+03  0.00000000000E+00 0. -1.
          1   -1    0    0  502    0  0.00000000000E+00 -0.00000000000E+00 -0.27764948408E+04  0.27764948408E+04  0.00000000000E+00 0.  1.
    9000010    2    1    2  502    0 -0.72172648247E+03  0.21173953929E+03 -0.11601213333E+04  0.17565554062E+04  0.10834586467E+04 0.  0.
   -9000010    2    1    2    0  501  0.72172648247E+03 -0.21173953929E+03 -0.10330834798E+04  0.16032294623E+04  0.96817378850E+03 0.  0.
        -13    1    3    3    0    0  0.16071859431E+03  0.11030956589E+03 -0.75593494441E+03  0.78066402391E+03  0.10566000000E+00 0.  1.
          4    1    3    3  502    0 -0.88244507678E+03  0.10142997340E+03 -0.40418638885E+03  0.97589138226E+03  0.00000000000E+00 0.  1.
         13    1    4    4    0    0 -0.15583320986E+03 -0.23589322100E+03 -0.53333093854E+02  0.28770476373E+03  0.10566000000E+00 0. -1.
         -4    1    4    4    0  501  0.87755969233E+03  0.24153681711E+02 -0.97975038591E+03  0.13155246986E+04  0.00000000000E+00 0. -1.
<mgrwt>
<rscale>  2 0.12716232E+04</rscale>
<asrwt>0</asrwt>
<pdfrwt beam="2">  1        1 0.42715305E+00 0.12716232E+04</pdfrwt>
<pdfrwt beam="1">  1       -1 0.89736928E-01 0.12716232E+04</pdfrwt>
<totfact> 0.99521406E-01</totfact>
</mgrwt>
</event>
<event>
 8    1  0.7046235E-006  0.1083242E+04  0.7818608E-02  0.8700085E-01
          2   -1    0    0  502    0  0.00000000000E+00  0.00000000000E+00  0.23701769530E+04  0.23701769530E+04  0.00000000000E+00 0.  1.
         -2   -1    0    0    0  501 -0.00000000000E+00 -0.00000000000E+00 -0.54098723312E+03  0.54098723312E+03  0.00000000000E+00 0. -1.
    9000010    2    1    2  502    0  0.48338833144E+03 -0.20352208224E+02  0.13132187884E+04  0.16834471614E+04  0.93561331087E+03 0.  0.
   -9000010    2    1    2    0  501 -0.48338833144E+03  0.20352208224E+02  0.51597093144E+03  0.12277170247E+04  0.10034862228E+04 0.  0.
        -13    1    3    3    0    0 -0.58416092453E+02  0.33208003987E+02  0.10947411348E+04  0.10968014291E+04  0.10566000000E+00 0.  1.
          4    1    3    3  502    0  0.54180442390E+03 -0.53560212211E+02  0.21847765360E+03  0.58664573229E+03  0.00000000000E+00 0.  1.
         13    1    4    4    0    0 -0.13012484751E+02 -0.43178546586E+03  0.70490450441E+02  0.43769501717E+03  0.10566000000E+00 0. -1.
         -4    1    4    4    0  501 -0.47037584669E+03  0.45213767409E+03  0.44548048100E+03  0.79002200756E+03  0.00000000000E+00 0. -1.
<mgrwt>
<rscale>  2 0.10832420E+04</rscale>
<asrwt>0</asrwt>
<pdfrwt beam="1">  1        2 0.36464260E+00 0.10832420E+04</pdfrwt>
<pdfrwt beam="2">  1       -2 0.83228806E-01 0.10832420E+04</pdfrwt>
<totfact> 0.81379728E+00</totfact>
</mgrwt>
</event>
<event>
 8    1  0.7046235E-006  0.1175942E+04  0.7818608E-02  0.8624902E-01
          2   -1    0    0  502    0  0.00000000000E+00  0.00000000000E+00  0.93685472469E+03  0.93685472469E+03  0.00000000000E+00 0.  1.
         -2   -1    0    0    0  501 -0.00000000000E+00 -0.00000000000E+00 -0.14978384713E+04  0.14978384713E+04  0.00000000000E+00 0. -1.
    9000010    2    1    2  502    0 -0.25167072526E+03  0.55816389407E+03 -0.42732446562E+03  0.12511475833E+04  0.10039317654E+04 0.  0.
   -9000010    2    1    2    0  501  0.25167072526E+03 -0.55816389407E+03 -0.13365928096E+03  0.11835456127E+04  0.10040071351E+04 0.  0.
        -13    1    3    3    0    0  0.38012298565E+02  0.42250352782E+03  0.25683608601E+03  0.49590215981E+03  0.10566000000E+00 0.  1.
          4    1    3    3  502    0 -0.28968302382E+03  0.13566036625E+03 -0.68416055163E+03  0.75524542346E+03  0.00000000000E+00 0.  1.
         13    1    4    4    0    0  0.14948212148E+03 -0.56174386555E+03  0.35711945425E+03  0.68222825425E+03  0.10566000000E+00 0. -1.
         -4    1    4    4    0  501  0.10218860377E+03  0.35799714815E+01 -0.49077873521E+03  0.50131735844E+03  0.00000000000E+00 0. -1.
<mgrwt>
<rscale>  2 0.11759421E+04</rscale>
<asrwt>0</asrwt>
<pdfrwt beam="1">  1        2 0.14413150E+00 0.11759421E+04</pdfrwt>
<pdfrwt beam="2">  1       -2 0.23043669E+00 0.11759421E+04</pdfrwt>
<totfact> 0.23726246E+00</totfact>
</mgrwt>
</event>
<event>
 8    1  0.7046235E-006  0.1360042E+04  0.7818608E-02  0.8494901E-01
          1   -1    0    0  502    0  0.00000000000E+00  0.00000000000E+00  0.12478827640E+04  0.12478827640E+04  0.00000000000E+00 0.  1.
         -1   -1    0    0    0  501 -0.00000000000E+00 -0.00000000000E+00 -0.14933351303E+04  0.14933351303E+04  0.00000000000E+00 0. -1.
    9000010    2    1    2  502    0 -0.21624394998E+03  0.90383514373E+03 -0.55939482182E+01  0.13666770865E+04  0.10020456843E+04 0.  0.
   -9000010    2    1    2    0  501  0.21624394998E+03 -0.90383514373E+03 -0.23985841804E+03  0.13745408079E+04  0.98394662402E+03 0.  0.
        -13    1    3    3    0    0 -0.50531005431E+03  0.40766450283E+03 -0.30696783007E+03  0.71816283510E+03  0.10566000000E+00 0.  1.
          4    1    3    3  502    0  0.28906610433E+03  0.49617064090E+03  0.30137388185E+03  0.64851425137E+03  0.00000000000E+00 0.  1.
         13    1    4    4    0    0 -0.27853329746E+03 -0.35524976167E+03  0.22224736644E+03  0.50316706372E+03  0.10566000000E+00 0. -1.
         -4    1    4    4    0  501  0.49477724744E+03 -0.54858538206E+03 -0.46210578448E+03  0.87137374418E+03  0.00000000000E+00 0. -1.
<mgrwt>
<rscale>  2 0.13600424E+04</rscale>
<asrwt>0</asrwt>
<pdfrwt beam="1">  1        1 0.19198196E+00 0.13600424E+04</pdfrwt>
<pdfrwt beam="2">  1       -1 0.22974387E+00 0.13600424E+04</pdfrwt>
<totfact> 0.94998479E-01</totfact>
</mgrwt>
</event>
<event>
 8    1  0.7046235E-006  0.1130462E+04  0.7818608E-02  0.8660850E-01
         -1   -1    0    0    0  501 -0.00000000000E+00  0.00000000000E+00  0.66597428614E+03  0.66597428614E+03  0.00000000000E+00 0.  1.
          1   -1    0    0  502    0  0.00000000000E+00 -0.00000000000E+00 -0.21880156575E+04  0.21880156575E+04  0.00000000000E+00 0. -1.
    9000010    2    1    2  502    0 -0.23321999394E+03  0.47685435213E+03 -0.12552249793E+04  0.16824019216E+04  0.98646076369E+03 0.  0.
   -9000010    2    1    2    0  501  0.23321999394E+03 -0.47685435213E+03 -0.26681639210E+03  0.11715880221E+04  0.10097751570E+04 0.  0.
        -13    1    3    3    0    0 -0.38815776766E+02  0.75184062515E+03 -0.67302116533E+03  0.10098160676E+04  0.10566000000E+00 0.  1.
          4    1    3    3  502    0 -0.19440421717E+03 -0.27498627302E+03 -0.58220381398E+03  0.67258585401E+03  0.00000000000E+00 0.  1.
         13    1    4    4    0    0 -0.34886859920E+03  0.50557294178E+02 -0.12085532191E+03  0.37265447736E+03  0.10566000000E+00 0. -1.
         -4    1    4    4    0  501  0.58208859314E+03 -0.52741164631E+03 -0.14596107019E+03  0.79893354476E+03  0.00000000000E+00 0. -1.
<mgrwt>
<rscale>  2 0.11304624E+04</rscale>
<asrwt>0</asrwt>
<pdfrwt beam="2">  1        1 0.33661780E+00 0.11304624E+04</pdfrwt>
<pdfrwt beam="1">  1       -1 0.10245758E+00 0.11304624E+04</pdfrwt>
<totfact> 0.25835832E+00</totfact>
</mgrwt>
</event>
<event>
 8    1  0.7046235E-006  0.1031425E+04  0.7818608E-02  0.8745612E-01
          2   -1    0    0  502    0  0.00000000000E+00  0.00000000000E+00  0.31265314390E+04  0.31265314390E+04  0.00000000000E+00 0.  1.
         -2   -1    0    0    0  501 -0.00000000000E+00 -0.00000000000E+00 -0.34330607022E+03  0.34330607022E+03  0.00000000000E+00 0. -1.
    9000010    2    1    2  502    0  0.32875966421E+03 -0.20603401141E+03  0.15476471986E+04  0.18569195982E+04  0.94995032075E+03 0.  0.
   -9000010    2    1    2    0  501 -0.32875966421E+03  0.20603401141E+03  0.12355781701E+04  0.16129179110E+04  0.96141450093E+03 0.  0.
        -13    1    3    3    0    0  0.42752760620E+03  0.94051626229E+02  0.14669257452E+04  0.15308483646E+04  0.10566000000E+00 0.  1.
          4    1    3    3  502    0 -0.98767941985E+02 -0.30008563764E+03  0.80721453455E+02  0.32607123352E+03  0.00000000000E+00 0.  1.
         13    1    4    4    0    0 -0.52088482000E+03 -0.22302128195E+03  0.67006253518E+03  0.87752111093E+03  0.10566000000E+00 0. -1.
         -4    1    4    4    0  501  0.19212515579E+03  0.42905529336E+03  0.56551563491E+03  0.73539680009E+03  0.00000000000E+00 0. -1.
<mgrwt>
<rscale>  2 0.10314253E+04</rscale>
<asrwt>0</asrwt>
<pdfrwt beam="1">  1        2 0.48100482E+00 0.10314253E+04</pdfrwt>
<pdfrwt beam="2">  1       -2 0.52816320E-01 0.10314253E+04</pdfrwt>
<totfact> 0.75470187E+00</totfact>
</mgrwt>
</event>
<event>
 8    1  0.7046235E-006  0.1306113E+04  0.7818608E-02  0.8530672E-01
          2   -1    0    0  502    0  0.00000000000E+00  0.00000000000E+00  0.10664672565E+04  0.10664672565E+04  0.00000000000E+00 0.  1.
         -2   -1    0    0    0  501 -0.00000000000E+00 -0.00000000000E+00 -0.17074290892E+04  0.17074290892E+04  0.00000000000E+00 0. -1.
    9000010    2    1    2  502    0  0.37975749437E+03 -0.75633157279E+03 -0.66935054925E+03  0.14689811368E+04  0.99680600920E+03 0.  0.
   -9000010    2    1    2    0  501 -0.37975749437E+03  0.75633157279E+03  0.28388716503E+02  0.13049152089E+04  0.99284670547E+03 0.  0.
        -13    1    3    3    0    0  0.49474655863E+03 -0.94059735319E+03 -0.43192949317E+03  0.11471968603E+04  0.10566000000E+00 0.  1.
          4    1    3    3  502    0 -0.11498906425E+03  0.18426578039E+03 -0.23742105608E+03  0.32178427649E+03  0.00000000000E+00 0.  1.
         13    1    4    4    0    0 -0.80994800789E+02 -0.74540399350E+02  0.34869644339E+03  0.36565783143E+03  0.10566000000E+00 0. -1.
         -4    1    4    4    0  501 -0.29876269358E+03  0.83087197214E+03 -0.32030772688E+03  0.93925737744E+03  0.00000000000E+00 0. -1.
<mgrwt>
<rscale>  2 0.13061133E+04</rscale>
<asrwt>0</asrwt>
<pdfrwt beam="1">  1        2 0.16407189E+00 0.13061133E+04</pdfrwt>
<pdfrwt beam="2">  1       -2 0.26268140E+00 0.13061133E+04</pdfrwt>
<totfact> 0.10955487E+00</totfact>
</mgrwt>
</event>
<event>
 8    1  0.7046235E-006  0.1847050E+04  0.7818608E-02  0.8233677E-01
         -2   -1    0    0    0  501 -0.00000000000E+00  0.00000000000E+00  0.16857074121E+04  0.16857074121E+04  0.00000000000E+00 0.  1.
          2   -1    0    0  502    0  0.00000000000E+00 -0.00000000000E+00 -0.20491948976E+04  0.20491948976E+04  0.00000000000E+00 0. -1.
    9000010    2    1    2  502    0  0.15432463528E+04  0.90136131667E+02  0.26123857446E+02  0.18459726325E+04  0.10085626784E+04 0.  0.
   -9000010    2    1    2    0  501 -0.15432463528E+04 -0.90136131667E+02 -0.38961134295E+03  0.18889296773E+04  0.10131754534E+04 0.  0.
        -13    1    3    3    0    0  0.16374059928E+04  0.24668924305E+02  0.18718364250E+03  0.16482550374E+04  0.10566000000E+00 0.  1.
          4    1    3    3  502    0 -0.94159639991E+02  0.65467207362E+02 -0.16105978506E+03  0.19771759508E+03  0.00000000000E+00 0.  1.
         13    1    4    4    0    0 -0.30539760253E+03 -0.15124679254E+03 -0.54199978708E+03  0.64023985212E+03  0.10566000000E+00 0. -1.
         -4    1    4    4    0  501 -0.12378487503E+04  0.61110660868E+02  0.15238844412E+03  0.12486898251E+04  0.00000000000E+00 0. -1.
<mgrwt>
<rscale>  2 0.18470496E+04</rscale>
<asrwt>0</asrwt>
<pdfrwt beam="2">  1        2 0.31526075E+00 0.18470496E+04</pdfrwt>
<pdfrwt beam="1">  1       -2 0.25933960E+00 0.18470496E+04</pdfrwt>
<totfact> 0.31304399E-01</totfact>
</mgrwt>
</event>
<event>
 8    1  0.7046235E-006  0.1303784E+04  0.7818608E-02  0.8532257E-01
          4   -1    0    0  502    0  0.00000000000E+00  0.00000000000E+00  0.14655472645E+04  0.14655472645E+04  0.00000000000E+00 0.  1.
         -4   -1    0    0    0  501 -0.00000000000E+00 -0.00000000000E+00 -0.11599104533E+04  0.11599104533E+04  0.00000000000E+00 0. -1.
    9000010    2    1    2  502    0 -0.82597218938E+02  0.83323196414E+03  0.15972537200E+03  0.13164524623E+04  0.10032133793E+04 0.  0.
   -9000010    2    1    2    0  501  0.82597218938E+02 -0.83323196414E+03  0.14591143919E+03  0.13090052555E+04  0.99554347171E+03 0.  0.
        -13    1    3    3    0    0 -0.58755203706E+02  0.32065430650E+02  0.45677799921E+03  0.46165627639E+03  0.10566000000E+00 0.  1.
          4    1    3    3  502    0 -0.23842015232E+02  0.80116653349E+03 -0.29705262721E+03  0.85479618589E+03  0.00000000000E+00 0.  1.
         13    1    4    4    0    0  0.52909830714E+03 -0.56678053480E+03  0.28132006106E+02  0.77587151911E+03  0.10566000000E+00 0. -1.
         -4    1    4    4    0  501 -0.44650108820E+03 -0.26645142935E+03  0.11777943308E+03  0.53313373634E+03  0.00000000000E+00 0. -1.
<mgrwt>
<rscale>  2 0.13037839E+04</rscale>
<asrwt>0</asrwt>
<pdfrwt beam="1">  1        4 0.22546881E+00 0.13037839E+04</pdfrwt>
<pdfrwt beam="2">  1       -4 0.17844776E+00 0.13037839E+04</pdfrwt>
<totfact> 0.18024098E-01</totfact>
</mgrwt>
</event>
<event>
 8    1  0.7046235E-006  0.1366671E+04  0.7818608E-02  0.8490622E-01
         -2   -1    0    0    0  501 -0.00000000000E+00  0.00000000000E+00  0.16435837517E+04  0.16435837517E+04  0.00000000000E+00 0.  1.
          2   -1    0    0  502    0  0.00000000000E+00 -0.00000000000E+00 -0.11376351823E+04  0.11376351823E+04  0.00000000000E+00 0. -1.
    9000010    2    1    2  502    0 -0.55434959755E+03 -0.80852064108E+03  0.29128468795E+03  0.13797167950E+04  0.92615471799E+03 0.  0.
   -9000010    2    1    2    0  501  0.55434959755E+03  0.80852064108E+03  0.21466388145E+03  0.14015021389E+04  0.97832436336E+03 0.  0.
        -13    1    3    3    0    0 -0.41728292786E+03 -0.45357754688E+03  0.62196449698E+03  0.87561263101E+03  0.10566000000E+00 0.  1.
          4    1    3    3  502    0 -0.13706666969E+03 -0.35494309421E+03 -0.33067980904E+03  0.50410416401E+03  0.00000000000E+00 0.  1.
         13    1    4    4    0    0  0.13239761290E+02 -0.97845179134E+02 -0.23440263423E+03  0.25434931975E+03  0.10566000000E+00 0. -1.
         -4    1    4    4    0  501  0.54110983626E+03  0.90636582021E+03  0.44906651568E+03  0.11471528191E+04  0.00000000000E+00 0. -1.
<mgrwt>
<rscale>  2 0.13666708E+04</rscale>
<asrwt>0</asrwt>
<pdfrwt beam="2">  1        2 0.17502080E+00 0.13666708E+04</pdfrwt>
<pdfrwt beam="1">  1       -2 0.25285904E+00 0.13666708E+04</pdfrwt>
<totfact> 0.11767925E+00</totfact>
</mgrwt>
</event>
<event>
 8    1  0.7046235E-006  0.1116321E+04  0.7818608E-02  0.8672387E-01
          1   -1    0    0  502    0  0.00000000000E+00  0.00000000000E+00  0.36557086270E+03  0.36557086270E+03  0.00000000000E+00 0.  1.
         -1   -1    0    0    0  501 -0.00000000000E+00 -0.00000000000E+00 -0.34420301916E+04  0.34420301916E+04  0.00000000000E+00 0. -1.
    9000010    2    1    2  502    0 -0.40685533894E+03  0.43668173081E+02 -0.13202889974E+04  0.17119348336E+04  0.10100097334E+04 0.  0.
   -9000010    2    1    2    0  501  0.40685533894E+03 -0.43668173081E+02 -0.17561703315E+04  0.20956662208E+04  0.10678223164E+04 0.  0.
        -13    1    3    3    0    0 -0.47619278255E+03  0.18179263140E+03 -0.14328024091E+04  0.15207665441E+04  0.10566000000E+00 0.  1.
          4    1    3    3  502    0  0.69337443609E+02 -0.13812445832E+03  0.11251341172E+03  0.19116828945E+03  0.00000000000E+00 0.  1.
         13    1    4    4    0    0  0.12644849291E+03  0.26322560839E+03 -0.16375258601E+04  0.16633604227E+04  0.10566000000E+00 0. -1.
         -4    1    4    4    0  501  0.28040684603E+03 -0.30689378147E+03 -0.11864447142E+03  0.43230579802E+03  0.00000000000E+00 0. -1.
<mgrwt>
<rscale>  2 0.11163215E+04</rscale>
<asrwt>0</asrwt>
<pdfrwt beam="1">  1        1 0.56241671E-01 0.11163215E+04</pdfrwt>
<pdfrwt beam="2">  1       -1 0.52954311E+00 0.11163215E+04</pdfrwt>
<totfact> 0.71228910E-01</totfact>
</mgrwt>
</event>
<event>
 8    1  0.7046235E-006  0.1576373E+04  0.7818608E-02  0.8366853E-01
          1   -1    0    0  502    0  0.00000000000E+00  0.00000000000E+00  0.21230018228E+04  0.21230018228E+04  0.00000000000E+00 0.  1.
         -1   -1    0    0    0  501 -0.00000000000E+00 -0.00000000000E+00 -0.11819051257E+04  0.11819051257E+04  0.00000000000E+00 0. -1.
    9000010    2    1    2  502    0 -0.10937288127E+04  0.52109611642E+03  0.30524452489E+03  0.15945959725E+04  0.99084722192E+03 0.  0.
   -9000010    2    1    2    0  501  0.10937288127E+04 -0.52109611642E+03  0.63585217228E+03  0.17103109761E+04  0.10261928531E+04 0.  0.
        -13    1    3    3    0    0 -0.10228990833E+04  0.68903816111E+03  0.49730545406E+03  0.13298153435E+04  0.10566000000E+00 0.  1.
          4    1    3    3  502    0 -0.70829729352E+02 -0.16794204469E+03 -0.19206092917E+03  0.26478062891E+03  0.00000000000E+00 0.  1.
         13    1    4    4    0    0  0.12218267256E+04 -0.66169660842E+03  0.61311149141E+03  0.15187523370E+04  0.10566000000E+00 0. -1.
         -4    1    4    4    0  501 -0.12809791293E+03  0.14060049200E+03  0.22740680876E+02  0.19155863910E+03  0.00000000000E+00 0. -1.
<mgrwt>
<rscale>  2 0.15763734E+04</rscale>
<asrwt>0</asrwt>
<pdfrwt beam="1">  1        1 0.32661567E+00 0.15763734E+04</pdfrwt>
<pdfrwt beam="2">  1       -1 0.18183156E+00 0.15763734E+04</pdfrwt>
<totfact> 0.54894167E-01</totfact>
</mgrwt>
</event>
<event>
 8    1  0.7046235E-006  0.1670073E+04  0.7818608E-02  0.8317826E-01
         -2   -1    0    0    0  501 -0.00000000000E+00  0.00000000000E+00  0.11457119434E+04  0.11457119434E+04  0.00000000000E+00 0. -1.
          2   -1    0    0  502    0  0.00000000000E+00 -0.00000000000E+00 -0.24511363662E+04  0.24511363662E+04  0.00000000000E+00 0.  1.
    9000010    2    1    2  502    0 -0.10723034488E+04  0.78205475668E+03 -0.79986505345E+03  0.18486747089E+04  0.10081516488E+04 0.  0.
   -9000010    2    1    2    0  501  0.10723034488E+04 -0.78205475668E+03 -0.50555936930E+03  0.17481736007E+04  0.10193509373E+04 0.  0.
        -13    1    3    3    0    0 -0.91528189857E+03  0.39660210967E+03 -0.59435052318E+02  0.99928310495E+03  0.10566000000E+00 0.  1.
          4    1    3    3  502    0 -0.15702155022E+03  0.38545264702E+03 -0.74043000113E+03  0.84939160397E+03  0.00000000000E+00 0.  1.
         13    1    4    4    0    0  0.96459579615E+03 -0.61973453834E+03  0.61914656673E+02  0.11481939661E+04  0.10566000000E+00 0. -1.
         -4    1    4    4    0  501  0.10770765264E+03 -0.16232021834E+03 -0.56747402597E+03  0.59997963455E+03  0.00000000000E+00 0. -1.
<mgrwt>
<rscale>  2 0.16700731E+04</rscale>
<asrwt>0</asrwt>
<pdfrwt beam="2">  1        2 0.37709790E+00 0.16700731E+04</pdfrwt>
<pdfrwt beam="1">  1       -2 0.17626338E+00 0.16700731E+04</pdfrwt>
<totfact> 0.89670451E-01</totfact>
</mgrwt>
</event>
<event>
 8    1  0.7046235E-006  0.1085251E+04  0.7818608E-02  0.8698374E-01
         -1   -1    0    0    0  501 -0.00000000000E+00  0.00000000000E+00  0.60932365076E+03  0.60932365076E+03  0.00000000000E+00 0.  1.
          1   -1    0    0  502    0  0.00000000000E+00 -0.00000000000E+00 -0.19906794662E+04  0.19906794662E+04  0.00000000000E+00 0. -1.
    9000010    2    1    2  502    0 -0.18615399396E+03 -0.41463113108E+03 -0.91804051892E+03  0.14292257842E+04  0.99665222796E+03 0.  0.
   -9000010    2    1    2    0  501  0.18615399396E+03  0.41463113108E+03 -0.46331529653E+03  0.11707773328E+04  0.97441583249E+03 0.  0.
        -13    1    3    3    0    0 -0.80348504431E+02  0.32914884979E+03 -0.35214051655E+03  0.48866942000E+03  0.10566000000E+00 0.  1.
          4    1    3    3  502    0 -0.10580548953E+03 -0.74377998086E+03 -0.56590000237E+03  0.94055636419E+03  0.00000000000E+00 0.  1.
         13    1    4    4    0    0 -0.30983673918E+03  0.22442410880E+03 -0.50996893141E+03  0.63752122139E+03  0.10566000000E+00 0. -1.
         -4    1    4    4    0  501  0.49599073313E+03  0.19020702228E+03  0.46653634883E+02  0.53325611138E+03  0.00000000000E+00 0. -1.
<mgrwt>
<rscale>  2 0.10852508E+04</rscale>
<asrwt>0</asrwt>
<pdfrwt beam="2">  1        1 0.30625837E+00 0.10852508E+04</pdfrwt>
<pdfrwt beam="1">  1       -1 0.93742102E-01 0.10852508E+04</pdfrwt>
<totfact> 0.44742075E+00</totfact>
</mgrwt>
</event>
<event>
 8    1  0.7046235E-006  0.1072252E+04  0.7818608E-02  0.8709516E-01
         -2   -1    0    0    0  501 -0.00000000000E+00  0.00000000000E+00  0.54018877617E+03  0.54018877617E+03  0.00000000000E+00 0.  1.
          2   -1    0    0  502    0  0.00000000000E+00 -0.00000000000E+00 -0.22391781375E+04  0.22391781375E+04  0.00000000000E+00 0. -1.
    9000010    2    1    2  502    0 -0.67275690744E+02  0.36817330140E+03 -0.11582612856E+04  0.15780544611E+04  0.10042953142E+04 0.  0.
   -9000010    2    1    2    0  501  0.67275690744E+02 -0.36817330140E+03 -0.54072807571E+03  0.12013124525E+04  0.10053293780E+04 0.  0.
        -13    1    3    3    0    0 -0.50506180554E+03  0.24120953481E+03 -0.38127308717E+03  0.67722865065E+03  0.10566000000E+00 0.  1.
          4    1    3    3  502    0  0.43778611479E+03  0.12696376659E+03 -0.77698819844E+03  0.90082581049E+03  0.00000000000E+00 0.  1.
         13    1    4    4    0    0  0.29529321315E+03 -0.62849556561E+03 -0.21723522786E+03  0.72759598206E+03  0.10566000000E+00 0. -1.
         -4    1    4    4    0  501 -0.22801752241E+03  0.26032226420E+03 -0.32349284784E+03  0.47371647044E+03  0.00000000000E+00 0. -1.
<mgrwt>
<rscale>  2 0.10722524E+04</rscale>
<asrwt>0</asrwt>
<pdfrwt beam="2">  1        2 0.34448895E+00 0.10722524E+04</pdfrwt>
<pdfrwt beam="1">  1       -2 0.83105963E-01 0.10722524E+04</pdfrwt>
<totfact> 0.96421401E+00</totfact>
</mgrwt>
</event>
<event>
 8    1  0.7046235E-006  0.1277245E+04  0.7818608E-02  0.8550559E-01
          2   -1    0    0  502    0  0.00000000000E+00  0.00000000000E+00  0.31019573814E+04  0.31019573814E+04  0.00000000000E+00 0.  1.
         -2   -1    0    0    0  501 -0.00000000000E+00 -0.00000000000E+00 -0.10523402807E+04  0.10523402807E+04  0.00000000000E+00 0. -1.
    9000010    2    1    2  502    0  0.26282438372E+03 -0.75554962990E+03 -0.44343101003E+03  0.13541147332E+04  0.99853079577E+03 0.  0.
   -9000010    2    1    2    0  501 -0.26282438372E+03  0.75554962990E+03  0.24930481107E+04  0.28001829290E+04  0.99287645425E+03 0.  0.
        -13    1    3    3    0    0  0.11369140807E+03 -0.68514589834E+01  0.28006362889E+03  0.30233809907E+03  0.10566000000E+00 0.  1.
          4    1    3    3  502    0  0.14913297566E+03 -0.74869817092E+03 -0.72349463892E+03  0.10517766341E+04  0.00000000000E+00 0.  1.
         13    1    4    4    0    0 -0.61760108772E+03  0.66437549537E+03  0.17102331822E+04  0.19359037815E+04  0.10566000000E+00 0. -1.
         -4    1    4    4    0  501  0.35477670400E+03  0.91174134526E+02  0.78281492851E+03  0.86427914750E+03  0.00000000000E+00 0. -1.
<mgrwt>
<rscale>  2 0.12772454E+04</rscale>
<asrwt>0</asrwt>
<pdfrwt beam="1">  1        2 0.47722421E+00 0.12772454E+04</pdfrwt>
<pdfrwt beam="2">  1       -2 0.16189851E+00 0.12772454E+04</pdfrwt>
<totfact> 0.50891524E-01</totfact>
</mgrwt>
</event>
<event>
 8    1  0.7046235E-006  0.2645393E+04  0.7818608E-02  0.7946871E-01
         -1   -1    0    0    0  501 -0.00000000000E+00  0.00000000000E+00  0.29511065009E+04  0.29511065009E+04  0.00000000000E+00 0.  1.
          1   -1    0    0  502    0  0.00000000000E+00 -0.00000000000E+00 -0.24358310884E+04  0.24358310884E+04  0.00000000000E+00 0. -1.
    9000010    2    1    2  502    0 -0.83282347801E+03  0.23038340871E+04  0.69591539276E+03  0.27358425912E+04  0.99964493874E+03 0.  0.
   -9000010    2    1    2    0  501  0.83282347801E+03 -0.23038340871E+04 -0.18063998032E+03  0.26510949981E+04  0.99720982758E+03 0.  0.
        -13    1    3    3    0    0 -0.36815897829E+03  0.19777890789E+04  0.78836640477E+03  0.21607203135E+04  0.10566000000E+00 0.  1.
          4    1    3    3  502    0 -0.46466449972E+03  0.32604500820E+03 -0.92451012010E+02  0.57512227769E+03  0.00000000000E+00 0.  1.
         13    1    4    4    0    0  0.58304242013E+03 -0.45976329511E+03 -0.26471580962E+03  0.78828625653E+03  0.10566000000E+00 0. -1.
         -4    1    4    4    0  501  0.24978105788E+03 -0.18440707920E+04  0.84075829293E+02  0.18628087416E+04  0.00000000000E+00 0. -1.
<mgrwt>
<rscale>  2 0.26453931E+04</rscale>
<asrwt>0</asrwt>
<pdfrwt beam="2">  1        1 0.37474325E+00 0.26453931E+04</pdfrwt>
<pdfrwt beam="1">  1       -1 0.45401638E+00 0.26453931E+04</pdfrwt>
<totfact> 0.14695182E-02</totfact>
</mgrwt>
</event>
<event>
 8    1  0.7046235E-006  0.1173459E+04  0.7818608E-02  0.8626821E-01
          2   -1    0    0  502    0  0.00000000000E+00  0.00000000000E+00  0.10593530298E+04  0.10593530298E+04  0.00000000000E+00 0.  1.
         -2   -1    0    0    0  501 -0.00000000000E+00 -0.00000000000E+00 -0.13169537841E+04  0.13169537841E+04  0.00000000000E+00 0. -1.
    9000010    2    1    2  502    0  0.46048139529E+03 -0.60774331978E+03 -0.16130815175E+03  0.13242569792E+04  0.10706265311E+04 0.  0.
   -9000010    2    1    2    0  501 -0.46048139529E+03  0.60774331978E+03 -0.96292602493E+02  0.10520498347E+04  0.71842990700E+03 0.  0.
        -13    1    3    3    0    0  0.12374525488E+03  0.21388157988E+03  0.24481296245E+03  0.34783849135E+03  0.10566000000E+00 0.  1.
          4    1    3    3  502    0  0.33673614041E+03 -0.82162489967E+03 -0.40612111420E+03  0.97641848785E+03  0.00000000000E+00 0.  1.
         13    1    4    4    0    0  0.19377457200E+03  0.11964578297E+03 -0.57397282522E+02  0.23485773851E+03  0.10566000000E+00 0. -1.
         -4    1    4    4    0  501 -0.65425596728E+03  0.48809753681E+03 -0.38895319971E+02  0.81719209620E+03  0.00000000000E+00 0. -1.
<mgrwt>
<rscale>  2 0.11734587E+04</rscale>
<asrwt>0</asrwt>
<pdfrwt beam="1">  1        2 0.16297739E+00 0.11734587E+04</pdfrwt>
<pdfrwt beam="2">  1       -2 0.20260827E+00 0.11734587E+04</pdfrwt>
<totfact> 0.33672474E+00</totfact>
</mgrwt>
</event>
<event>
 8    1  0.7046235E-006  0.1249558E+04  0.7818608E-02  0.8570150E-01
          2   -1    0    0  502    0  0.00000000000E+00  0.00000000000E+00  0.24193310178E+04  0.24193310178E+04  0.00000000000E+00 0. -1.
         -2   -1    0    0    0  501 -0.00000000000E+00 -0.00000000000E+00 -0.66101582032E+03  0.66101582032E+03  0.00000000000E+00 0.  1.
    9000010    2    1    2  502    0  0.47744791961E+03 -0.51525530981E+03  0.11037345092E+04  0.16549084903E+04  0.10134336162E+04 0.  0.
   -9000010    2    1    2    0  501 -0.47744791961E+03  0.51525530981E+03  0.65458068829E+03  0.14254383477E+04  0.10535435708E+04 0.  0.
        -13    1    3    3    0    0  0.24137476517E+03 -0.40201280738E+03 -0.50249186114E+02  0.47159417556E+03  0.10566000000E+00 0.  1.
          4    1    3    3  502    0  0.23607315444E+03 -0.11324250244E+03  0.11539836953E+04  0.11833143148E+04  0.00000000000E+00 0.  1.
         13    1    4    4    0    0  0.15320037530E+03 -0.18121752332E+03 -0.60284192029E+02  0.24483533390E+03  0.10566000000E+00 0. -1.
         -4    1    4    4    0  501 -0.63064829492E+03  0.69647283313E+03  0.71486488032E+03  0.11806030138E+04  0.00000000000E+00 0. -1.
<mgrwt>
<rscale>  2 0.12495580E+04</rscale>
<asrwt>0</asrwt>
<pdfrwt beam="1">  1        2 0.37220477E+00 0.12495580E+04</pdfrwt>
<pdfrwt beam="2">  1       -2 0.10169474E+00 0.12495580E+04</pdfrwt>
<totfact> 0.47076016E+00</totfact>
</mgrwt>
</event>
<event>
 8    1  0.7046235E-006  0.1050723E+04  0.7818608E-02  0.8728339E-01
          2   -1    0    0  502    0  0.00000000000E+00  0.00000000000E+00  0.29567986430E+04  0.29567986430E+04  0.00000000000E+00 0. -1.
         -2   -1    0    0    0  501 -0.00000000000E+00 -0.00000000000E+00 -0.51727330350E+03  0.51727330350E+03  0.00000000000E+00 0.  1.
    9000010    2    1    2  502    0  0.26161913353E+03 -0.10239722260E+03  0.21364465707E+04  0.23811288638E+04  0.10131342232E+04 0.  0.
   -9000010    2    1    2    0  501 -0.26161913353E+03  0.10239722260E+03  0.30307876878E+03  0.10929430827E+04  0.10117994266E+04 0.  0.
        -13    1    3    3    0    0 -0.49125409306E+02 -0.39017242464E+03  0.29499409197E+03  0.49159877161E+03  0.10566000000E+00 0.  1.
          4    1    3    3  502    0  0.31074454284E+03  0.28777520204E+03  0.18414524787E+04  0.18895300922E+04  0.00000000000E+00 0.  1.
         13    1    4    4    0    0 -0.15077381158E+02 -0.41257329016E+03  0.31906886071E+03  0.52177485203E+03  0.10566000000E+00 0. -1.
         -4    1    4    4    0  501 -0.24654175237E+03  0.51497051275E+03 -0.15990091938E+02  0.57116823065E+03  0.00000000000E+00 0. -1.
<mgrwt>
<rscale>  2 0.10507228E+04</rscale>
<asrwt>0</asrwt>
<pdfrwt beam="1">  1        2 0.45489209E+00 0.10507228E+04</pdfrwt>
<pdfrwt beam="2">  1       -2 0.79580511E-01 0.10507228E+04</pdfrwt>
<totfact> 0.41327562E+00</totfact>
</mgrwt>
</event>
<event>
 8    1  0.7046235E-006  0.1690480E+04  0.7818608E-02  0.8307588E-01
         -2   -1    0    0    0  501 -0.00000000000E+00  0.00000000000E+00  0.12112438760E+04  0.12112438760E+04  0.00000000000E+00 0.  1.
          2   -1    0    0  502    0  0.00000000000E+00 -0.00000000000E+00 -0.23868780556E+04  0.23868780556E+04  0.00000000000E+00 0. -1.
    9000010    2    1    2  502    0 -0.11979835205E+04 -0.61820809310E+03 -0.39224771833E+03  0.17285100033E+04  0.10082374706E+04 0.  0.
   -9000010    2    1    2    0  501  0.11979835205E+04  0.61820809310E+03 -0.78338646123E+03  0.18696119283E+04  0.10317018236E+04 0.  0.
        -13    1    3    3    0    0 -0.33003490993E+03 -0.57258996918E+03 -0.53172699401E+03  0.84824284371E+03  0.10566000000E+00 0.  1.
          4    1    3    3  502    0 -0.86794861062E+03 -0.45618123919E+02  0.13947927568E+03  0.88026715959E+03  0.00000000000E+00 0.  1.
         13    1    4    4    0    0  0.53450876158E+03  0.26349799190E+03 -0.92861223446E+03  0.11033818474E+04  0.10566000000E+00 0. -1.
         -4    1    4    4    0  501  0.66347475896E+03  0.35471010120E+03  0.14522577323E+03  0.76623008091E+03  0.00000000000E+00 0. -1.
<mgrwt>
<rscale>  2 0.16904796E+04</rscale>
<asrwt>0</asrwt>
<pdfrwt beam="2">  1        2 0.36721200E+00 0.16904796E+04</pdfrwt>
<pdfrwt beam="1">  1       -2 0.18634521E+00 0.16904796E+04</pdfrwt>
<totfact> 0.80059831E-01</totfact>
</mgrwt>
</event>
<event>
 8    1  0.7046235E-006  0.1160754E+04  0.7818608E-02  0.8636717E-01
         -2   -1    0    0    0  501 -0.00000000000E+00  0.00000000000E+00  0.28635593055E+04  0.28635593055E+04  0.00000000000E+00 0. -1.
          2   -1    0    0  502    0  0.00000000000E+00 -0.00000000000E+00 -0.53713005491E+03  0.53713005491E+03  0.00000000000E+00 0.  1.
    9000010    2    1    2  502    0 -0.38435582742E+03  0.50485848413E+03  0.17465600625E+04  0.20877933408E+04  0.95173393915E+03 0.  0.
   -9000010    2    1    2    0  501  0.38435582742E+03 -0.50485848413E+03  0.57986918809E+03  0.13128960196E+04  0.99238913331E+03 0.  0.
        -13    1    3    3    0    0  0.30627011815E+03  0.28633298315E+03  0.62100574894E+03  0.74929040691E+03  0.10566000000E+00 0.  1.
          4    1    3    3  502    0 -0.69062594557E+03  0.21852550098E+03  0.11255543135E+04  0.13385029339E+04  0.00000000000E+00 0.  1.
         13    1    4    4    0    0  0.95267367268E+02  0.14985749454E+03  0.57011549524E+03  0.59713049580E+03  0.10566000000E+00 0. -1.
         -4    1    4    4    0  501  0.28908846016E+03 -0.65471597868E+03  0.97536928438E+01  0.71576552379E+03  0.00000000000E+00 0. -1.
<mgrwt>
<rscale>  2 0.11607536E+04</rscale>
<asrwt>0</asrwt>
<pdfrwt beam="2">  1        2 0.82635395E-01 0.11607536E+04</pdfrwt>
<pdfrwt beam="1">  1       -2 0.44054758E+00 0.11607536E+04</pdfrwt>
<totfact> 0.24170158E-01</totfact>
</mgrwt>
</event>
<event>
 8    1  0.7046235E-006  0.1233058E+04  0.7818608E-02  0.8582076E-01
          2   -1    0    0  502    0  0.00000000000E+00  0.00000000000E+00  0.31006798435E+04  0.31006798435E+04  0.00000000000E+00 0.  1.
         -2   -1    0    0    0  501 -0.00000000000E+00 -0.00000000000E+00 -0.54720405856E+03  0.54720405856E+03  0.00000000000E+00 0. -1.
    9000010    2    1    2  502    0  0.26304731870E+03 -0.71782314781E+03  0.67947437205E+03  0.13988951445E+04  0.95433654426E+03 0.  0.
   -9000010    2    1    2    0  501 -0.26304731870E+03  0.71782314781E+03  0.18740014129E+04  0.22489887575E+04  0.98061469119E+03 0.  0.
        -13    1    3    3    0    0  0.14371590122E+03  0.19137358032E+03 -0.27651157109E+02  0.24092053703E+03  0.10566000000E+00 0.  1.
          4    1    3    3  502    0  0.11933141748E+03 -0.90919672813E+03  0.70712552916E+03  0.11579746075E+04  0.00000000000E+00 0.  1.
         13    1    4    4    0    0 -0.19308895939E+03  0.31519284913E+03  0.17951221321E+04  0.18327829546E+04  0.10566000000E+00 0. -1.
         -4    1    4    4    0  501 -0.69958359305E+02  0.40263029868E+03  0.78879280798E+02  0.41620580292E+03  0.00000000000E+00 0. -1.
<mgrwt>
<rscale>  2 0.12330584E+04</rscale>
<asrwt>0</asrwt>
<pdfrwt beam="1">  1        2 0.47702766E+00 0.12330584E+04</pdfrwt>
<pdfrwt beam="2">  1       -2 0.84185241E-01 0.12330584E+04</pdfrwt>
<totfact> 0.29004029E+00</totfact>
</mgrwt>
</event>
<event>
 8    1  0.7046235E-006  0.1167820E+04  0.7818608E-02  0.8631196E-01
         -2   -1    0    0    0  501 -0.00000000000E+00  0.00000000000E+00  0.93010345621E+03  0.93010345621E+03  0.00000000000E+00 0. -1.
          2   -1    0    0  502    0  0.00000000000E+00 -0.00000000000E+00 -0.18422432851E+04  0.18422432851E+04  0.00000000000E+00 0.  1.
    9000010    2    1    2  502    0 -0.49942689927E+03  0.31766570368E+03  0.17282196153E+03  0.11717139989E+04  0.99634709711E+03 0.  0.
   -9000010    2    1    2    0  501  0.49942689927E+03 -0.31766570368E+03 -0.10849617904E+04  0.16006327424E+04  0.10171255391E+04 0.  0.
        -13    1    3    3    0    0 -0.18422143438E+03 -0.17042544497E+03  0.45968847221E+03  0.52373263391E+03  0.10566000000E+00 0.  1.
          4    1    3    3  502    0 -0.31520546489E+03  0.48809114864E+03 -0.28686651068E+03  0.64798136504E+03  0.00000000000E+00 0.  1.
         13    1    4    4    0    0  0.81405954696E+03 -0.20621218845E+03 -0.82873892672E+03  0.11798409353E+04  0.10566000000E+00 0. -1.
         -4    1    4    4    0  501 -0.31463264769E+03 -0.11145351523E+03 -0.25622286369E+03  0.42079180711E+03  0.00000000000E+00 0. -1.
<mgrwt>
<rscale>  2 0.11678203E+04</rscale>
<asrwt>0</asrwt>
<pdfrwt beam="2">  1        2 0.28342204E+00 0.11678203E+04</pdfrwt>
<pdfrwt beam="1">  1       -2 0.14309284E+00 0.11678203E+04</pdfrwt>
<totfact> 0.39598060E+00</totfact>
</mgrwt>
</event>
<event>
 8    1  0.7046235E-006  0.2329596E+04  0.7818608E-02  0.8046029E-01
          4   -1    0    0  502    0  0.00000000000E+00  0.00000000000E+00  0.40440296860E+04  0.40440296860E+04  0.00000000000E+00 0.  1.
         -4   -1    0    0    0  501 -0.00000000000E+00 -0.00000000000E+00 -0.14229137224E+04  0.14229137224E+04  0.00000000000E+00 0. -1.
    9000010    2    1    2  502    0  0.94886678256E+03  0.18764176421E+04  0.19594342746E+04  0.30397651860E+04  0.98969610032E+03 0.  0.
   -9000010    2    1    2    0  501 -0.94886678256E+03 -0.18764176421E+04  0.66168168905E+03  0.24271782224E+04  0.10159134447E+04 0.  0.
        -13    1    3    3    0    0  0.10904200620E+04  0.13638006894E+04  0.17381419505E+04  0.24637584466E+04  0.10566000000E+00 0.  1.
          4    1    3    3  502    0 -0.14155327947E+03  0.51261695266E+03  0.22129232409E+03  0.57600673935E+03  0.00000000000E+00 0.  1.
         13    1    4    4    0    0  0.65515236766E+02 -0.64417846803E+02 -0.16757808248E+03  0.19111339599E+03  0.10566000000E+00 0. -1.
         -4    1    4    4    0  501 -0.10143820193E+04 -0.18119997953E+04  0.82925977153E+03  0.22360648264E+04  0.00000000000E+00 0. -1.
<mgrwt>
<rscale>  2 0.23295959E+04</rscale>
<asrwt>0</asrwt>
<pdfrwt beam="1">  1        4 0.62215841E+00 0.23295959E+04</pdfrwt>
<pdfrwt beam="2">  1       -4 0.21890980E+00 0.23295959E+04</pdfrwt>
<totfact> 0.31476434E-03</totfact>
</mgrwt>
</event>
<event>
 8    1  0.7046235E-006  0.1341243E+04  0.7818608E-02  0.8507174E-01
         -2   -1    0    0    0  501 -0.00000000000E+00  0.00000000000E+00  0.11112384591E+04  0.11112384591E+04  0.00000000000E+00 0.  1.
          2   -1    0    0  502    0  0.00000000000E+00 -0.00000000000E+00 -0.17082356439E+04  0.17082356439E+04  0.00000000000E+00 0. -1.
    9000010    2    1    2  502    0  0.79292994723E+03 -0.38246895336E+03 -0.61895786506E+03  0.14691262931E+04  0.10001014073E+04 0.  0.
   -9000010    2    1    2    0  501 -0.79292994723E+03  0.38246895336E+03  0.21960680282E+02  0.13503478099E+04  0.10236877135E+04 0.  0.
        -13    1    3    3    0    0  0.57490882665E+03  0.17075523802E+03 -0.63610236347E+03  0.87424466727E+03  0.10566000000E+00 0.  1.
          4    1    3    3  502    0  0.21802112058E+03 -0.55322419138E+03  0.17144498404E+02  0.59488162585E+03  0.00000000000E+00 0.  1.
         13    1    4    4    0    0  0.72394991960E+02  0.20886726398E+02 -0.33763366614E+03  0.34593900311E+03  0.10566000000E+00 0. -1.
         -4    1    4    4    0  501 -0.86532493919E+03  0.36158222696E+03  0.35959434642E+03  0.10044088068E+04  0.00000000000E+00 0. -1.
<mgrwt>
<rscale>  2 0.13412426E+04</rscale>
<asrwt>0</asrwt>
<pdfrwt beam="2">  1        2 0.26280548E+00 0.13412426E+04</pdfrwt>
<pdfrwt beam="1">  1       -2 0.17095976E+00 0.13412426E+04</pdfrwt>
<totfact> 0.26303658E+00</totfact>
</mgrwt>
</event>
<event>
 8    1  0.7046235E-006  0.1189435E+04  0.7818608E-02  0.8614561E-01
          2   -1    0    0  502    0  0.00000000000E+00  0.00000000000E+00  0.28505252574E+04  0.28505252574E+04  0.00000000000E+00 0.  1.
         -2   -1    0    0    0  501 -0.00000000000E+00 -0.00000000000E+00 -0.52610805407E+03  0.52610805407E+03  0.00000000000E+00 0. -1.
    9000010    2    1    2  502    0  0.60264718999E+03 -0.23065325039E+03  0.15651101343E+04  0.19665319121E+04  0.10006465265E+04 0.  0.
   -9000010    2    1    2    0  501 -0.60264718999E+03  0.23065325039E+03  0.75930706901E+03  0.14101013994E+04  0.99772449807E+03 0.  0.
        -13    1    3    3    0    0  0.54033750710E+03  0.10666316641E+03  0.15247121725E+04  0.16211381412E+04  0.10566000000E+00 0.  1.
          4    1    3    3  502    0  0.62309682885E+02 -0.33731641681E+03  0.40397961792E+02  0.34539377085E+03  0.00000000000E+00 0.  1.
         13    1    4    4    0    0 -0.19483009284E+03 -0.38107757179E+03  0.42255465468E+03  0.60144104296E+03  0.10566000000E+00 0. -1.
         -4    1    4    4    0  501 -0.40781709715E+03  0.61173082218E+03  0.33675241433E+03  0.80866035645E+03  0.00000000000E+00 0. -1.
<mgrwt>
<rscale>  2 0.11894349E+04</rscale>
<asrwt>0</asrwt>
<pdfrwt beam="1">  1        2 0.43854234E+00 0.11894349E+04</pdfrwt>
<pdfrwt beam="2">  1       -2 0.80939702E-01 0.11894349E+04</pdfrwt>
<totfact> 0.45383640E+00</totfact>
</mgrwt>
</event>
<event>
 8    1  0.7046235E-006  0.1077342E+04  0.7818608E-02  0.8705134E-01
         -1   -1    0    0    0  501 -0.00000000000E+00  0.00000000000E+00  0.18845867290E+04  0.18845867290E+04  0.00000000000E+00 0.  1.
          1   -1    0    0  502    0  0.00000000000E+00 -0.00000000000E+00 -0.83805823456E+03  0.83805823456E+03  0.00000000000E+00 0. -1.
    9000010    2    1    2  502    0  0.25652303859E+03  0.29968663624E+03  0.12240369901E+04  0.16303134023E+04  0.10020175085E+04 0.  0.
   -9000010    2    1    2    0  501 -0.25652303859E+03 -0.29968663624E+03 -0.17750849569E+03  0.10923315612E+04  0.10030268313E+04 0.  0.
        -13    1    3    3    0    0 -0.84793090571E+02 -0.73742531969E+02 -0.13764275158E+03  0.17768896268E+03  0.10566000000E+00 0.  1.
          4    1    3    3  502    0  0.34131612916E+03  0.37342916821E+03  0.13616797417E+04  0.14526244397E+04  0.00000000000E+00 0.  1.
         13    1    4    4    0    0  0.17365815246E+03 -0.27522752875E+03  0.30459545496E+03  0.44574179616E+03  0.10566000000E+00 0. -1.
         -4    1    4    4    0  501 -0.43018119105E+03 -0.24459107488E+02 -0.48210395065E+03  0.64658976508E+03  0.00000000000E+00 0. -1.
<mgrwt>
<rscale>  2 0.10773424E+04</rscale>
<asrwt>0</asrwt>
<pdfrwt beam="2">  1        1 0.12893204E+00 0.10773424E+04</pdfrwt>
<pdfrwt beam="1">  1       -1 0.28993642E+00 0.10773424E+04</pdfrwt>
<totfact> 0.55120620E-01</totfact>
</mgrwt>
</event>
<event>
 8    1  0.7046235E-006  0.1619816E+04  0.7818608E-02  0.8343696E-01
         -1   -1    0    0    0  501 -0.00000000000E+00  0.00000000000E+00  0.10299623284E+04  0.10299623284E+04  0.00000000000E+00 0.  1.
          1   -1    0    0  502    0  0.00000000000E+00 -0.00000000000E+00 -0.26856330435E+04  0.26856330435E+04  0.00000000000E+00 0. -1.
    9000010    2    1    2  502    0 -0.11802287288E+04 -0.51524132422E+03 -0.40596007125E+03  0.16688923627E+04  0.98080816899E+03 0.  0.
   -9000010    2    1    2    0  501  0.11802287288E+04  0.51524132422E+03 -0.12497106438E+04  0.20467030093E+04  0.98427792853E+03 0.  0.
        -13    1    3    3    0    0  0.13044090963E+03  0.10438847434E+03 -0.17427152635E+02  0.16797470433E+03  0.10566000000E+00 0.  1.
          4    1    3    3  502    0 -0.13106696384E+04 -0.61962979856E+03 -0.38853291862E+03  0.15009176583E+04  0.00000000000E+00 0.  1.
         13    1    4    4    0    0  0.11547800833E+04  0.34228440154E+03 -0.13777634847E+04  0.18300021539E+04  0.10566000000E+00 0. -1.
         -4    1    4    4    0  501  0.25448645426E+02  0.17295692268E+03  0.12805284089E+03  0.21670085537E+03  0.00000000000E+00 0. -1.
<mgrwt>
<rscale>  2 0.16198164E+04</rscale>
<asrwt>0</asrwt>
<pdfrwt beam="2">  1        1 0.41317432E+00 0.16198164E+04</pdfrwt>
<pdfrwt beam="1">  1       -1 0.15845574E+00 0.16198164E+04</pdfrwt>
<totfact> 0.28076920E-01</totfact>
</mgrwt>
</event>
<event>
 8    1  0.7046235E-006  0.1692742E+04  0.7818608E-02  0.8306462E-01
         -2   -1    0    0    0  501 -0.00000000000E+00  0.00000000000E+00  0.43033279573E+04  0.43033279573E+04  0.00000000000E+00 0.  1.
          2   -1    0    0  502    0  0.00000000000E+00 -0.00000000000E+00 -0.16503984406E+04  0.16503984406E+04  0.00000000000E+00 0. -1.
    9000010    2    1    2  502    0  0.75734823266E+03 -0.11372480511E+04  0.36234837959E+04  0.39964523945E+04  0.98746516213E+03 0.  0.
   -9000010    2    1    2    0  501 -0.75734823266E+03  0.11372480511E+04 -0.97055427918E+03  0.19572740035E+04  0.10109581794E+04 0.  0.
        -13    1    3    3    0    0 -0.72402146614E+02 -0.37177804739E+03  0.29009850373E+03  0.47709342941E+03  0.10566000000E+00 0.  1.
          4    1    3    3  502    0  0.82975037927E+03 -0.76547000372E+03  0.33333852922E+04  0.35193589650E+04  0.00000000000E+00 0.  1.
         13    1    4    4    0    0 -0.17446310164E+03  0.57392412852E+03 -0.97721482038E+03  0.11466364269E+04  0.10566000000E+00 0. -1.
         -4    1    4    4    0  501 -0.58288513102E+03  0.56332392260E+03  0.66605412074E+01  0.81063757657E+03  0.00000000000E+00 0. -1.
<mgrwt>
<rscale>  2 0.16927419E+04</rscale>
<asrwt>0</asrwt>
<pdfrwt beam="2">  1        2 0.25390745E+00 0.16927419E+04</pdfrwt>
<pdfrwt beam="1">  1       -2 0.66205045E+00 0.16927419E+04</pdfrwt>
<totfact> 0.40911424E-02</totfact>
</mgrwt>
</event>
<event>
 8    1  0.7046235E-006  0.1424496E+04  0.7818608E-02  0.8454322E-01
         -2   -1    0    0    0  501 -0.00000000000E+00  0.00000000000E+00  0.63826339862E+03  0.63826339862E+03  0.00000000000E+00 0. -1.
          2   -1    0    0  502    0  0.00000000000E+00 -0.00000000000E+00 -0.31966893188E+04  0.31966893188E+04  0.00000000000E+00 0.  1.
    9000010    2    1    2  502    0 -0.49524288423E+03 -0.88667483764E+03 -0.11393081623E+04  0.18255999804E+04  0.10016658213E+04 0.  0.
   -9000010    2    1    2    0  501  0.49524288423E+03  0.88667483764E+03 -0.14191177578E+04  0.20093527370E+04  0.99606497230E+03 0.  0.
        -13    1    3    3    0    0 -0.42784237605E+03 -0.90821918687E+03 -0.39646772219E+03  0.10793969872E+04  0.10566000000E+00 0.  1.
          4    1    3    3  502    0 -0.67400508178E+02  0.21544349233E+02 -0.74284044015E+03  0.74620299316E+03  0.00000000000E+00 0.  1.
         13    1    4    4    0    0 -0.17606482536E+03  0.37345227972E+03 -0.71949483069E+02  0.41909684708E+03  0.10566000000E+00 0. -1.
         -4    1    4    4    0  501  0.67130770959E+03  0.51322255792E+03 -0.13471682748E+04  0.15902558899E+04  0.00000000000E+00 0. -1.
<mgrwt>
<rscale>  2 0.14244964E+04</rscale>
<asrwt>0</asrwt>
<pdfrwt beam="2">  1        2 0.49179835E+00 0.14244964E+04</pdfrwt>
<pdfrwt beam="1">  1       -2 0.98194370E-01 0.14244964E+04</pdfrwt>
<totfact> 0.17221833E+00</totfact>
</mgrwt>
</event>
<event>
 8    1  0.7046235E-006  0.1629027E+04  0.7818608E-02  0.8338883E-01
         -2   -1    0    0    0  501 -0.00000000000E+00  0.00000000000E+00  0.93424950025E+03  0.93424950025E+03  0.00000000000E+00 0. -1.
          2   -1    0    0  502    0  0.00000000000E+00 -0.00000000000E+00 -0.29176084620E+04  0.29176084620E+04  0.00000000000E+00 0.  1.
    9000010    2    1    2  502    0 -0.11073514637E+04 -0.63776721678E+03 -0.13113390114E+04  0.21002981939E+04  0.10289160383E+04 0.  0.
   -9000010    2    1    2    0  501  0.11073514637E+04  0.63776721678E+03 -0.67201995032E+03  0.17515597683E+04  0.99165342800E+03 0.  0.
        -13    1    3    3    0    0 -0.41987284892E+03  0.96423179567E+02  0.20546571266E+02  0.43129202586E+03  0.10566000000E+00 0.  1.
          4    1    3    3  502    0 -0.68747861476E+03 -0.73419039634E+03 -0.13318855826E+04  0.16690061681E+04  0.00000000000E+00 0.  1.
         13    1    4    4    0    0  0.12182172032E+04  0.48238457149E+03 -0.78727993532E+03  0.15285803010E+04  0.10566000000E+00 0. -1.
         -4    1    4    4    0  501 -0.11086573953E+03  0.15538264528E+03  0.11525998500E+03  0.22297946722E+03  0.00000000000E+00 0. -1.
<mgrwt>
<rscale>  2 0.16290272E+04</rscale>
<asrwt>0</asrwt>
<pdfrwt beam="2">  1        2 0.44886284E+00 0.16290272E+04</pdfrwt>
<pdfrwt beam="1">  1       -2 0.14373069E+00 0.16290272E+04</pdfrwt>
<totfact> 0.91877956E-01</totfact>
</mgrwt>
</event>
<event>
 8    1  0.7046235E-006  0.1202862E+04  0.7818608E-02  0.8604410E-01
          1   -1    0    0  502    0  0.00000000000E+00  0.00000000000E+00  0.31694187000E+04  0.31694187000E+04  0.00000000000E+00 0. -1.
         -1   -1    0    0    0  501 -0.00000000000E+00 -0.00000000000E+00 -0.45847973160E+03  0.45847973160E+03  0.00000000000E+00 0.  1.
    9000010    2    1    2  502    0 -0.48892531843E+03 -0.46769668606E+03  0.12317863857E+04  0.17185472341E+04  0.98909996406E+03 0.  0.
   -9000010    2    1    2    0  501  0.48892531843E+03  0.46769668606E+03  0.14791525827E+04  0.19093511974E+04  0.99997073711E+03 0.  0.
        -13    1    3    3    0    0  0.15008908674E+03 -0.53485484151E+03  0.55111962947E+03  0.78251472357E+03  0.10566000000E+00 0.  1.
          4    1    3    3  502    0 -0.63901440517E+03  0.67158155450E+02  0.68066675620E+03  0.93603251058E+03  0.00000000000E+00 0.  1.
         13    1    4    4    0    0  0.46113195854E+03  0.76286532782E+03  0.94948553351E+03  0.13023551670E+04  0.10566000000E+00 0. -1.
         -4    1    4    4    0  501  0.27793359885E+02 -0.29516864176E+03  0.52966704919E+03  0.60699603041E+03  0.00000000000E+00 0. -1.
<mgrwt>
<rscale>  2 0.12028624E+04</rscale>
<asrwt>0</asrwt>
<pdfrwt beam="1">  1        1 0.48760286E+00 0.12028624E+04</pdfrwt>
<pdfrwt beam="2">  1       -1 0.70535346E-01 0.12028624E+04</pdfrwt>
<totfact> 0.60502408E-01</totfact>
</mgrwt>
</event>
<event>
 8    1  0.7046235E-006  0.1208709E+04  0.7818608E-02  0.8600033E-01
          1   -1    0    0  502    0  0.00000000000E+00  0.00000000000E+00  0.13552105881E+04  0.13552105881E+04  0.00000000000E+00 0.  1.
         -1   -1    0    0    0  501 -0.00000000000E+00 -0.00000000000E+00 -0.13930040030E+04  0.13930040030E+04  0.00000000000E+00 0. -1.
    9000010    2    1    2  502    0 -0.66730950380E+03  0.14443272687E+03  0.63440567934E+03  0.13696092075E+04  0.10035915648E+04 0.  0.
   -9000010    2    1    2    0  501  0.66730950380E+03 -0.14443272687E+03 -0.67219909429E+03  0.13786053835E+04  0.99123074742E+03 0.  0.
        -13    1    3    3    0    0 -0.68144247615E+03 -0.28781026675E+03  0.22275219878E+03  0.77253941723E+03  0.10566000000E+00 0.  1.
          4    1    3    3  502    0  0.14132972345E+02  0.43224299362E+03  0.41165348057E+03  0.59706979031E+03  0.00000000000E+00 0.  1.
         13    1    4    4    0    0  0.36171800882E+03 -0.28489068140E+03  0.15485643363E+03  0.48578096345E+03  0.10566000000E+00 0. -1.
         -4    1    4    4    0  501  0.30559149498E+03  0.14045795452E+03 -0.82705552792E+03  0.89282442006E+03  0.00000000000E+00 0. -1.
<mgrwt>
<rscale>  2 0.12087092E+04</rscale>
<asrwt>0</asrwt>
<pdfrwt beam="1">  1        1 0.20849394E+00 0.12087092E+04</pdfrwt>
<pdfrwt beam="2">  1       -1 0.21430831E+00 0.12087092E+04</pdfrwt>
<totfact> 0.11168672E+00</totfact>
</mgrwt>
</event>
<event>
 8    1  0.7046235E-006  0.1286517E+04  0.7818608E-02  0.8544113E-01
         -1   -1    0    0    0  501 -0.00000000000E+00  0.00000000000E+00  0.89393861263E+03  0.89393861263E+03  0.00000000000E+00 0.  1.
          1   -1    0    0  502    0  0.00000000000E+00 -0.00000000000E+00 -0.18553390287E+04  0.18553390287E+04  0.00000000000E+00 0. -1.
    9000010    2    1    2  502    0  0.40171796261E+03  0.75467833716E+03 -0.54392706388E+03  0.14294638056E+04  0.10082625683E+04 0.  0.
   -9000010    2    1    2    0  501 -0.40171796261E+03 -0.75467833716E+03 -0.41747335221E+03  0.13198138358E+04  0.91471735917E+03 0.  0.
        -13    1    3    3    0    0  0.35807516166E+03  0.99244142829E+03 -0.54546261783E+03  0.11877235742E+04  0.10566000000E+00 0.  1.
          4    1    3    3  502    0  0.43642800948E+02 -0.23776309113E+03  0.15355539548E+01  0.24174023145E+03  0.00000000000E+00 0.  1.
         13    1    4    4    0    0 -0.39834030479E+02 -0.43327183134E+02 -0.51267772658E+03  0.51604501478E+03  0.10566000000E+00 0. -1.
         -4    1    4    4    0  501 -0.36188393213E+03 -0.71135115403E+03  0.95204374366E+02  0.80376882097E+03  0.00000000000E+00 0. -1.
<mgrwt>
<rscale>  2 0.12865167E+04</rscale>
<asrwt>0</asrwt>
<pdfrwt beam="2">  1        1 0.28543677E+00 0.12865167E+04</pdfrwt>
<pdfrwt beam="1">  1       -1 0.13752902E+00 0.12865167E+04</pdfrwt>
<totfact> 0.22161102E+00</totfact>
</mgrwt>
</event>
<event>
 8    1  0.7046235E-006  0.1103321E+04  0.7818608E-02  0.8683152E-01
          2   -1    0    0  502    0  0.00000000000E+00  0.00000000000E+00  0.16562050882E+04  0.16562050882E+04  0.00000000000E+00 0. -1.
         -2   -1    0    0    0  501 -0.00000000000E+00 -0.00000000000E+00 -0.77949619627E+03  0.77949619627E+03  0.00000000000E+00 0.  1.
    9000010    2    1    2  502    0  0.66073859476E+03 -0.17011061141E+03  0.13212386737E+03  0.10080298783E+04  0.73017423160E+03 0.  0.
   -9000010    2    1    2    0  501 -0.66073859476E+03  0.17011061141E+03  0.74458502461E+03  0.14276714062E+04  0.10091212388E+04 0.  0.
        -13    1    3    3    0    0  0.71304185860E+03 -0.10587952778E+01 -0.95828616373E+02  0.71945322853E+03  0.10566000000E+00 0.  1.
          4    1    3    3  502    0 -0.52303263841E+02 -0.16905181613E+03  0.22795248374E+03  0.28857664976E+03  0.00000000000E+00 0.  1.
         13    1    4    4    0    0 -0.59114771119E+03  0.55899578037E+03  0.58266012492E+03  0.10007121121E+04  0.10566000000E+00 0. -1.
         -4    1    4    4    0  501 -0.69590883573E+02 -0.38888516897E+03  0.16192489969E+03  0.42695929414E+03  0.00000000000E+00 0. -1.
<mgrwt>
<rscale>  2 0.11033211E+04</rscale>
<asrwt>0</asrwt>
<pdfrwt beam="1">  1        2 0.25480078E+00 0.11033211E+04</pdfrwt>
<pdfrwt beam="2">  1       -2 0.11992249E+00 0.11033211E+04</pdfrwt>
<totfact> 0.82373680E+00</totfact>
</mgrwt>
</event>
<event>
 8    1  0.7046235E-006  0.1246112E+04  0.7818608E-02  0.8572625E-01
          1   -1    0    0  502    0  0.00000000000E+00  0.00000000000E+00  0.16968291765E+04  0.16968291765E+04  0.00000000000E+00 0.  1.
         -1   -1    0    0    0  501 -0.00000000000E+00 -0.00000000000E+00 -0.91614743813E+03  0.91614743813E+03  0.00000000000E+00 0. -1.
    9000010    2    1    2  502    0  0.64532002635E+03 -0.34369155129E+03  0.34715699311E+03  0.12954804900E+04  0.10115284986E+04 0.  0.
   -9000010    2    1    2    0  501 -0.64532002635E+03  0.34369155129E+03  0.43352474526E+03  0.13174961246E+04  0.10066233231E+04 0.  0.
        -13    1    3    3    0    0 -0.23343727720E+03 -0.47022718032E+02  0.27709043594E+03  0.36535355377E+03  0.10566000000E+00 0.  1.
          4    1    3    3  502    0  0.87875730355E+03 -0.29666883326E+03  0.70066557169E+02  0.93012693628E+03  0.00000000000E+00 0.  1.
         13    1    4    4    0    0 -0.33544920981E+03  0.61152464715E+03  0.55381639522E+03  0.89061842403E+03  0.10566000000E+00 0. -1.
         -4    1    4    4    0  501 -0.30987081654E+03 -0.26783309586E+03 -0.12029164997E+03  0.42687770055E+03  0.00000000000E+00 0. -1.
<mgrwt>
<rscale>  2 0.12461116E+04</rscale>
<asrwt>0</asrwt>
<pdfrwt beam="1">  1        1 0.26105064E+00 0.12461116E+04</pdfrwt>
<pdfrwt beam="2">  1       -1 0.14094576E+00 0.12461116E+04</pdfrwt>
<totfact> 0.27337243E+00</totfact>
</mgrwt>
</event>
<event>
 8    1  0.7046235E-006  0.1179324E+04  0.7818608E-02  0.8622297E-01
          2   -1    0    0  502    0  0.00000000000E+00  0.00000000000E+00  0.43876382483E+04  0.43876382483E+04  0.00000000000E+00 0.  1.
         -2   -1    0    0    0  501 -0.00000000000E+00 -0.00000000000E+00 -0.32332610204E+03  0.32332610204E+03  0.00000000000E+00 0. -1.
    9000010    2    1    2  502    0  0.53484790303E+03 -0.32009720151E+03  0.23684637088E+04  0.26475412235E+04  0.10056488913E+04 0.  0.
   -9000010    2    1    2    0  501 -0.53484790303E+03  0.32009720151E+03  0.16958484375E+04  0.20634231268E+04  0.99663864049E+03 0.  0.
        -13    1    3    3    0    0  0.50145926400E+03 -0.51486343850E+03  0.83634790442E+03  0.11027345928E+04  0.10566000000E+00 0.  1.
          4    1    3    3  502    0  0.33388639026E+02  0.19476623699E+03  0.15321158044E+04  0.15448066307E+04  0.00000000000E+00 0.  1.
         13    1    4    4    0    0 -0.71017348131E+03  0.43148001303E+03  0.83559654157E+03  0.11784493908E+04  0.10566000000E+00 0. -1.
         -4    1    4    4    0  501  0.17532557828E+03 -0.11138281152E+03  0.86025189589E+03  0.88497373605E+03  0.00000000000E+00 0. -1.
<mgrwt>
<rscale>  2 0.11793237E+04</rscale>
<asrwt>0</asrwt>
<pdfrwt beam="1">  1        2 0.67502123E+00 0.11793237E+04</pdfrwt>
<pdfrwt beam="2">  1       -2 0.49742480E-01 0.11793237E+04</pdfrwt>
<totfact> 0.80484089E-01</totfact>
</mgrwt>
</event>
<event>
 8    1  0.7046235E-006  0.1190965E+04  0.7818608E-02  0.8613397E-01
         -2   -1    0    0    0  501 -0.00000000000E+00  0.00000000000E+00  0.74732285492E+03  0.74732285492E+03  0.00000000000E+00 0.  1.
          2   -1    0    0  502    0  0.00000000000E+00 -0.00000000000E+00 -0.27434273462E+04  0.27434273462E+04  0.00000000000E+00 0. -1.
    9000010    2    1    2  502    0  0.49629358393E+03  0.43281084328E+03 -0.19626833525E+04  0.22919933270E+04  0.98360303044E+03 0.  0.
   -9000010    2    1    2    0  501 -0.49629358393E+03 -0.43281084328E+03 -0.33421138787E+02  0.11987568741E+04  0.10011336190E+04 0.  0.
        -13    1    3    3    0    0  0.14800439099E+03 -0.21813306613E+03 -0.89184704388E+02  0.27828269251E+03  0.10566000000E+00 0.  1.
          4    1    3    3  502    0  0.34828919294E+03  0.65094390941E+03 -0.18734986481E+04  0.20137106345E+04  0.00000000000E+00 0.  1.
         13    1    4    4    0    0  0.47929087200E+02  0.28584435886E+03 -0.63815834701E+02  0.29677713324E+03  0.10566000000E+00 0. -1.
         -4    1    4    4    0  501 -0.54422267113E+03 -0.71865520214E+03  0.30394695914E+02  0.90197974084E+03  0.00000000000E+00 0. -1.
<mgrwt>
<rscale>  2 0.11909650E+04</rscale>
<asrwt>0</asrwt>
<pdfrwt beam="2">  1        2 0.42206576E+00 0.11909650E+04</pdfrwt>
<pdfrwt beam="1">  1       -2 0.11497274E+00 0.11909650E+04</pdfrwt>
<totfact> 0.22804133E+00</totfact>
</mgrwt>
</event>
<event>
 8    1  0.7046235E-006  0.1490042E+04  0.7818608E-02  0.8415253E-01
          2   -1    0    0  502    0  0.00000000000E+00  0.00000000000E+00  0.22854161160E+04  0.22854161160E+04  0.00000000000E+00 0.  1.
         -2   -1    0    0    0  501 -0.00000000000E+00 -0.00000000000E+00 -0.10234699599E+04  0.10234699599E+04  0.00000000000E+00 0. -1.
    9000010    2    1    2  502    0  0.20656555250E+03 -0.10933314516E+04  0.25682264347E+03  0.15089150607E+04  0.98631830551E+03 0.  0.
   -9000010    2    1    2    0  501 -0.20656555250E+03  0.10933314516E+04  0.10051235126E+04  0.17999710152E+04  0.99578079401E+03 0.  0.
        -13    1    3    3    0    0 -0.38480304529E+03 -0.56237406810E+03  0.20887078954E+03  0.71271662954E+03  0.10566000000E+00 0.  1.
          4    1    3    3  502    0  0.59136859779E+03 -0.53095738346E+03  0.47951853932E+02  0.79619843117E+03  0.00000000000E+00 0.  1.
         13    1    4    4    0    0 -0.15937640817E+03 -0.16539372530E+03  0.10978416063E+03  0.25457513025E+03  0.10566000000E+00 0. -1.
         -4    1    4    4    0  501 -0.47189144335E+02  0.12587251769E+04  0.89533935195E+03  0.15453958850E+04  0.00000000000E+00 0. -1.
<mgrwt>
<rscale>  2 0.14900419E+04</rscale>
<asrwt>0</asrwt>
<pdfrwt beam="1">  1        2 0.35160248E+00 0.14900419E+04</pdfrwt>
<pdfrwt beam="2">  1       -2 0.15745692E+00 0.14900419E+04</pdfrwt>
<totfact> 0.16312813E+00</totfact>
</mgrwt>
</event>
<event>
 8    1  0.7046235E-006  0.1802160E+04  0.7818608E-02  0.8254075E-01
          1   -1    0    0  502    0  0.00000000000E+00  0.00000000000E+00  0.16310278791E+04  0.16310278791E+04  0.00000000000E+00 0. -1.
         -1   -1    0    0    0  501 -0.00000000000E+00 -0.00000000000E+00 -0.20782342728E+04  0.20782342728E+04  0.00000000000E+00 0.  1.
    9000010    2    1    2  502    0  0.12847359486E+03  0.14964636521E+04 -0.60347957273E+03  0.19042216680E+04  0.10029773873E+04 0.  0.
   -9000010    2    1    2    0  501 -0.12847359486E+03 -0.14964636521E+04  0.15627317902E+03  0.18050404840E+04  0.98885839014E+03 0.  0.
        -13    1    3    3    0    0  0.19767503662E+03  0.11946904306E+04  0.16707785078E+02  0.12110490520E+04  0.10566000000E+00 0.  1.
          4    1    3    3  502    0 -0.69201441756E+02  0.30177322148E+03 -0.62018735780E+03  0.69317261597E+03  0.00000000000E+00 0.  1.
         13    1    4    4    0    0  0.17080909391E+03 -0.11941880394E+04  0.45062107945E+03  0.12877578143E+04  0.10566000000E+00 0. -1.
         -4    1    4    4    0  501 -0.29928268877E+03 -0.30227561272E+03 -0.29434790043E+03  0.51728266966E+03  0.00000000000E+00 0. -1.
<mgrwt>
<rscale>  2 0.18021600E+04</rscale>
<asrwt>0</asrwt>
<pdfrwt beam="1">  1        1 0.25092737E+00 0.18021600E+04</pdfrwt>
<pdfrwt beam="2">  1       -1 0.31972835E+00 0.18021600E+04</pdfrwt>
<totfact> 0.73444336E-02</totfact>
</mgrwt>
</event>
<event>
 8    1  0.7046235E-006  0.1066641E+04  0.7818608E-02  0.8714378E-01
          2   -1    0    0  502    0  0.00000000000E+00  0.00000000000E+00  0.16102086246E+04  0.16102086246E+04  0.00000000000E+00 0. -1.
         -2   -1    0    0    0  501 -0.00000000000E+00 -0.00000000000E+00 -0.71412630525E+03  0.71412630525E+03  0.00000000000E+00 0.  1.
    9000010    2    1    2  502    0  0.25682300466E+03  0.23039208262E+03  0.32884196409E+03  0.11170026364E+04  0.10102075455E+04 0.  0.
   -9000010    2    1    2    0  501 -0.25682300466E+03 -0.23039208262E+03  0.56724035528E+03  0.12073322934E+04  0.10083903404E+04 0.  0.
        -13    1    3    3    0    0  0.60341402429E+03  0.28643740470E+03  0.36987507709E+03  0.76351978058E+03  0.10566000000E+00 0.  1.
          4    1    3    3  502    0 -0.34659101963E+03 -0.56045322081E+02 -0.41033112999E+02  0.35348285585E+03  0.00000000000E+00 0.  1.
         13    1    4    4    0    0 -0.44166501567E+03 -0.53717760227E+03  0.45867346416E+03  0.83307209792E+03  0.10566000000E+00 0. -1.
         -4    1    4    4    0  501  0.18484201101E+03  0.30678551965E+03  0.10856689112E+03  0.37426019552E+03  0.00000000000E+00 0. -1.
<mgrwt>
<rscale>  2 0.10666406E+04</rscale>
<asrwt>0</asrwt>
<pdfrwt beam="1">  1        2 0.24772440E+00 0.10666406E+04</pdfrwt>
<pdfrwt beam="2">  1       -2 0.10986559E+00 0.10666406E+04</pdfrwt>
<totfact> 0.10966320E+01</totfact>
</mgrwt>
</event>
<event>
 8    1  0.7046235E-006  0.1775748E+04  0.7818608E-02  0.8266363E-01
         -1   -1    0    0    0  501 -0.00000000000E+00  0.00000000000E+00  0.17193057706E+04  0.17193057706E+04  0.00000000000E+00 0.  1.
          1   -1    0    0  502    0  0.00000000000E+00 -0.00000000000E+00 -0.18355038994E+04  0.18355038994E+04  0.00000000000E+00 0. -1.
    9000010    2    1    2  502    0 -0.84035272738E+03 -0.12114732651E+04 -0.80277233603E+01  0.17711753777E+04  0.98139573849E+03 0.  0.
   -9000010    2    1    2    0  501  0.84035272738E+03  0.12114732651E+04 -0.10817040549E+03  0.17836342923E+04  0.99789291689E+03 0.  0.
        -13    1    3    3    0    0 -0.18479665494E+03 -0.22662840706E+02 -0.32730835379E+03  0.37655567670E+03  0.10566000000E+00 0.  1.
          4    1    3    3  502    0 -0.65555607245E+03 -0.11888104244E+04  0.31928063043E+03  0.13946197010E+04  0.00000000000E+00 0.  1.
         13    1    4    4    0    0  0.94765443818E+03  0.74654637727E+03  0.18959329768E+03  0.12211986150E+04  0.10566000000E+00 0. -1.
         -4    1    4    4    0  501 -0.10730171079E+03  0.46492688787E+03 -0.29776370316E+03  0.56243567732E+03  0.00000000000E+00 0. -1.
<mgrwt>
<rscale>  2 0.17757483E+04</rscale>
<asrwt>0</asrwt>
<pdfrwt beam="2">  1        1 0.28238522E+00 0.17757483E+04</pdfrwt>
<pdfrwt beam="1">  1       -1 0.26450858E+00 0.17757483E+04</pdfrwt>
<totfact> 0.15080813E-01</totfact>
</mgrwt>
</event>
<event>
 8    1  0.7046235E-006  0.1010138E+04  0.7818608E-02  0.8765124E-01
          2   -1    0    0  502    0  0.00000000000E+00  0.00000000000E+00  0.55584687913E+03  0.55584687913E+03  0.00000000000E+00 0. -1.
         -2   -1    0    0    0  501 -0.00000000000E+00 -0.00000000000E+00 -0.18429884870E+04  0.18429884870E+04  0.00000000000E+00 0.  1.
    9000010    2    1    2  502    0  0.58040035960E+01  0.28205320234E+03 -0.58982380253E+03  0.11913637544E+04  0.99592559050E+03 0.  0.
   -9000010    2    1    2    0  501 -0.58040035960E+01 -0.28205320234E+03 -0.69731780535E+03  0.12074716118E+04  0.94453579929E+03 0.  0.
        -13    1    3    3    0    0 -0.64704623406E+02 -0.32193179751E+03 -0.46717181003E+03  0.57103089390E+03  0.10566000000E+00 0.  1.
          4    1    3    3  502    0  0.70508627002E+02  0.60398499985E+03 -0.12265199251E+03  0.62033286048E+03  0.00000000000E+00 0.  1.
         13    1    4    4    0    0 -0.10542496672E+03 -0.61780270222E+03 -0.36825709142E+03  0.72691670707E+03  0.10566000000E+00 0. -1.
         -4    1    4    4    0  501  0.99620963126E+02  0.33574949988E+03 -0.32906071393E+03  0.48055490469E+03  0.00000000000E+00 0. -1.
<mgrwt>
<rscale>  2 0.10101376E+04</rscale>
<asrwt>0</asrwt>
<pdfrwt beam="1">  1        2 0.85514905E-01 0.10101376E+04</pdfrwt>
<pdfrwt beam="2">  1       -2 0.28353669E+00 0.10101376E+04</pdfrwt>
<totfact> 0.18056930E+00</totfact>
</mgrwt>
</event>
<event>
 8    1  0.7046235E-006  0.1271324E+04  0.7818608E-02  0.8554705E-01
         -1   -1    0    0    0  501 -0.00000000000E+00  0.00000000000E+00  0.37436242800E+04  0.37436242800E+04  0.00000000000E+00 0. -1.
          1   -1    0    0  502    0  0.00000000000E+00 -0.00000000000E+00 -0.69030602227E+03  0.69030602227E+03  0.00000000000E+00 0.  1.
    9000010    2    1    2  502    0 -0.71076111739E+03 -0.37035104116E+03  0.28788592168E+04  0.31446177995E+04  0.97900431808E+03 0.  0.
   -9000010    2    1    2    0  501  0.71076111739E+03  0.37035104116E+03  0.17445904085E+03  0.12893125027E+04  0.99476103317E+03 0.  0.
        -13    1    3    3    0    0 -0.21967042945E+03 -0.65933974129E+03  0.16231307510E+04  0.17656549601E+04  0.10566000000E+00 0.  1.
          4    1    3    3  502    0 -0.49109068794E+03  0.28898870013E+03  0.12557284658E+04  0.13789628394E+04  0.00000000000E+00 0.  1.
         13    1    4    4    0    0  0.66117160013E+02  0.50888455438E+03  0.33225396611E+03  0.61133270622E+03  0.10566000000E+00 0. -1.
         -4    1    4    4    0  501  0.64464395737E+03 -0.13853351322E+03 -0.15779492525E+03  0.67797979653E+03  0.00000000000E+00 0. -1.
<mgrwt>
<rscale>  2 0.12713245E+04</rscale>
<asrwt>0</asrwt>
<pdfrwt beam="2">  1        1 0.10620093E+00 0.12713245E+04</pdfrwt>
<pdfrwt beam="1">  1       -1 0.57594219E+00 0.12713245E+04</pdfrwt>
<totfact> 0.13791930E-01</totfact>
</mgrwt>
</event>
<event>
 8    1  0.7046235E-006  0.1185517E+04  0.7818608E-02  0.8617549E-01
          1   -1    0    0  502    0  0.00000000000E+00  0.00000000000E+00  0.16022384053E+04  0.16022384053E+04  0.00000000000E+00 0.  1.
         -1   -1    0    0    0  501 -0.00000000000E+00 -0.00000000000E+00 -0.12123754954E+04  0.12123754954E+04  0.00000000000E+00 0. -1.
    9000010    2    1    2  502    0 -0.14321470494E+03  0.78968486243E+03 -0.52465713048E+03  0.13911385216E+04  0.10079130161E+04 0.  0.
   -9000010    2    1    2    0  501  0.14321470494E+03 -0.78968486243E+03  0.91452004042E+03  0.14234753791E+04  0.73879808939E+03 0.  0.
        -13    1    3    3    0    0  0.17446733441E+03  0.13766105194E+03  0.24690588102E+03  0.33219262672E+03  0.10566000000E+00 0.  1.
          4    1    3    3  502    0 -0.31768203935E+03  0.65202381050E+03 -0.77156301151E+03  0.10589458949E+04  0.00000000000E+00 0.  1.
         13    1    4    4    0    0 -0.16245180770E+03 -0.75848230959E+03  0.57496487556E+03  0.96554162162E+03  0.10566000000E+00 0. -1.
         -4    1    4    4    0  501  0.30566651264E+03 -0.31202552843E+02  0.33955516485E+03  0.45793375747E+03  0.00000000000E+00 0. -1.
<mgrwt>
<rscale>  2 0.11855174E+04</rscale>
<asrwt>0</asrwt>
<pdfrwt beam="1">  1        1 0.24649822E+00 0.11855174E+04</pdfrwt>
<pdfrwt beam="2">  1       -1 0.18651931E+00 0.11855174E+04</pdfrwt>
<totfact> 0.13018804E+00</totfact>
</mgrwt>
</event>
<event>
 8    1  0.7046235E-006  0.1058476E+04  0.7818608E-02  0.8721507E-01
         -2   -1    0    0    0  501 -0.00000000000E+00  0.00000000000E+00  0.31134968966E+03  0.31134968966E+03  0.00000000000E+00 0.  1.
          2   -1    0    0  502    0  0.00000000000E+00 -0.00000000000E+00 -0.36294887678E+04  0.36294887678E+04  0.00000000000E+00 0. -1.
    9000010    2    1    2  502    0  0.12400536696E+03  0.30026405757E+03 -0.14814085234E+04  0.18223949434E+04  0.10104535028E+04 0.  0.
   -9000010    2    1    2    0  501 -0.12400536696E+03 -0.30026405757E+03 -0.18367305547E+04  0.21184435140E+04  0.10043345837E+04 0.  0.
        -13    1    3    3    0    0  0.41787939087E+03  0.20357558370E+03 -0.14364346752E+04  0.15097717678E+04  0.10566000000E+00 0.  1.
          4    1    3    3  502    0 -0.29387402391E+03  0.96688473872E+02 -0.44973848192E+02  0.31262317561E+03  0.00000000000E+00 0.  1.
         13    1    4    4    0    0 -0.51508786862E+03  0.61189498764E+02 -0.10021394055E+04  0.11284250380E+04  0.10566000000E+00 0. -1.
         -4    1    4    4    0  501  0.39108250166E+03 -0.36145355633E+03 -0.83459114916E+03  0.99001847596E+03  0.00000000000E+00 0. -1.
<mgrwt>
<rscale>  2 0.10584758E+04</rscale>
<asrwt>0</asrwt>
<pdfrwt beam="2">  1        2 0.55838290E+00 0.10584758E+04</pdfrwt>
<pdfrwt beam="1">  1       -2 0.47899951E-01 0.10584758E+04</pdfrwt>
<totfact> 0.40450379E+00</totfact>
</mgrwt>
</event>
<event>
 8    1  0.7046235E-006  0.1313402E+04  0.7818608E-02  0.8525734E-01
          2   -1    0    0  502    0  0.00000000000E+00  0.00000000000E+00  0.20740420015E+04  0.20740420015E+04  0.00000000000E+00 0.  1.
         -2   -1    0    0    0  501 -0.00000000000E+00 -0.00000000000E+00 -0.83525855693E+03  0.83525855693E+03  0.00000000000E+00 0. -1.
    9000010    2    1    2  502    0 -0.32095590989E+02  0.87069565695E+03  0.52235960357E+03  0.14083916733E+04  0.97548269891E+03 0.  0.
   -9000010    2    1    2    0  501  0.32095590989E+02 -0.87069565695E+03  0.71642384100E+03  0.15009088852E+04  0.99011277520E+03 0.  0.
        -13    1    3    3    0    0  0.46432748163E+03  0.51646628876E+03  0.22602875540E+03  0.73036049117E+03  0.10566000000E+00 0.  1.
          4    1    3    3  502    0 -0.49642307262E+03  0.35422936820E+03  0.29633084817E+03  0.67803118210E+03  0.00000000000E+00 0.  1.
         13    1    4    4    0    0  0.31669351665E+03  0.79361277762E+02  0.19768854048E+03  0.38167232818E+03  0.10566000000E+00 0. -1.
         -4    1    4    4    0  501 -0.28459792566E+03 -0.95005693472E+03  0.51873530052E+03  0.11192365570E+04  0.00000000000E+00 0. -1.
<mgrwt>
<rscale>  2 0.13134025E+04</rscale>
<asrwt>0</asrwt>
<pdfrwt beam="1">  1        2 0.31908338E+00 0.13134025E+04</pdfrwt>
<pdfrwt beam="2">  1       -2 0.12850132E+00 0.13134025E+04</pdfrwt>
<totfact> 0.39595215E+00</totfact>
</mgrwt>
</event>
<event>
 8    1  0.7046235E-006  0.1260678E+04  0.7818608E-02  0.8562220E-01
         -2   -1    0    0    0  501 -0.00000000000E+00  0.00000000000E+00  0.77376945678E+03  0.77376945678E+03  0.00000000000E+00 0.  1.
          2   -1    0    0  502    0  0.00000000000E+00 -0.00000000000E+00 -0.29501319917E+04  0.29501319917E+04  0.00000000000E+00 0. -1.
    9000010    2    1    2  502    0  0.74672009301E+03 -0.65917119318E+02 -0.58642966775E+02  0.12564775577E+04  0.10066582794E+04 0.  0.
   -9000010    2    1    2    0  501 -0.74672009301E+03  0.65917119318E+02 -0.21177195681E+04  0.24674238907E+04  0.10205432492E+04 0.  0.
        -13    1    3    3    0    0  0.14667671602E+03 -0.45570045934E+03  0.16571960607E+03  0.50659645347E+03  0.10566000000E+00 0.  1.
          4    1    3    3  502    0  0.60004337699E+03  0.38978334002E+03 -0.22436257284E+03  0.74988110426E+03  0.00000000000E+00 0.  1.
         13    1    4    4    0    0 -0.72188275846E+03  0.40338483554E+03 -0.18801585080E+04  0.20539790819E+04  0.10566000000E+00 0. -1.
         -4    1    4    4    0  501 -0.24837334552E+02 -0.33746771622E+03 -0.23756106015E+03  0.41344480887E+03  0.00000000000E+00 0. -1.
<mgrwt>
<rscale>  2 0.12606777E+04</rscale>
<asrwt>0</asrwt>
<pdfrwt beam="2">  1        2 0.45386646E+00 0.12606777E+04</pdfrwt>
<pdfrwt beam="1">  1       -2 0.11904145E+00 0.12606777E+04</pdfrwt>
<totfact> 0.15510802E+00</totfact>
</mgrwt>
</event>
<event>
 8    1  0.7046235E-006  0.1403926E+04  0.7818608E-02  0.8467029E-01
         -1   -1    0    0    0  501 -0.00000000000E+00  0.00000000000E+00  0.28604624591E+04  0.28604624591E+04  0.00000000000E+00 0. -1.
          1   -1    0    0  502    0  0.00000000000E+00 -0.00000000000E+00 -0.72190246195E+03  0.72190246195E+03  0.00000000000E+00 0.  1.
    9000010    2    1    2  502    0 -0.40459424016E+03  0.89830208027E+03  0.68238870005E+03  0.15549409560E+04  0.99072898015E+03 0.  0.
   -9000010    2    1    2    0  501  0.40459424016E+03 -0.89830208027E+03  0.14561712971E+04  0.20274239650E+04  0.10096385298E+04 0.  0.
        -13    1    3    3    0    0 -0.10119395049E+03 -0.20085144146E+03 -0.22855825240E+01  0.22491498884E+03  0.10566000000E+00 0.  1.
          4    1    3    3  502    0 -0.30340028967E+03  0.10991535217E+04  0.68467428257E+03  0.13300259672E+04  0.00000000000E+00 0.  1.
         13    1    4    4    0    0 -0.21973002010E+01 -0.23721848835E+03 -0.12342366154E+03  0.26741512809E+03  0.10566000000E+00 0. -1.
         -4    1    4    4    0  501  0.40679154036E+03 -0.66108359192E+03  0.15795949586E+04  0.17600088369E+04  0.00000000000E+00 0. -1.
<mgrwt>
<rscale>  2 0.14039264E+04</rscale>
<asrwt>0</asrwt>
<pdfrwt beam="2">  1        1 0.11106192E+00 0.14039264E+04</pdfrwt>
<pdfrwt beam="1">  1       -1 0.44007114E+00 0.14039264E+04</pdfrwt>
<totfact> 0.39671753E-01</totfact>
</mgrwt>
</event>
<event>
 8    1  0.7046235E-006  0.1166928E+04  0.7818608E-02  0.8631892E-01
          1   -1    0    0  502    0  0.00000000000E+00  0.00000000000E+00  0.35956883017E+04  0.35956883017E+04  0.00000000000E+00 0.  1.
         -1   -1    0    0    0  501 -0.00000000000E+00 -0.00000000000E+00 -0.38553366168E+03  0.38553366168E+03  0.00000000000E+00 0. -1.
    9000010    2    1    2  502    0  0.13549062333E+03 -0.61937792043E+03  0.18574736932E+04  0.21889118335E+04  0.96909224374E+03 0.  0.
   -9000010    2    1    2    0  501 -0.13549062333E+03  0.61937792043E+03  0.13526809469E+04  0.17923101298E+04  0.99027427524E+03 0.  0.
        -13    1    3    3    0    0 -0.12712608710E+02  0.48991680183E+02 -0.10168432606E+03  0.11358480743E+03  0.10566000000E+00 0.  1.
          4    1    3    3  502    0  0.14820323204E+03 -0.66836960062E+03  0.19591580192E+04  0.20753270261E+04  0.00000000000E+00 0.  1.
         13    1    4    4    0    0 -0.49685650874E+03  0.86522363008E+02  0.40603316919E+03  0.64746849748E+03  0.10566000000E+00 0. -1.
         -4    1    4    4    0  501  0.36136588541E+03  0.53285555742E+03  0.94664777767E+03  0.11448416324E+04  0.00000000000E+00 0. -1.
<mgrwt>
<rscale>  2 0.11669276E+04</rscale>
<asrwt>0</asrwt>
<pdfrwt beam="1">  1        1 0.55318279E+00 0.11669276E+04</pdfrwt>
<pdfrwt beam="2">  1       -1 0.59312873E-01 0.11669276E+04</pdfrwt>
<totfact> 0.27649210E-01</totfact>
</mgrwt>
</event>
<event>
 8    1  0.7046235E-006  0.1314378E+04  0.7818608E-02  0.8525076E-01
          2   -1    0    0  502    0  0.00000000000E+00  0.00000000000E+00  0.11959420025E+04  0.11959420025E+04  0.00000000000E+00 0. -1.
         -2   -1    0    0    0  501 -0.00000000000E+00 -0.00000000000E+00 -0.16430264129E+04  0.16430264129E+04  0.00000000000E+00 0.  1.
    9000010    2    1    2  502    0 -0.61732291261E+03  0.56461327755E+03 -0.71207703150E+03  0.14716503796E+04  0.97919630795E+03 0.  0.
   -9000010    2    1    2    0  501  0.61732291261E+03 -0.56461327755E+03  0.26499262112E+03  0.13673180357E+04  0.10485522351E+04 0.  0.
        -13    1    3    3    0    0  0.20361150342E+03  0.10022678107E+03 -0.43163676709E+03  0.48766111373E+03  0.10566000000E+00 0.  1.
          4    1    3    3  502    0 -0.82093441603E+03  0.46438649648E+03 -0.28044026440E+03  0.98398926591E+03  0.00000000000E+00 0.  1.
         13    1    4    4    0    0 -0.22839166410E+03 -0.32859950173E+02  0.28678040069E+03  0.36808360184E+03  0.10566000000E+00 0. -1.
         -4    1    4    4    0  501  0.84571457671E+03 -0.53175332738E+03 -0.21787779577E+02  0.99923443384E+03  0.00000000000E+00 0. -1.
<mgrwt>
<rscale>  2 0.13143777E+04</rscale>
<asrwt>0</asrwt>
<pdfrwt beam="1">  1        2 0.18399108E+00 0.13143777E+04</pdfrwt>
<pdfrwt beam="2">  1       -2 0.25277329E+00 0.13143777E+04</pdfrwt>
<totfact> 0.10963183E+00</totfact>
</mgrwt>
</event>
<event>
 8    1  0.7046235E-006  0.1829574E+04  0.7818608E-02  0.8241547E-01
          2   -1    0    0  502    0  0.00000000000E+00  0.00000000000E+00  0.35924660492E+04  0.35924660492E+04  0.00000000000E+00 0. -1.
         -2   -1    0    0    0  501 -0.00000000000E+00 -0.00000000000E+00 -0.99389447586E+03  0.99389447586E+03  0.00000000000E+00 0.  1.
    9000010    2    1    2  502    0  0.64015307738E+03  0.14290952524E+04  0.70413779410E+03  0.19277972757E+04  0.87663167883E+03 0.  0.
   -9000010    2    1    2    0  501 -0.64015307738E+03 -0.14290952524E+04  0.18944337792E+04  0.26585632493E+04  0.10133952851E+04 0.  0.
        -13    1    3    3    0    0  0.60648330476E+03  0.15123216393E+04  0.78348573408E+03  0.18079791609E+04  0.10566000000E+00 0.  1.
          4    1    3    3  502    0  0.33669772624E+02 -0.83226386881E+02 -0.79347939980E+02  0.11981811483E+03  0.00000000000E+00 0.  1.
         13    1    4    4    0    0 -0.10941131289E+03  0.10954366092E+03  0.47282909010E+03  0.49753191721E+03  0.10566000000E+00 0. -1.
         -4    1    4    4    0  501 -0.53074176449E+03 -0.15386389133E+04  0.14216046891E+04  0.21610313321E+04  0.00000000000E+00 0. -1.
<mgrwt>
<rscale>  2 0.18295742E+04</rscale>
<asrwt>0</asrwt>
<pdfrwt beam="1">  1        2 0.55268708E+00 0.18295742E+04</pdfrwt>
<pdfrwt beam="2">  1       -2 0.15290684E+00 0.18295742E+04</pdfrwt>
<totfact> 0.25985787E-01</totfact>
</mgrwt>
</event>
<event>
 8    1  0.7046235E-006  0.1234117E+04  0.7818608E-02  0.8581305E-01
         -2   -1    0    0    0  501 -0.00000000000E+00  0.00000000000E+00  0.79934522477E+03  0.79934522477E+03  0.00000000000E+00 0. -1.
          2   -1    0    0  502    0  0.00000000000E+00 -0.00000000000E+00 -0.23729621548E+04  0.23729621548E+04  0.00000000000E+00 0.  1.
    9000010    2    1    2  502    0  0.45832896690E+03 -0.65611181017E+03 -0.58672556848E+02  0.11835925485E+04  0.87000040372E+03 0.  0.
   -9000010    2    1    2    0  501 -0.45832896690E+03  0.65611181017E+03 -0.15149443732E+04  0.19887148311E+04  0.10096445297E+04 0.  0.
        -13    1    3    3    0    0 -0.14840200462E+03 -0.35882907544E+03  0.22727336660E+03  0.44992738824E+03  0.10566000000E+00 0.  1.
          4    1    3    3  502    0  0.60673097152E+03 -0.29728273473E+03 -0.28594592345E+03  0.73366516022E+03  0.00000000000E+00 0.  1.
         13    1    4    4    0    0 -0.39011053665E+03  0.21313826354E+03 -0.39029778513E+02  0.44624823245E+03  0.10566000000E+00 0. -1.
         -4    1    4    4    0  501 -0.68218430257E+02  0.44297354663E+03 -0.14759145947E+04  0.15424665987E+04  0.00000000000E+00 0. -1.
<mgrwt>
<rscale>  2 0.12341173E+04</rscale>
<asrwt>0</asrwt>
<pdfrwt beam="2">  1        2 0.36507110E+00 0.12341173E+04</pdfrwt>
<pdfrwt beam="1">  1       -2 0.12297619E+00 0.12341173E+04</pdfrwt>
<totfact> 0.30856435E+00</totfact>
</mgrwt>
</event>
<event>
 8    1  0.7046235E-006  0.1370258E+04  0.7818608E-02  0.8488317E-01
          1   -1    0    0  502    0  0.00000000000E+00  0.00000000000E+00  0.20433084756E+04  0.20433084756E+04  0.00000000000E+00 0. -1.
         -1   -1    0    0    0  501 -0.00000000000E+00 -0.00000000000E+00 -0.92903992560E+03  0.92903992560E+03  0.00000000000E+00 0.  1.
    9000010    2    1    2  502    0 -0.11879212047E+03 -0.93678053566E+03  0.40736023830E+03  0.14412322311E+04  0.10097220610E+04 0.  0.
   -9000010    2    1    2    0  501  0.11879212047E+03  0.93678053566E+03  0.70690831166E+03  0.15311161700E+04  0.97618032409E+03 0.  0.
        -13    1    3    3    0    0 -0.26180142267E+03  0.10381884549E+03  0.25487470168E+03  0.37984136466E+03  0.10566000000E+00 0.  1.
          4    1    3    3  502    0  0.14300930219E+03 -0.10405993811E+04  0.15248553663E+03  0.10613908665E+04  0.00000000000E+00 0.  1.
         13    1    4    4    0    0  0.48148681831E+03  0.32690579962E+03  0.55763545585E+03  0.80601133417E+03  0.10566000000E+00 0. -1.
         -4    1    4    4    0  501 -0.36269469783E+03  0.60987473604E+03  0.14927285580E+03  0.72510483585E+03  0.00000000000E+00 0. -1.
<mgrwt>
<rscale>  2 0.13702581E+04</rscale>
<asrwt>0</asrwt>
<pdfrwt beam="1">  1        1 0.31435515E+00 0.13702581E+04</pdfrwt>
<pdfrwt beam="2">  1       -1 0.14292922E+00 0.13702581E+04</pdfrwt>
<totfact> 0.14164083E+00</totfact>
</mgrwt>
</event>
<event>
 8    1  0.7046235E-006  0.1035945E+04  0.7818608E-02  0.8741532E-01
          2   -1    0    0  502    0  0.00000000000E+00  0.00000000000E+00  0.23609424873E+04  0.23609424873E+04  0.00000000000E+00 0. -1.
         -2   -1    0    0    0  501 -0.00000000000E+00 -0.00000000000E+00 -0.55522907198E+03  0.55522907198E+03  0.00000000000E+00 0.  1.
    9000010    2    1    2  502    0  0.26822797506E+03  0.97515301539E+01  0.28003581524E+03  0.10704794367E+04  0.99772983701E+03 0.  0.
   -9000010    2    1    2    0  501 -0.26822797506E+03 -0.97515301539E+01  0.15256776001E+04  0.18456921226E+04  0.10034171281E+04 0.  0.
        -13    1    3    3    0    0 -0.18532097594E+03  0.27332166564E+03  0.41351541274E+03  0.52919146324E+03  0.10566000000E+00 0.  1.
          4    1    3    3  502    0  0.45354895100E+03 -0.26357013549E+03 -0.13347959750E+03  0.54128797347E+03  0.00000000000E+00 0.  1.
         13    1    4    4    0    0 -0.25993349102E+03 -0.10507180367E+03 -0.34590995327E+02  0.28249256947E+03  0.10566000000E+00 0. -1.
         -4    1    4    4    0  501 -0.82944840345E+01  0.95320273512E+02  0.15602685954E+04  0.15631995531E+04  0.00000000000E+00 0. -1.
<mgrwt>
<rscale>  2 0.10359448E+04</rscale>
<asrwt>0</asrwt>
<pdfrwt beam="1">  1        2 0.36322192E+00 0.10359448E+04</pdfrwt>
<pdfrwt beam="2">  1       -2 0.85419859E-01 0.10359448E+04</pdfrwt>
<totfact> 0.78127910E+00</totfact>
</mgrwt>
</event>
<event>
 8    1  0.7046235E-006  0.1043782E+04  0.7818608E-02  0.8734508E-01
         -2   -1    0    0    0  501 -0.00000000000E+00  0.00000000000E+00  0.15530475360E+04  0.15530475360E+04  0.00000000000E+00 0.  1.
          2   -1    0    0  502    0  0.00000000000E+00 -0.00000000000E+00 -0.72070084148E+03  0.72070084148E+03  0.00000000000E+00 0. -1.
    9000010    2    1    2  502    0 -0.26589177026E+03 -0.17784289966E+03  0.22809474370E+03  0.10615719700E+04  0.98619536849E+03 0.  0.
   -9000010    2    1    2    0  501  0.26589177026E+03  0.17784289966E+03  0.60425195078E+03  0.12121764075E+04  0.10009618836E+04 0.  0.
        -13    1    3    3    0    0 -0.33853558657E+03  0.35084440175E+03  0.17470015194E+02  0.48785587032E+03  0.10566000000E+00 0.  1.
          4    1    3    3  502    0  0.72643816308E+02 -0.52868730141E+03  0.21062472851E+03  0.57371609963E+03  0.00000000000E+00 0.  1.
         13    1    4    4    0    0  0.49934219062E+03 -0.32860244662E+02 -0.33046036598E+02  0.50151218402E+03  0.10566000000E+00 0. -1.
         -4    1    4    4    0  501 -0.23345042036E+03  0.21070314432E+03  0.63729798738E+03  0.71066422346E+03  0.00000000000E+00 0. -1.
<mgrwt>
<rscale>  2 0.10437819E+04</rscale>
<asrwt>0</asrwt>
<pdfrwt beam="2">  1        2 0.11087705E+00 0.10437819E+04</pdfrwt>
<pdfrwt beam="1">  1       -2 0.23893039E+00 0.10437819E+04</pdfrwt>
<totfact> 0.28864584E+00</totfact>
</mgrwt>
</event>
<event>
 8    1  0.7046235E-006  0.1315350E+04  0.7818608E-02  0.8524421E-01
          2   -1    0    0  502    0  0.00000000000E+00  0.00000000000E+00  0.13303558716E+04  0.13303558716E+04  0.00000000000E+00 0. -1.
         -2   -1    0    0    0  501 -0.00000000000E+00 -0.00000000000E+00 -0.13161903077E+04  0.13161903077E+04  0.00000000000E+00 0.  1.
    9000010    2    1    2  502    0 -0.47812338419E+03  0.70518064573E+03 -0.13706401692E+03  0.13305660969E+04  0.10127871839E+04 0.  0.
   -9000010    2    1    2    0  501  0.47812338419E+03 -0.70518064573E+03  0.15122958083E+03  0.13159800824E+04  0.99148952462E+03 0.  0.
        -13    1    3    3    0    0 -0.33258339356E+02  0.19575712068E+03  0.41335251874E+03  0.45857091420E+03  0.10566000000E+00 0.  1.
          4    1    3    3  502    0 -0.44486504483E+03  0.50942352504E+03 -0.55041653566E+03  0.87199518273E+03  0.00000000000E+00 0.  1.
         13    1    4    4    0    0  0.18869714078E+03  0.21773661043E+03  0.19474528325E+03  0.34776655815E+03  0.10566000000E+00 0. -1.
         -4    1    4    4    0  501  0.28942624341E+03 -0.92291725616E+03 -0.43515702419E+02  0.96821352420E+03  0.00000000000E+00 0. -1.
<mgrwt>
<rscale>  2 0.13153497E+04</rscale>
<asrwt>0</asrwt>
<pdfrwt beam="1">  1        2 0.20467013E+00 0.13153497E+04</pdfrwt>
<pdfrwt beam="2">  1       -2 0.20249082E+00 0.13153497E+04</pdfrwt>
<totfact> 0.23250608E+00</totfact>
</mgrwt>
</event>
<event>
 8    1  0.7046235E-006  0.1309065E+04  0.7818608E-02  0.8528668E-01
         -2   -1    0    0    0  501 -0.00000000000E+00  0.00000000000E+00  0.57556083990E+03  0.57556083990E+03  0.00000000000E+00 0. -1.
          2   -1    0    0  502    0  0.00000000000E+00 -0.00000000000E+00 -0.29824294719E+04  0.29824294719E+04  0.00000000000E+00 0.  1.
    9000010    2    1    2  502    0 -0.87666510285E+03 -0.59817625051E+01 -0.11263805231E+04  0.17237201397E+04  0.96638530278E+03 0.  0.
   -9000010    2    1    2    0  501  0.87666510285E+03  0.59817625051E+01 -0.12804881089E+04  0.18342701720E+04  0.97791604082E+03 0.  0.
        -13    1    3    3    0    0  0.15931027588E+03  0.94217648090E+02 -0.43897427628E+03  0.47639810622E+03  0.10566000000E+00 0.  1.
          4    1    3    3  502    0 -0.10359753787E+04 -0.10019941060E+03 -0.68740624677E+03  0.12473220335E+04  0.00000000000E+00 0.  1.
         13    1    4    4    0    0  0.85787743114E+03  0.37967420327E+03 -0.94805745969E+03  0.13337612776E+04  0.10566000000E+00 0. -1.
         -4    1    4    4    0  501  0.18787671711E+02 -0.37369244077E+03 -0.33243064923E+03  0.50050889447E+03  0.00000000000E+00 0. -1.
<mgrwt>
<rscale>  2 0.13090649E+04</rscale>
<asrwt>0</asrwt>
<pdfrwt beam="2">  1        2 0.45883531E+00 0.13090649E+04</pdfrwt>
<pdfrwt beam="1">  1       -2 0.88547821E-01 0.13090649E+04</pdfrwt>
<totfact> 0.30365273E+00</totfact>
</mgrwt>
</event>
<event>
 8    1  0.7046235E-006  0.1271492E+04  0.7818608E-02  0.8554588E-01
          2   -1    0    0  502    0  0.00000000000E+00  0.00000000000E+00  0.36905100241E+04  0.36905100241E+04  0.00000000000E+00 0. -1.
         -2   -1    0    0    0  501 -0.00000000000E+00 -0.00000000000E+00 -0.45888865560E+03  0.45888865560E+03  0.00000000000E+00 0.  1.
    9000010    2    1    2  502    0 -0.68726478476E+03 -0.25149917576E+03  0.20940289884E+04  0.24670867199E+04  0.10798031115E+04 0.  0.
   -9000010    2    1    2    0  501  0.68726478476E+03  0.25149917576E+03  0.11375923801E+04  0.16823119597E+04  0.10002361656E+04 0.  0.
        -13    1    3    3    0    0 -0.62893259930E+03 -0.40201393109E+02  0.21503224791E+04  0.22407719968E+04  0.10566000000E+00 0.  1.
          4    1    3    3  502    0 -0.58332185461E+02 -0.21129778265E+03 -0.56293490682E+02  0.22631472313E+03  0.00000000000E+00 0.  1.
         13    1    4    4    0    0  0.53930910643E+03  0.27450465446E+03  0.75644622751E+02  0.60986001485E+03  0.10566000000E+00 0. -1.
         -4    1    4    4    0  501  0.14795567832E+03 -0.23005478701E+02  0.10619477573E+04  0.10724519449E+04  0.00000000000E+00 0. -1.
<mgrwt>
<rscale>  2 0.12714920E+04</rscale>
<asrwt>0</asrwt>
<pdfrwt beam="1">  1        2 0.56777075E+00 0.12714920E+04</pdfrwt>
<pdfrwt beam="2">  1       -2 0.70598257E-01 0.12714920E+04</pdfrwt>
<totfact> 0.16105217E+00</totfact>
</mgrwt>
</event>
<event>
 8    1  0.7046235E-006  0.1259792E+04  0.7818608E-02  0.8562848E-01
         -2   -1    0    0    0  501 -0.00000000000E+00  0.00000000000E+00  0.81257501765E+03  0.81257501765E+03  0.00000000000E+00 0.  1.
          2   -1    0    0  502    0  0.00000000000E+00 -0.00000000000E+00 -0.19653096875E+04  0.19653096875E+04  0.00000000000E+00 0. -1.
    9000010    2    1    2  502    0  0.74083684982E+03 -0.18638620217E+03 -0.46645723517E+03  0.13420621230E+04  0.99998466752E+03 0.  0.
   -9000010    2    1    2    0  501 -0.74083684982E+03  0.18638620217E+03 -0.68627743468E+03  0.14358225822E+04  0.10035092006E+04 0.  0.
        -13    1    3    3    0    0  0.18097670287E+03  0.61692214181E+02  0.30323990502E+03  0.35848702547E+03  0.10566000000E+00 0.  1.
          4    1    3    3  502    0  0.55986014696E+03 -0.24807841635E+03 -0.76969714019E+03  0.98357509750E+03  0.00000000000E+00 0.  1.
         13    1    4    4    0    0 -0.19616056514E+03  0.53642799996E+03 -0.50768661453E+03  0.76418562941E+03  0.10566000000E+00 0. -1.
         -4    1    4    4    0  501 -0.54467628468E+03 -0.35004179778E+03 -0.17859082015E+03  0.67163695277E+03  0.00000000000E+00 0. -1.
<mgrwt>
<rscale>  2 0.12597917E+04</rscale>
<asrwt>0</asrwt>
<pdfrwt beam="2">  1        2 0.30235533E+00 0.12597917E+04</pdfrwt>
<pdfrwt beam="1">  1       -2 0.12501154E+00 0.12597917E+04</pdfrwt>
<totfact> 0.49225494E+00</totfact>
</mgrwt>
</event>
<event>
 8    1  0.7046235E-006  0.1206735E+04  0.7818608E-02  0.8601508E-01
          2   -1    0    0  502    0  0.00000000000E+00  0.00000000000E+00  0.25163221894E+04  0.25163221894E+04  0.00000000000E+00 0. -1.
         -2   -1    0    0    0  501 -0.00000000000E+00 -0.00000000000E+00 -0.57874046474E+03  0.57874046474E+03  0.00000000000E+00 0.  1.
    9000010    2    1    2  502    0  0.53139362822E+03  0.39841977857E+03  0.96569745687E+03  0.15507876195E+04  0.10155063538E+04 0.  0.
   -9000010    2    1    2    0  501 -0.53139362822E+03 -0.39841977857E+03  0.97188426780E+03  0.15442750346E+04  0.99955432292E+03 0.  0.
        -13    1    3    3    0    0  0.76226427879E+02  0.53863776561E+03  0.86450687866E+02  0.55083104801E+03  0.10566000000E+00 0.  1.
          4    1    3    3  502    0  0.45516720034E+03 -0.14021798705E+03  0.87924676901E+03  0.99995657154E+03  0.00000000000E+00 0.  1.
         13    1    4    4    0    0 -0.48104011157E+03 -0.22418824728E+03  0.11644870841E+04  0.12797226807E+04  0.10566000000E+00 0. -1.
         -4    1    4    4    0  501 -0.50353516649E+02 -0.17423153129E+03 -0.19260281631E+03  0.26455235396E+03  0.00000000000E+00 0. -1.
<mgrwt>
<rscale>  2 0.12067352E+04</rscale>
<asrwt>0</asrwt>
<pdfrwt beam="1">  1        2 0.38712648E+00 0.12067352E+04</pdfrwt>
<pdfrwt beam="2">  1       -2 0.89036996E-01 0.12067352E+04</pdfrwt>
<totfact> 0.57127213E+00</totfact>
</mgrwt>
</event>
<event>
 8    1  0.7046235E-006  0.1021893E+04  0.7818608E-02  0.8754289E-01
          1   -1    0    0  502    0  0.00000000000E+00  0.00000000000E+00  0.11779621323E+04  0.11779621323E+04  0.00000000000E+00 0.  1.
         -1   -1    0    0    0  501 -0.00000000000E+00 -0.00000000000E+00 -0.96773668549E+03  0.96773668549E+03  0.00000000000E+00 0. -1.
    9000010    2    1    2  502    0  0.26439244100E+03  0.19346616337E+03 -0.20011575587E+03  0.10769428766E+04  0.10061943771E+04 0.  0.
   -9000010    2    1    2    0  501 -0.26439244100E+03 -0.19346616337E+03  0.41034120264E+03  0.10687559411E+04  0.93087423415E+03 0.  0.
        -13    1    3    3    0    0  0.32374070936E+03 -0.75065365615E+02 -0.54347212729E+03  0.63702811580E+03  0.10566000000E+00 0.  1.
          4    1    3    3  502    0 -0.59348268361E+02  0.26853152898E+03  0.34335637142E+03  0.43991476085E+03  0.00000000000E+00 0.  1.
         13    1    4    4    0    0  0.15630404574E+03  0.20413567768E+03  0.41696967270E+03  0.48986329596E+03  0.10566000000E+00 0. -1.
         -4    1    4    4    0  501 -0.42069648674E+03 -0.39760184105E+03 -0.66284700634E+01  0.57889264512E+03  0.00000000000E+00 0. -1.
<mgrwt>
<rscale>  2 0.10218926E+04</rscale>
<asrwt>0</asrwt>
<pdfrwt beam="1">  1        1 0.18122494E+00 0.10218926E+04</pdfrwt>
<pdfrwt beam="2">  1       -1 0.14888257E+00 0.10218926E+04</pdfrwt>
<totfact> 0.58750840E+00</totfact>
</mgrwt>
</event>
<event>
 8    1  0.7046235E-006  0.1266370E+04  0.7818608E-02  0.8558192E-01
          2   -1    0    0  502    0  0.00000000000E+00  0.00000000000E+00  0.46802494737E+04  0.46802494737E+04  0.00000000000E+00 0. -1.
         -2   -1    0    0    0  501 -0.00000000000E+00 -0.00000000000E+00 -0.38198140771E+03  0.38198140771E+03  0.00000000000E+00 0.  1.
    9000010    2    1    2  502    0  0.75446224858E+03  0.25448839854E+03  0.13200252257E+04  0.18214654475E+04  0.97020211843E+03 0.  0.
   -9000010    2    1    2    0  501 -0.75446224858E+03 -0.25448839854E+03  0.29782428403E+04  0.32407654339E+04  0.99932604896E+03 0.  0.
        -13    1    3    3    0    0  0.10348418032E+03  0.39049582369E+03  0.76321282677E+02  0.41112153100E+03  0.10566000000E+00 0.  1.
          4    1    3    3  502    0  0.65097806826E+03 -0.13600742515E+03  0.12437039430E+04  0.14103439166E+04  0.00000000000E+00 0.  1.
         13    1    4    4    0    0 -0.96596585514E+03 -0.30412586354E+03  0.20379644805E+04  0.22757156697E+04  0.10566000000E+00 0. -1.
         -4    1    4    4    0  501  0.21150360657E+03  0.49637464999E+02  0.94027835980E+03  0.96504976423E+03  0.00000000000E+00 0. -1.
<mgrwt>
<rscale>  2 0.12663702E+04</rscale>
<asrwt>0</asrwt>
<pdfrwt beam="1">  1        2 0.72003834E+00 0.12663702E+04</pdfrwt>
<pdfrwt beam="2">  1       -2 0.58766374E-01 0.12663702E+04</pdfrwt>
<totfact> 0.31603852E-01</totfact>
</mgrwt>
</event>
<event>
 8    1  0.7046235E-006  0.1193311E+04  0.7818608E-02  0.8611616E-01
          2   -1    0    0  502    0  0.00000000000E+00  0.00000000000E+00  0.27652169560E+04  0.27652169560E+04  0.00000000000E+00 0. -1.
         -2   -1    0    0    0  501 -0.00000000000E+00 -0.00000000000E+00 -0.53913525666E+03  0.53913525666E+03  0.00000000000E+00 0.  1.
    9000010    2    1    2  502    0 -0.28532859731E+03 -0.59526730043E+03  0.14716601894E+04  0.19011369571E+04  0.10063709301E+04 0.  0.
   -9000010    2    1    2    0  501  0.28532859731E+03  0.59526730043E+03  0.75442150991E+03  0.14032152556E+04  0.98188882847E+03 0.  0.
        -13    1    3    3    0    0  0.32285780991E+03 -0.74716794825E+02  0.76353883675E+03  0.83235288865E+03  0.10566000000E+00 0.  1.
          4    1    3    3  502    0 -0.60818640722E+03 -0.52055050561E+03  0.70812135264E+03  0.10687840684E+04  0.00000000000E+00 0.  1.
         13    1    4    4    0    0  0.48629702225E+03  0.44011362363E+03  0.53890836744E+02  0.65809499998E+03  0.10566000000E+00 0. -1.
         -4    1    4    4    0  501 -0.20096842494E+03  0.15515367680E+03  0.70053067317E+03  0.74512025560E+03  0.00000000000E+00 0. -1.
<mgrwt>
<rscale>  2 0.11933112E+04</rscale>
<asrwt>0</asrwt>
<pdfrwt beam="1">  1        2 0.42541799E+00 0.11933112E+04</pdfrwt>
<pdfrwt beam="2">  1       -2 0.82943887E-01 0.11933112E+04</pdfrwt>
<totfact> 0.48302797E+00</totfact>
</mgrwt>
</event>
<event>
 8    1  0.7046235E-006  0.1471717E+04  0.7818608E-02  0.8425965E-01
          2   -1    0    0  502    0  0.00000000000E+00  0.00000000000E+00  0.76362229015E+03  0.76362229015E+03  0.00000000000E+00 0. -1.
         -2   -1    0    0    0  501 -0.00000000000E+00 -0.00000000000E+00 -0.30628606386E+04  0.30628606386E+04  0.00000000000E+00 0.  1.
    9000010    2    1    2  502    0 -0.77852745119E+03 -0.70151403784E+03 -0.61614705458E+03  0.15779711566E+04  0.10060461423E+04 0.  0.
   -9000010    2    1    2    0  501  0.77852745119E+03  0.70151403784E+03 -0.16830912939E+04  0.22485117722E+04  0.10605573764E+04 0.  0.
        -13    1    3    3    0    0 -0.76885608669E+03 -0.74611556146E+03 -0.11812204288E+03  0.10778594256E+04  0.10566000000E+00 0.  1.
          4    1    3    3  502    0 -0.96713645036E+01  0.44601523623E+02 -0.49802501170E+03  0.50011173100E+03  0.00000000000E+00 0.  1.
         13    1    4    4    0    0  0.35828850554E+03  0.86421322159E+03 -0.70445517367E+03  0.11711072745E+04  0.10566000000E+00 0. -1.
         -4    1    4    4    0  501  0.42023894564E+03 -0.16269918375E+03 -0.97863612025E+03  0.10774044977E+04  0.00000000000E+00 0. -1.
<mgrwt>
<rscale>  2 0.14717167E+04</rscale>
<asrwt>0</asrwt>
<pdfrwt beam="1">  1        2 0.11748035E+00 0.14717167E+04</pdfrwt>
<pdfrwt beam="2">  1       -2 0.47120933E+00 0.14717167E+04</pdfrwt>
<totfact> 0.15086105E-01</totfact>
</mgrwt>
</event>
<event>
 8    1  0.7046235E-006  0.1612342E+04  0.7818608E-02  0.8347627E-01
         -4   -1    0    0    0  501 -0.00000000000E+00  0.00000000000E+00  0.16303946975E+04  0.16303946975E+04  0.00000000000E+00 0. -1.
          4   -1    0    0  502    0  0.00000000000E+00 -0.00000000000E+00 -0.18397040937E+04  0.18397040937E+04  0.00000000000E+00 0.  1.
    9000010    2    1    2  502    0  0.38380628949E+02  0.12891250285E+04 -0.73883195291E+03  0.17902815291E+04  0.99795735725E+03 0.  0.
   -9000010    2    1    2    0  501 -0.38380628949E+02 -0.12891250285E+04  0.52952255665E+03  0.16798172621E+04  0.93705682016E+03 0.  0.
        -13    1    3    3    0    0  0.12761651677E+03 -0.87488984251E+02 -0.30864927168E+03  0.34526031019E+03  0.10566000000E+00 0.  1.
          4    1    3    3  502    0 -0.89235887818E+02  0.13766140128E+04 -0.43018268122E+03  0.14450212189E+04  0.00000000000E+00 0.  1.
         13    1    4    4    0    0 -0.19111763958E+03 -0.13227687197E+04  0.25024630615E+03  0.13597302169E+04  0.10566000000E+00 0. -1.
         -4    1    4    4    0  501  0.15273701063E+03  0.33643691191E+02  0.27927625050E+03  0.32008704514E+03  0.00000000000E+00 0. -1.
<mgrwt>
<rscale>  2 0.16123418E+04</rscale>
<asrwt>0</asrwt>
<pdfrwt beam="2">  1        4 0.28303140E+00 0.16123418E+04</pdfrwt>
<pdfrwt beam="1">  1       -4 0.25082995E+00 0.16123418E+04</pdfrwt>
<totfact> 0.81347699E-02</totfact>
</mgrwt>
</event>
<event>
 8    1  0.7046235E-006  0.1298081E+04  0.7818608E-02  0.8536152E-01
         -4   -1    0    0    0  501 -0.00000000000E+00  0.00000000000E+00  0.43635188345E+03  0.43635188345E+03  0.00000000000E+00 0. -1.
          4   -1    0    0  502    0  0.00000000000E+00 -0.00000000000E+00 -0.39504157620E+04  0.39504157620E+04  0.00000000000E+00 0.  1.
    9000010    2    1    2  502    0  0.81776049672E+03 -0.76892028762E+02 -0.20918524409E+04  0.24642876062E+04  0.10110500273E+04 0.  0.
   -9000010    2    1    2    0  501 -0.81776049672E+03  0.76892028762E+02 -0.14222114377E+04  0.19224800392E+04  0.99929951154E+03 0.  0.
        -13    1    3    3    0    0  0.15713427979E+03  0.34873464583E+03 -0.12734946048E+04  0.13296975426E+04  0.10566000000E+00 0.  1.
          4    1    3    3  502    0  0.66062621693E+03 -0.42562667459E+03 -0.81835783601E+03  0.11345900636E+04  0.00000000000E+00 0.  1.
         13    1    4    4    0    0 -0.13123327689E+03 -0.41168036044E+03 -0.33377634363E+03  0.54599409416E+03  0.10566000000E+00 0. -1.
         -4    1    4    4    0  501 -0.68652721983E+03  0.48857238920E+03 -0.10884350940E+04  0.13764859451E+04  0.00000000000E+00 0. -1.
<mgrwt>
<rscale>  2 0.12980809E+04</rscale>
<asrwt>0</asrwt>
<pdfrwt beam="2">  1        4 0.60775625E+00 0.12980809E+04</pdfrwt>
<pdfrwt beam="1">  1       -4 0.67131061E-01 0.12980809E+04</pdfrwt>
<totfact> 0.31032947E-02</totfact>
</mgrwt>
</event>
<event>
 8    1  0.7046235E-006  0.1594310E+04  0.7818608E-02  0.8357200E-01
         -1   -1    0    0    0  501 -0.00000000000E+00  0.00000000000E+00  0.90901044113E+03  0.90901044113E+03  0.00000000000E+00 0. -1.
          1   -1    0    0  502    0  0.00000000000E+00 -0.00000000000E+00 -0.27969550103E+04  0.27969550103E+04  0.00000000000E+00 0.  1.
    9000010    2    1    2  502    0 -0.11575540677E+04 -0.43894023570E+03 -0.97404555518E+03  0.18694742170E+04  0.10067617167E+04 0.  0.
   -9000010    2    1    2    0  501  0.11575540677E+04  0.43894023570E+03 -0.91389901399E+03  0.18364912344E+04  0.10024413680E+04 0.  0.
        -13    1    3    3    0    0 -0.64966121234E+02 -0.41656739820E+03 -0.25434255240E+02  0.42236939597E+03  0.10566000000E+00 0.  1.
          4    1    3    3  502    0 -0.10925879465E+04 -0.22372837498E+02 -0.94861129994E+03  0.14471048210E+04  0.00000000000E+00 0.  1.
         13    1    4    4    0    0  0.11594114737E+04  0.17322688751E+03 -0.10165335910E+04  0.15516388345E+04  0.10566000000E+00 0. -1.
         -4    1    4    4    0  501 -0.18574060321E+01  0.26571334819E+03  0.10263457699E+03  0.28485239995E+03  0.00000000000E+00 0. -1.
<mgrwt>
<rscale>  2 0.15943102E+04</rscale>
<asrwt>0</asrwt>
<pdfrwt beam="2">  1        1 0.43030077E+00 0.15943102E+04</pdfrwt>
<pdfrwt beam="1">  1       -1 0.13984776E+00 0.15943102E+04</pdfrwt>
<totfact> 0.31737056E-01</totfact>
</mgrwt>
</event>
<event>
 8    1  0.7046235E-006  0.1073659E+04  0.7818608E-02  0.8708303E-01
         -2   -1    0    0    0  501 -0.00000000000E+00  0.00000000000E+00  0.61077764859E+03  0.61077764859E+03  0.00000000000E+00 0. -1.
          2   -1    0    0  502    0  0.00000000000E+00 -0.00000000000E+00 -0.19396887804E+04  0.19396887804E+04  0.00000000000E+00 0.  1.
    9000010    2    1    2  502    0  0.37175951335E+03 -0.11810593542E+03 -0.45471023591E+03  0.11656022846E+04  0.99985655940E+03 0.  0.
   -9000010    2    1    2    0  501 -0.37175951335E+03  0.11810593542E+03 -0.87420089592E+03  0.13848641445E+04  0.10007334033E+04 0.  0.
        -13    1    3    3    0    0  0.46502277746E+03 -0.45470719971E+03 -0.49032554771E+03  0.81450842533E+03  0.10566000000E+00 0.  1.
          4    1    3    3  502    0 -0.93263264110E+02  0.33660126429E+03  0.35615311802E+02  0.35109385923E+03  0.00000000000E+00 0.  1.
         13    1    4    4    0    0  0.25938633539E+03 -0.23412803652E+03 -0.24721389030E+03  0.42803262398E+03  0.10566000000E+00 0. -1.
         -4    1    4    4    0  501 -0.63114584874E+03  0.35223397194E+03 -0.62698700562E+03  0.95683152048E+03  0.00000000000E+00 0. -1.
<mgrwt>
<rscale>  2 0.10736592E+04</rscale>
<asrwt>0</asrwt>
<pdfrwt beam="2">  1        2 0.29841366E+00 0.10736592E+04</pdfrwt>
<pdfrwt beam="1">  1       -2 0.93965792E-01 0.10736592E+04</pdfrwt>
<totfact> 0.10599296E+01</totfact>
</mgrwt>
</event>
<event>
 8    1  0.7046235E-006  0.1021396E+04  0.7818608E-02  0.8754744E-01
         -4   -1    0    0    0  501 -0.00000000000E+00  0.00000000000E+00  0.58946056871E+03  0.58946056871E+03  0.00000000000E+00 0. -1.
          4   -1    0    0  502    0  0.00000000000E+00 -0.00000000000E+00 -0.22953635363E+04  0.22953635363E+04  0.00000000000E+00 0.  1.
    9000010    2    1    2  502    0  0.25949296981E+03  0.60797892460E+02 -0.15374788932E+04  0.18410977713E+04  0.97712162563E+03 0.  0.
   -9000010    2    1    2    0  501 -0.25949296981E+03 -0.60797892460E+02 -0.16842407439E+03  0.10437263337E+04  0.99496985171E+03 0.  0.
        -13    1    3    3    0    0 -0.26920668863E+03  0.95335342142E+02 -0.89586900709E+02  0.29931069578E+03  0.10566000000E+00 0.  1.
          4    1    3    3  502    0  0.52869965844E+03 -0.34537449682E+02 -0.14478919925E+04  0.15417870755E+04  0.00000000000E+00 0.  1.
         13    1    4    4    0    0 -0.87060999700E+02  0.44547057084E+03 -0.22373831658E+03  0.50604593924E+03  0.10566000000E+00 0. -1.
         -4    1    4    4    0  501 -0.17243197011E+03 -0.50626846330E+03  0.55314242189E+02  0.53768039451E+03  0.00000000000E+00 0. -1.
<mgrwt>
<rscale>  2 0.10213963E+04</rscale>
<asrwt>0</asrwt>
<pdfrwt beam="2">  1        4 0.35313286E+00 0.10213963E+04</pdfrwt>
<pdfrwt beam="1">  1       -4 0.90686238E-01 0.10213963E+04</pdfrwt>
<totfact> 0.25464891E-01</totfact>
</mgrwt>
</event>
<event>
 8    1  0.7046235E-006  0.1165295E+04  0.7818608E-02  0.8633165E-01
         -1   -1    0    0    0  501 -0.00000000000E+00  0.00000000000E+00  0.48828260310E+03  0.48828260310E+03  0.00000000000E+00 0.  1.
          1   -1    0    0  502    0  0.00000000000E+00 -0.00000000000E+00 -0.28564542162E+04  0.28564542162E+04  0.00000000000E+00 0. -1.
    9000010    2    1    2  502    0  0.70160860635E+03 -0.60433847616E+02 -0.14414869526E+04  0.18449753987E+04  0.91112167187E+03 0.  0.
   -9000010    2    1    2    0  501 -0.70160860635E+03  0.60433847616E+02 -0.92668466054E+03  0.14997614206E+04  0.94585039630E+03 0.  0.
        -13    1    3    3    0    0  0.55030626025E+03  0.38162786656E+03 -0.70159425023E+03  0.96990273312E+03  0.10566000000E+00 0.  1.
          4    1    3    3  502    0  0.15130234611E+03 -0.44206171417E+03 -0.73989270233E+03  0.87507266557E+03  0.00000000000E+00 0.  1.
         13    1    4    4    0    0  0.64159215960E+02  0.12030011690E+02  0.15809643687E+03  0.17104274521E+03  0.10566000000E+00 0. -1.
         -4    1    4    4    0  501 -0.76576782231E+03  0.48403835927E+02 -0.10847810974E+04  0.13287186754E+04  0.00000000000E+00 0. -1.
<mgrwt>
<rscale>  2 0.11652948E+04</rscale>
<asrwt>0</asrwt>
<pdfrwt beam="2">  1        1 0.43945450E+00 0.11652948E+04</pdfrwt>
<pdfrwt beam="1">  1       -1 0.75120400E-01 0.11652948E+04</pdfrwt>
<totfact> 0.11949950E+00</totfact>
</mgrwt>
</event>
<event>
 8    1  0.7046235E-006  0.1275282E+04  0.7818608E-02  0.8551931E-01
          2   -1    0    0  502    0  0.00000000000E+00  0.00000000000E+00  0.11543709966E+04  0.11543709966E+04  0.00000000000E+00 0.  1.
         -2   -1    0    0    0  501 -0.00000000000E+00 -0.00000000000E+00 -0.14165673540E+04  0.14165673540E+04  0.00000000000E+00 0. -1.
    9000010    2    1    2  502    0 -0.35059096208E+03 -0.70607952061E+03 -0.22578902879E+03  0.12938493438E+04  0.10008012423E+04 0.  0.
   -9000010    2    1    2    0  501  0.35059096208E+03  0.70607952061E+03 -0.36407328542E+02  0.12770890069E+04  0.10040759562E+04 0.  0.
        -13    1    3    3    0    0 -0.92039295264E+02 -0.92429095318E+03 -0.10576936862E+03  0.93486478622E+03  0.10566000000E+00 0.  1.
          4    1    3    3  502    0 -0.25855166682E+03  0.21821143257E+03 -0.12001966017E+03  0.35898455753E+03  0.00000000000E+00 0.  1.
         13    1    4    4    0    0  0.20764875801E+03  0.46507438162E+03  0.47339668967E+03  0.69535359645E+03  0.10566000000E+00 0. -1.
         -4    1    4    4    0  501  0.14294220407E+03  0.24100513899E+03 -0.50980401822E+03  0.58173541040E+03  0.00000000000E+00 0. -1.
<mgrwt>
<rscale>  2 0.12752823E+04</rscale>
<asrwt>0</asrwt>
<pdfrwt beam="1">  1        2 0.17759554E+00 0.12752823E+04</pdfrwt>
<pdfrwt beam="2">  1       -2 0.21793344E+00 0.12752823E+04</pdfrwt>
<totfact> 0.21941243E+00</totfact>
</mgrwt>
</event>
<event>
 8    1  0.7046235E-006  0.1225732E+04  0.7818608E-02  0.8587434E-01
          1   -1    0    0  502    0  0.00000000000E+00  0.00000000000E+00  0.13726611775E+04  0.13726611775E+04  0.00000000000E+00 0.  1.
         -1   -1    0    0    0  501 -0.00000000000E+00 -0.00000000000E+00 -0.17891669723E+04  0.17891669723E+04  0.00000000000E+00 0. -1.
    9000010    2    1    2  502    0  0.16171481474E+03  0.69393644542E+03  0.77692932785E+03  0.14502043516E+04  0.99587851135E+03 0.  0.
   -9000010    2    1    2    0  501 -0.16171481474E+03 -0.69393644542E+03 -0.11934351227E+04  0.17116237982E+04  0.99883390154E+03 0.  0.
        -13    1    3    3    0    0  0.12820719809E+03  0.83194095136E+03  0.92112904992E+03  0.12478147178E+04  0.10566000000E+00 0.  1.
          4    1    3    3  502    0  0.33507616648E+02 -0.13800450593E+03 -0.14419972207E+03  0.20238963381E+03  0.00000000000E+00 0.  1.
         13    1    4    4    0    0 -0.34843799094E+03 -0.86000093746E+03 -0.71342070556E+03  0.11704613450E+04  0.10566000000E+00 0. -1.
         -4    1    4    4    0  501  0.18672317619E+03  0.16606449203E+03 -0.48001441715E+03  0.54116245317E+03  0.00000000000E+00 0. -1.
<mgrwt>
<rscale>  2 0.12257317E+04</rscale>
<asrwt>0</asrwt>
<pdfrwt beam="1">  1        1 0.21117864E+00 0.12257317E+04</pdfrwt>
<pdfrwt beam="2">  1       -1 0.27525645E+00 0.12257317E+04</pdfrwt>
<totfact> 0.27992517E-01</totfact>
</mgrwt>
</event>
<event>
 8    1  0.7046235E-006  0.1108986E+04  0.7818608E-02  0.8678442E-01
          1   -1    0    0  502    0  0.00000000000E+00  0.00000000000E+00  0.24950567101E+04  0.24950567101E+04  0.00000000000E+00 0.  1.
         -1   -1    0    0    0  501 -0.00000000000E+00 -0.00000000000E+00 -0.56326631703E+03  0.56326631703E+03  0.00000000000E+00 0. -1.
    9000010    2    1    2  502    0 -0.61685860407E+03  0.18401280388E+02  0.38688117917E+03  0.11210876599E+04  0.85223667474E+03 0.  0.
   -9000010    2    1    2    0  501  0.61685860407E+03 -0.18401280388E+02  0.15449092139E+04  0.19372353673E+04  0.99261434831E+03 0.  0.
        -13    1    3    3    0    0  0.12814277861E+03 -0.21397865646E+03 -0.14228666192E+01  0.24941826886E+03  0.10566000000E+00 0.  1.
          4    1    3    3  502    0 -0.74500138268E+03  0.23237993684E+03  0.38830404579E+03  0.87166939100E+03  0.00000000000E+00 0.  1.
         13    1    4    4    0    0 -0.95599911566E+02  0.20530773618E+03  0.96647866521E+03  0.99265886945E+03  0.10566000000E+00 0. -1.
         -4    1    4    4    0  501  0.71245851563E+03 -0.22370901657E+03  0.57843054873E+03  0.94457649786E+03  0.00000000000E+00 0. -1.
<mgrwt>
<rscale>  2 0.11089862E+04</rscale>
<asrwt>0</asrwt>
<pdfrwt beam="1">  1        1 0.38385487E+00 0.11089862E+04</pdfrwt>
<pdfrwt beam="2">  1       -1 0.86656358E-01 0.11089862E+04</pdfrwt>
<totfact> 0.20148101E+00</totfact>
</mgrwt>
</event>
<event>
 8    1  0.7046235E-006  0.1110756E+04  0.7818608E-02  0.8676977E-01
          1   -1    0    0  502    0  0.00000000000E+00  0.00000000000E+00  0.17017035850E+04  0.17017035850E+04  0.00000000000E+00 0.  1.
         -1   -1    0    0    0  501 -0.00000000000E+00 -0.00000000000E+00 -0.78115321368E+03  0.78115321368E+03  0.00000000000E+00 0. -1.
    9000010    2    1    2  502    0  0.43883229883E+03  0.25228040357E+03  0.13754203464E+03  0.11427330005E+04  0.10152348057E+04 0.  0.
   -9000010    2    1    2    0  501 -0.43883229883E+03 -0.25228040357E+03  0.78300833663E+03  0.13401237981E+04  0.96260612429E+03 0.  0.
        -13    1    3    3    0    0 -0.14811919369E+03  0.47737578327E+03  0.28658068435E+01  0.49983513082E+03  0.10566000000E+00 0.  1.
          4    1    3    3  502    0  0.58695149251E+03 -0.22509537970E+03  0.13467622779E+03  0.64289786970E+03  0.00000000000E+00 0.  1.
         13    1    4    4    0    0  0.16326823067E+03 -0.36987179875E+03  0.89268210294E+02  0.41404164910E+03  0.10566000000E+00 0. -1.
         -4    1    4    4    0  501 -0.60210052950E+03  0.11759139518E+03  0.69374012634E+03  0.92608214902E+03  0.00000000000E+00 0. -1.
<mgrwt>
<rscale>  2 0.11107556E+04</rscale>
<asrwt>0</asrwt>
<pdfrwt beam="1">  1        1 0.26180055E+00 0.11107556E+04</pdfrwt>
<pdfrwt beam="2">  1       -1 0.12017742E+00 0.11107556E+04</pdfrwt>
<totfact> 0.41986205E+00</totfact>
</mgrwt>
</event>
<event>
 8    1  0.7046235E-006  0.1197826E+04  0.7818608E-02  0.8608201E-01
         -1   -1    0    0    0  501 -0.00000000000E+00  0.00000000000E+00  0.13783969404E+04  0.13783969404E+04  0.00000000000E+00 0. -1.
          1   -1    0    0  502    0  0.00000000000E+00 -0.00000000000E+00 -0.10429309641E+04  0.10429309641E+04  0.00000000000E+00 0.  1.
    9000010    2    1    2  502    0 -0.40917050685E+03  0.45632322430E+03  0.22041478599E+03  0.12144861564E+04  0.10250573435E+04 0.  0.
   -9000010    2    1    2    0  501  0.40917050685E+03 -0.45632322430E+03  0.11505119028E+03  0.12068417481E+04  0.10332370686E+04 0.  0.
        -13    1    3    3    0    0 -0.40533624420E+03  0.46828006610E+03 -0.30399565936E+03  0.68992540412E+03  0.10566000000E+00 0.  1.
          4    1    3    3  502    0 -0.38342626515E+01 -0.11956841804E+02  0.52441044534E+03  0.52456075227E+03  0.00000000000E+00 0.  1.
         13    1    4    4    0    0  0.62729256790E+03  0.41465782955E+02 -0.70400982213E+02  0.63259124746E+03  0.10566000000E+00 0. -1.
         -4    1    4    4    0  501 -0.21812206105E+03 -0.49778900726E+03  0.18545217250E+03  0.57425050069E+03  0.00000000000E+00 0. -1.
<mgrwt>
<rscale>  2 0.11978261E+04</rscale>
<asrwt>0</asrwt>
<pdfrwt beam="2">  1        1 0.16045092E+00 0.11978261E+04</pdfrwt>
<pdfrwt beam="1">  1       -1 0.21206107E+00 0.11978261E+04</pdfrwt>
<totfact> 0.20428398E+00</totfact>
</mgrwt>
</event>
<event>
 8    1  0.7046235E-006  0.1368431E+04  0.7818608E-02  0.8489490E-01
         -1   -1    0    0    0  501 -0.00000000000E+00  0.00000000000E+00  0.33655517460E+04  0.33655517460E+04  0.00000000000E+00 0.  1.
          1   -1    0    0  502    0  0.00000000000E+00 -0.00000000000E+00 -0.62312508441E+03  0.62312508441E+03  0.00000000000E+00 0. -1.
    9000010    2    1    2  502    0 -0.48090004116E+03  0.81021498421E+03  0.19952083019E+04  0.24025680350E+04  0.95066493825E+03 0.  0.
   -9000010    2    1    2    0  501  0.48090004116E+03 -0.81021498421E+03  0.74721835975E+03  0.15861087954E+04  0.10342594759E+04 0.  0.
        -13    1    3    3    0    0 -0.60419961718E+03  0.96238538707E+03  0.17779798327E+04  0.21100841469E+04  0.10566000000E+00 0.  1.
          4    1    3    3  502    0  0.12329957602E+03 -0.15217040286E+03  0.21722846922E+03  0.29248388809E+03  0.00000000000E+00 0.  1.
         13    1    4    4    0    0 -0.31441907856E+03 -0.18258498510E+03  0.32795759112E+03  0.48964561316E+03  0.10566000000E+00 0. -1.
         -4    1    4    4    0  501  0.79531911971E+03 -0.62762999912E+03  0.41926076863E+03  0.10964631823E+04  0.00000000000E+00 0. -1.
<mgrwt>
<rscale>  2 0.13684314E+04</rscale>
<asrwt>0</asrwt>
<pdfrwt beam="2">  1        1 0.95865399E-01 0.13684314E+04</pdfrwt>
<pdfrwt beam="1">  1       -1 0.51777718E+00 0.13684314E+04</pdfrwt>
<totfact> 0.35989868E-01</totfact>
</mgrwt>
</event>
<event>
 8    1  0.7046235E-006  0.1172178E+04  0.7818608E-02  0.8627812E-01
         -2   -1    0    0    0  501 -0.00000000000E+00  0.00000000000E+00  0.80363582290E+03  0.80363582290E+03  0.00000000000E+00 0. -1.
          2   -1    0    0  502    0  0.00000000000E+00 -0.00000000000E+00 -0.17097999653E+04  0.17097999653E+04  0.00000000000E+00 0.  1.
    9000010    2    1    2  502    0 -0.23879778009E+03 -0.55319065897E+03 -0.44903013457E+03  0.12484841342E+04  0.99701569022E+03 0.  0.
   -9000010    2    1    2    0  501  0.23879778009E+03  0.55319065897E+03 -0.45713400783E+03  0.12649516540E+04  0.10139462022E+04 0.  0.
        -13    1    3    3    0    0 -0.78295807396E+02  0.17769377669E+03  0.18462328305E+03  0.26793857419E+03  0.10566000000E+00 0.  1.
          4    1    3    3  502    0 -0.16050197270E+03 -0.73088443566E+03 -0.63365341762E+03  0.98054555998E+03  0.00000000000E+00 0.  1.
         13    1    4    4    0    0  0.43237724001E+03  0.51925277198E+03 -0.68626222288E+03  0.96308326151E+03  0.10566000000E+00 0. -1.
         -4    1    4    4    0  501 -0.19357945992E+03  0.33937886992E+02  0.22912821504E+03  0.30186839252E+03  0.00000000000E+00 0. -1.
<mgrwt>
<rscale>  2 0.11721785E+04</rscale>
<asrwt>0</asrwt>
<pdfrwt beam="2">  1        2 0.26304615E+00 0.11721785E+04</pdfrwt>
<pdfrwt beam="1">  1       -2 0.12363628E+00 0.11721785E+04</pdfrwt>
<totfact> 0.70499907E+00</totfact>
</mgrwt>
</event>
<event>
 8    1  0.7046235E-006  0.1144404E+04  0.7818608E-02  0.8649646E-01
          2   -1    0    0  502    0  0.00000000000E+00  0.00000000000E+00  0.33687858563E+04  0.33687858563E+04  0.00000000000E+00 0. -1.
         -2   -1    0    0    0  501 -0.00000000000E+00 -0.00000000000E+00 -0.38886643074E+03  0.38886643074E+03  0.00000000000E+00 0.  1.
    9000010    2    1    2  502    0 -0.63122483144E+02 -0.55441441754E+03  0.14546798824E+04  0.18482841851E+04  0.99433448822E+03 0.  0.
   -9000010    2    1    2    0  501  0.63122483144E+02  0.55441441754E+03  0.15252395431E+04  0.19093681019E+04  0.10039776344E+04 0.  0.
        -13    1    3    3    0    0 -0.47787719592E+03 -0.77709127065E+02  0.82278198723E+03  0.95465990409E+03  0.10566000000E+00 0.  1.
          4    1    3    3  502    0  0.41475471277E+03 -0.47670529047E+03  0.63189789519E+03  0.89362428105E+03  0.00000000000E+00 0.  1.
         13    1    4    4    0    0 -0.17959595315E+03  0.75460943929E+03  0.13282492150E+04  0.15381599723E+04  0.10566000000E+00 0. -1.
         -4    1    4    4    0  501  0.24271843629E+03 -0.20019502175E+03  0.19699032809E+03  0.37120812951E+03  0.00000000000E+00 0. -1.
<mgrwt>
<rscale>  2 0.11444040E+04</rscale>
<asrwt>0</asrwt>
<pdfrwt beam="1">  1        2 0.51827473E+00 0.11444040E+04</pdfrwt>
<pdfrwt beam="2">  1       -2 0.59825607E-01 0.11444040E+04</pdfrwt>
<totfact> 0.40211380E+00</totfact>
</mgrwt>
</event>
<event>
 8    1  0.7046235E-006  0.1304298E+04  0.7818608E-02  0.8531907E-01
         -2   -1    0    0    0  501 -0.00000000000E+00  0.00000000000E+00  0.34755945528E+04  0.34755945528E+04  0.00000000000E+00 0.  1.
          2   -1    0    0  502    0  0.00000000000E+00 -0.00000000000E+00 -0.50484463177E+03  0.50484463177E+03  0.00000000000E+00 0. -1.
    9000010    2    1    2  502    0 -0.83384996652E+03 -0.72812812234E+02  0.18287563727E+04  0.22441758062E+04  0.99567449804E+03 0.  0.
   -9000010    2    1    2    0  501  0.83384996652E+03  0.72812812234E+02  0.11419935482E+04  0.17362633783E+04  0.10049148135E+04 0.  0.
        -13    1    3    3    0    0 -0.27291429283E+03  0.26182847322E+03  0.92823324445E+02  0.38942591252E+03  0.10566000000E+00 0.  1.
          4    1    3    3  502    0 -0.56093567369E+03 -0.33464128546E+03  0.17359330483E+04  0.18547498937E+04  0.00000000000E+00 0.  1.
         13    1    4    4    0    0  0.94868641086E+03  0.10672254219E+03  0.12514638267E+04  0.15740258346E+04  0.10566000000E+00 0. -1.
         -4    1    4    4    0  501 -0.11483644435E+03 -0.33909729961E+02 -0.10947027846E+03  0.16223754375E+03  0.00000000000E+00 0. -1.
<mgrwt>
<rscale>  2 0.13042979E+04</rscale>
<asrwt>0</asrwt>
<pdfrwt beam="2">  1        2 0.77668407E-01 0.13042979E+04</pdfrwt>
<pdfrwt beam="1">  1       -2 0.53470684E+00 0.13042979E+04</pdfrwt>
<totfact> 0.27492688E-01</totfact>
</mgrwt>
</event>
<event>
 8    1  0.7046235E-006  0.1295342E+04  0.7818608E-02  0.8538030E-01
          1   -1    0    0  502    0  0.00000000000E+00  0.00000000000E+00  0.14966541067E+04  0.14966541067E+04  0.00000000000E+00 0.  1.
         -1   -1    0    0    0  501 -0.00000000000E+00 -0.00000000000E+00 -0.11277307273E+04  0.11277307273E+04  0.00000000000E+00 0. -1.
    9000010    2    1    2  502    0 -0.13003725528E+02 -0.81581009378E+03  0.28481251856E+03  0.13249114137E+04  0.10042693252E+04 0.  0.
   -9000010    2    1    2    0  501  0.13003725528E+02  0.81581009378E+03  0.84110860873E+02  0.12994734204E+04  0.10078895412E+04 0.  0.
        -13    1    3    3    0    0  0.45054430960E+03 -0.55334960759E+03 -0.14827984992E+02  0.71372672882E+03  0.10566000000E+00 0.  1.
          4    1    3    3  502    0 -0.46354803512E+03 -0.26246048619E+03  0.29964050355E+03  0.61118468489E+03  0.00000000000E+00 0.  1.
         13    1    4    4    0    0  0.13447900050E+03  0.10374868477E+03  0.45629368250E+03  0.48688019781E+03  0.10566000000E+00 0. -1.
         -4    1    4    4    0  501 -0.12147527497E+03  0.71206140901E+03 -0.37218282162E+03  0.81259322255E+03  0.00000000000E+00 0. -1.
<mgrwt>
<rscale>  2 0.12953418E+04</rscale>
<asrwt>0</asrwt>
<pdfrwt beam="1">  1        1 0.23025448E+00 0.12953418E+04</pdfrwt>
<pdfrwt beam="2">  1       -1 0.17349704E+00 0.12953418E+04</pdfrwt>
<totfact> 0.19976668E+00</totfact>
</mgrwt>
</event>
<event>
 8    1  0.7046235E-006  0.1130400E+04  0.7818608E-02  0.8660900E-01
         -2   -1    0    0    0  501 -0.00000000000E+00  0.00000000000E+00  0.50972213635E+03  0.50972213635E+03  0.00000000000E+00 0.  1.
          2   -1    0    0  502    0  0.00000000000E+00 -0.00000000000E+00 -0.26070243053E+04  0.26070243053E+04  0.00000000000E+00 0. -1.
    9000010    2    1    2  502    0  0.37735081266E+03  0.58511559002E+03 -0.13038828925E+04  0.16951921253E+04  0.82994689890E+03 0.  0.
   -9000010    2    1    2    0  501 -0.37735081266E+03 -0.58511559002E+03 -0.79341927644E+03  0.14215543163E+04  0.95212847684E+03 0.  0.
        -13    1    3    3    0    0 -0.90034779571E+01  0.35546333431E+03 -0.11749992453E+04  0.12276231027E+04  0.10566000000E+00 0.  1.
          4    1    3    3  502    0  0.38635429062E+03  0.22965225571E+03 -0.12888364719E+03  0.46756902265E+03  0.00000000000E+00 0.  1.
         13    1    4    4    0    0 -0.58115137771E+03 -0.23272670473E+02 -0.40605622446E+03  0.70933786702E+03  0.10566000000E+00 0. -1.
         -4    1    4    4    0  501  0.20380056504E+03 -0.56184291955E+03 -0.38736305198E+03  0.71221644926E+03  0.00000000000E+00 0. -1.
<mgrwt>
<rscale>  2 0.11304003E+04</rscale>
<asrwt>0</asrwt>
<pdfrwt beam="2">  1        2 0.40108066E+00 0.11304003E+04</pdfrwt>
<pdfrwt beam="1">  1       -2 0.78418791E-01 0.11304003E+04</pdfrwt>
<totfact> 0.67958182E+00</totfact>
</mgrwt>
</event>
<event>
 8    1  0.7046235E-006  0.1147429E+04  0.7818608E-02  0.8647237E-01
          1   -1    0    0  502    0  0.00000000000E+00  0.00000000000E+00  0.19370211183E+04  0.19370211183E+04  0.00000000000E+00 0.  1.
         -1   -1    0    0    0  501 -0.00000000000E+00 -0.00000000000E+00 -0.70177605394E+03  0.70177605394E+03  0.00000000000E+00 0. -1.
    9000010    2    1    2  502    0  0.50844755273E+03  0.39748503472E+03  0.86700026071E+03  0.14682200448E+04  0.99371393321E+03 0.  0.
   -9000010    2    1    2    0  501 -0.50844755273E+03 -0.39748503472E+03  0.36824480367E+03  0.11705771275E+04  0.90450721904E+03 0.  0.
        -13    1    3    3    0    0 -0.16266623909E+03 -0.20358135855E+03  0.32594704978E+03  0.41730943593E+03  0.10566000000E+00 0.  1.
          4    1    3    3  502    0  0.67111379182E+03  0.60106639327E+03  0.54105321093E+03  0.10509106088E+04  0.00000000000E+00 0.  1.
         13    1    4    4    0    0 -0.55336438075E+02  0.10081018803E+02  0.53562299568E+03  0.53856824357E+03  0.10566000000E+00 0. -1.
         -4    1    4    4    0  501 -0.45311111465E+03 -0.40756605352E+03 -0.16737819201E+03  0.63200888393E+03  0.00000000000E+00 0. -1.
<mgrwt>
<rscale>  2 0.11474293E+04</rscale>
<asrwt>0</asrwt>
<pdfrwt beam="1">  1        1 0.29800325E+00 0.11474293E+04</pdfrwt>
<pdfrwt beam="2">  1       -1 0.10796555E+00 0.11474293E+04</pdfrwt>
<totfact> 0.35842152E+00</totfact>
</mgrwt>
</event>
<event>
 8    1  0.7046235E-006  0.1181988E+04  0.7818608E-02  0.8620251E-01
          1   -1    0    0  502    0  0.00000000000E+00  0.00000000000E+00  0.16041223127E+04  0.16041223127E+04  0.00000000000E+00 0.  1.
         -1   -1    0    0    0  501 -0.00000000000E+00 -0.00000000000E+00 -0.13559114756E+04  0.13559114756E+04  0.00000000000E+00 0. -1.
    9000010    2    1    2  502    0  0.64863587377E+03  0.46923105941E+02 -0.76029981667E+03  0.14136147878E+04  0.99865944264E+03 0.  0.
   -9000010    2    1    2    0  501 -0.64863587377E+03 -0.46923105941E+02  0.10085106539E+04  0.15464190005E+04  0.97539105575E+03 0.  0.
        -13    1    3    3    0    0  0.40506043805E+02 -0.25036844176E+03  0.13807072086E+03  0.28877089766E+03  0.10566000000E+00 0.  1.
          4    1    3    3  502    0  0.60812982996E+03  0.29729154770E+03 -0.89837053753E+03  0.11248438901E+04  0.00000000000E+00 0.  1.
         13    1    4    4    0    0 -0.52670822878E+03  0.31170057079E+03  0.18404214348E+03  0.63910118591E+03  0.10566000000E+00 0. -1.
         -4    1    4    4    0  501 -0.12192764499E+03 -0.35862367673E+03  0.82446851038E+03  0.90731781462E+03  0.00000000000E+00 0. -1.
<mgrwt>
<rscale>  2 0.11819880E+04</rscale>
<asrwt>0</asrwt>
<pdfrwt beam="1">  1        1 0.24678805E+00 0.11819880E+04</pdfrwt>
<pdfrwt beam="2">  1       -1 0.20860176E+00 0.11819880E+04</pdfrwt>
<totfact> 0.82454454E-01</totfact>
</mgrwt>
</event>
<event>
 8    1  0.7046235E-006  0.1218675E+04  0.7818608E-02  0.8592631E-01
         -4   -1    0    0    0  501 -0.00000000000E+00  0.00000000000E+00  0.13990247847E+04  0.13990247847E+04  0.00000000000E+00 0. -1.
          4   -1    0    0  502    0  0.00000000000E+00 -0.00000000000E+00 -0.10951972994E+04  0.10951972994E+04  0.00000000000E+00 0.  1.
    9000010    2    1    2  502    0 -0.25710715131E+03 -0.63349016122E+03 -0.67068380731E+02  0.12162768746E+04  0.10037018464E+04 0.  0.
   -9000010    2    1    2    0  501  0.25710715131E+03  0.63349016122E+03  0.37089586602E+03  0.12779452094E+04  0.10139853763E+04 0.  0.
        -13    1    3    3    0    0 -0.58304940352E+03 -0.11647959702E+03  0.39485575434E+02  0.59588021053E+03  0.10566000000E+00 0.  1.
          4    1    3    3  502    0  0.32594225221E+03 -0.51701056420E+03 -0.10655395617E+03  0.62039666411E+03  0.00000000000E+00 0.  1.
         13    1    4    4    0    0  0.51223281700E+03  0.12152024438E+03  0.45990702491E+03  0.69904514255E+03  0.10566000000E+00 0. -1.
         -4    1    4    4    0  501 -0.25512566568E+03  0.51196991684E+03 -0.89011158888E+02  0.57890006689E+03  0.00000000000E+00 0. -1.
<mgrwt>
<rscale>  2 0.12186753E+04</rscale>
<asrwt>0</asrwt>
<pdfrwt beam="2">  1        4 0.16849189E+00 0.12186753E+04</pdfrwt>
<pdfrwt beam="1">  1       -4 0.21523458E+00 0.12186753E+04</pdfrwt>
<totfact> 0.20801066E-01</totfact>
</mgrwt>
</event>
<event>
 8    1  0.7046235E-006  0.1390304E+04  0.7818608E-02  0.8475568E-01
          1   -1    0    0  502    0  0.00000000000E+00  0.00000000000E+00  0.99621086420E+03  0.99621086420E+03  0.00000000000E+00 0.  1.
         -1   -1    0    0    0  501 -0.00000000000E+00 -0.00000000000E+00 -0.19420469739E+04  0.19420469739E+04  0.00000000000E+00 0. -1.
    9000010    2    1    2  502    0 -0.28796551480E+03  0.92430650027E+03 -0.51725224134E+03  0.14841069009E+04  0.99887775421E+03 0.  0.
   -9000010    2    1    2    0  501  0.28796551480E+03 -0.92430650027E+03 -0.42858386837E+03  0.14541509373E+04  0.99679695623E+03 0.  0.
        -13    1    3    3    0    0 -0.32966002253E+02 -0.21086596798E+03 -0.66421155174E+01  0.21353065967E+03  0.10566000000E+00 0.  1.
          4    1    3    3  502    0 -0.25499951255E+03  0.11351724682E+04 -0.51061012582E+03  0.12705762412E+04  0.00000000000E+00 0.  1.
         13    1    4    4    0    0  0.42910583458E+03 -0.10671286916E+04 -0.48088824507E+03  0.12466551155E+04  0.10566000000E+00 0. -1.
         -4    1    4    4    0  501 -0.14114031978E+03  0.14282219133E+03  0.52304376704E+02  0.20749582171E+03  0.00000000000E+00 0. -1.
<mgrwt>
<rscale>  2 0.13903043E+04</rscale>
<asrwt>0</asrwt>
<pdfrwt beam="1">  1        1 0.15326321E+00 0.13903043E+04</pdfrwt>
<pdfrwt beam="2">  1       -1 0.29877646E+00 0.13903043E+04</pdfrwt>
<totfact> 0.32774249E-01</totfact>
</mgrwt>
</event>
<event>
 8    1  0.7046235E-006  0.1372527E+04  0.7818608E-02  0.8486863E-01
         -2   -1    0    0    0  501 -0.00000000000E+00  0.00000000000E+00  0.42446749063E+03  0.42446749063E+03  0.00000000000E+00 0.  1.
          2   -1    0    0  502    0  0.00000000000E+00 -0.00000000000E+00 -0.44544505014E+04  0.44544505014E+04  0.00000000000E+00 0. -1.
    9000010    2    1    2  502    0  0.96274012592E+03  0.17784964989E+01 -0.22016471510E+04  0.26146138000E+04  0.10305743217E+04 0.  0.
   -9000010    2    1    2    0  501 -0.96274012592E+03 -0.17784964989E+01 -0.18283358597E+04  0.22643041920E+04  0.92595342474E+03 0.  0.
        -13    1    3    3    0    0  0.10844333837E+04 -0.11654259737E+03 -0.21874578341E+04  0.24442892071E+04  0.10566000000E+00 0.  1.
          4    1    3    3  502    0 -0.12169325778E+03  0.11832109387E+03 -0.14189316911E+02  0.17032459293E+03  0.00000000000E+00 0.  1.
         13    1    4    4    0    0 -0.90104341057E+03 -0.17412214546E+03 -0.79286972227E+03  0.12127819907E+04  0.10566000000E+00 0. -1.
         -4    1    4    4    0  501 -0.61696715353E+02  0.17234364896E+03 -0.10354661375E+04  0.10515222013E+04  0.00000000000E+00 0. -1.
<mgrwt>
<rscale>  2 0.13725269E+04</rscale>
<asrwt>0</asrwt>
<pdfrwt beam="2">  1        2 0.68530007E+00 0.13725269E+04</pdfrwt>
<pdfrwt beam="1">  1       -2 0.65302692E-01 0.13725269E+04</pdfrwt>
<totfact> 0.39361937E-01</totfact>
</mgrwt>
</event>
<event>
 8    1  0.7046235E-006  0.1127218E+04  0.7818608E-02  0.8663481E-01
         -4   -1    0    0    0  501 -0.00000000000E+00  0.00000000000E+00  0.80365845046E+03  0.80365845046E+03  0.00000000000E+00 0. -1.
          4   -1    0    0  502    0  0.00000000000E+00 -0.00000000000E+00 -0.19852963361E+04  0.19852963361E+04  0.00000000000E+00 0.  1.
    9000010    2    1    2  502    0 -0.65619270511E+03 -0.26697000351E+03 -0.11631116316E+04  0.15516679158E+04  0.74362813579E+03 0.  0.
   -9000010    2    1    2    0  501  0.65619270511E+03  0.26697000351E+03 -0.18526254066E+02  0.12372868708E+04  0.10142355395E+04 0.  0.
        -13    1    3    3    0    0  0.40311117391E+02  0.18876557516E+03 -0.18541192735E+03  0.26764719786E+03  0.10566000000E+00 0.  1.
          4    1    3    3  502    0 -0.69650382250E+03 -0.45573557867E+03 -0.97769970427E+03  0.12840207180E+04  0.00000000000E+00 0.  1.
         13    1    4    4    0    0  0.32730201611E+03  0.41303172740E+03  0.41721645810E+03  0.67215429900E+03  0.10566000000E+00 0. -1.
         -4    1    4    4    0  501  0.32889068900E+03 -0.14606172390E+03 -0.43574271216E+03  0.56513257179E+03  0.00000000000E+00 0. -1.
<mgrwt>
<rscale>  2 0.11272182E+04</rscale>
<asrwt>0</asrwt>
<pdfrwt beam="2">  1        4 0.30543021E+00 0.11272182E+04</pdfrwt>
<pdfrwt beam="1">  1       -4 0.12363976E+00 0.11272182E+04</pdfrwt>
<totfact> 0.19818383E-01</totfact>
</mgrwt>
</event>
<event>
 8    1  0.7046235E-006  0.1090362E+04  0.7818608E-02  0.8694037E-01
          2   -1    0    0  502    0  0.00000000000E+00  0.00000000000E+00  0.21372437342E+04  0.21372437342E+04  0.00000000000E+00 0. -1.
         -2   -1    0    0    0  501 -0.00000000000E+00 -0.00000000000E+00 -0.78604399498E+03  0.78604399498E+03  0.00000000000E+00 0.  1.
    9000010    2    1    2  502    0  0.31359076903E+02 -0.44119772512E+03  0.14675493669E+04  0.18306104001E+04  0.10008968320E+04 0.  0.
   -9000010    2    1    2    0  501 -0.31359076903E+02  0.44119772512E+03 -0.11634962770E+03  0.10926773291E+04  0.99235461669E+03 0.  0.
        -13    1    3    3    0    0 -0.36164862684E+03  0.61186041629E+02  0.21539279526E+03  0.42535576686E+03  0.10566000000E+00 0.  1.
          4    1    3    3  502    0  0.39300770374E+03 -0.50238376675E+03  0.12521565717E+04  0.14052546333E+04  0.00000000000E+00 0.  1.
         13    1    4    4    0    0  0.44256029003E+03  0.19892547247E+03  0.13559749287E+03  0.50380318096E+03  0.10566000000E+00 0. -1.
         -4    1    4    4    0  501 -0.47391936693E+03  0.24227225264E+03 -0.25194712058E+03  0.58887414812E+03  0.00000000000E+00 0. -1.
<mgrwt>
<rscale>  2 0.10903621E+04</rscale>
<asrwt>0</asrwt>
<pdfrwt beam="1">  1        2 0.32880673E+00 0.10903621E+04</pdfrwt>
<pdfrwt beam="2">  1       -2 0.12092985E+00 0.10903621E+04</pdfrwt>
<totfact> 0.44194609E+00</totfact>
</mgrwt>
</event>
<event>
 8    1  0.7046235E-006  0.1143795E+04  0.7818608E-02  0.8650132E-01
          2   -1    0    0  502    0  0.00000000000E+00  0.00000000000E+00  0.12886420978E+04  0.12886420978E+04  0.00000000000E+00 0.  1.
         -2   -1    0    0    0  501 -0.00000000000E+00 -0.00000000000E+00 -0.14068405794E+04  0.14068405794E+04  0.00000000000E+00 0. -1.
    9000010    2    1    2  502    0  0.49370354383E+03  0.21928411182E+03  0.65174889816E+03  0.13210201410E+04  0.10141444057E+04 0.  0.
   -9000010    2    1    2    0  501 -0.49370354383E+03 -0.21928411182E+03 -0.76994737976E+03  0.13744625361E+04  0.10022472673E+04 0.  0.
        -13    1    3    3    0    0  0.80989407332E+03  0.14829958502E+03  0.49895638431E+03  0.96274537731E+03  0.10566000000E+00 0.  1.
          4    1    3    3  502    0 -0.31619052949E+03  0.70984526801E+02  0.15279251385E+03  0.35827476366E+03  0.00000000000E+00 0.  1.
         13    1    4    4    0    0 -0.73026981394E+03 -0.40747669570E+03 -0.56836466679E+03  0.10111229719E+04  0.10566000000E+00 0. -1.
         -4    1    4    4    0  501  0.23656627011E+03  0.18819258387E+03 -0.20158271297E+03  0.36333956425E+03  0.00000000000E+00 0. -1.
<mgrwt>
<rscale>  2 0.11437954E+04</rscale>
<asrwt>0</asrwt>
<pdfrwt beam="1">  1        2 0.19825263E+00 0.11437954E+04</pdfrwt>
<pdfrwt beam="2">  1       -2 0.21643701E+00 0.11437954E+04</pdfrwt>
<totfact> 0.19199588E+00</totfact>
</mgrwt>
</event>
<event>
 8    1  0.7046235E-006  0.1413225E+04  0.7818608E-02  0.8461257E-01
          2   -1    0    0  502    0  0.00000000000E+00  0.00000000000E+00  0.24374474097E+04  0.24374474097E+04  0.00000000000E+00 0.  1.
         -2   -1    0    0    0  501 -0.00000000000E+00 -0.00000000000E+00 -0.82049408801E+03  0.82049408801E+03  0.00000000000E+00 0. -1.
    9000010    2    1    2  502    0 -0.64988105889E+03 -0.75708395028E+03  0.86738257051E+03  0.16567244915E+04  0.99842977656E+03 0.  0.
   -9000010    2    1    2    0  501  0.64988105889E+03  0.75708395028E+03  0.74957075118E+03  0.16012170062E+04  0.10032537522E+04 0.  0.
        -13    1    3    3    0    0 -0.48391523399E+03 -0.99920051109E+03  0.61246449540E+03  0.12679465227E+04  0.10566000000E+00 0.  1.
          4    1    3    3  502    0 -0.16596582490E+03  0.24211656081E+03  0.25491807512E+03  0.38877796886E+03  0.00000000000E+00 0.  1.
         13    1    4    4    0    0 -0.87850619997E+02  0.49863804400E+03 -0.16692768871E+02  0.50659282471E+03  0.10566000000E+00 0. -1.
         -4    1    4    4    0  501  0.73773167888E+03  0.25844590628E+03  0.76626352005E+03  0.10946241815E+04  0.00000000000E+00 0. -1.
<mgrwt>
<rscale>  2 0.14132253E+04</rscale>
<asrwt>0</asrwt>
<pdfrwt beam="1">  1        2 0.37499191E+00 0.14132253E+04</pdfrwt>
<pdfrwt beam="2">  1       -2 0.12622986E+00 0.14132253E+04</pdfrwt>
<totfact> 0.25965790E+00</totfact>
</mgrwt>
</event>
<event>
 8    1  0.7046235E-006  0.1090258E+04  0.7818608E-02  0.8694125E-01
         -2   -1    0    0    0  501 -0.00000000000E+00  0.00000000000E+00  0.40991282550E+03  0.40991282550E+03  0.00000000000E+00 0.  1.
          2   -1    0    0  502    0  0.00000000000E+00 -0.00000000000E+00 -0.29930534444E+04  0.29930534444E+04  0.00000000000E+00 0. -1.
    9000010    2    1    2  502    0  0.40518647780E+03  0.11904208462E+03 -0.15812394996E+04  0.19155921601E+04  0.99540337001E+03 0.  0.
   -9000010    2    1    2    0  501 -0.40518647780E+03 -0.11904208462E+03 -0.10019011193E+04  0.14873741098E+04  0.10149526048E+04 0.  0.
        -13    1    3    3    0    0  0.60527000599E+03  0.33799947750E+03 -0.69753101403E+03  0.98343528188E+03  0.10566000000E+00 0.  1.
          4    1    3    3  502    0 -0.20008352819E+03 -0.21895739289E+03 -0.88370848553E+03  0.93215687818E+03  0.00000000000E+00 0.  1.
         13    1    4    4    0    0 -0.29024900938E+03  0.42294468048E+03 -0.30393201187E+03  0.59623935563E+03  0.10566000000E+00 0. -1.
         -4    1    4    4    0  501 -0.11493746842E+03 -0.54198676510E+03 -0.69796910746E+03  0.89113475421E+03  0.00000000000E+00 0. -1.
<mgrwt>
<rscale>  2 0.10902582E+04</rscale>
<asrwt>0</asrwt>
<pdfrwt beam="2">  1        2 0.46046978E+00 0.10902582E+04</pdfrwt>
<pdfrwt beam="1">  1       -2 0.63063510E-01 0.10902582E+04</pdfrwt>
<totfact> 0.63694792E+00</totfact>
</mgrwt>
</event>
<event>
 8    1  0.7046235E-006  0.1210532E+04  0.7818608E-02  0.8598674E-01
         -1   -1    0    0    0  501 -0.00000000000E+00  0.00000000000E+00  0.95847758195E+03  0.95847758195E+03  0.00000000000E+00 0. -1.
          1   -1    0    0  502    0  0.00000000000E+00 -0.00000000000E+00 -0.15642003510E+04  0.15642003510E+04  0.00000000000E+00 0.  1.
    9000010    2    1    2  502    0  0.85314642737E+02  0.66571944669E+03 -0.49264493733E+03  0.13077705495E+04  0.10085156449E+04 0.  0.
   -9000010    2    1    2    0  501 -0.85314642737E+02 -0.66571944669E+03 -0.11307783172E+03  0.12149073834E+04  0.10063559928E+04 0.  0.
        -13    1    3    3    0    0 -0.97109535761E+02  0.13172455489E+03 -0.69062743779E+03  0.70975199140E+03  0.10566000000E+00 0.  1.
          4    1    3    3  502    0  0.18242417850E+03  0.53399489181E+03  0.19798250046E+03  0.59801855813E+03  0.00000000000E+00 0.  1.
         13    1    4    4    0    0  0.27140356522E+03  0.96694184294E+02  0.16053036493E+03  0.32981763100E+03  0.10566000000E+00 0. -1.
         -4    1    4    4    0  501 -0.35671820795E+03 -0.76241363099E+03 -0.27360819664E+03  0.88508975244E+03  0.00000000000E+00 0. -1.
<mgrwt>
<rscale>  2 0.12105319E+04</rscale>
<asrwt>0</asrwt>
<pdfrwt beam="2">  1        1 0.24064621E+00 0.12105319E+04</pdfrwt>
<pdfrwt beam="1">  1       -1 0.14745809E+00 0.12105319E+04</pdfrwt>
<totfact> 0.30245030E+00</totfact>
</mgrwt>
</event>
<event>
 8    1  0.7046235E-006  0.1136060E+04  0.7818608E-02  0.8656332E-01
         -1   -1    0    0    0  501 -0.00000000000E+00  0.00000000000E+00  0.56863220814E+03  0.56863220814E+03  0.00000000000E+00 0. -1.
          1   -1    0    0  502    0  0.00000000000E+00 -0.00000000000E+00 -0.23366817133E+04  0.23366817133E+04  0.00000000000E+00 0.  1.
    9000010    2    1    2  502    0 -0.96843964380E+02 -0.54085398070E+03 -0.63029181923E+03  0.12897619510E+04  0.98199609517E+03 0.  0.
   -9000010    2    1    2    0  501  0.96843964380E+02  0.54085398070E+03 -0.11377576860E+04  0.16155519705E+04  0.10067839071E+04 0.  0.
        -13    1    3    3    0    0 -0.37848265050E+03 -0.53016669256E+03 -0.60662971198E+02  0.65422155717E+03  0.10566000000E+00 0.  1.
          4    1    3    3  502    0  0.28163868612E+03 -0.10687288134E+02 -0.56962884803E+03  0.63554039380E+03  0.00000000000E+00 0.  1.
         13    1    4    4    0    0  0.28189831766E+03  0.64536889349E+03 -0.32528729907E+03  0.77574448647E+03  0.10566000000E+00 0. -1.
         -4    1    4    4    0  501 -0.18505435328E+03 -0.10451491279E+03 -0.81247038689E+03  0.83980748404E+03  0.00000000000E+00 0. -1.
<mgrwt>
<rscale>  2 0.11360596E+04</rscale>
<asrwt>0</asrwt>
<pdfrwt beam="2">  1        1 0.35948949E+00 0.11360596E+04</pdfrwt>
<pdfrwt beam="1">  1       -1 0.87481880E-01 0.11360596E+04</pdfrwt>
<totfact> 0.27149971E+00</totfact>
</mgrwt>
</event>
<event>
 8    1  0.7046235E-006  0.1075434E+04  0.7818608E-02  0.8706774E-01
          2   -1    0    0  502    0  0.00000000000E+00  0.00000000000E+00  0.13779709341E+04  0.13779709341E+04  0.00000000000E+00 0.  1.
         -2   -1    0    0    0  501 -0.00000000000E+00 -0.00000000000E+00 -0.12672233272E+04  0.12672233272E+04  0.00000000000E+00 0. -1.
    9000010    2    1    2  502    0 -0.43003590968E+03 -0.71120080257E+02  0.82425456824E+03  0.13729549524E+04  0.10077801142E+04 0.  0.
   -9000010    2    1    2    0  501  0.43003590968E+03  0.71120080257E+02 -0.71350696140E+03  0.12722393089E+04  0.95891174033E+03 0.  0.
        -13    1    3    3    0    0 -0.47153356732E+03 -0.20936327952E+03 -0.20136788070E+02  0.51631617186E+03  0.10566000000E+00 0.  1.
          4    1    3    3  502    0  0.41497657647E+02  0.13824319926E+03  0.84439135631E+03  0.85663878055E+03  0.00000000000E+00 0.  1.
         13    1    4    4    0    0 -0.92608171367E+02  0.22457799452E+03  0.12433775647E+03  0.27289455450E+03  0.10566000000E+00 0. -1.
         -4    1    4    4    0  501  0.52264408104E+03 -0.15345791426E+03 -0.83784471787E+03  0.99934475441E+03  0.00000000000E+00 0. -1.
<mgrwt>
<rscale>  2 0.10754335E+04</rscale>
<asrwt>0</asrwt>
<pdfrwt beam="1">  1        2 0.21199553E+00 0.10754335E+04</pdfrwt>
<pdfrwt beam="2">  1       -2 0.19495744E+00 0.10754335E+04</pdfrwt>
<totfact> 0.25937238E+00</totfact>
</mgrwt>
</event>
<event>
 8    1  0.7046235E-006  0.1052883E+04  0.7818608E-02  0.8726429E-01
          2   -1    0    0  502    0  0.00000000000E+00  0.00000000000E+00  0.20637307388E+04  0.20637307388E+04  0.00000000000E+00 0.  1.
         -2   -1    0    0    0  501 -0.00000000000E+00 -0.00000000000E+00 -0.60385848213E+03  0.60385848213E+03  0.00000000000E+00 0. -1.
    9000010    2    1    2  502    0 -0.11081346006E+03  0.44983127871E+03  0.32128909331E+03  0.11489399776E+04  0.10011036851E+04 0.  0.
   -9000010    2    1    2    0  501  0.11081346006E+03 -0.44983127871E+03  0.11385831634E+04  0.15186492434E+04  0.89179375540E+03 0.  0.
        -13    1    3    3    0    0  0.14075480933E+03 -0.32315729772E+02  0.54283234984E+03  0.56171451284E+03  0.10566000000E+00 0.  1.
          4    1    3    3  502    0 -0.25156826939E+03  0.48214700848E+03 -0.22154325652E+03  0.58722546476E+03  0.00000000000E+00 0.  1.
         13    1    4    4    0    0  0.45257666762E+03 -0.10511521272E+03  0.80565727370E+03  0.93003145207E+03  0.10566000000E+00 0. -1.
         -4    1    4    4    0  501 -0.34176320756E+03 -0.34471606599E+03  0.33292588971E+03  0.58861779130E+03  0.00000000000E+00 0. -1.
<mgrwt>
<rscale>  2 0.10528832E+04</rscale>
<asrwt>0</asrwt>
<pdfrwt beam="1">  1        2 0.31749703E+00 0.10528832E+04</pdfrwt>
<pdfrwt beam="2">  1       -2 0.92901306E-01 0.10528832E+04</pdfrwt>
<totfact> 0.93424766E+00</totfact>
</mgrwt>
</event>
<event>
 8    1  0.7046235E-006  0.1181163E+04  0.7818608E-02  0.8620883E-01
         -2   -1    0    0    0  501 -0.00000000000E+00  0.00000000000E+00  0.90914648294E+03  0.90914648294E+03  0.00000000000E+00 0. -1.
          2   -1    0    0  502    0  0.00000000000E+00 -0.00000000000E+00 -0.16339109881E+04  0.16339109881E+04  0.00000000000E+00 0.  1.
    9000010    2    1    2  502    0 -0.84260267982E+02 -0.62523944204E+03 -0.49001826301E+02  0.11827033424E+04  0.99918059656E+03 0.  0.
   -9000010    2    1    2    0  501  0.84260267982E+02  0.62523944204E+03 -0.67576267884E+03  0.13603541286E+04  0.99793988020E+03 0.  0.
        -13    1    3    3    0    0 -0.53488021790E+03 -0.44400382335E+03 -0.69577227791E+01  0.69518678333E+03  0.10566000000E+00 0.  1.
          4    1    3    3  502    0  0.45061994991E+03 -0.18123561869E+03 -0.42044103522E+02  0.48751655909E+03  0.00000000000E+00 0.  1.
         13    1    4    4    0    0  0.32457306542E+03 -0.64764991411E+02  0.45007691226E+02  0.33401778747E+03  0.10566000000E+00 0. -1.
         -4    1    4    4    0  501 -0.24031279744E+03  0.69000443345E+03 -0.72077037007E+03  0.10263363411E+04  0.00000000000E+00 0. -1.
<mgrwt>
<rscale>  2 0.11811632E+04</rscale>
<asrwt>0</asrwt>
<pdfrwt beam="2">  1        2 0.25137092E+00 0.11811632E+04</pdfrwt>
<pdfrwt beam="1">  1       -2 0.13986869E+00 0.11811632E+04</pdfrwt>
<totfact> 0.54849523E+00</totfact>
</mgrwt>
</event>
<event>
 8    1  0.7046235E-006  0.1333954E+04  0.7818608E-02  0.8511988E-01
         -2   -1    0    0    0  501 -0.00000000000E+00  0.00000000000E+00  0.93339618651E+03  0.93339618651E+03  0.00000000000E+00 0. -1.
          2   -1    0    0  502    0  0.00000000000E+00 -0.00000000000E+00 -0.21906619455E+04  0.21906619455E+04  0.00000000000E+00 0.  1.
    9000010    2    1    2  502    0 -0.77857518218E+03  0.38224688161E+03 -0.11911183129E+04  0.17880094669E+04  0.10128785839E+04 0.  0.
   -9000010    2    1    2    0  501  0.77857518218E+03 -0.38224688161E+03 -0.66147446026E+02  0.13360486650E+04  0.10140801536E+04 0.  0.
        -13    1    3    3    0    0 -0.21299520933E+03  0.22332457001E+03 -0.11592901226E+04  0.11996642957E+04  0.10566000000E+00 0.  1.
          4    1    3    3  502    0 -0.56557997285E+03  0.15892231160E+03 -0.31828190270E+02  0.58834517123E+03  0.00000000000E+00 0.  1.
         13    1    4    4    0    0  0.65786063423E+03  0.23964818560E+03 -0.12264658640E+02  0.70025873786E+03  0.10566000000E+00 0. -1.
         -4    1    4    4    0  501  0.12071454795E+03 -0.62189506722E+03 -0.53882787386E+02  0.63578992717E+03  0.00000000000E+00 0. -1.
<mgrwt>
<rscale>  2 0.13339537E+04</rscale>
<asrwt>0</asrwt>
<pdfrwt beam="2">  1        2 0.33702491E+00 0.13339537E+04</pdfrwt>
<pdfrwt beam="1">  1       -2 0.14359942E+00 0.13339537E+04</pdfrwt>
<totfact> 0.24816237E+00</totfact>
</mgrwt>
</event>
<event>
 8    1  0.7046235E-006  0.1371957E+04  0.7818608E-02  0.8487228E-01
          2   -1    0    0  502    0  0.00000000000E+00  0.00000000000E+00  0.15949390191E+04  0.15949390191E+04  0.00000000000E+00 0. -1.
         -2   -1    0    0    0  501 -0.00000000000E+00 -0.00000000000E+00 -0.16982823993E+04  0.16982823993E+04  0.00000000000E+00 0.  1.
    9000010    2    1    2  502    0 -0.11090387567E+03  0.96582938804E+03  0.85806823771E+03  0.16055726683E+04  0.94681382338E+03 0.  0.
   -9000010    2    1    2    0  501  0.11090387567E+03 -0.96582938804E+03 -0.96141161788E+03  0.16876487501E+04  0.98930274852E+03 0.  0.
        -13    1    3    3    0    0  0.91903442884E+02  0.11050016673E+04  0.73715765826E+03  0.13314940300E+04  0.10566000000E+00 0.  1.
          4    1    3    3  502    0 -0.20280731855E+03 -0.13917227924E+03  0.12091057945E+03  0.27407863833E+03  0.00000000000E+00 0.  1.
         13    1    4    4    0    0 -0.98954916644E+02 -0.56365987678E+03 -0.10769284630E+04  0.12195406749E+04  0.10566000000E+00 0. -1.
         -4    1    4    4    0  501  0.20985879231E+03 -0.40216951126E+03  0.11551684514E+03  0.46810807514E+03  0.00000000000E+00 0. -1.
<mgrwt>
<rscale>  2 0.13719566E+04</rscale>
<asrwt>0</asrwt>
<pdfrwt beam="1">  1        2 0.24537523E+00 0.13719566E+04</pdfrwt>
<pdfrwt beam="2">  1       -2 0.26127421E+00 0.13719566E+04</pdfrwt>
<totfact> 0.56225376E-01</totfact>
</mgrwt>
</event>
<event>
 8    1  0.7046235E-006  0.1698855E+04  0.7818608E-02  0.8303429E-01
          1   -1    0    0  502    0  0.00000000000E+00  0.00000000000E+00  0.10902141264E+04  0.10902141264E+04  0.00000000000E+00 0.  1.
         -1   -1    0    0    0  501 -0.00000000000E+00 -0.00000000000E+00 -0.28798957974E+04  0.28798957974E+04  0.00000000000E+00 0. -1.
    9000010    2    1    2  502    0  0.44231413558E+03 -0.13029347932E+04 -0.33461496049E+03  0.17393239884E+04  0.10099504420E+04 0.  0.
   -9000010    2    1    2    0  501 -0.44231413558E+03  0.13029347932E+04 -0.14550667105E+04  0.22307859353E+04  0.98280511169E+03 0.  0.
        -13    1    3    3    0    0  0.20644478054E+03 -0.13818130239E+04 -0.44628429313E+03  0.14666957291E+04  0.10566000000E+00 0.  1.
          4    1    3    3  502    0  0.23586935504E+03  0.78878230710E+02  0.11166933264E+03  0.27262825932E+03  0.00000000000E+00 0.  1.
         13    1    4    4    0    0 -0.41013937964E+03  0.68316200720E+03 -0.18621348633E+03  0.81829097054E+03  0.10566000000E+00 0. -1.
         -4    1    4    4    0  501 -0.32174755941E+02  0.61977278597E+03 -0.12688532241E+04  0.14124949648E+04  0.00000000000E+00 0. -1.
<mgrwt>
<rscale>  2 0.16988546E+04</rscale>
<asrwt>0</asrwt>
<pdfrwt beam="1">  1        1 0.16772525E+00 0.16988546E+04</pdfrwt>
<pdfrwt beam="2">  1       -1 0.44306090E+00 0.16988546E+04</pdfrwt>
<totfact> 0.18530155E-01</totfact>
</mgrwt>
</event>
<event>
 8    1  0.7046235E-006  0.1291573E+04  0.7818608E-02  0.8540622E-01
          2   -1    0    0  502    0  0.00000000000E+00  0.00000000000E+00  0.29144212269E+04  0.29144212269E+04  0.00000000000E+00 0. -1.
         -2   -1    0    0    0  501 -0.00000000000E+00 -0.00000000000E+00 -0.60310189147E+03  0.60310189147E+03  0.00000000000E+00 0.  1.
    9000010    2    1    2  502    0  0.44417564584E+03  0.71191830265E+03  0.76759928069E+03  0.15112422811E+04  0.99525117551E+03 0.  0.
   -9000010    2    1    2    0  501 -0.44417564584E+03 -0.71191830265E+03  0.15437200547E+04  0.20062808373E+04  0.96848929614E+03 0.  0.
        -13    1    3    3    0    0  0.39073208680E+03 -0.12963461080E+03  0.45069432299E+03  0.61041140218E+03  0.10566000000E+00 0.  1.
          4    1    3    3  502    0  0.53443559035E+02  0.84155291345E+03  0.31690495771E+03  0.90083087888E+03  0.00000000000E+00 0.  1.
         13    1    4    4    0    0  0.11930009808E+03 -0.55746148533E+03  0.32863453323E+03  0.65802468694E+03  0.10566000000E+00 0. -1.
         -4    1    4    4    0  501 -0.56347574392E+03 -0.15445681731E+03  0.12150855215E+04  0.13482561504E+04  0.00000000000E+00 0. -1.
<mgrwt>
<rscale>  2 0.12915730E+04</rscale>
<asrwt>0</asrwt>
<pdfrwt beam="1">  1        2 0.44837249E+00 0.12915730E+04</pdfrwt>
<pdfrwt beam="2">  1       -2 0.92784908E-01 0.12915730E+04</pdfrwt>
<totfact> 0.30063293E+00</totfact>
</mgrwt>
</event>
<event>
 8    1  0.7046235E-006  0.1104916E+04  0.7818608E-02  0.8681823E-01
         -2   -1    0    0    0  501 -0.00000000000E+00  0.00000000000E+00  0.60756696156E+03  0.60756696156E+03  0.00000000000E+00 0.  1.
          2   -1    0    0  502    0  0.00000000000E+00 -0.00000000000E+00 -0.20308959037E+04  0.20308959037E+04  0.00000000000E+00 0. -1.
    9000010    2    1    2  502    0  0.25036977460E+03 -0.45869641875E+03 -0.59517958309E+03  0.12773526809E+04  0.10021495431E+04 0.  0.
   -9000010    2    1    2    0  501 -0.25036977460E+03  0.45869641875E+03 -0.82814935910E+03  0.13611101844E+04  0.94535820960E+03 0.  0.
        -13    1    3    3    0    0 -0.13406712959E+03  0.11688921487E+03  0.16966478314E+03  0.24581137807E+03  0.10566000000E+00 0.  1.
          4    1    3    3  502    0  0.38443690419E+03 -0.57558563362E+03 -0.76484436622E+03  0.10315413028E+04  0.00000000000E+00 0.  1.
         13    1    4    4    0    0 -0.57052650647E+03  0.24547159586E+03 -0.74068605860E+03  0.96662952962E+03  0.10566000000E+00 0. -1.
         -4    1    4    4    0  501  0.32015673187E+03  0.21322482288E+03 -0.87463300501E+02  0.39448065477E+03  0.00000000000E+00 0. -1.
<mgrwt>
<rscale>  2 0.11049156E+04</rscale>
<asrwt>0</asrwt>
<pdfrwt beam="2">  1        2 0.31244552E+00 0.11049156E+04</pdfrwt>
<pdfrwt beam="1">  1       -2 0.93471840E-01 0.11049156E+04</pdfrwt>
<totfact> 0.95401612E+00</totfact>
</mgrwt>
</event>
<event>
 8    1  0.7046235E-006  0.1843588E+04  0.7818608E-02  0.8235229E-01
         -1   -1    0    0    0  501 -0.00000000000E+00  0.00000000000E+00  0.27700754586E+04  0.27700754586E+04  0.00000000000E+00 0.  1.
          1   -1    0    0  502    0  0.00000000000E+00 -0.00000000000E+00 -0.12290726982E+04  0.12290726982E+04  0.00000000000E+00 0. -1.
    9000010    2    1    2  502    0 -0.10240504585E+04 -0.11311795562E+04  0.84824264516E+03  0.20203640670E+04  0.10169114260E+04 0.  0.
   -9000010    2    1    2    0  501  0.10240504585E+04  0.11311795562E+04  0.69276011526E+03  0.19787840898E+04  0.10523418489E+04 0.  0.
        -13    1    3    3    0    0 -0.12185839636E+04 -0.83773781563E+03  0.72864772477E+03  0.16485384564E+04  0.10566000000E+00 0.  1.
          4    1    3    3  502    0  0.19453350515E+03 -0.29344174056E+03  0.11959492039E+03  0.37182561062E+03  0.00000000000E+00 0.  1.
         13    1    4    4    0    0  0.47857995184E+03 -0.27588475970E+02 -0.75519354585E+02  0.48528659408E+03  0.10566000000E+00 0. -1.
         -4    1    4    4    0  501  0.54547050664E+03  0.11587680322E+04  0.76827946985E+03  0.14934974957E+04  0.00000000000E+00 0. -1.
<mgrwt>
<rscale>  2 0.18435875E+04</rscale>
<asrwt>0</asrwt>
<pdfrwt beam="2">  1        1 0.18908811E+00 0.18435875E+04</pdfrwt>
<pdfrwt beam="1">  1       -1 0.42616545E+00 0.18435875E+04</pdfrwt>
<totfact> 0.14702533E-01</totfact>
</mgrwt>
</event>
<event>
 8    1  0.7046235E-006  0.1137509E+04  0.7818608E-02  0.8655166E-01
          2   -1    0    0  502    0  0.00000000000E+00  0.00000000000E+00  0.30746279573E+04  0.30746279573E+04  0.00000000000E+00 0. -1.
         -2   -1    0    0    0  501 -0.00000000000E+00 -0.00000000000E+00 -0.42248104288E+03  0.42248104288E+03  0.00000000000E+00 0.  1.
    9000010    2    1    2  502    0 -0.17087559646E+03  0.43798131073E+03  0.14579328779E+04  0.18851965210E+04  0.10988045997E+04 0.  0.
   -9000010    2    1    2    0  501  0.17087559646E+03 -0.43798131073E+03  0.11942140364E+04  0.16119124791E+04  0.97523770305E+03 0.  0.
        -13    1    3    3    0    0 -0.53684411004E+03  0.59068569444E+03  0.99721844648E+03  0.12773236979E+04  0.10566000000E+00 0.  1.
          4    1    3    3  502    0  0.36596851358E+03 -0.15270438370E+03  0.46071443145E+03  0.60787282312E+03  0.00000000000E+00 0.  1.
         13    1    4    4    0    0  0.49307612068E+03 -0.43063156839E+03  0.10930956077E+04  0.12741372089E+04  0.10566000000E+00 0. -1.
         -4    1    4    4    0  501 -0.32220052422E+03 -0.73497423430E+01  0.10111842878E+03  0.33777527020E+03  0.00000000000E+00 0. -1.
<mgrwt>
<rscale>  2 0.11375089E+04</rscale>
<asrwt>0</asrwt>
<pdfrwt beam="1">  1        2 0.47301967E+00 0.11375089E+04</pdfrwt>
<pdfrwt beam="2">  1       -2 0.64997086E-01 0.11375089E+04</pdfrwt>
<totfact> 0.52960162E+00</totfact>
</mgrwt>
</event>
<event>
 8    1  0.7046235E-006  0.1352072E+04  0.7818608E-02  0.8500079E-01
          4   -1    0    0  502    0  0.00000000000E+00  0.00000000000E+00  0.11062847626E+04  0.11062847626E+04  0.00000000000E+00 0.  1.
         -4   -1    0    0    0  501 -0.00000000000E+00 -0.00000000000E+00 -0.16805598771E+04  0.16805598771E+04  0.00000000000E+00 0. -1.
    9000010    2    1    2  502    0  0.69546297588E+03  0.17296221472E+03 -0.12507370690E+03  0.12508784979E+04  0.10175799260E+04 0.  0.
   -9000010    2    1    2    0  501 -0.69546297588E+03 -0.17296221472E+03 -0.44920140760E+03  0.15359661418E+04  0.12821175475E+04 0.  0.
        -13    1    3    3    0    0  0.14916410657E+03  0.54248091993E+03  0.60168006696E+02  0.56582301064E+03  0.10566000000E+00 0.  1.
          4    1    3    3  502    0  0.54629886930E+03 -0.36951870521E+03 -0.18524171360E+03  0.68505548721E+03  0.00000000000E+00 0.  1.
         13    1    4    4    0    0 -0.10232475668E+04 -0.31454792916E+03 -0.17264980912E+03  0.10843357185E+04  0.10566000000E+00 0. -1.
         -4    1    4    4    0  501  0.32778459094E+03  0.14158571444E+03 -0.27655159848E+03  0.45163042326E+03  0.00000000000E+00 0. -1.
<mgrwt>
<rscale>  2 0.13520719E+04</rscale>
<asrwt>0</asrwt>
<pdfrwt beam="1">  1        4 0.17019766E+00 0.13520719E+04</pdfrwt>
<pdfrwt beam="2">  1       -4 0.25854767E+00 0.13520719E+04</pdfrwt>
<totfact> 0.15958386E-01</totfact>
</mgrwt>
</event>
<event>
 8    1  0.7046235E-006  0.1128821E+04  0.7818608E-02  0.8662180E-01
         -2   -1    0    0    0  501 -0.00000000000E+00  0.00000000000E+00  0.54966422149E+03  0.54966422149E+03  0.00000000000E+00 0. -1.
          2   -1    0    0  502    0  0.00000000000E+00 -0.00000000000E+00 -0.23549262356E+04  0.23549262356E+04  0.00000000000E+00 0.  1.
    9000010    2    1    2  502    0  0.56437196630E+03 -0.16115247205E+02 -0.10671329797E+04  0.15395803701E+04  0.95538447874E+03 0.  0.
   -9000010    2    1    2    0  501 -0.56437196630E+03  0.16115247205E+02 -0.73812903438E+03  0.13650100869E+04  0.99982130826E+03 0.  0.
        -13    1    3    3    0    0  0.19897481528E+03 -0.10363056436E+03 -0.11356980255E+04  0.11576442836E+04  0.10566000000E+00 0.  1.
          4    1    3    3  502    0  0.36539715102E+03  0.87515317157E+02  0.68565045817E+02  0.38193608656E+03  0.00000000000E+00 0.  1.
         13    1    4    4    0    0 -0.25524577290E+03 -0.29012964735E+03  0.11850921829E+03  0.40419062686E+03  0.10566000000E+00 0. -1.
         -4    1    4    4    0  501 -0.30912619340E+03  0.30624489456E+03 -0.85663825267E+03  0.96081946006E+03  0.00000000000E+00 0. -1.
<mgrwt>
<rscale>  2 0.11288207E+04</rscale>
<asrwt>0</asrwt>
<pdfrwt beam="2">  1        2 0.36229634E+00 0.11288207E+04</pdfrwt>
<pdfrwt beam="1">  1       -2 0.84563728E-01 0.11288207E+04</pdfrwt>
<totfact> 0.79638357E+00</totfact>
</mgrwt>
</event>
<event>
 8    1  0.7046235E-006  0.1425202E+04  0.7818608E-02  0.8453890E-01
         -4   -1    0    0    0  501 -0.00000000000E+00  0.00000000000E+00  0.15063977371E+04  0.15063977371E+04  0.00000000000E+00 0.  1.
          4   -1    0    0  502    0  0.00000000000E+00 -0.00000000000E+00 -0.23986327379E+04  0.23986327379E+04  0.00000000000E+00 0. -1.
    9000010    2    1    2  502    0 -0.47116121929E+03 -0.88124702790E+03  0.84356260628E+03  0.16670350251E+04  0.10338368757E+04 0.  0.
   -9000010    2    1    2    0  501  0.47116121929E+03  0.88124702790E+03 -0.17357976070E+04  0.22379954499E+04  0.99851944519E+03 0.  0.
        -13    1    3    3    0    0 -0.29996592392E+03 -0.91334024461E+03  0.10320283100E+04  0.14104085939E+04  0.10566000000E+00 0.  1.
          4    1    3    3  502    0 -0.17119529537E+03  0.32093216709E+02 -0.18846570373E+03  0.25662643122E+03  0.00000000000E+00 0.  1.
         13    1    4    4    0    0 -0.88966861596E+02  0.47145156773E+03 -0.13739377310E+04  0.14552960465E+04  0.10566000000E+00 0. -1.
         -4    1    4    4    0  501  0.56012808089E+03  0.40979546018E+03 -0.36185987604E+03  0.78269940339E+03  0.00000000000E+00 0. -1.
<mgrwt>
<rscale>  2 0.14252025E+04</rscale>
<asrwt>0</asrwt>
<pdfrwt beam="2">  1        4 0.36902042E+00 0.14252025E+04</pdfrwt>
<pdfrwt beam="1">  1       -4 0.23175350E+00 0.14252025E+04</pdfrwt>
<totfact> 0.50130937E-02</totfact>
</mgrwt>
</event>
<event>
 8    1  0.7046235E-006  0.1091192E+04  0.7818608E-02  0.8693336E-01
         -1   -1    0    0    0  501 -0.00000000000E+00  0.00000000000E+00  0.95187690412E+03  0.95187690412E+03  0.00000000000E+00 0. -1.
          1   -1    0    0  502    0  0.00000000000E+00 -0.00000000000E+00 -0.12696814403E+04  0.12696814403E+04  0.00000000000E+00 0.  1.
    9000010    2    1    2  502    0  0.38629160120E+03 -0.28990521399E+03 -0.29367063062E+03  0.11278633187E+04  0.97599538528E+03 0.  0.
   -9000010    2    1    2    0  501 -0.38629160120E+03  0.28990521399E+03 -0.24133905599E+02  0.10936950258E+04  0.98097916886E+03 0.  0.
        -13    1    3    3    0    0  0.62274028279E+03 -0.65682980379E+02  0.80888818276E+02  0.63139743886E+03  0.10566000000E+00 0.  1.
          4    1    3    3  502    0 -0.23644868158E+03 -0.22422223361E+03 -0.37455944889E+03  0.49646587982E+03  0.00000000000E+00 0.  1.
         13    1    4    4    0    0 -0.51208474861E+03  0.50321502126E+03 -0.24828898392E+03  0.75967333643E+03  0.10566000000E+00 0. -1.
         -4    1    4    4    0  501  0.12579314741E+03 -0.21330980727E+03  0.22415507832E+03  0.33402168934E+03  0.00000000000E+00 0. -1.
<mgrwt>
<rscale>  2 0.10911919E+04</rscale>
<asrwt>0</asrwt>
<pdfrwt beam="2">  1        1 0.19533561E+00 0.10911919E+04</pdfrwt>
<pdfrwt beam="1">  1       -1 0.14644260E+00 0.10911919E+04</pdfrwt>
<totfact> 0.52015230E+00</totfact>
</mgrwt>
</event>
<event>
 8    1  0.7046235E-006  0.1142526E+04  0.7818608E-02  0.8651146E-01
         -2   -1    0    0    0  501 -0.00000000000E+00  0.00000000000E+00  0.96674437238E+03  0.96674437238E+03  0.00000000000E+00 0. -1.
          2   -1    0    0  502    0  0.00000000000E+00 -0.00000000000E+00 -0.15875727040E+04  0.15875727040E+04  0.00000000000E+00 0.  1.
    9000010    2    1    2  502    0  0.28469710584E+03 -0.42343575218E+03  0.18268161564E+03  0.11599038503E+04  0.10255018728E+04 0.  0.
   -9000010    2    1    2    0  501 -0.28469710584E+03  0.42343575218E+03 -0.80350994723E+03  0.13944132260E+04  0.10190239110E+04 0.  0.
        -13    1    3    3    0    0  0.50118126537E+03 -0.19517618705E+03  0.48453870905E+03  0.72391586285E+03  0.10566000000E+00 0.  1.
          4    1    3    3  502    0 -0.21648415952E+03 -0.22825956512E+03 -0.30185709342E+03  0.43598798749E+03  0.00000000000E+00 0.  1.
         13    1    4    4    0    0 -0.59682625866E+02  0.71813460523E+03 -0.32884822735E+03  0.79209879109E+03  0.10566000000E+00 0. -1.
         -4    1    4    4    0  501 -0.22501447998E+03 -0.29469885305E+03 -0.47466171988E+03  0.60231443491E+03  0.00000000000E+00 0. -1.
<mgrwt>
<rscale>  2 0.11425259E+04</rscale>
<asrwt>0</asrwt>
<pdfrwt beam="2">  1        2 0.24424195E+00 0.11425259E+04</pdfrwt>
<pdfrwt beam="1">  1       -2 0.14872990E+00 0.11425259E+04</pdfrwt>
<totfact> 0.48666743E+00</totfact>
</mgrwt>
</event>
<event>
 8    1  0.7046235E-006  0.1275932E+04  0.7818608E-02  0.8551477E-01
         -1   -1    0    0    0  501 -0.00000000000E+00  0.00000000000E+00  0.13090463308E+04  0.13090463308E+04  0.00000000000E+00 0.  1.
          1   -1    0    0  502    0  0.00000000000E+00 -0.00000000000E+00 -0.14103845608E+04  0.14103845608E+04  0.00000000000E+00 0. -1.
    9000010    2    1    2  502    0  0.69311025409E+03  0.38654047003E+03  0.41691721446E+03  0.13398778852E+04  0.99580993379E+03 0.  0.
   -9000010    2    1    2    0  501 -0.69311025409E+03 -0.38654047003E+03 -0.51825544446E+03  0.13795530064E+04  0.10023783878E+04 0.  0.
        -13    1    3    3    0    0  0.19472048792E+03  0.55329061896E+03 -0.10875816531E+03  0.59655253510E+03  0.10566000000E+00 0.  1.
          4    1    3    3  502    0  0.49838976617E+03 -0.16675014894E+03  0.52567537977E+03  0.74332535010E+03  0.00000000000E+00 0.  1.
         13    1    4    4    0    0 -0.89296011143E+03 -0.11871453928E+03 -0.53001758768E+03  0.10451744146E+04  0.10566000000E+00 0. -1.
         -4    1    4    4    0  501  0.19984985734E+03 -0.26782593075E+03  0.11762143224E+02  0.33437859183E+03  0.00000000000E+00 0. -1.
<mgrwt>
<rscale>  2 0.12759318E+04</rscale>
<asrwt>0</asrwt>
<pdfrwt beam="2">  1        1 0.21698224E+00 0.12759318E+04</pdfrwt>
<pdfrwt beam="1">  1       -1 0.20139174E+00 0.12759318E+04</pdfrwt>
<totfact> 0.13193200E+00</totfact>
</mgrwt>
</event>
<event>
 8    1  0.7046235E-006  0.1075984E+04  0.7818608E-02  0.8706301E-01
         -1   -1    0    0    0  501 -0.00000000000E+00  0.00000000000E+00  0.67141504942E+03  0.67141504942E+03  0.00000000000E+00 0. -1.
          1   -1    0    0  502    0  0.00000000000E+00 -0.00000000000E+00 -0.17244350995E+04  0.17244350995E+04  0.00000000000E+00 0.  1.
    9000010    2    1    2  502    0 -0.39179497552E+03  0.49503171567E+02 -0.53596786418E+03  0.12022758965E+04  0.10011253233E+04 0.  0.
   -9000010    2    1    2    0  501  0.39179497552E+03 -0.49503171567E+02 -0.51705218595E+03  0.11935742525E+04  0.10006611147E+04 0.  0.
        -13    1    3    3    0    0 -0.16757608113E+03  0.21754739589E+03  0.24782714531E+03  0.36990122674E+03  0.10566000000E+00 0.  1.
          4    1    3    3  502    0 -0.22421889439E+03 -0.16804422432E+03 -0.78379500949E+03  0.83237466974E+03  0.00000000000E+00 0.  1.
         13    1    4    4    0    0 -0.31145265677E+03 -0.16657319199E+03 -0.97712203962E+02  0.36646564869E+03  0.10566000000E+00 0. -1.
         -4    1    4    4    0  501  0.70324763229E+03  0.11707002043E+03 -0.41933998198E+03  0.82710860381E+03  0.00000000000E+00 0. -1.
<mgrwt>
<rscale>  2 0.10759838E+04</rscale>
<asrwt>0</asrwt>
<pdfrwt beam="2">  1        1 0.26529771E+00 0.10759838E+04</pdfrwt>
<pdfrwt beam="1">  1       -1 0.10329462E+00 0.10759838E+04</pdfrwt>
<totfact> 0.57611813E+00</totfact>
</mgrwt>
</event>
<event>
 8    1  0.7046235E-006  0.1080900E+04  0.7818608E-02  0.8702085E-01
         -2   -1    0    0    0  501 -0.00000000000E+00  0.00000000000E+00  0.96154824689E+03  0.96154824689E+03  0.00000000000E+00 0. -1.
          2   -1    0    0  502    0  0.00000000000E+00 -0.00000000000E+00 -0.16899306197E+04  0.16899306197E+04  0.00000000000E+00 0.  1.
    9000010    2    1    2  502    0 -0.12912663193E+03 -0.41940664939E+03  0.34054791109E+03  0.11252527772E+04  0.97859353572E+03 0.  0.
   -9000010    2    1    2    0  501  0.12912663193E+03  0.41940664939E+03 -0.10689302839E+04  0.15262260894E+04  0.99708500114E+03 0.  0.
        -13    1    3    3    0    0 -0.30164743910E+03 -0.19200843784E+03  0.62641139081E+03  0.72128334198E+03  0.10566000000E+00 0.  1.
          4    1    3    3  502    0  0.17252080718E+03 -0.22739821156E+03 -0.28586347972E+03  0.40396943519E+03  0.00000000000E+00 0.  1.
         13    1    4    4    0    0  0.37805623148E+02 -0.13529234165E+03 -0.93872632288E+03  0.94917880469E+03  0.10566000000E+00 0. -1.
         -4    1    4    4    0  501  0.91321008779E+02  0.55469899104E+03 -0.13020396099E+03  0.57704728469E+03  0.00000000000E+00 0. -1.
<mgrwt>
<rscale>  2 0.10809000E+04</rscale>
<asrwt>0</asrwt>
<pdfrwt beam="2">  1        2 0.25998932E+00 0.10809000E+04</pdfrwt>
<pdfrwt beam="1">  1       -2 0.14793050E+00 0.10809000E+04</pdfrwt>
<totfact> 0.43842072E+00</totfact>
</mgrwt>
</event>
<event>
 8    1  0.7046235E-006  0.1267854E+04  0.7818608E-02  0.8557146E-01
          1   -1    0    0  502    0  0.00000000000E+00  0.00000000000E+00  0.33817661353E+04  0.33817661353E+04  0.00000000000E+00 0. -1.
         -1   -1    0    0    0  501 -0.00000000000E+00 -0.00000000000E+00 -0.47983413797E+03  0.47983413797E+03  0.00000000000E+00 0.  1.
    9000010    2    1    2  502    0  0.77634212046E+03  0.31836691506E+03  0.12328107284E+04  0.17446942760E+04  0.90557785086E+03 0.  0.
   -9000010    2    1    2    0  501 -0.77634212046E+03 -0.31836691506E+03  0.16691212689E+04  0.21169059973E+04  0.99562071612E+03 0.  0.
        -13    1    3    3    0    0  0.60428855868E+03 -0.16329105190E+03  0.33136981725E+03  0.70826167250E+03  0.10566000000E+00 0.  1.
          4    1    3    3  502    0  0.17205356178E+03  0.48165796696E+03  0.90144091115E+03  0.10364326035E+04  0.00000000000E+00 0.  1.
         13    1    4    4    0    0  0.22429841766E+03 -0.14501725969E+03  0.21300591116E+03  0.34163037793E+03  0.10566000000E+00 0. -1.
         -4    1    4    4    0  501 -0.10006405381E+04 -0.17334965537E+03  0.14561153578E+04  0.17752756194E+04  0.00000000000E+00 0. -1.
<mgrwt>
<rscale>  2 0.12678538E+04</rscale>
<asrwt>0</asrwt>
<pdfrwt beam="1">  1        1 0.52027170E+00 0.12678538E+04</pdfrwt>
<pdfrwt beam="2">  1       -1 0.73820639E-01 0.12678538E+04</pdfrwt>
<totfact> 0.30603966E-01</totfact>
</mgrwt>
</event>
<event>
 8    1  0.7046235E-006  0.1422531E+04  0.7818608E-02  0.8455526E-01
         -1   -1    0    0    0  501 -0.00000000000E+00  0.00000000000E+00  0.19802444860E+04  0.19802444860E+04  0.00000000000E+00 0.  1.
          1   -1    0    0  502    0  0.00000000000E+00 -0.00000000000E+00 -0.10298845749E+04  0.10298845749E+04  0.00000000000E+00 0. -1.
    9000010    2    1    2  502    0 -0.70413618432E+03  0.71494257272E+03  0.61038515349E+03  0.15561608602E+04  0.10208407999E+04 0.  0.
   -9000010    2    1    2    0  501  0.70413618432E+03 -0.71494257272E+03  0.33997475760E+03  0.14539682007E+04  0.99573593105E+03 0.  0.
        -13    1    3    3    0    0 -0.14365826671E+03  0.36733525237E+03  0.78098412217E+03  0.87493376634E+03  0.10566000000E+00 0.  1.
          4    1    3    3  502    0 -0.56047791760E+03  0.34760732035E+03 -0.17059896868E+03  0.68122709385E+03  0.00000000000E+00 0.  1.
         13    1    4    4    0    0  0.50204209165E+02 -0.74548011873E+03  0.87293644905E+02  0.75225079704E+03  0.10566000000E+00 0. -1.
         -4    1    4    4    0  501  0.65393197515E+03  0.30537546010E+02  0.25268111270E+03  0.70171740363E+03  0.00000000000E+00 0. -1.
<mgrwt>
<rscale>  2 0.14225313E+04</rscale>
<asrwt>0</asrwt>
<pdfrwt beam="2">  1        1 0.15844378E+00 0.14225313E+04</pdfrwt>
<pdfrwt beam="1">  1       -1 0.30465300E+00 0.14225313E+04</pdfrwt>
<totfact> 0.27439822E-01</totfact>
</mgrwt>
</event>
<event>
 8    1  0.7046235E-006  0.1114749E+04  0.7818608E-02  0.8673681E-01
         -2   -1    0    0    0  501 -0.00000000000E+00  0.00000000000E+00  0.40185893664E+03  0.40185893664E+03  0.00000000000E+00 0. -1.
          2   -1    0    0  502    0  0.00000000000E+00 -0.00000000000E+00 -0.31100994033E+04  0.31100994033E+04  0.00000000000E+00 0.  1.
    9000010    2    1    2  502    0  0.49987350625E+03 -0.10461673745E+03 -0.14704186024E+04  0.18377246493E+04  0.97687401248E+03 0.  0.
   -9000010    2    1    2    0  501 -0.49987350625E+03  0.10461673745E+03 -0.12378218643E+04  0.16742336907E+04  0.10050061191E+04 0.  0.
        -13    1    3    3    0    0 -0.56440268551E+02  0.32974067565E+03 -0.21548587773E+03  0.39793038557E+03  0.10566000000E+00 0.  1.
          4    1    3    3  502    0  0.55631377480E+03 -0.43435741310E+03 -0.12549327247E+04  0.14397942637E+04  0.00000000000E+00 0.  1.
         13    1    4    4    0    0 -0.48113770625E+03  0.42167592958E+03 -0.11926708446E+04  0.13534281794E+04  0.10566000000E+00 0. -1.
         -4    1    4    4    0  501 -0.18735800005E+02 -0.31705919213E+03 -0.45151019671E+02  0.32080551132E+03  0.00000000000E+00 0. -1.
<mgrwt>
<rscale>  2 0.11147491E+04</rscale>
<asrwt>0</asrwt>
<pdfrwt beam="2">  1        2 0.47847682E+00 0.11147491E+04</pdfrwt>
<pdfrwt beam="1">  1       -2 0.61824453E-01 0.11147491E+04</pdfrwt>
<totfact> 0.55902259E+00</totfact>
</mgrwt>
</event>
<event>
 8    1  0.7046235E-006  0.1123606E+04  0.7818608E-02  0.8666422E-01
         -2   -1    0    0    0  501 -0.00000000000E+00  0.00000000000E+00  0.11971320806E+04  0.11971320806E+04  0.00000000000E+00 0. -1.
          2   -1    0    0  502    0  0.00000000000E+00 -0.00000000000E+00 -0.10603094465E+04  0.10603094465E+04  0.00000000000E+00 0.  1.
    9000010    2    1    2  502    0  0.46434245057E+03 -0.28581946717E+03 -0.14382241757E+02  0.11246186102E+04  0.98349046273E+03 0.  0.
   -9000010    2    1    2    0  501 -0.46434245057E+03  0.28581946717E+03  0.15120487587E+03  0.11328229170E+04  0.98138584027E+03 0.  0.
        -13    1    3    3    0    0  0.69724822263E+03 -0.33112254908E+03  0.20801192438E+03  0.79941616090E+03  0.10566000000E+00 0.  1.
          4    1    3    3  502    0 -0.23290577205E+03  0.45303081906E+02 -0.22239416614E+03  0.32520244928E+03  0.00000000000E+00 0.  1.
         13    1    4    4    0    0  0.28585626881E+03  0.11053030268E+03 -0.10018358336E+03  0.32243994133E+03  0.10566000000E+00 0. -1.
         -4    1    4    4    0  501 -0.75019871938E+03  0.17528916449E+03  0.25138845923E+03  0.81038297563E+03  0.00000000000E+00 0. -1.
<mgrwt>
<rscale>  2 0.11236062E+04</rscale>
<asrwt>0</asrwt>
<pdfrwt beam="2">  1        2 0.16312453E+00 0.11236062E+04</pdfrwt>
<pdfrwt beam="1">  1       -2 0.18417417E+00 0.11236062E+04</pdfrwt>
<totfact> 0.48072746E+00</totfact>
</mgrwt>
</event>
<event>
 8    1  0.7046235E-006  0.1095120E+04  0.7818608E-02  0.8690023E-01
          2   -1    0    0  502    0  0.00000000000E+00  0.00000000000E+00  0.29644216202E+04  0.29644216202E+04  0.00000000000E+00 0.  1.
         -2   -1    0    0    0  501 -0.00000000000E+00 -0.00000000000E+00 -0.60788352358E+03  0.60788352358E+03  0.00000000000E+00 0. -1.
    9000010    2    1    2  502    0  0.40649783764E+03 -0.21035118371E+03  0.12672868723E+03  0.10758963897E+04  0.96540394064E+03 0.  0.
   -9000010    2    1    2    0  501 -0.40649783764E+03  0.21035118371E+03  0.22298094094E+04  0.24964087541E+04  0.10249480733E+04 0.  0.
        -13    1    3    3    0    0 -0.91857424312E+02 -0.46657021109E+03 -0.72807290000E+02  0.48106804188E+03  0.10566000000E+00 0.  1.
          4    1    3    3  502    0  0.49835526195E+03  0.25621902738E+03  0.19953597723E+03  0.59482834778E+03  0.00000000000E+00 0.  1.
         13    1    4    4    0    0 -0.44524033141E+03  0.44075126337E+03  0.66262876871E+03  0.91190872633E+03  0.10566000000E+00 0. -1.
         -4    1    4    4    0  501  0.38742493771E+02 -0.23040007965E+03  0.15671806407E+04  0.15845000278E+04  0.00000000000E+00 0. -1.
<mgrwt>
<rscale>  2 0.10951195E+04</rscale>
<asrwt>0</asrwt>
<pdfrwt beam="1">  1        2 0.45606486E+00 0.10951195E+04</pdfrwt>
<pdfrwt beam="2">  1       -2 0.93520544E-01 0.10951195E+04</pdfrwt>
<totfact> 0.28204377E+00</totfact>
</mgrwt>
</event>
<event>
 8    1  0.7046235E-006  0.1352438E+04  0.7818608E-02  0.8499841E-01
          1   -1    0    0  502    0  0.00000000000E+00  0.00000000000E+00  0.20307115817E+04  0.20307115817E+04  0.00000000000E+00 0.  1.
         -1   -1    0    0    0  501 -0.00000000000E+00 -0.00000000000E+00 -0.91406545042E+03  0.91406545042E+03  0.00000000000E+00 0. -1.
    9000010    2    1    2  502    0  0.75411415431E+03 -0.40704040759E+03  0.73733163363E+03  0.15426874603E+04  0.10496935797E+04 0.  0.
   -9000010    2    1    2    0  501 -0.75411415431E+03  0.40704040759E+03  0.37931449760E+03  0.14020895718E+04  0.10428833242E+04 0.  0.
        -13    1    3    3    0    0  0.75483600233E+03 -0.40996505056E+02  0.42268314927E+02  0.75712926601E+03  0.10566000000E+00 0.  1.
          4    1    3    3  502    0 -0.72184802315E+00 -0.36604390253E+03  0.69506331871E+03  0.78555819431E+03  0.00000000000E+00 0.  1.
         13    1    4    4    0    0 -0.33970681184E+02  0.46479051253E+03 -0.16835940962E+03  0.49550896025E+03  0.10566000000E+00 0. -1.
         -4    1    4    4    0  501 -0.72014347312E+03 -0.57750104943E+02  0.54767390722E+03  0.90658061150E+03  0.00000000000E+00 0. -1.
<mgrwt>
<rscale>  2 0.13524375E+04</rscale>
<asrwt>0</asrwt>
<pdfrwt beam="1">  1        1 0.31241717E+00 0.13524375E+04</pdfrwt>
<pdfrwt beam="2">  1       -1 0.14062545E+00 0.13524375E+04</pdfrwt>
<totfact> 0.15204408E+00</totfact>
</mgrwt>
</event>
<event>
 8    1  0.7046235E-006  0.1462326E+04  0.7818608E-02  0.8431517E-01
         -2   -1    0    0    0  501 -0.00000000000E+00  0.00000000000E+00  0.70922944023E+03  0.70922944023E+03  0.00000000000E+00 0.  1.
          2   -1    0    0  502    0  0.00000000000E+00 -0.00000000000E+00 -0.40603407102E+04  0.40603407102E+04  0.00000000000E+00 0. -1.
    9000010    2    1    2  502    0 -0.21293873496E+03  0.10818863733E+04 -0.29142107158E+04  0.32766525676E+04  0.10139067626E+04 0.  0.
   -9000010    2    1    2    0  501  0.21293873496E+03 -0.10818863733E+04 -0.43690055413E+03  0.14929175828E+04  0.90669718497E+03 0.  0.
        -13    1    3    3    0    0 -0.29462491308E+03  0.61460540132E+03 -0.58068254363E+03  0.89539704399E+03  0.10566000000E+00 0.  1.
          4    1    3    3  502    0  0.81686178115E+02  0.46728097198E+03 -0.23335281722E+04  0.23812555236E+04  0.00000000000E+00 0.  1.
         13    1    4    4    0    0 -0.13154461981E+03 -0.13305721121E+03  0.21981691424E+03  0.28866536925E+03  0.10566000000E+00 0. -1.
         -4    1    4    4    0  501  0.34448335477E+03 -0.94882916210E+03 -0.65671746837E+03  0.12042522135E+04  0.00000000000E+00 0. -1.
<mgrwt>
<rscale>  2 0.14623260E+04</rscale>
<asrwt>0</asrwt>
<pdfrwt beam="2">  1        2 0.62466778E+00 0.14623260E+04</pdfrwt>
<pdfrwt beam="1">  1       -2 0.10911222E+00 0.14623260E+04</pdfrwt>
<totfact> 0.28205669E-01</totfact>
</mgrwt>
</event>
<event>
 8    1  0.7046235E-006  0.1235905E+04  0.7818608E-02  0.8580005E-01
         -2   -1    0    0    0  501 -0.00000000000E+00  0.00000000000E+00  0.87485843083E+03  0.87485843083E+03  0.00000000000E+00 0.  1.
          2   -1    0    0  502    0  0.00000000000E+00 -0.00000000000E+00 -0.22363943750E+04  0.22363943750E+04  0.00000000000E+00 0. -1.
    9000010    2    1    2  502    0 -0.21326169662E+03 -0.74338809253E+03 -0.14218220157E+04  0.19050406285E+04  0.10047365549E+04 0.  0.
   -9000010    2    1    2    0  501  0.21326169662E+03  0.74338809253E+03  0.60286071600E+02  0.12062121772E+04  0.92369204756E+03 0.  0.
        -13    1    3    3    0    0 -0.37329176880E+03 -0.16769695530E+03 -0.11996907574E+04  0.12675673307E+04  0.10566000000E+00 0.  1.
          4    1    3    3  502    0  0.16003007218E+03 -0.57569113723E+03 -0.22213125834E+03  0.63747329781E+03  0.00000000000E+00 0.  1.
         13    1    4    4    0    0 -0.69597921368E+01  0.24768528285E+03  0.46671982553E+03  0.52841635550E+03  0.10566000000E+00 0. -1.
         -4    1    4    4    0  501  0.22022148876E+03  0.49570280967E+03 -0.40643375393E+03  0.67779582174E+03  0.00000000000E+00 0. -1.
<mgrwt>
<rscale>  2 0.12359046E+04</rscale>
<asrwt>0</asrwt>
<pdfrwt beam="2">  1        2 0.34406067E+00 0.12359046E+04</pdfrwt>
<pdfrwt beam="1">  1       -2 0.13459361E+00 0.12359046E+04</pdfrwt>
<totfact> 0.28568915E+00</totfact>
</mgrwt>
</event>
<event>
 8    1  0.7046235E-006  0.1316828E+04  0.7818608E-02  0.8523425E-01
          1   -1    0    0  502    0  0.00000000000E+00  0.00000000000E+00  0.12934201347E+04  0.12934201347E+04  0.00000000000E+00 0.  1.
         -1   -1    0    0    0  501 -0.00000000000E+00 -0.00000000000E+00 -0.13512380491E+04  0.13512380491E+04  0.00000000000E+00 0. -1.
    9000010    2    1    2  502    0  0.12614225925E+03  0.70828677965E+03  0.62652344505E+02  0.13908053505E+04  0.11886261712E+04 0.  0.
   -9000010    2    1    2    0  501 -0.12614225925E+03 -0.70828677965E+03 -0.12047025890E+03  0.12538528332E+04  0.10198293055E+04 0.  0.
        -13    1    3    3    0    0 -0.51480891798E+03  0.17736080421E+03  0.11632021002E+03  0.55679033695E+03  0.10566000000E+00 0.  1.
          4    1    3    3  502    0  0.64095117723E+03  0.53092597544E+03 -0.53667865511E+02  0.83401501352E+03  0.00000000000E+00 0.  1.
         13    1    4    4    0    0 -0.46951863253E+03 -0.10059737692E+02 -0.31322304227E+02  0.47066978076E+03  0.10566000000E+00 0. -1.
         -4    1    4    4    0  501  0.34337637329E+03 -0.69822704196E+03 -0.89147954671E+02  0.78318305247E+03  0.00000000000E+00 0. -1.
<mgrwt>
<rscale>  2 0.13168277E+04</rscale>
<asrwt>0</asrwt>
<pdfrwt beam="1">  1        1 0.19898771E+00 0.13168277E+04</pdfrwt>
<pdfrwt beam="2">  1       -1 0.20788278E+00 0.13168277E+04</pdfrwt>
<totfact> 0.14037932E+00</totfact>
</mgrwt>
</event>
<event>
 8    1  0.7046235E-006  0.1545061E+04  0.7818608E-02  0.8384028E-01
         -2   -1    0    0    0  501 -0.00000000000E+00  0.00000000000E+00  0.94588517810E+03  0.94588517810E+03  0.00000000000E+00 0.  1.
          2   -1    0    0  502    0  0.00000000000E+00 -0.00000000000E+00 -0.26173056545E+04  0.26173056545E+04  0.00000000000E+00 0. -1.
    9000010    2    1    2  502    0 -0.47969579934E+03  0.10598884328E+04 -0.49443249647E+03  0.16137453574E+04  0.10031146670E+04 0.  0.
   -9000010    2    1    2    0  501  0.47969579934E+03 -0.10598884328E+04 -0.11769879799E+04  0.19494454752E+04  0.10303229620E+04 0.  0.
        -13    1    3    3    0    0 -0.12179262701E+03  0.45357986337E+03  0.29605531650E+03  0.55517285420E+03  0.10566000000E+00 0.  1.
          4    1    3    3  502    0 -0.35790317233E+03  0.60630856939E+03 -0.79048781297E+03  0.10585725032E+04  0.00000000000E+00 0.  1.
         13    1    4    4    0    0 -0.17188312272E+03 -0.30393788118E+03  0.66027630974E+02  0.35536136918E+03  0.10566000000E+00 0. -1.
         -4    1    4    4    0  501  0.65157892206E+03 -0.75595055158E+03 -0.12430156109E+04  0.15940841060E+04  0.00000000000E+00 0. -1.
<mgrwt>
<rscale>  2 0.15450610E+04</rscale>
<asrwt>0</asrwt>
<pdfrwt beam="2">  1        2 0.40266239E+00 0.15450610E+04</pdfrwt>
<pdfrwt beam="1">  1       -2 0.14552080E+00 0.15450610E+04</pdfrwt>
<totfact> 0.13474503E+00</totfact>
</mgrwt>
</event>
<event>
 8    1  0.7046235E-006  0.1965103E+04  0.7818608E-02  0.8182750E-01
         -2   -1    0    0    0  501 -0.00000000000E+00  0.00000000000E+00  0.25273675557E+04  0.25273675557E+04  0.00000000000E+00 0. -1.
          2   -1    0    0  502    0  0.00000000000E+00 -0.00000000000E+00 -0.15506519701E+04  0.15506519701E+04  0.00000000000E+00 0.  1.
    9000010    2    1    2  502    0  0.12161447923E+04 -0.11724407675E+04  0.24270209008E+03  0.19846692838E+04  0.10131053017E+04 0.  0.
   -9000010    2    1    2    0  501 -0.12161447923E+04  0.11724407675E+04  0.73401349554E+03  0.20933502419E+04  0.99484366342E+03 0.  0.
        -13    1    3    3    0    0  0.10573870708E+04 -0.53205219351E+03 -0.18546189486E+03  0.11981415107E+04  0.10566000000E+00 0.  1.
          4    1    3    3  502    0  0.15875772156E+03 -0.64038857398E+03  0.42816398493E+03  0.78652777308E+03  0.00000000000E+00 0.  1.
         13    1    4    4    0    0 -0.72189015302E+03  0.90522943504E+03 -0.13887865934E+02  0.11579113123E+04  0.10566000000E+00 0. -1.
         -4    1    4    4    0  501 -0.49425463930E+03  0.26721133245E+03  0.74790136147E+03  0.93543892967E+03  0.00000000000E+00 0. -1.
<mgrwt>
<rscale>  2 0.19651031E+04</rscale>
<asrwt>0</asrwt>
<pdfrwt beam="2">  1        2 0.23856184E+00 0.19651031E+04</pdfrwt>
<pdfrwt beam="1">  1       -2 0.38882578E+00 0.19651031E+04</pdfrwt>
<totfact> 0.71377116E-02</totfact>
</mgrwt>
</event>
<event>
 8    1  0.7046235E-006  0.1293233E+04  0.7818608E-02  0.8539479E-01
         -2   -1    0    0    0  501 -0.00000000000E+00  0.00000000000E+00  0.47108149287E+03  0.47108149287E+03  0.00000000000E+00 0.  1.
          2   -1    0    0  502    0  0.00000000000E+00 -0.00000000000E+00 -0.38293209717E+04  0.38293209717E+04  0.00000000000E+00 0. -1.
    9000010    2    1    2  502    0 -0.51822338695E+03 -0.44911791233E+03 -0.10244389930E+04  0.15957357058E+04  0.10132298922E+04 0.  0.
   -9000010    2    1    2    0  501  0.51822338695E+03  0.44911791233E+03 -0.23338004858E+04  0.27046667587E+04  0.11825122369E+04 0.  0.
        -13    1    3    3    0    0 -0.47338712377E+02  0.15825146395E+03  0.12909090324E+03  0.20964005342E+03  0.10566000000E+00 0.  1.
          4    1    3    3  502    0 -0.47088467458E+03 -0.60736937628E+03 -0.11535298963E+04  0.13860956524E+04  0.00000000000E+00 0.  1.
         13    1    4    4    0    0 -0.33926109708E+03  0.28345885061E+03 -0.11616803575E+04  0.12429594829E+04  0.10566000000E+00 0. -1.
         -4    1    4    4    0  501  0.85748448404E+03  0.16565906172E+03 -0.11721201283E+04  0.14617072758E+04  0.00000000000E+00 0. -1.
<mgrwt>
<rscale>  2 0.12932335E+04</rscale>
<asrwt>0</asrwt>
<pdfrwt beam="2">  1        2 0.58912629E+00 0.12932335E+04</pdfrwt>
<pdfrwt beam="1">  1       -2 0.72474077E-01 0.12932335E+04</pdfrwt>
<totfact> 0.11663198E+00</totfact>
</mgrwt>
</event>
<event>
 8    1  0.7046235E-006  0.1091006E+04  0.7818608E-02  0.8693493E-01
         -1   -1    0    0    0  501 -0.00000000000E+00  0.00000000000E+00  0.11067686828E+04  0.11067686828E+04  0.00000000000E+00 0. -1.
          1   -1    0    0  502    0  0.00000000000E+00 -0.00000000000E+00 -0.13241071048E+04  0.13241071048E+04  0.00000000000E+00 0.  1.
    9000010    2    1    2  502    0  0.21886394657E+03 -0.28832148348E+03 -0.63569788677E+03  0.12665529835E+04  0.10339313090E+04 0.  0.
   -9000010    2    1    2    0  501 -0.21886394657E+03  0.28832148348E+03  0.41835946476E+03  0.11643228041E+04  0.10244960934E+04 0.  0.
        -13    1    3    3    0    0  0.31121128134E+03 -0.60439695329E+03 -0.64503202727E+03  0.93713097598E+03  0.10566000000E+00 0.  1.
          4    1    3    3  502    0 -0.92347334774E+02  0.31607546981E+03  0.93341405011E+01  0.32942200751E+03  0.00000000000E+00 0.  1.
         13    1    4    4    0    0  0.21990086774E+03  0.52603901481E+03  0.11914077620E+03  0.58246714281E+03  0.10566000000E+00 0. -1.
         -4    1    4    4    0  501 -0.43876481430E+03 -0.23771753132E+03  0.29921868856E+03  0.58185566127E+03  0.00000000000E+00 0. -1.
<mgrwt>
<rscale>  2 0.10910060E+04</rscale>
<asrwt>0</asrwt>
<pdfrwt beam="2">  1        1 0.20370878E+00 0.10910060E+04</pdfrwt>
<pdfrwt beam="1">  1       -1 0.17027211E+00 0.10910060E+04</pdfrwt>
<totfact> 0.29449774E+00</totfact>
</mgrwt>
</event>
<event>
 8    1  0.7046235E-006  0.9994712E+03  0.7818608E-02  0.8775089E-01
          1   -1    0    0  502    0  0.00000000000E+00  0.00000000000E+00  0.36370668450E+03  0.36370668450E+03  0.00000000000E+00 0.  1.
         -1   -1    0    0    0  501 -0.00000000000E+00 -0.00000000000E+00 -0.27750526431E+04  0.27750526431E+04  0.00000000000E+00 0. -1.
    9000010    2    1    2  502    0  0.58136918873E+02  0.32901249476E+03 -0.13945907820E+04  0.17347270655E+04  0.97609703370E+03 0.  0.
   -9000010    2    1    2    0  501 -0.58136918873E+02 -0.32901249476E+03 -0.10167551765E+04  0.14040322621E+04  0.90878291193E+03 0.  0.
        -13    1    3    3    0    0 -0.38522103386E+03 -0.83735671374E+02 -0.76765786338E+03  0.86296321704E+03  0.10566000000E+00 0.  1.
          4    1    3    3  502    0  0.44335795273E+03  0.41274816613E+03 -0.62693291867E+03  0.87176384842E+03  0.00000000000E+00 0.  1.
         13    1    4    4    0    0  0.21094548734E+03 -0.33211111063E+03 -0.45353869577E+02  0.39604642794E+03  0.10566000000E+00 0. -1.
         -4    1    4    4    0  501 -0.26908240622E+03  0.30986158712E+01 -0.97140130695E+03  0.10079858342E+04  0.00000000000E+00 0. -1.
<mgrwt>
<rscale>  2 0.99947118E+03</rscale>
<asrwt>0</asrwt>
<pdfrwt beam="1">  1        1 0.55954876E-01 0.99947118E+03</pdfrwt>
<pdfrwt beam="2">  1       -1 0.42693117E+00 0.99947118E+03</pdfrwt>
<totfact> 0.11153955E+00</totfact>
</mgrwt>
</event>
<event>
 8    1  0.7046235E-006  0.1333342E+04  0.7818608E-02  0.8512394E-01
          4   -1    0    0  502    0  0.00000000000E+00  0.00000000000E+00  0.85013521607E+03  0.85013521607E+03  0.00000000000E+00 0.  1.
         -4   -1    0    0    0  501 -0.00000000000E+00 -0.00000000000E+00 -0.28621244954E+04  0.28621244954E+04  0.00000000000E+00 0. -1.
    9000010    2    1    2  502    0  0.58203153554E+02  0.83732535610E+03 -0.53251671377E+02  0.13531201757E+04  0.10599986369E+04 0.  0.
   -9000010    2    1    2    0  501 -0.58203153554E+02 -0.83732535610E+03 -0.19587376080E+04  0.23591395358E+04  0.10121190510E+04 0.  0.
        -13    1    3    3    0    0 -0.48460986297E+03  0.40809712877E+03 -0.15867711013E+03  0.65312205769E+03  0.10566000000E+00 0.  1.
          4    1    3    3  502    0  0.54281301652E+03  0.42922822734E+03  0.10542543875E+03  0.69999811799E+03  0.00000000000E+00 0.  1.
         13    1    4    4    0    0 -0.27348492988E+03 -0.43834090887E+03 -0.18095519576E+04  0.18818647820E+04  0.10566000000E+00 0. -1.
         -4    1    4    4    0  501  0.21528177633E+03 -0.39898444724E+03 -0.14918565036E+03  0.47727475381E+03  0.00000000000E+00 0. -1.
<mgrwt>
<rscale>  2 0.13333418E+04</rscale>
<asrwt>0</asrwt>
<pdfrwt beam="1">  1        4 0.13079003E+00 0.13333418E+04</pdfrwt>
<pdfrwt beam="2">  1       -4 0.44032684E+00 0.13333418E+04</pdfrwt>
<totfact> 0.58027565E-02</totfact>
</mgrwt>
</event>
<event>
 8    1  0.7046235E-006  0.1365784E+04  0.7818608E-02  0.8491193E-01
          2   -1    0    0  502    0  0.00000000000E+00  0.00000000000E+00  0.26768586653E+04  0.26768586653E+04  0.00000000000E+00 0.  1.
         -2   -1    0    0    0  501 -0.00000000000E+00 -0.00000000000E+00 -0.95744932323E+03  0.95744932323E+03  0.00000000000E+00 0. -1.
    9000010    2    1    2  502    0  0.92473073446E+03  0.59253940551E+02 -0.88967151737E+02  0.13672748069E+04  0.10014426008E+04 0.  0.
   -9000010    2    1    2    0  501 -0.92473073446E+03 -0.59253940551E+02  0.18083764938E+04  0.22670331816E+04  0.10052740634E+04 0.  0.
        -13    1    3    3    0    0  0.11491633223E+03  0.36637561048E+03 -0.28632497921E+03  0.47897688488E+03  0.10566000000E+00 0.  1.
          4    1    3    3  502    0  0.80981440223E+03 -0.30712166993E+03  0.19735782747E+03  0.88829792202E+03  0.00000000000E+00 0.  1.
         13    1    4    4    0    0 -0.71091911457E+03 -0.50179839490E+03  0.12514533671E+04  0.15242516714E+04  0.10566000000E+00 0. -1.
         -4    1    4    4    0  501 -0.21381161989E+03  0.44254445435E+03  0.55692312674E+03  0.74278151026E+03  0.00000000000E+00 0. -1.
<mgrwt>
<rscale>  2 0.13657839E+04</rscale>
<asrwt>0</asrwt>
<pdfrwt beam="1">  1        2 0.41182441E+00 0.13657839E+04</pdfrwt>
<pdfrwt beam="2">  1       -2 0.14729990E+00 0.13657839E+04</pdfrwt>
<totfact> 0.12240687E+00</totfact>
</mgrwt>
</event>
<event>
 8    1  0.7046235E-006  0.1543351E+04  0.7818608E-02  0.8384978E-01
         -1   -1    0    0    0  501 -0.00000000000E+00  0.00000000000E+00  0.10975381533E+04  0.10975381533E+04  0.00000000000E+00 0.  1.
          1   -1    0    0  502    0  0.00000000000E+00 -0.00000000000E+00 -0.32226062077E+04  0.32226062077E+04  0.00000000000E+00 0. -1.
    9000010    2    1    2  502    0  0.11839259299E+04  0.85078360976E+02  0.17465360872E+03  0.15471218139E+04  0.97681271948E+03 0.  0.
   -9000010    2    1    2    0  501 -0.11839259299E+04 -0.85078360976E+02 -0.22997216631E+04  0.27730225472E+04  0.99599969102E+03 0.  0.
        -13    1    3    3    0    0  0.32528002936E+03  0.39936981503E+03  0.34104057875E+03  0.61774754890E+03  0.10566000000E+00 0.  1.
          4    1    3    3  502    0  0.85864590054E+03 -0.31429145405E+03 -0.16638697003E+03  0.92937426498E+03  0.00000000000E+00 0.  1.
         13    1    4    4    0    0 -0.56004363372E+03 -0.29784534349E+03 -0.18977653598E+04  0.20009682886E+04  0.10566000000E+00 0. -1.
         -4    1    4    4    0  501 -0.62388229618E+03  0.21276698252E+03 -0.40195630333E+03  0.77205425854E+03  0.00000000000E+00 0. -1.
<mgrwt>
<rscale>  2 0.15433512E+04</rscale>
<asrwt>0</asrwt>
<pdfrwt beam="2">  1        1 0.49578557E+00 0.15433512E+04</pdfrwt>
<pdfrwt beam="1">  1       -1 0.16885203E+00 0.15433512E+04</pdfrwt>
<totfact> 0.60367572E-02</totfact>
</mgrwt>
</event>
<event>
 8    1  0.7046235E-006  0.1391468E+04  0.7818608E-02  0.8474834E-01
          1   -1    0    0  502    0  0.00000000000E+00  0.00000000000E+00  0.18985922600E+04  0.18985922600E+04  0.00000000000E+00 0.  1.
         -1   -1    0    0    0  501 -0.00000000000E+00 -0.00000000000E+00 -0.12031712060E+04  0.12031712060E+04  0.00000000000E+00 0. -1.
    9000010    2    1    2  502    0 -0.79402077876E+03  0.48599376069E+03 -0.25137816123E+03  0.14405079009E+04  0.10701462984E+04 0.  0.
   -9000010    2    1    2    0  501  0.79402077876E+03 -0.48599376069E+03  0.94679921526E+03  0.16612555651E+04  0.99833980486E+03 0.  0.
        -13    1    3    3    0    0 -0.90309257094E+02 -0.28771584542E+03  0.12849384986E+03  0.32779086357E+03  0.10566000000E+00 0.  1.
          4    1    3    3  502    0 -0.70371152167E+03  0.77370960611E+03 -0.37987201109E+03  0.11127170373E+04  0.00000000000E+00 0.  1.
         13    1    4    4    0    0  0.71897991334E+02 -0.31944372086E+03  0.85371276310E+03  0.91435174030E+03  0.10566000000E+00 0. -1.
         -4    1    4    4    0  501  0.72212278743E+03 -0.16655003983E+03  0.93086452159E+02  0.74690382477E+03  0.00000000000E+00 0. -1.
<mgrwt>
<rscale>  2 0.13914679E+04</rscale>
<asrwt>0</asrwt>
<pdfrwt beam="1">  1        1 0.29209112E+00 0.13914679E+04</pdfrwt>
<pdfrwt beam="2">  1       -1 0.18510326E+00 0.13914679E+04</pdfrwt>
<totfact> 0.78184116E-01</totfact>
</mgrwt>
</event>
<event>
 8    1  0.7046235E-006  0.1141936E+04  0.7818608E-02  0.8651617E-01
         -2   -1    0    0    0  501 -0.00000000000E+00  0.00000000000E+00  0.18966519932E+04  0.18966519932E+04  0.00000000000E+00 0. -1.
          2   -1    0    0  502    0  0.00000000000E+00 -0.00000000000E+00 -0.77550396060E+03  0.77550396060E+03  0.00000000000E+00 0.  1.
    9000010    2    1    2  502    0 -0.42840697981E+02 -0.46162341455E+03  0.99398627113E+03  0.14887988128E+04  0.10067679452E+04 0.  0.
   -9000010    2    1    2    0  501  0.42840697981E+02  0.46162341455E+03  0.12716176147E+03  0.11833571410E+04  0.10813105509E+04 0.  0.
        -13    1    3    3    0    0 -0.15696459565E+03  0.23562418257E+03  0.63726625638E+03  0.69732699101E+03  0.10566000000E+00 0.  1.
          4    1    3    3  502    0  0.11412389767E+03 -0.69724759712E+03  0.35672001475E+03  0.79147182176E+03  0.00000000000E+00 0.  1.
         13    1    4    4    0    0 -0.34167709948E+03 -0.20793588601E+02  0.38461211961E+03  0.51488067293E+03  0.10566000000E+00 0. -1.
         -4    1    4    4    0  501  0.38451779746E+03  0.48241700315E+03 -0.25745035815E+03  0.66847646810E+03  0.00000000000E+00 0. -1.
<mgrwt>
<rscale>  2 0.11419362E+04</rscale>
<asrwt>0</asrwt>
<pdfrwt beam="2">  1        2 0.11930830E+00 0.11419362E+04</pdfrwt>
<pdfrwt beam="1">  1       -2 0.29179261E+00 0.11419362E+04</pdfrwt>
<totfact> 0.10362142E+00</totfact>
</mgrwt>
</event>
<event>
 8    1  0.7046235E-006  0.1231938E+04  0.7818608E-02  0.8582893E-01
         -2   -1    0    0    0  501 -0.00000000000E+00  0.00000000000E+00  0.79426490062E+03  0.79426490062E+03  0.00000000000E+00 0. -1.
          2   -1    0    0  502    0  0.00000000000E+00 -0.00000000000E+00 -0.23704431452E+04  0.23704431452E+04  0.00000000000E+00 0.  1.
    9000010    2    1    2  502    0  0.33358292230E+03 -0.64053038034E+03 -0.14814985857E+04  0.19226654998E+04  0.99007465909E+03 0.  0.
   -9000010    2    1    2    0  501 -0.33358292230E+03  0.64053038034E+03 -0.94679658908E+02  0.12420425460E+04  0.10060560194E+04 0.  0.
        -13    1    3    3    0    0 -0.13531460732E+03  0.21028331583E+03 -0.24370774030E+03  0.34917415385E+03  0.10566000000E+00 0.  1.
          4    1    3    3  502    0  0.46889752962E+03 -0.85081369617E+03 -0.12377908454E+04  0.15734913459E+04  0.00000000000E+00 0.  1.
         13    1    4    4    0    0 -0.11591414220E+03 -0.26344318441E+03  0.73714180451E+02  0.29710636367E+03  0.10566000000E+00 0. -1.
         -4    1    4    4    0  501 -0.21766878009E+03  0.90397356474E+03 -0.16839383936E+03  0.94493618235E+03  0.00000000000E+00 0. -1.
<mgrwt>
<rscale>  2 0.12319380E+04</rscale>
<asrwt>0</asrwt>
<pdfrwt beam="2">  1        2 0.36468356E+00 0.12319380E+04</pdfrwt>
<pdfrwt beam="1">  1       -2 0.12219460E+00 0.12319380E+04</pdfrwt>
<totfact> 0.31494947E+00</totfact>
</mgrwt>
</event>
<event>
 8    1  0.7046235E-006  0.1565602E+04  0.7818608E-02  0.8372715E-01
          2   -1    0    0  502    0  0.00000000000E+00  0.00000000000E+00  0.16569501894E+04  0.16569501894E+04  0.00000000000E+00 0. -1.
         -2   -1    0    0    0  501 -0.00000000000E+00 -0.00000000000E+00 -0.19255929426E+04  0.19255929426E+04  0.00000000000E+00 0.  1.
    9000010    2    1    2  502    0 -0.78137693561E+03  0.91708597217E+03  0.72770144984E+03  0.17310132341E+04  0.10076015187E+04 0.  0.
   -9000010    2    1    2    0  501  0.78137693561E+03 -0.91708597217E+03 -0.99634420310E+03  0.18515298979E+04  0.99189948885E+03 0.  0.
        -13    1    3    3    0    0 -0.83235591854E+03  0.10659287916E+04  0.78481639654E+03  0.15636359395E+04  0.10566000000E+00 0.  1.
          4    1    3    3  502    0  0.50978982932E+02 -0.14884281943E+03 -0.57114946701E+02  0.16737729456E+03  0.00000000000E+00 0.  1.
         13    1    4    4    0    0  0.44445152442E+03  0.83164590468E+02 -0.91586174725E+02  0.46134753194E+03  0.10566000000E+00 0. -1.
         -4    1    4    4    0  501  0.33692541119E+03 -0.10002505626E+04 -0.90475802837E+03  0.13901823660E+04  0.00000000000E+00 0. -1.
<mgrwt>
<rscale>  2 0.15656018E+04</rscale>
<asrwt>0</asrwt>
<pdfrwt beam="1">  1        2 0.25491541E+00 0.15656018E+04</pdfrwt>
<pdfrwt beam="2">  1       -2 0.29624507E+00 0.15656018E+04</pdfrwt>
<totfact> 0.28078452E-01</totfact>
</mgrwt>
</event>
<event>
 8    1  0.7046235E-006  0.1260493E+04  0.7818608E-02  0.8562350E-01
          1   -1    0    0  502    0  0.00000000000E+00  0.00000000000E+00  0.16335927144E+04  0.16335927144E+04  0.00000000000E+00 0.  1.
         -1   -1    0    0    0  501 -0.00000000000E+00 -0.00000000000E+00 -0.10343551507E+04  0.10343551507E+04  0.00000000000E+00 0. -1.
    9000010    2    1    2  502    0 -0.38140991575E+03  0.72715626498E+03 -0.29811901896E+02  0.11561485028E+04  0.81336391214E+03 0.  0.
   -9000010    2    1    2    0  501  0.38140991575E+03 -0.72715626498E+03  0.62904946555E+03  0.15117993623E+04  0.11025444772E+04 0.  0.
        -13    1    3    3    0    0 -0.80153410764E+02  0.62881506714E+03  0.29777911928E+03  0.70036088766E+03  0.10566000000E+00 0.  1.
          4    1    3    3  502    0 -0.30125650499E+03  0.98341197846E+02 -0.32759102118E+03  0.45578761517E+03  0.00000000000E+00 0.  1.
         13    1    4    4    0    0 -0.18391536396E+03  0.15956374158E+03  0.34543615179E+03  0.42262465008E+03  0.10566000000E+00 0. -1.
         -4    1    4    4    0  501  0.56532527971E+03 -0.88672000657E+03  0.28361331376E+03  0.10891747122E+04  0.00000000000E+00 0. -1.
<mgrwt>
<rscale>  2 0.12604932E+04</rscale>
<asrwt>0</asrwt>
<pdfrwt beam="1">  1        1 0.25132196E+00 0.12604932E+04</pdfrwt>
<pdfrwt beam="2">  1       -1 0.15913156E+00 0.12604932E+04</pdfrwt>
<totfact> 0.21168494E+00</totfact>
</mgrwt>
</event>
<event>
 8    1  0.7046235E-006  0.1281503E+04  0.7818608E-02  0.8547592E-01
          1   -1    0    0  502    0  0.00000000000E+00  0.00000000000E+00  0.15089217331E+04  0.15089217331E+04  0.00000000000E+00 0.  1.
         -1   -1    0    0    0  501 -0.00000000000E+00 -0.00000000000E+00 -0.11326707732E+04  0.11326707732E+04  0.00000000000E+00 0. -1.
    9000010    2    1    2  502    0  0.50543765265E+03 -0.62821609178E+03 -0.73888590008E+02  0.12776435929E+04  0.98832734865E+03 0.  0.
   -9000010    2    1    2    0  501 -0.50543765265E+03  0.62821609178E+03  0.45013954983E+03  0.13639489134E+04  0.10037969642E+04 0.  0.
        -13    1    3    3    0    0  0.40972476091E+03 -0.84372617123E+03 -0.26438941063E+03  0.97449987344E+03  0.10566000000E+00 0.  1.
          4    1    3    3  502    0  0.95712891735E+02  0.21551007946E+03  0.19050082062E+03  0.30314371946E+03  0.00000000000E+00 0.  1.
         13    1    4    4    0    0 -0.70898441122E+03  0.60498135827E+03  0.60147232218E+03  0.11092476300E+04  0.10566000000E+00 0. -1.
         -4    1    4    4    0  501  0.20354675858E+03  0.23234733501E+02 -0.15133277235E+03  0.25470128338E+03  0.00000000000E+00 0. -1.
<mgrwt>
<rscale>  2 0.12815030E+04</rscale>
<asrwt>0</asrwt>
<pdfrwt beam="1">  1        1 0.23214181E+00 0.12815030E+04</pdfrwt>
<pdfrwt beam="2">  1       -1 0.17425704E+00 0.12815030E+04</pdfrwt>
<totfact> 0.19296857E+00</totfact>
</mgrwt>
</event>
<event>
 8    1  0.7046235E-006  0.1169548E+04  0.7818608E-02  0.8629853E-01
          2   -1    0    0  502    0  0.00000000000E+00  0.00000000000E+00  0.29612316244E+04  0.29612316244E+04  0.00000000000E+00 0.  1.
         -2   -1    0    0    0  501 -0.00000000000E+00 -0.00000000000E+00 -0.47050271169E+03  0.47050271169E+03  0.00000000000E+00 0. -1.
    9000010    2    1    2  502    0  0.64692398751E+03  0.10129587633E+03  0.10011972468E+04  0.15301079348E+04  0.95397215105E+03 0.  0.
   -9000010    2    1    2    0  501 -0.64692398751E+03 -0.10129587633E+03  0.14895316659E+04  0.19016264012E+04  0.98422908214E+03 0.  0.
        -13    1    3    3    0    0 -0.17562547485E+03  0.25885844170E+03  0.34853723257E+03  0.46832703734E+03  0.10566000000E+00 0.  1.
          4    1    3    3  502    0  0.82254946236E+03 -0.15756256537E+03  0.65266001423E+03  0.10617808975E+04  0.00000000000E+00 0.  1.
         13    1    4    4    0    0 -0.17845987705E+03 -0.38932043459E+03  0.15029591092E+03  0.45388016095E+03  0.10566000000E+00 0. -1.
         -4    1    4    4    0  501 -0.46846411046E+03  0.28802455826E+03  0.13392357549E+04  0.14477462403E+04  0.00000000000E+00 0. -1.
<mgrwt>
<rscale>  2 0.11695478E+04</rscale>
<asrwt>0</asrwt>
<pdfrwt beam="1">  1        2 0.45557409E+00 0.11695478E+04</pdfrwt>
<pdfrwt beam="2">  1       -2 0.72385034E-01 0.11695478E+04</pdfrwt>
<totfact> 0.49536519E+00</totfact>
</mgrwt>
</event>
<event>
 8    1  0.7046235E-006  0.1258516E+04  0.7818608E-02  0.8563755E-01
         -2   -1    0    0    0  501 -0.00000000000E+00  0.00000000000E+00  0.10606658351E+04  0.10606658351E+04  0.00000000000E+00 0.  1.
          2   -1    0    0  502    0  0.00000000000E+00 -0.00000000000E+00 -0.19764707452E+04  0.19764707452E+04  0.00000000000E+00 0. -1.
    9000010    2    1    2  502    0 -0.69634439623E+03  0.31280146057E+03 -0.12088746012E+04  0.17453870885E+04  0.10011283710E+04 0.  0.
   -9000010    2    1    2    0  501  0.69634439623E+03 -0.31280146057E+03  0.29306969114E+03  0.12917494918E+04  0.99999331687E+03 0.  0.
        -13    1    3    3    0    0 -0.68859593046E+03 -0.20454905371E+03 -0.53441246179E+03  0.89532193165E+03  0.10566000000E+00 0.  1.
          4    1    3    3  502    0 -0.77484657712E+01  0.51735051428E+03 -0.67446213944E+03  0.85006515685E+03  0.00000000000E+00 0.  1.
         13    1    4    4    0    0  0.52128932948E+03  0.29841666188E+03  0.23361934905E+02  0.60111634504E+03  0.10566000000E+00 0. -1.
         -4    1    4    4    0  501  0.17505506676E+03 -0.61121812245E+03  0.26970775623E+03  0.69063314675E+03  0.00000000000E+00 0. -1.
<mgrwt>
<rscale>  2 0.12585159E+04</rscale>
<asrwt>0</asrwt>
<pdfrwt beam="2">  1        2 0.30407242E+00 0.12585159E+04</pdfrwt>
<pdfrwt beam="1">  1       -2 0.16317936E+00 0.12585159E+04</pdfrwt>
<totfact> 0.22051855E+00</totfact>
</mgrwt>
</event>
<event>
 8    1  0.7046235E-006  0.1107932E+04  0.7818608E-02  0.8679316E-01
          4   -1    0    0  502    0  0.00000000000E+00  0.00000000000E+00  0.14246462801E+04  0.14246462801E+04  0.00000000000E+00 0.  1.
         -4   -1    0    0    0  501 -0.00000000000E+00 -0.00000000000E+00 -0.14386655199E+04  0.14386655199E+04  0.00000000000E+00 0. -1.
    9000010    2    1    2  502    0 -0.18678243220E+03  0.44017069031E+03  0.89968782877E+03  0.14239769266E+04  0.99480359106E+03 0.  0.
   -9000010    2    1    2    0  501  0.18678243220E+03 -0.44017069031E+03 -0.91370706854E+03  0.14393348733E+04  0.10040848355E+04 0.  0.
        -13    1    3    3    0    0  0.41153728313E+02 -0.31343102647E+03  0.24250468964E+03  0.39842335946E+03  0.10566000000E+00 0.  1.
          4    1    3    3  502    0 -0.22793616052E+03  0.75360171678E+03  0.65718313913E+03  0.10255535672E+04  0.00000000000E+00 0.  1.
         13    1    4    4    0    0  0.15727014274E+03  0.88096168886E+02 -0.89175169408E+03  0.90978894687E+03  0.10566000000E+00 0. -1.
         -4    1    4    4    0  501  0.29512289458E+02 -0.52826685920E+03 -0.21955374452E+02  0.52954592645E+03  0.00000000000E+00 0. -1.
<mgrwt>
<rscale>  2 0.11079319E+04</rscale>
<asrwt>0</asrwt>
<pdfrwt beam="1">  1        4 0.21917635E+00 0.11079319E+04</pdfrwt>
<pdfrwt beam="2">  1       -4 0.22133316E+00 0.11079319E+04</pdfrwt>
<totfact> 0.14217477E-01</totfact>
</mgrwt>
</event>
<event>
 8    1  0.7046235E-006  0.1100223E+04  0.7818608E-02  0.8685740E-01
         -1   -1    0    0    0  501 -0.00000000000E+00  0.00000000000E+00  0.92134335067E+03  0.92134335067E+03  0.00000000000E+00 0. -1.
          1   -1    0    0  502    0  0.00000000000E+00 -0.00000000000E+00 -0.13367026271E+04  0.13367026271E+04  0.00000000000E+00 0.  1.
    9000010    2    1    2  502    0 -0.45933732692E+03 -0.35161096776E+03 -0.61131087241E+02  0.10477096766E+04  0.87139973842E+03 0.  0.
   -9000010    2    1    2    0  501  0.45933732692E+03  0.35161096776E+03 -0.35422818920E+03  0.12103363012E+04  0.10024047582E+04 0.  0.
        -13    1    3    3    0    0  0.17406706565E+03 -0.76613803488E+02  0.22989444657E+03  0.29836301037E+03  0.10566000000E+00 0.  1.
          4    1    3    3  502    0 -0.63340439257E+03 -0.27499716427E+03 -0.29102553381E+03  0.74934666625E+03  0.00000000000E+00 0.  1.
         13    1    4    4    0    0  0.19551437148E+03 -0.35353591760E+03 -0.13999293255E+03  0.42756466975E+03  0.10566000000E+00 0. -1.
         -4    1    4    4    0  501  0.26382295543E+03  0.70514688536E+03 -0.21423525666E+03  0.78277163141E+03  0.00000000000E+00 0. -1.
<mgrwt>
<rscale>  2 0.11002230E+04</rscale>
<asrwt>0</asrwt>
<pdfrwt beam="2">  1        1 0.20564656E+00 0.11002230E+04</pdfrwt>
<pdfrwt beam="1">  1       -1 0.14174513E+00 0.11002230E+04</pdfrwt>
<totfact> 0.50792519E+00</totfact>
</mgrwt>
</event>
<event>
 8    1  0.7046235E-006  0.2836831E+04  0.7818608E-02  0.7893399E-01
         -2   -1    0    0    0  501 -0.00000000000E+00  0.00000000000E+00  0.42653529754E+04  0.42653529754E+04  0.00000000000E+00 0.  1.
          2   -1    0    0  502    0  0.00000000000E+00 -0.00000000000E+00 -0.20162802046E+04  0.20162802046E+04  0.00000000000E+00 0. -1.
    9000010    2    1    2  502    0  0.58838618949E+03  0.25890518496E+04  0.19201435012E+04  0.34244657785E+04  0.99530247393E+03 0.  0.
   -9000010    2    1    2    0  501 -0.58838618949E+03 -0.25890518496E+04  0.32892926957E+03  0.28571674016E+04  0.10029074276E+04 0.  0.
        -13    1    3    3    0    0  0.57852340840E+03  0.55665296656E+03  0.56340066148E+03  0.98080180249E+03  0.10566000000E+00 0.  1.
          4    1    3    3  502    0  0.98627810890E+01  0.20323988831E+04  0.13567428398E+04  0.24436639760E+04  0.00000000000E+00 0.  1.
         13    1    4    4    0    0 -0.69944749683E+03 -0.13023746648E+04  0.48609093370E+03  0.15561783237E+04  0.10566000000E+00 0. -1.
         -4    1    4    4    0  501  0.11106130734E+03 -0.12866771848E+04 -0.15716166413E+03  0.13009890778E+04  0.00000000000E+00 0. -1.
<mgrwt>
<rscale>  2 0.28368309E+04</rscale>
<asrwt>0</asrwt>
<pdfrwt beam="2">  1        2 0.31019695E+00 0.28368309E+04</pdfrwt>
<pdfrwt beam="1">  1       -2 0.65620815E+00 0.28368309E+04</pdfrwt>
<totfact> 0.25046196E-02</totfact>
</mgrwt>
</event>
<event>
 8    1  0.7046235E-006  0.1270313E+04  0.7818608E-02  0.8555416E-01
         -2   -1    0    0    0  501 -0.00000000000E+00  0.00000000000E+00  0.22540646568E+04  0.22540646568E+04  0.00000000000E+00 0.  1.
          2   -1    0    0  502    0  0.00000000000E+00 -0.00000000000E+00 -0.71677603059E+03  0.71677603059E+03  0.00000000000E+00 0. -1.
    9000010    2    1    2  502    0 -0.36914264382E+03  0.71439661047E+03  0.71361831030E+03  0.14516825559E+04  0.97544981506E+03 0.  0.
   -9000010    2    1    2    0  501  0.36914264382E+03 -0.71439661047E+03  0.82367031590E+03  0.15191581315E+04  0.99135252594E+03 0.  0.
        -13    1    3    3    0    0 -0.67228146223E+03  0.62071247110E+03  0.66398039985E+03  0.11305380660E+04  0.10566000000E+00 0.  1.
          4    1    3    3  502    0  0.30313881841E+03  0.93684139379E+02  0.49637910450E+02  0.32114448983E+03  0.00000000000E+00 0.  1.
         13    1    4    4    0    0  0.37157913242E+03 -0.95966192301E+03  0.69881639194E+03  0.12439318385E+04  0.10566000000E+00 0. -1.
         -4    1    4    4    0  501 -0.24364885955E+01  0.24526531254E+03  0.12485392396E+03  0.27522629296E+03  0.00000000000E+00 0. -1.
<mgrwt>
<rscale>  2 0.12703126E+04</rscale>
<asrwt>0</asrwt>
<pdfrwt beam="2">  1        2 0.11027324E+00 0.12703126E+04</pdfrwt>
<pdfrwt beam="1">  1       -2 0.34677918E+00 0.12703126E+04</pdfrwt>
<totfact> 0.48529480E-01</totfact>
</mgrwt>
</event>
<event>
 8    1  0.7046235E-006  0.1435701E+04  0.7818608E-02  0.8447493E-01
         -1   -1    0    0    0  501 -0.00000000000E+00  0.00000000000E+00  0.12643403842E+04  0.12643403842E+04  0.00000000000E+00 0.  1.
          1   -1    0    0  502    0  0.00000000000E+00 -0.00000000000E+00 -0.16488486691E+04  0.16488486691E+04  0.00000000000E+00 0. -1.
    9000010    2    1    2  502    0  0.20959520066E+03  0.10077635362E+04 -0.37039501262E+02  0.14302762819E+04  0.99237131412E+03 0.  0.
   -9000010    2    1    2    0  501 -0.20959520066E+03 -0.10077635362E+04 -0.34746878363E+03  0.14829127713E+04  0.10093454507E+04 0.  0.
        -13    1    3    3    0    0 -0.99091776818E+02  0.56028588465E+03 -0.46786389268E+03  0.73663836854E+03  0.10566000000E+00 0.  1.
          4    1    3    3  502    0  0.30868697748E+03  0.44747765152E+03  0.43082439142E+03  0.69363791341E+03  0.00000000000E+00 0.  1.
         13    1    4    4    0    0  0.84863804994E+02 -0.10636216968E+04 -0.61676415022E+02  0.10687829390E+04  0.10566000000E+00 0. -1.
         -4    1    4    4    0  501 -0.29445900566E+03  0.55858160621E+02 -0.28579236860E+03  0.41412983239E+03  0.00000000000E+00 0. -1.
<mgrwt>
<rscale>  2 0.14357009E+04</rscale>
<asrwt>0</asrwt>
<pdfrwt beam="2">  1        1 0.25366903E+00 0.14357009E+04</pdfrwt>
<pdfrwt beam="1">  1       -1 0.19451391E+00 0.14357009E+04</pdfrwt>
<totfact> 0.98959211E-01</totfact>
</mgrwt>
</event>
<event>
 8    1  0.7046235E-006  0.1400752E+04  0.7818608E-02  0.8469010E-01
          2   -1    0    0  502    0  0.00000000000E+00  0.00000000000E+00  0.50769127658E+04  0.50769127658E+04  0.00000000000E+00 0.  1.
         -2   -1    0    0    0  501 -0.00000000000E+00 -0.00000000000E+00 -0.44640856249E+03  0.44640856249E+03  0.00000000000E+00 0. -1.
    9000010    2    1    2  502    0 -0.70158528055E+03  0.69316459313E+03  0.33207587300E+04  0.36023818723E+04  0.98844198185E+03 0.  0.
   -9000010    2    1    2    0  501  0.70158528055E+03 -0.69316459313E+03  0.13097454733E+04  0.19209394560E+04  0.10009376254E+04 0.  0.
        -13    1    3    3    0    0  0.53338817006E+01  0.60315603202E+03  0.93679638916E+03  0.11141872083E+04  0.10566000000E+00 0.  1.
          4    1    3    3  502    0 -0.70691916225E+03  0.90008561108E+02  0.23839623409E+04  0.24881946640E+04  0.00000000000E+00 0.  1.
         13    1    4    4    0    0  0.34550890645E+03 -0.79389111105E+03  0.43037978123E+03  0.96688482659E+03  0.10566000000E+00 0. -1.
         -4    1    4    4    0  501  0.35607637410E+03  0.10072651793E+03  0.87936569204E+03  0.95405462943E+03  0.00000000000E+00 0. -1.
<mgrwt>
<rscale>  2 0.14007521E+04</rscale>
<asrwt>0</asrwt>
<pdfrwt beam="1">  1        2 0.78106346E+00 0.14007521E+04</pdfrwt>
<pdfrwt beam="2">  1       -2 0.68678244E-01 0.14007521E+04</pdfrwt>
<totfact> 0.10213590E-01</totfact>
</mgrwt>
</event>
<event>
 8    1  0.7046235E-006  0.1144902E+04  0.7818608E-02  0.8649249E-01
          2   -1    0    0  502    0  0.00000000000E+00  0.00000000000E+00  0.18861979957E+04  0.18861979957E+04  0.00000000000E+00 0.  1.
         -2   -1    0    0    0  501 -0.00000000000E+00 -0.00000000000E+00 -0.83813481612E+03  0.83813481612E+03  0.00000000000E+00 0. -1.
    9000010    2    1    2  502    0 -0.51664252786E+03  0.21830087207E+03  0.10862096326E+04  0.15765639942E+04  0.99555406165E+03 0.  0.
   -9000010    2    1    2    0  501  0.51664252786E+03 -0.21830087207E+03 -0.38146453048E+02  0.11477688175E+04  0.10006714417E+04 0.  0.
        -13    1    3    3    0    0 -0.20175688876E+03 -0.38810625161E+03  0.27825963212E+03  0.51842139108E+03  0.10566000000E+00 0.  1.
          4    1    3    3  502    0 -0.31488563909E+03  0.60640712368E+03  0.80795000048E+03  0.10581426032E+04  0.00000000000E+00 0.  1.
         13    1    4    4    0    0  0.27125050489E+03 -0.60305962432E+03  0.10489935135E+03  0.66952343646E+03  0.10566000000E+00 0. -1.
         -4    1    4    4    0  501  0.24539202297E+03  0.38475875225E+03 -0.14304580439E+03  0.47824538108E+03  0.00000000000E+00 0. -1.
<mgrwt>
<rscale>  2 0.11449019E+04</rscale>
<asrwt>0</asrwt>
<pdfrwt beam="1">  1        2 0.29018431E+00 0.11449019E+04</pdfrwt>
<pdfrwt beam="2">  1       -2 0.12894382E+00 0.11449019E+04</pdfrwt>
<totfact> 0.50571409E+00</totfact>
</mgrwt>
</event>
<event>
 8    1  0.7046235E-006  0.1316411E+04  0.7818608E-02  0.8523705E-01
         -1   -1    0    0    0  501 -0.00000000000E+00  0.00000000000E+00  0.68839453612E+03  0.68839453612E+03  0.00000000000E+00 0.  1.
          1   -1    0    0  502    0  0.00000000000E+00 -0.00000000000E+00 -0.25206283059E+04  0.25206283059E+04  0.00000000000E+00 0. -1.
    9000010    2    1    2  502    0  0.43011009131E+03  0.73011624335E+03 -0.87306056002E+03  0.15931912416E+04  0.10285714226E+04 0.  0.
   -9000010    2    1    2    0  501 -0.43011009131E+03 -0.73011624335E+03 -0.95917320978E+03  0.16158316005E+04  0.98632352462E+03 0.  0.
        -13    1    3    3    0    0  0.20426556567E+03 -0.14111510145E+03 -0.60520816725E+03  0.65415199307E+03  0.10566000000E+00 0.  1.
          4    1    3    3  502    0  0.22584452565E+03  0.87123134480E+03 -0.26785239277E+03  0.93903924851E+03  0.00000000000E+00 0.  1.
         13    1    4    4    0    0 -0.73402193739E+03 -0.65421720047E+03 -0.77917656423E+03  0.12545534980E+04  0.10566000000E+00 0. -1.
         -4    1    4    4    0  501  0.30391184608E+03 -0.75899042878E+02 -0.17999664555E+03  0.36127810244E+03  0.00000000000E+00 0. -1.
<mgrwt>
<rscale>  2 0.13164112E+04</rscale>
<asrwt>0</asrwt>
<pdfrwt beam="2">  1        1 0.38778898E+00 0.13164112E+04</pdfrwt>
<pdfrwt beam="1">  1       -1 0.10590685E+00 0.13164112E+04</pdfrwt>
<totfact> 0.12133486E+00</totfact>
</mgrwt>
</event>
<event>
 8    1  0.7046235E-006  0.1741745E+04  0.7818608E-02  0.8282511E-01
          1   -1    0    0  502    0  0.00000000000E+00  0.00000000000E+00  0.98358236383E+03  0.98358236383E+03  0.00000000000E+00 0.  1.
         -1   -1    0    0    0  501 -0.00000000000E+00 -0.00000000000E+00 -0.40087565710E+04  0.40087565710E+04  0.00000000000E+00 0. -1.
    9000010    2    1    2  502    0  0.14317447975E+04 -0.24613908808E+02 -0.27116321437E+04  0.32231091422E+04  0.99246392906E+03 0.  0.
   -9000010    2    1    2    0  501 -0.14317447975E+04  0.24613908808E+02 -0.31354206354E+03  0.17692297926E+04  0.99063940158E+03 0.  0.
        -13    1    3    3    0    0  0.58077353185E+03 -0.50037958328E+03 -0.12398813537E+04  0.14577322817E+04  0.10566000000E+00 0.  1.
          4    1    3    3  502    0  0.85097126562E+03  0.47576567447E+03 -0.14717507900E+04  0.17653768606E+04  0.00000000000E+00 0.  1.
         13    1    4    4    0    0 -0.72499570586E+03  0.50416022340E+03 -0.21989407540E+03  0.91002731824E+03  0.10566000000E+00 0. -1.
         -4    1    4    4    0  501 -0.70674909161E+03 -0.47954631459E+03 -0.93647988136E+02  0.85920247440E+03  0.00000000000E+00 0. -1.
<mgrwt>
<rscale>  2 0.17417445E+04</rscale>
<asrwt>0</asrwt>
<pdfrwt beam="1">  1        1 0.15132037E+00 0.17417445E+04</pdfrwt>
<pdfrwt beam="2">  1       -1 0.61673176E+00 0.17417445E+04</pdfrwt>
<totfact> 0.39473382E-02</totfact>
</mgrwt>
</event>
<event>
 8    1  0.7046235E-006  0.1101615E+04  0.7818608E-02  0.8684576E-01
         -2   -1    0    0    0  501 -0.00000000000E+00  0.00000000000E+00  0.11602929150E+04  0.11602929150E+04  0.00000000000E+00 0.  1.
          2   -1    0    0  502    0  0.00000000000E+00 -0.00000000000E+00 -0.10919913492E+04  0.10919913492E+04  0.00000000000E+00 0. -1.
    9000010    2    1    2  502    0  0.22428114726E+03  0.38979186599E+03  0.26552085505E+03  0.11337761410E+04  0.10063335837E+04 0.  0.
   -9000010    2    1    2    0  501 -0.22428114726E+03 -0.38979186599E+03 -0.19721928919E+03  0.11185081232E+04  0.10049503679E+04 0.  0.
        -13    1    3    3    0    0  0.13917802714E+03 -0.16761281117E+03  0.48265671377E+03  0.52954895168E+03  0.10566000000E+00 0.  1.
          4    1    3    3  502    0  0.85103120116E+02  0.55740467716E+03 -0.21713585873E+03  0.60422718932E+03  0.00000000000E+00 0.  1.
         13    1    4    4    0    0 -0.54876499724E+03 -0.20540385913E+03 -0.38460262808E+03  0.70089440020E+03  0.10566000000E+00 0. -1.
         -4    1    4    4    0  501  0.32448384998E+03 -0.18438800686E+03  0.18738333889E+03  0.41761372303E+03  0.00000000000E+00 0. -1.
<mgrwt>
<rscale>  2 0.11016148E+04</rscale>
<asrwt>0</asrwt>
<pdfrwt beam="2">  1        2 0.16799867E+00 0.11016148E+04</pdfrwt>
<pdfrwt beam="1">  1       -2 0.17850660E+00 0.11016148E+04</pdfrwt>
<totfact> 0.51433285E+00</totfact>
</mgrwt>
</event>
<event>
 8    1  0.7046235E-006  0.1274106E+04  0.7818608E-02  0.8552754E-01
          2   -1    0    0  502    0  0.00000000000E+00  0.00000000000E+00  0.39921177819E+04  0.39921177819E+04  0.00000000000E+00 0. -1.
         -2   -1    0    0    0  501 -0.00000000000E+00 -0.00000000000E+00 -0.53253046853E+03  0.53253046853E+03  0.00000000000E+00 0.  1.
    9000010    2    1    2  502    0 -0.21824426781E+03  0.76095826523E+03  0.28365499706E+04  0.31122765278E+04  0.10067578696E+04 0.  0.
   -9000010    2    1    2    0  501  0.21824426781E+03 -0.76095826523E+03  0.62303734274E+03  0.14123717226E+04  0.98991429450E+03 0.  0.
        -13    1    3    3    0    0 -0.57722087732E+03  0.68956339908E+03  0.22207681835E+04  0.23959325864E+04  0.10566000000E+00 0.  1.
          4    1    3    3  502    0  0.35897660950E+03  0.71394866148E+02  0.61578178712E+03  0.71634394144E+03  0.00000000000E+00 0.  1.
         13    1    4    4    0    0  0.43145364951E+03 -0.58295160164E+03 -0.54261334036E+01  0.72526841625E+03  0.10566000000E+00 0. -1.
         -4    1    4    4    0  501 -0.21320938169E+03 -0.17800666359E+03  0.62846347615E+03  0.68710330633E+03  0.00000000000E+00 0. -1.
<mgrwt>
<rscale>  2 0.12741063E+04</rscale>
<asrwt>0</asrwt>
<pdfrwt beam="1">  1        2 0.61417195E+00 0.12741063E+04</pdfrwt>
<pdfrwt beam="2">  1       -2 0.81927767E-01 0.12741063E+04</pdfrwt>
<totfact> 0.65469685E-01</totfact>
</mgrwt>
</event>
<event>
 8    1  0.7046235E-006  0.1389778E+04  0.7818608E-02  0.8475899E-01
          2   -1    0    0  502    0  0.00000000000E+00  0.00000000000E+00  0.15890253278E+04  0.15890253278E+04  0.00000000000E+00 0. -1.
         -2   -1    0    0    0  501 -0.00000000000E+00 -0.00000000000E+00 -0.17257914353E+04  0.17257914353E+04  0.00000000000E+00 0.  1.
    9000010    2    1    2  502    0  0.82358463984E+03  0.50008263096E+03 -0.96950924745E+03  0.16921051738E+04  0.99744545801E+03 0.  0.
   -9000010    2    1    2    0  501 -0.82358463984E+03 -0.50008263096E+03  0.83274313997E+03  0.16227115892E+04  0.10056627009E+04 0.  0.
        -13    1    3    3    0    0  0.49454534637E+02  0.15968854646E+03  0.19249718945E+03  0.25495364672E+03  0.10566000000E+00 0.  1.
          4    1    3    3  502    0  0.77413010521E+03  0.34039408450E+03 -0.11620064369E+04  0.14371515271E+04  0.00000000000E+00 0.  1.
         13    1    4    4    0    0 -0.87191839020E+03 -0.20327161487E+03  0.19307453279E+03  0.91588144154E+03  0.10566000000E+00 0. -1.
         -4    1    4    4    0  501  0.48333750358E+02 -0.29681101609E+03  0.63966860718E+03  0.70683014771E+03  0.00000000000E+00 0. -1.
<mgrwt>
<rscale>  2 0.13897785E+04</rscale>
<asrwt>0</asrwt>
<pdfrwt beam="1">  1        2 0.24446544E+00 0.13897785E+04</pdfrwt>
<pdfrwt beam="2">  1       -2 0.26550637E+00 0.13897785E+04</pdfrwt>
<totfact> 0.52372245E-01</totfact>
</mgrwt>
</event>
<event>
 8    1  0.7046235E-006  0.1169305E+04  0.7818608E-02  0.8630042E-01
          2   -1    0    0  502    0  0.00000000000E+00  0.00000000000E+00  0.13745843921E+04  0.13745843921E+04  0.00000000000E+00 0. -1.
         -2   -1    0    0    0  501 -0.00000000000E+00 -0.00000000000E+00 -0.10136078969E+04  0.10136078969E+04  0.00000000000E+00 0.  1.
    9000010    2    1    2  502    0  0.47005502349E+03  0.24007402425E+03  0.16506544785E+02  0.11296042514E+04  0.99857199864E+03 0.  0.
   -9000010    2    1    2    0  501 -0.47005502349E+03 -0.24007402425E+03  0.34446995042E+03  0.12585880375E+04  0.10894021476E+04 0.  0.
        -13    1    3    3    0    0  0.17267324871E+03 -0.70334179180E+01 -0.47429424346E+03  0.50479754391E+03  0.10566000000E+00 0.  1.
          4    1    3    3  502    0  0.29738177478E+03  0.24710744216E+03  0.49080078825E+03  0.62480670746E+03  0.00000000000E+00 0.  1.
         13    1    4    4    0    0 -0.44464759118E+03  0.19648887000E+03  0.58410442767E+03  0.75993246408E+03  0.10566000000E+00 0. -1.
         -4    1    4    4    0  501 -0.25407432311E+02 -0.43656289424E+03 -0.23963447725E+03  0.49865557345E+03  0.00000000000E+00 0. -1.
<mgrwt>
<rscale>  2 0.11693051E+04</rscale>
<asrwt>0</asrwt>
<pdfrwt beam="1">  1        2 0.21147452E+00 0.11693051E+04</pdfrwt>
<pdfrwt beam="2">  1       -2 0.15593968E+00 0.11693051E+04</pdfrwt>
<totfact> 0.54852855E+00</totfact>
</mgrwt>
</event>
<event>
 8    1  0.7046235E-006  0.1062812E+04  0.7818608E-02  0.8717712E-01
         -2   -1    0    0    0  501 -0.00000000000E+00  0.00000000000E+00  0.44307195679E+03  0.44307195679E+03  0.00000000000E+00 0.  1.
          2   -1    0    0  502    0  0.00000000000E+00 -0.00000000000E+00 -0.34426598907E+04  0.34426598907E+04  0.00000000000E+00 0. -1.
    9000010    2    1    2  502    0 -0.36202629646E+03 -0.14208969657E+02 -0.51733481685E+03  0.11881853407E+04  0.10064214609E+04 0.  0.
   -9000010    2    1    2    0  501  0.36202629646E+03  0.14208969657E+02 -0.24822531171E+04  0.26975465068E+04  0.99192322541E+03 0.  0.
        -13    1    3    3    0    0 -0.10103764259E+03 -0.41038076858E+02 -0.79716932966E+03  0.80459410903E+03  0.10566000000E+00 0.  1.
          4    1    3    3  502    0 -0.26098865386E+03  0.26829107201E+02  0.27983451281E+03  0.38359123165E+03  0.00000000000E+00 0.  1.
         13    1    4    4    0    0 -0.13446277318E+03  0.25277050749E+03 -0.17906401200E+04  0.18133850163E+04  0.10566000000E+00 0. -1.
         -4    1    4    4    0  501  0.49648906964E+03 -0.23856153784E+03 -0.69161299709E+03  0.88416149053E+03  0.00000000000E+00 0. -1.
<mgrwt>
<rscale>  2 0.10628123E+04</rscale>
<asrwt>0</asrwt>
<pdfrwt beam="2">  1        2 0.52964000E+00 0.10628123E+04</pdfrwt>
<pdfrwt beam="1">  1       -2 0.68164914E-01 0.10628123E+04</pdfrwt>
<totfact> 0.27654145E+00</totfact>
</mgrwt>
</event>
<event>
 8    1  0.7046235E-006  0.1625854E+04  0.7818608E-02  0.8340538E-01
          1   -1    0    0  502    0  0.00000000000E+00  0.00000000000E+00  0.16000760565E+04  0.16000760565E+04  0.00000000000E+00 0.  1.
         -1   -1    0    0    0  501 -0.00000000000E+00 -0.00000000000E+00 -0.17533245487E+04  0.17533245487E+04  0.00000000000E+00 0. -1.
    9000010    2    1    2  502    0 -0.12068968850E+04  0.34729455131E+03 -0.47769234903E+03  0.16709867830E+04  0.99337467877E+03 0.  0.
   -9000010    2    1    2    0  501  0.12068968850E+04 -0.34729455131E+03  0.32444385682E+03  0.16824138221E+04  0.10714657514E+04 0.  0.
        -13    1    3    3    0    0 -0.68202858838E+03  0.20481206666E+03  0.25684542743E+03  0.75702084698E+03  0.10566000000E+00 0.  1.
          4    1    3    3  502    0 -0.52486829657E+03  0.14248248465E+03 -0.73453777646E+03  0.91396593603E+03  0.00000000000E+00 0.  1.
         13    1    4    4    0    0  0.10754462225E+04 -0.47007072229E+03  0.62681943099E+03  0.13305839589E+04  0.10566000000E+00 0. -1.
         -4    1    4    4    0  501  0.13145066245E+03  0.12277617098E+03 -0.30237557417E+03  0.35182986325E+03  0.00000000000E+00 0. -1.
<mgrwt>
<rscale>  2 0.16258538E+04</rscale>
<asrwt>0</asrwt>
<pdfrwt beam="1">  1        1 0.24616555E+00 0.16258538E+04</pdfrwt>
<pdfrwt beam="2">  1       -1 0.26974224E+00 0.16258538E+04</pdfrwt>
<totfact> 0.20444855E-01</totfact>
</mgrwt>
</event>
<event>
 8    1  0.7046235E-006  0.1096657E+04  0.7818608E-02  0.8688730E-01
         -2   -1    0    0    0  501 -0.00000000000E+00  0.00000000000E+00  0.10479193903E+04  0.10479193903E+04  0.00000000000E+00 0.  1.
          2   -1    0    0  502    0  0.00000000000E+00 -0.00000000000E+00 -0.11602160444E+04  0.11602160444E+04  0.00000000000E+00 0. -1.
    9000010    2    1    2  502    0 -0.40730419319E+03  0.19366315129E+03 -0.17096136096E+03  0.11092997332E+04  0.99895745117E+03 0.  0.
   -9000010    2    1    2    0  501  0.40730419319E+03 -0.19366315129E+03  0.58664706929E+02  0.10988357014E+04  0.10002980701E+04 0.  0.
        -13    1    3    3    0    0 -0.58067544379E+02  0.39059606687E+03 -0.46651211944E+03  0.61120429965E+03  0.10566000000E+00 0.  1.
          4    1    3    3  502    0 -0.34923664881E+03 -0.19693291557E+03  0.29555075848E+03  0.49809543358E+03  0.00000000000E+00 0.  1.
         13    1    4    4    0    0 -0.16044699815E+03 -0.13028899884E+03  0.38786325128E+03  0.43949559189E+03  0.10566000000E+00 0. -1.
         -4    1    4    4    0  501  0.56775119134E+03 -0.63374152449E+02 -0.32919854435E+03  0.65934010956E+03  0.00000000000E+00 0. -1.
<mgrwt>
<rscale>  2 0.10966574E+04</rscale>
<asrwt>0</asrwt>
<pdfrwt beam="2">  1        2 0.17849478E+00 0.10966574E+04</pdfrwt>
<pdfrwt beam="1">  1       -2 0.16121837E+00 0.10966574E+04</pdfrwt>
<totfact> 0.65661764E+00</totfact>
</mgrwt>
</event>
<event>
 8    1  0.7046235E-006  0.1947738E+04  0.7818608E-02  0.8190008E-01
          2   -1    0    0  502    0  0.00000000000E+00  0.00000000000E+00  0.21121577255E+04  0.21121577255E+04  0.00000000000E+00 0. -1.
         -2   -1    0    0    0  501 -0.00000000000E+00 -0.00000000000E+00 -0.19160927771E+04  0.19160927771E+04  0.00000000000E+00 0.  1.
    9000010    2    1    2  502    0  0.11200492589E+03 -0.17074250850E+04 -0.40624048337E+03  0.19533184980E+04  0.85004488119E+03 0.  0.
   -9000010    2    1    2    0  501 -0.11200492589E+03  0.17074250850E+04  0.60230543186E+03  0.20749320046E+04  0.10073358258E+04 0.  0.
        -13    1    3    3    0    0 -0.16723286225E+03 -0.96428365302E+02 -0.24274572539E+03  0.31014634967E+03  0.10566000000E+00 0.  1.
          4    1    3    3  502    0  0.27923778814E+03 -0.16109967197E+04 -0.16349475798E+03  0.16431721484E+04  0.00000000000E+00 0.  1.
         13    1    4    4    0    0 -0.13736775176E+03  0.16458622741E+04  0.82238095290E+03  0.18450048692E+04  0.10566000000E+00 0. -1.
         -4    1    4    4    0  501  0.25362825866E+02  0.61562810959E+02 -0.22007552105E+03  0.22992713540E+03  0.00000000000E+00 0. -1.
<mgrwt>
<rscale>  2 0.19477385E+04</rscale>
<asrwt>0</asrwt>
<pdfrwt beam="1">  1        2 0.32494734E+00 0.19477385E+04</pdfrwt>
<pdfrwt beam="2">  1       -2 0.29478350E+00 0.19477385E+04</pdfrwt>
<totfact> 0.15589994E-01</totfact>
</mgrwt>
</event>
<event>
 8    1  0.7046235E-006  0.1096287E+04  0.7818608E-02  0.8689041E-01
          2   -1    0    0  502    0  0.00000000000E+00  0.00000000000E+00  0.16727705426E+04  0.16727705426E+04  0.00000000000E+00 0.  1.
         -2   -1    0    0    0  501 -0.00000000000E+00 -0.00000000000E+00 -0.72455486858E+03  0.72455486858E+03  0.00000000000E+00 0. -1.
    9000010    2    1    2  502    0  0.87828744575E+01 -0.40362782841E+03  0.36733657408E+03  0.11623920851E+04  0.10262683070E+04 0.  0.
   -9000010    2    1    2    0  501 -0.87828744575E+01  0.40362782841E+03  0.58087909995E+03  0.12349333261E+04  0.10122486001E+04 0.  0.
        -13    1    3    3    0    0 -0.50310025168E+03 -0.12217341637E+03  0.14862921887E+03  0.53863425696E+03  0.10566000000E+00 0.  1.
          4    1    3    3  502    0  0.51188312614E+03 -0.28145441204E+03  0.21870735521E+03  0.62375782809E+03  0.00000000000E+00 0.  1.
         13    1    4    4    0    0 -0.40282711987E+03  0.53557453367E+03  0.40996625620E+03  0.78560938895E+03  0.10566000000E+00 0. -1.
         -4    1    4    4    0  501  0.39404424541E+03 -0.13194670526E+03  0.17091284375E+03  0.44932393719E+03  0.00000000000E+00 0. -1.
<mgrwt>
<rscale>  2 0.10962867E+04</rscale>
<asrwt>0</asrwt>
<pdfrwt beam="1">  1        2 0.25734931E+00 0.10962867E+04</pdfrwt>
<pdfrwt beam="2">  1       -2 0.11146998E+00 0.10962867E+04</pdfrwt>
<totfact> 0.97489302E+00</totfact>
</mgrwt>
</event>
<event>
 8    1  0.7046235E-006  0.1112672E+04  0.7818608E-02  0.8675394E-01
         -2   -1    0    0    0  501 -0.00000000000E+00  0.00000000000E+00  0.75256122522E+03  0.75256122522E+03  0.00000000000E+00 0.  1.
          2   -1    0    0  502    0  0.00000000000E+00 -0.00000000000E+00 -0.32027736390E+04  0.32027736390E+04  0.00000000000E+00 0. -1.
    9000010    2    1    2  502    0 -0.45804748839E+03  0.20475472645E+03  0.14477911991E+03  0.11381092783E+04  0.10112367360E+04 0.  0.
   -9000010    2    1    2    0  501  0.45804748839E+03 -0.20475472645E+03 -0.25949915337E+04  0.28172255859E+04  0.97521635665E+03 0.  0.
        -13    1    3    3    0    0 -0.53780709635E+03 -0.26612344525E+03  0.24836771840E+03  0.64941873680E+03  0.10566000000E+00 0.  1.
          4    1    3    3  502    0  0.79759607962E+02  0.47087817170E+03 -0.10358859849E+03  0.48869054153E+03  0.00000000000E+00 0.  1.
         13    1    4    4    0    0 -0.15077347925E+03  0.27030353205E+03 -0.54724478684E+03  0.62870780922E+03  0.10566000000E+00 0. -1.
         -4    1    4    4    0  501  0.60882096763E+03 -0.47505825850E+03 -0.20477467468E+04  0.21885177766E+04  0.00000000000E+00 0. -1.
<mgrwt>
<rscale>  2 0.11126718E+04</rscale>
<asrwt>0</asrwt>
<pdfrwt beam="2">  1        2 0.49273442E+00 0.11126718E+04</pdfrwt>
<pdfrwt beam="1">  1       -2 0.11577865E+00 0.11126718E+04</pdfrwt>
<totfact> 0.11821037E+00</totfact>
</mgrwt>
</event>
<event>
 8    1  0.7046235E-006  0.1039930E+04  0.7818608E-02  0.8737953E-01
         -1   -1    0    0    0  501 -0.00000000000E+00  0.00000000000E+00  0.74210278022E+03  0.74210278022E+03  0.00000000000E+00 0.  1.
          1   -1    0    0  502    0  0.00000000000E+00 -0.00000000000E+00 -0.17887246559E+04  0.17887246559E+04  0.00000000000E+00 0. -1.
    9000010    2    1    2  502    0  0.31262459719E+03 -0.18214123487E+02 -0.10701193859E+04  0.14958267384E+04  0.99713401210E+03 0.  0.
   -9000010    2    1    2    0  501 -0.31262459719E+03  0.18214123487E+02  0.23497510287E+02  0.10350006977E+04  0.98620911483E+03 0.  0.
        -13    1    3    3    0    0  0.50446366395E+03  0.10251625826E+03 -0.11463964248E+04  0.12566693859E+04  0.10566000000E+00 0.  1.
          4    1    3    3  502    0 -0.19183906676E+03 -0.12073038175E+03  0.76277038848E+02  0.23915735253E+03  0.00000000000E+00 0.  1.
         13    1    4    4    0    0  0.71221216615E+01  0.70712453933E+02  0.47442920711E+03  0.47972289864E+03  0.10566000000E+00 0. -1.
         -4    1    4    4    0  501 -0.31974671886E+03 -0.52498330446E+02 -0.45093169683E+03  0.55527779905E+03  0.00000000000E+00 0. -1.
<mgrwt>
<rscale>  2 0.10399298E+04</rscale>
<asrwt>0</asrwt>
<pdfrwt beam="2">  1        1 0.27518841E+00 0.10399298E+04</pdfrwt>
<pdfrwt beam="1">  1       -1 0.11416966E+00 0.10399298E+04</pdfrwt>
<totfact> 0.41271855E+00</totfact>
</mgrwt>
</event>
<event>
 8    1  0.7046235E-006  0.1200728E+04  0.7818608E-02  0.8606014E-01
         -1   -1    0    0    0  501 -0.00000000000E+00  0.00000000000E+00  0.12188243596E+04  0.12188243596E+04  0.00000000000E+00 0.  1.
          1   -1    0    0  502    0  0.00000000000E+00 -0.00000000000E+00 -0.14009420908E+04  0.14009420908E+04  0.00000000000E+00 0. -1.
    9000010    2    1    2  502    0  0.41003925664E+03 -0.54194703583E+03 -0.60754748150E+03  0.13421115055E+04  0.98504343517E+03 0.  0.
   -9000010    2    1    2    0  501 -0.41003925664E+03  0.54194703583E+03  0.42542975030E+03  0.12776549450E+04  0.99477279036E+03 0.  0.
        -13    1    3    3    0    0  0.68858658581E+03 -0.47877734071E+03 -0.23178023529E+03  0.87011569160E+03  0.10566000000E+00 0.  1.
          4    1    3    3  502    0 -0.27854732917E+03 -0.63169695122E+02 -0.37576724620E+03  0.47199581385E+03  0.00000000000E+00 0.  1.
         13    1    4    4    0    0  0.19426122746E+03  0.12167371769E+02 -0.18494452285E+03  0.26849573019E+03  0.10566000000E+00 0. -1.
         -4    1    4    4    0  501 -0.60430048410E+03  0.52977966406E+03  0.61037427316E+03  0.10091592148E+04  0.00000000000E+00 0. -1.
<mgrwt>
<rscale>  2 0.12007283E+04</rscale>
<asrwt>0</asrwt>
<pdfrwt beam="2">  1        1 0.21552955E+00 0.12007283E+04</pdfrwt>
<pdfrwt beam="1">  1       -1 0.18751144E+00 0.12007283E+04</pdfrwt>
<totfact> 0.17983521E+00</totfact>
</mgrwt>
</event>
<event>
 8    1  0.7046235E-006  0.1419122E+04  0.7818608E-02  0.8457621E-01
          2   -1    0    0  502    0  0.00000000000E+00  0.00000000000E+00  0.57430396110E+03  0.57430396110E+03  0.00000000000E+00 0. -1.
         -2   -1    0    0    0  501 -0.00000000000E+00 -0.00000000000E+00 -0.40712950170E+04  0.40712950170E+04  0.00000000000E+00 0.  1.
    9000010    2    1    2  502    0  0.52673570589E+03  0.84930804647E+03 -0.87727451033E+03  0.16633741956E+04  0.99921393432E+03 0.  0.
   -9000010    2    1    2    0  501 -0.52673570589E+03 -0.84930804647E+03 -0.26197165456E+04  0.29822247825E+04  0.10158618077E+04 0.  0.
        -13    1    3    3    0    0  0.58632733561E+03  0.38106857280E+02 -0.47711977758E+03  0.75688517649E+03  0.10566000000E+00 0.  1.
          4    1    3    3  502    0 -0.59591629727E+02  0.81120118919E+03 -0.40015473275E+03  0.90648901914E+03  0.00000000000E+00 0.  1.
         13    1    4    4    0    0 -0.31529824110E+03 -0.31018263835E+03 -0.22547210449E+04  0.22976930282E+04  0.10566000000E+00 0. -1.
         -4    1    4    4    0  501 -0.21143746479E+03 -0.53912540812E+03 -0.36499550064E+03  0.68453175433E+03  0.00000000000E+00 0. -1.
<mgrwt>
<rscale>  2 0.14191218E+04</rscale>
<asrwt>0</asrwt>
<pdfrwt beam="1">  1        2 0.88354456E-01 0.14191218E+04</pdfrwt>
<pdfrwt beam="2">  1       -2 0.62635308E+00 0.14191218E+04</pdfrwt>
<totfact> 0.30347278E-01</totfact>
</mgrwt>
</event>
<event>
 8    1  0.7046235E-006  0.1298088E+04  0.7818608E-02  0.8536147E-01
         -2   -1    0    0    0  501 -0.00000000000E+00  0.00000000000E+00  0.97141823142E+03  0.97141823142E+03  0.00000000000E+00 0.  1.
          2   -1    0    0  502    0  0.00000000000E+00 -0.00000000000E+00 -0.19613116519E+04  0.19613116519E+04  0.00000000000E+00 0. -1.
    9000010    2    1    2  502    0  0.49039694659E+03 -0.67949085763E+03 -0.99306830996E+03  0.16334187650E+04  0.98978543276E+03 0.  0.
   -9000010    2    1    2    0  501 -0.49039694659E+03  0.67949085763E+03  0.31748894832E+01  0.12993111183E+04  0.99297649083E+03 0.  0.
        -13    1    3    3    0    0  0.76186314897E+03 -0.44838864030E+03 -0.47220888356E+03  0.10022320447E+04  0.10566000000E+00 0.  1.
          4    1    3    3  502    0 -0.27146620237E+03 -0.23110221733E+03 -0.52085942640E+03  0.63118672036E+03  0.00000000000E+00 0.  1.
         13    1    4    4    0    0  0.12474944470E+03 -0.90586100301E+01 -0.30199633844E+03  0.32687349535E+03  0.10566000000E+00 0. -1.
         -4    1    4    4    0  501 -0.61514639129E+03  0.68854946766E+03  0.30517122792E+03  0.97243762293E+03  0.00000000000E+00 0. -1.
<mgrwt>
<rscale>  2 0.12980881E+04</rscale>
<asrwt>0</asrwt>
<pdfrwt beam="2">  1        2 0.30174025E+00 0.12980881E+04</pdfrwt>
<pdfrwt beam="1">  1       -2 0.14944896E+00 0.12980881E+04</pdfrwt>
<totfact> 0.29511326E+00</totfact>
</mgrwt>
</event>
<event>
 8    1  0.7046235E-006  0.1397903E+04  0.7818608E-02  0.8470792E-01
         -2   -1    0    0    0  501 -0.00000000000E+00  0.00000000000E+00  0.50963134401E+03  0.50963134401E+03  0.00000000000E+00 0.  1.
          2   -1    0    0  502    0  0.00000000000E+00 -0.00000000000E+00 -0.39495932501E+04  0.39495932501E+04  0.00000000000E+00 0. -1.
    9000010    2    1    2  502    0 -0.94984996271E+03  0.16908281127E+03 -0.13569615442E+04  0.19585282971E+04  0.10313508178E+04 0.  0.
   -9000010    2    1    2    0  501  0.94984996271E+03 -0.16908281127E+03 -0.20830003619E+04  0.25006962970E+04  0.99186063212E+03 0.  0.
        -13    1    3    3    0    0 -0.19298538077E+03 -0.16620392027E+03 -0.10422516175E+04  0.10729191701E+04  0.10566000000E+00 0.  1.
          4    1    3    3  502    0 -0.75686458194E+03  0.33528673154E+03 -0.31470992665E+03  0.88560912691E+03  0.00000000000E+00 0.  1.
         13    1    4    4    0    0  0.62139345473E+03  0.13932838011E+03 -0.19178686858E+04  0.20208321381E+04  0.10566000000E+00 0. -1.
         -4    1    4    4    0  501  0.32845650797E+03 -0.30841119138E+03 -0.16513167610E+03  0.47986415895E+03  0.00000000000E+00 0. -1.
<mgrwt>
<rscale>  2 0.13979026E+04</rscale>
<asrwt>0</asrwt>
<pdfrwt beam="2">  1        2 0.60762977E+00 0.13979026E+04</pdfrwt>
<pdfrwt beam="1">  1       -2 0.78404817E-01 0.13979026E+04</pdfrwt>
<totfact> 0.77100849E-01</totfact>
</mgrwt>
</event>
<event>
 8    1  0.7046235E-006  0.1499008E+04  0.7818608E-02  0.8410070E-01
          1   -1    0    0  502    0  0.00000000000E+00  0.00000000000E+00  0.14502761871E+04  0.14502761871E+04  0.00000000000E+00 0. -1.
         -1   -1    0    0    0  501 -0.00000000000E+00 -0.00000000000E+00 -0.18057575980E+04  0.18057575980E+04  0.00000000000E+00 0.  1.
    9000010    2    1    2  502    0 -0.67966904627E+03  0.89146737020E+03 -0.79081635744E+03  0.16917635824E+04  0.98995425303E+03 0.  0.
   -9000010    2    1    2    0  501  0.67966904627E+03 -0.89146737020E+03  0.43533494654E+03  0.15642702027E+04  0.10003802611E+04 0.  0.
        -13    1    3    3    0    0  0.12557720468E+03  0.54860466296E+03 -0.88707855135E+02  0.56974187601E+03  0.10566000000E+00 0.  1.
          4    1    3    3  502    0 -0.80524625096E+03  0.34286270725E+03 -0.70210850230E+03  0.11220217064E+04  0.00000000000E+00 0.  1.
         13    1    4    4    0    0  0.74665754635E+03 -0.43827863710E+03  0.62566162536E+03  0.10681938662E+04  0.10566000000E+00 0. -1.
         -4    1    4    4    0  501 -0.66988500072E+02 -0.45318873310E+03 -0.19032667882E+03  0.49607633649E+03  0.00000000000E+00 0. -1.
<mgrwt>
<rscale>  2 0.14990081E+04</rscale>
<asrwt>0</asrwt>
<pdfrwt beam="1">  1        1 0.22311941E+00 0.14990081E+04</pdfrwt>
<pdfrwt beam="2">  1       -1 0.27780886E+00 0.14990081E+04</pdfrwt>
<totfact> 0.22423984E-01</totfact>
</mgrwt>
</event>
<event>
 8    1  0.7046235E-006  0.1432353E+04  0.7818608E-02  0.8449526E-01
          2   -1    0    0  502    0  0.00000000000E+00  0.00000000000E+00  0.21816600589E+04  0.21816600589E+04  0.00000000000E+00 0. -1.
         -2   -1    0    0    0  501 -0.00000000000E+00 -0.00000000000E+00 -0.94090552296E+03  0.94090552296E+03  0.00000000000E+00 0.  1.
    9000010    2    1    2  502    0 -0.32215629864E+03 -0.96977532651E+03  0.58153574268E+03  0.15333373884E+04  0.98422094172E+03 0.  0.
   -9000010    2    1    2    0  501  0.32215629864E+03  0.96977532651E+03  0.65921879322E+03  0.15892281934E+04  0.10231461130E+04 0.  0.
        -13    1    3    3    0    0 -0.49011515797E+02 -0.95330526385E+03  0.74865885556E+02  0.95749567453E+03  0.10566000000E+00 0.  1.
          4    1    3    3  502    0 -0.27314478285E+03 -0.16470062660E+02  0.50666985712E+03  0.57584171391E+03  0.00000000000E+00 0.  1.
         13    1    4    4    0    0 -0.28849406861E+03  0.43739371854E+03 -0.31068213384E+02  0.52488792869E+03  0.10566000000E+00 0. -1.
         -4    1    4    4    0  501  0.61065036725E+03  0.53238160798E+03  0.69028700660E+03  0.10643402647E+04  0.00000000000E+00 0. -1.
<mgrwt>
<rscale>  2 0.14323534E+04</rscale>
<asrwt>0</asrwt>
<pdfrwt beam="1">  1        2 0.33564001E+00 0.14323534E+04</pdfrwt>
<pdfrwt beam="2">  1       -2 0.14475470E+00 0.14323534E+04</pdfrwt>
<totfact> 0.24259668E+00</totfact>
</mgrwt>
</event>
<event>
 8    1  0.7046235E-006  0.1494537E+04  0.7818608E-02  0.8412650E-01
         -1   -1    0    0    0  501 -0.00000000000E+00  0.00000000000E+00  0.32899688132E+04  0.32899688132E+04  0.00000000000E+00 0.  1.
          1   -1    0    0  502    0  0.00000000000E+00 -0.00000000000E+00 -0.73868776660E+03  0.73868776660E+03  0.00000000000E+00 0. -1.
    9000010    2    1    2  502    0 -0.10680458160E+04 -0.31322324541E+03  0.70328599195E+03  0.16524292454E+04  0.99853921211E+03 0.  0.
   -9000010    2    1    2    0  501  0.10680458160E+04  0.31322324541E+03  0.18479950547E+04  0.23762273344E+04  0.99626299549E+03 0.  0.
        -13    1    3    3    0    0 -0.57873717000E+03 -0.68459041074E+02 -0.18303973660E+03  0.61084114840E+03  0.10566000000E+00 0.  1.
          4    1    3    3  502    0 -0.48930864599E+03 -0.24476420433E+03  0.88632572855E+03  0.10415880970E+04  0.00000000000E+00 0.  1.
         13    1    4    4    0    0  0.56710559734E+03 -0.31613701776E+03  0.55858596037E+03  0.85648681182E+03  0.10566000000E+00 0. -1.
         -4    1    4    4    0  501  0.50094021865E+03  0.62936026317E+03  0.12894090943E+04  0.15197405226E+04  0.00000000000E+00 0. -1.
<mgrwt>
<rscale>  2 0.14945366E+04</rscale>
<asrwt>0</asrwt>
<pdfrwt beam="2">  1        1 0.11364427E+00 0.14945366E+04</pdfrwt>
<pdfrwt beam="1">  1       -1 0.50614904E+00 0.14945366E+04</pdfrwt>
<totfact> 0.29907961E-01</totfact>
</mgrwt>
</event>
<event>
 8    1  0.7046235E-006  0.1531186E+04  0.7818608E-02  0.8391774E-01
         -2   -1    0    0    0  501 -0.00000000000E+00  0.00000000000E+00  0.12098565883E+04  0.12098565883E+04  0.00000000000E+00 0.  1.
          2   -1    0    0  502    0  0.00000000000E+00 -0.00000000000E+00 -0.19477049727E+04  0.19477049727E+04  0.00000000000E+00 0. -1.
    9000010    2    1    2  502    0 -0.85471387578E+03 -0.68672168506E+03 -0.25670402802E+03  0.15527212746E+04  0.10690761976E+04 0.  0.
   -9000010    2    1    2    0  501  0.85471387578E+03  0.68672168506E+03 -0.48114435639E+03  0.16048402864E+04  0.10685925187E+04 0.  0.
        -13    1    3    3    0    0  0.24548896553E+03 -0.36164227384E+02  0.43787745797E+01  0.24817709075E+03  0.10566000000E+00 0.  1.
          4    1    3    3  502    0 -0.11002028413E+04 -0.65055745767E+03 -0.26108280260E+03  0.13045441838E+04  0.00000000000E+00 0.  1.
         13    1    4    4    0    0 -0.85167157279E+02  0.53120488484E+03 -0.92744079550E+00  0.53798972636E+03  0.10566000000E+00 0. -1.
         -4    1    4    4    0  501  0.93988103306E+03  0.15551680022E+03 -0.48021691559E+03  0.10668505601E+04  0.00000000000E+00 0. -1.
<mgrwt>
<rscale>  2 0.15311856E+04</rscale>
<asrwt>0</asrwt>
<pdfrwt beam="2">  1        2 0.29964691E+00 0.15311856E+04</pdfrwt>
<pdfrwt beam="1">  1       -2 0.18613179E+00 0.15311856E+04</pdfrwt>
<totfact> 0.14258452E+00</totfact>
</mgrwt>
</event>
<event>
 8    1  0.7046235E-006  0.1264586E+04  0.7818608E-02  0.8559452E-01
         -2   -1    0    0    0  501 -0.00000000000E+00  0.00000000000E+00  0.91351860358E+03  0.91351860358E+03  0.00000000000E+00 0. -1.
          2   -1    0    0  502    0  0.00000000000E+00 -0.00000000000E+00 -0.29542503976E+04  0.29542503976E+04  0.00000000000E+00 0.  1.
    9000010    2    1    2  502    0 -0.89526992163E+02  0.70722649011E+03  0.19433496781E+03  0.13183233731E+04  0.10917994531E+04 0.  0.
   -9000010    2    1    2    0  501  0.89526992163E+02 -0.70722649011E+03 -0.22350667619E+04  0.25494456281E+04  0.99798055584E+03 0.  0.
        -13    1    3    3    0    0 -0.43819057092E+03  0.46732288116E+02  0.34097855908E+03  0.55719051689E+03  0.10566000000E+00 0.  1.
          4    1    3    3  502    0  0.34866357876E+03  0.66049420199E+03 -0.14664359127E+03  0.76113285626E+03  0.00000000000E+00 0.  1.
         13    1    4    4    0    0  0.26866087104E+03 -0.61352954200E+00 -0.14636016461E+04  0.14880553853E+04  0.10566000000E+00 0. -1.
         -4    1    4    4    0  501 -0.17913387888E+03 -0.70661296057E+03 -0.77146511571E+03  0.10613902427E+04  0.00000000000E+00 0. -1.
<mgrwt>
<rscale>  2 0.12645862E+04</rscale>
<asrwt>0</asrwt>
<pdfrwt beam="2">  1        2 0.45450005E+00 0.12645862E+04</pdfrwt>
<pdfrwt beam="1">  1       -2 0.14054133E+00 0.12645862E+04</pdfrwt>
<totfact> 0.97271272E-01</totfact>
</mgrwt>
</event>
<event>
 8    1  0.7046235E-006  0.1208021E+04  0.7818608E-02  0.8600546E-01
          2   -1    0    0  502    0  0.00000000000E+00  0.00000000000E+00  0.39703683075E+03  0.39703683075E+03  0.00000000000E+00 0. -1.
         -2   -1    0    0    0  501 -0.00000000000E+00 -0.00000000000E+00 -0.38451319862E+04  0.38451319862E+04  0.00000000000E+00 0.  1.
    9000010    2    1    2  502    0  0.42777110522E+03 -0.51046703441E+03 -0.21767719857E+04  0.24921285313E+04  0.10142995746E+04 0.  0.
   -9000010    2    1    2    0  501 -0.42777110522E+03  0.51046703441E+03 -0.12713231698E+04  0.17500402857E+04  0.10014058557E+04 0.  0.
        -13    1    3    3    0    0  0.48068969725E+02 -0.73244371753E+03 -0.16498495674E+04  0.18057652204E+04  0.10566000000E+00 0.  1.
          4    1    3    3  502    0  0.37970213549E+03  0.22197668312E+03 -0.52692241832E+03  0.68636331084E+03  0.00000000000E+00 0.  1.
         13    1    4    4    0    0 -0.19307597370E+03  0.54882404312E+03 -0.14596060036E+03  0.59982553292E+03  0.10566000000E+00 0. -1.
         -4    1    4    4    0  501 -0.23469513151E+03 -0.38357008709E+02 -0.11253625694E+04  0.11502147528E+04  0.00000000000E+00 0. -1.
<mgrwt>
<rscale>  2 0.12080213E+04</rscale>
<asrwt>0</asrwt>
<pdfrwt beam="1">  1        2 0.61082589E-01 0.12080213E+04</pdfrwt>
<pdfrwt beam="2">  1       -2 0.59155877E+00 0.12080213E+04</pdfrwt>
<totfact> 0.55947791E-01</totfact>
</mgrwt>
</event>
<event>
 8    1  0.7046235E-006  0.1210795E+04  0.7818608E-02  0.8598477E-01
          2   -1    0    0  502    0  0.00000000000E+00  0.00000000000E+00  0.23777192058E+04  0.23777192058E+04  0.00000000000E+00 0. -1.
         -2   -1    0    0    0  501 -0.00000000000E+00 -0.00000000000E+00 -0.70312276468E+03  0.70312276468E+03  0.00000000000E+00 0.  1.
    9000010    2    1    2  502    0 -0.19552986102E+03 -0.65716423329E+03  0.13716096109E+04  0.18230553907E+04  0.98596210731E+03 0.  0.
   -9000010    2    1    2    0  501  0.19552986102E+03  0.65716423329E+03  0.30298683024E+03  0.12577865797E+04  0.10100145072E+04 0.  0.
        -13    1    3    3    0    0 -0.36413216225E+03 -0.22410739655E+03  0.60259814640E+02  0.43179580035E+03  0.10566000000E+00 0.  1.
          4    1    3    3  502    0  0.16860230123E+03 -0.43305683674E+03  0.13113497962E+04  0.13912595904E+04  0.00000000000E+00 0.  1.
         13    1    4    4    0    0  0.57214484957E+03  0.38228817073E+03  0.37868040890E+03  0.78542525909E+03  0.10566000000E+00 0. -1.
         -4    1    4    4    0  501 -0.37661498855E+03  0.27487606256E+03 -0.75693578659E+02  0.47236132062E+03  0.00000000000E+00 0. -1.
<mgrwt>
<rscale>  2 0.12107954E+04</rscale>
<asrwt>0</asrwt>
<pdfrwt beam="1">  1        2 0.36580295E+00 0.12107954E+04</pdfrwt>
<pdfrwt beam="2">  1       -2 0.10817273E+00 0.12107954E+04</pdfrwt>
<totfact> 0.42825709E+00</totfact>
</mgrwt>
</event>
<event>
 8    1  0.7046235E-006  0.1537082E+04  0.7818608E-02  0.8388472E-01
         -2   -1    0    0    0  501 -0.00000000000E+00  0.00000000000E+00  0.61996198435E+03  0.61996198435E+03  0.00000000000E+00 0.  1.
          2   -1    0    0  502    0  0.00000000000E+00 -0.00000000000E+00 -0.39460957489E+04  0.39460957489E+04  0.00000000000E+00 0. -1.
    9000010    2    1    2  502    0  0.11599100158E+04  0.13179830136E+03 -0.20893070430E+04  0.25959161586E+04  0.10053928314E+04 0.  0.
   -9000010    2    1    2    0  501 -0.11599100158E+04 -0.13179830136E+03 -0.12368267215E+04  0.19701415746E+04  0.99446239152E+03 0.  0.
        -13    1    3    3    0    0  0.58677169895E+03 -0.40334306723E+03 -0.13064676063E+04  0.14878992822E+04  0.10566000000E+00 0.  1.
          4    1    3    3  502    0  0.57313831683E+03  0.53514136859E+03 -0.78283943671E+03  0.11080168763E+04  0.00000000000E+00 0.  1.
         13    1    4    4    0    0 -0.10640099560E+04  0.52189689225E+02 -0.45002726154E+03  0.11564451986E+04  0.10566000000E+00 0. -1.
         -4    1    4    4    0  501 -0.95900059780E+02 -0.18398799058E+03 -0.78679945996E+03  0.81369637601E+03  0.00000000000E+00 0. -1.
<mgrwt>
<rscale>  2 0.15370823E+04</rscale>
<asrwt>0</asrwt>
<pdfrwt beam="2">  1        2 0.60709167E+00 0.15370823E+04</pdfrwt>
<pdfrwt beam="1">  1       -2 0.95378765E-01 0.15370823E+04</pdfrwt>
<totfact> 0.48835941E-01</totfact>
</mgrwt>
</event>
<event>
 8    1  0.7046235E-006  0.1559516E+04  0.7818608E-02  0.8376048E-01
          4   -1    0    0  502    0  0.00000000000E+00  0.00000000000E+00  0.17865066580E+04  0.17865066580E+04  0.00000000000E+00 0.  1.
         -4   -1    0    0    0  501 -0.00000000000E+00 -0.00000000000E+00 -0.18341395661E+04  0.18341395661E+04  0.00000000000E+00 0. -1.
    9000010    2    1    2  502    0  0.90836204363E+03 -0.77105025475E+03  0.89517081487E+03  0.18045524342E+04  0.10175650359E+04 0.  0.
   -9000010    2    1    2    0  501 -0.90836204363E+03  0.77105025475E+03 -0.94280372297E+03  0.18160937898E+04  0.99482545995E+03 0.  0.
        -13    1    3    3    0    0  0.81190004596E+02  0.11955464687E+03  0.50912710798E+03  0.52924054425E+03  0.10566000000E+00 0.  1.
          4    1    3    3  502    0  0.82717203904E+03 -0.89060490162E+03  0.38604370688E+03  0.12753118899E+04  0.00000000000E+00 0.  1.
         13    1    4    4    0    0  0.74670149916E+02  0.47450154201E+03 -0.51358485640E+03  0.70320463632E+03  0.10566000000E+00 0. -1.
         -4    1    4    4    0  501 -0.98303219355E+03  0.29654871274E+03 -0.42921886657E+03  0.11128891535E+04  0.00000000000E+00 0. -1.
<mgrwt>
<rscale>  2 0.15595162E+04</rscale>
<asrwt>0</asrwt>
<pdfrwt beam="1">  1        4 0.27484718E+00 0.15595162E+04</pdfrwt>
<pdfrwt beam="2">  1       -4 0.28217532E+00 0.15595162E+04</pdfrwt>
<totfact> 0.71777039E-02</totfact>
</mgrwt>
</event>
<event>
 8    1  0.7046235E-006  0.1279112E+04  0.7818608E-02  0.8549257E-01
         -2   -1    0    0    0  501 -0.00000000000E+00  0.00000000000E+00  0.65071049421E+03  0.65071049421E+03  0.00000000000E+00 0. -1.
          2   -1    0    0  502    0  0.00000000000E+00 -0.00000000000E+00 -0.27514186143E+04  0.27514186143E+04  0.00000000000E+00 0.  1.
    9000010    2    1    2  502    0 -0.55164905731E+03 -0.59432078981E+03 -0.56103952361E+03  0.14086396103E+04  0.10059653677E+04 0.  0.
   -9000010    2    1    2    0  501  0.55164905731E+03  0.59432078981E+03 -0.15396685964E+04  0.19934894981E+04  0.97256727721E+03 0.  0.
        -13    1    3    3    0    0  0.11343353154E+03 -0.61543543076E+03 -0.24606692444E+03  0.67244098476E+03  0.10566000000E+00 0.  1.
          4    1    3    3  502    0 -0.66508258885E+03  0.21114640949E+02 -0.31497259917E+03  0.73619862556E+03  0.00000000000E+00 0.  1.
         13    1    4    4    0    0  0.33038164657E+03  0.37208764903E+03 -0.84261932044E+02  0.50467943816E+03  0.10566000000E+00 0. -1.
         -4    1    4    4    0  501  0.22126741073E+03  0.22223314079E+03 -0.14554066644E+04  0.14888100600E+04  0.00000000000E+00 0. -1.
<mgrwt>
<rscale>  2 0.12791118E+04</rscale>
<asrwt>0</asrwt>
<pdfrwt beam="2">  1        2 0.42329517E+00 0.12791118E+04</pdfrwt>
<pdfrwt beam="1">  1       -2 0.10010931E+00 0.12791118E+04</pdfrwt>
<totfact> 0.31491413E+00</totfact>
</mgrwt>
</event>
<event>
 8    1  0.7046235E-006  0.1270731E+04  0.7818608E-02  0.8555122E-01
          2   -1    0    0  502    0  0.00000000000E+00  0.00000000000E+00  0.21643880588E+04  0.21643880588E+04  0.00000000000E+00 0.  1.
         -2   -1    0    0    0  501 -0.00000000000E+00 -0.00000000000E+00 -0.75445094965E+03  0.75445094965E+03  0.00000000000E+00 0. -1.
    9000010    2    1    2  502    0  0.12208212165E+03 -0.79522763525E+03  0.54681263453E+03  0.13758744391E+04  0.97300327783E+03 0.  0.
   -9000010    2    1    2    0  501 -0.12208212165E+03  0.79522763525E+03  0.86312447466E+03  0.15429645694E+04  0.99421565429E+03 0.  0.
        -13    1    3    3    0    0  0.19563268250E+03 -0.76532530625E+01 -0.20579088558E+03  0.28404333911E+03  0.10566000000E+00 0.  1.
          4    1    3    3  502    0 -0.73550560852E+02 -0.78757438219E+03  0.75260352010E+03  0.10918311000E+04  0.00000000000E+00 0.  1.
         13    1    4    4    0    0 -0.88455908371E+02  0.26950097037E+03  0.96550467746E+03  0.10063073656E+04  0.10566000000E+00 0. -1.
         -4    1    4    4    0  501 -0.33626213275E+02  0.52572666488E+03 -0.10238020280E+03  0.53665720372E+03  0.00000000000E+00 0. -1.
<mgrwt>
<rscale>  2 0.12707306E+04</rscale>
<asrwt>0</asrwt>
<pdfrwt beam="1">  1        2 0.33298278E+00 0.12707306E+04</pdfrwt>
<pdfrwt beam="2">  1       -2 0.11606938E+00 0.12707306E+04</pdfrwt>
<totfact> 0.46569287E+00</totfact>
</mgrwt>
</event>
<event>
 8    1  0.7046235E-006  0.1339999E+04  0.7818608E-02  0.8507993E-01
         -2   -1    0    0    0  501 -0.00000000000E+00  0.00000000000E+00  0.11838569907E+04  0.11838569907E+04  0.00000000000E+00 0.  1.
          2   -1    0    0  502    0  0.00000000000E+00 -0.00000000000E+00 -0.16070783447E+04  0.16070783447E+04  0.00000000000E+00 0. -1.
    9000010    2    1    2  502    0  0.70428062627E+03 -0.59423578367E+03 -0.54204975908E+03  0.14429219632E+04  0.96906061901E+03 0.  0.
   -9000010    2    1    2    0  501 -0.70428062627E+03  0.59423578367E+03  0.11882840510E+03  0.13480133722E+04  0.97667420085E+03 0.  0.
        -13    1    3    3    0    0  0.87434464373E+03 -0.55938580569E+03 -0.66272476225E+03  0.12315011804E+04  0.10566000000E+00 0.  1.
          4    1    3    3  502    0 -0.17006401746E+03 -0.34849977985E+02  0.12067500317E+03  0.21142078278E+03  0.00000000000E+00 0.  1.
         13    1    4    4    0    0 -0.84188299300E+03  0.67287642147E+03 -0.94922844063E+02  0.10819149735E+04  0.10566000000E+00 0. -1.
         -4    1    4    4    0  501  0.13760236673E+03 -0.78640637801E+02  0.21375124916E+03  0.26609839865E+03  0.00000000000E+00 0. -1.
<mgrwt>
<rscale>  2 0.13399991E+04</rscale>
<asrwt>0</asrwt>
<pdfrwt beam="2">  1        2 0.24724282E+00 0.13399991E+04</pdfrwt>
<pdfrwt beam="1">  1       -2 0.18213185E+00 0.13399991E+04</pdfrwt>
<totfact> 0.24096630E+00</totfact>
</mgrwt>
</event>
<event>
 8    1  0.7046235E-006  0.1377988E+04  0.7818608E-02  0.8483374E-01
          2   -1    0    0  502    0  0.00000000000E+00  0.00000000000E+00  0.37758499552E+04  0.37758499552E+04  0.00000000000E+00 0.  1.
         -2   -1    0    0    0  501 -0.00000000000E+00 -0.00000000000E+00 -0.51234018592E+03  0.51234018592E+03  0.00000000000E+00 0. -1.
    9000010    2    1    2  502    0 -0.20620943637E+03  0.93486155863E+03  0.13458753388E+04  0.19293880579E+04  0.99733113096E+03 0.  0.
   -9000010    2    1    2    0  501  0.20620943637E+03 -0.93486155863E+03  0.19176344305E+04  0.23588020833E+04  0.98495532566E+03 0.  0.
        -13    1    3    3    0    0  0.10053908194E+03  0.69463076881E+03  0.13696795426E+04  0.15390393343E+04  0.10566000000E+00 0.  1.
          4    1    3    3  502    0 -0.30674851830E+03  0.24023078982E+03 -0.23804203806E+02  0.39034872355E+03  0.00000000000E+00 0.  1.
         13    1    4    4    0    0  0.51337153939E+03 -0.79758104285E+03  0.17315574773E+04  0.19743295484E+04  0.10566000000E+00 0. -1.
         -4    1    4    4    0  501 -0.30716210302E+03 -0.13728051578E+03  0.18607695319E+03  0.38447253485E+03  0.00000000000E+00 0. -1.
<mgrwt>
<rscale>  2 0.13779884E+04</rscale>
<asrwt>0</asrwt>
<pdfrwt beam="1">  1        2 0.58089998E+00 0.13779884E+04</pdfrwt>
<pdfrwt beam="2">  1       -2 0.78821569E-01 0.13779884E+04</pdfrwt>
<totfact> 0.10657360E+00</totfact>
</mgrwt>
</event>
<event>
 8    1  0.7046235E-006  0.1189506E+04  0.7818608E-02  0.8614507E-01
         -1   -1    0    0    0  501 -0.00000000000E+00  0.00000000000E+00  0.88312456828E+03  0.88312456828E+03  0.00000000000E+00 0. -1.
          1   -1    0    0  502    0  0.00000000000E+00 -0.00000000000E+00 -0.20995762347E+04  0.20995762347E+04  0.00000000000E+00 0.  1.
    9000010    2    1    2  502    0 -0.40743518162E+03  0.48491546632E+03 -0.13356274960E+04  0.17911511094E+04  0.10115211574E+04 0.  0.
   -9000010    2    1    2    0  501  0.40743518162E+03 -0.48491546632E+03  0.11917582963E+03  0.11915496935E+04  0.10022182183E+04 0.  0.
        -13    1    3    3    0    0 -0.57059861434E+03  0.33530171331E+03 -0.14100164973E+04  0.15576124523E+04  0.10566000000E+00 0.  1.
          4    1    3    3  502    0  0.16316343272E+03  0.14961375302E+03  0.74389001277E+02  0.23353865714E+03  0.00000000000E+00 0.  1.
         13    1    4    4    0    0  0.34663510121E+03  0.25640664857E+03  0.12069827426E+03  0.44773691761E+03  0.10566000000E+00 0. -1.
         -4    1    4    4    0  501  0.60800080409E+02 -0.74132211489E+03 -0.15224446299E+01  0.74381277593E+03  0.00000000000E+00 0. -1.
<mgrwt>
<rscale>  2 0.11895056E+04</rscale>
<asrwt>0</asrwt>
<pdfrwt beam="2">  1        1 0.32301173E+00 0.11895056E+04</pdfrwt>
<pdfrwt beam="1">  1       -1 0.13586532E+00 0.11895056E+04</pdfrwt>
<totfact> 0.15122211E+00</totfact>
</mgrwt>
</event>
<event>
 8    1  0.7046235E-006  0.1035901E+04  0.7818608E-02  0.8741572E-01
          2   -1    0    0  502    0  0.00000000000E+00  0.00000000000E+00  0.91988484352E+03  0.91988484352E+03  0.00000000000E+00 0.  1.
         -2   -1    0    0    0  501 -0.00000000000E+00 -0.00000000000E+00 -0.11889464944E+04  0.11889464944E+04  0.00000000000E+00 0. -1.
    9000010    2    1    2  502    0  0.22742313676E+03 -0.17092445600E+03  0.10450924163E+01  0.10721256146E+04  0.10336903736E+04 0.  0.
   -9000010    2    1    2    0  501 -0.22742313676E+03  0.17092445600E+03 -0.27010674333E+03  0.10367057234E+04  0.95961692943E+03 0.  0.
        -13    1    3    3    0    0  0.22244424710E+03 -0.47940240198E+03 -0.32725176461E+03  0.62161228647E+03  0.10566000000E+00 0.  1.
          4    1    3    3  502    0  0.49788896547E+01  0.30847794598E+03  0.32829685702E+03  0.45051332814E+03  0.00000000000E+00 0.  1.
         13    1    4    4    0    0 -0.46926239471E+03  0.42292818527E+03 -0.27108205501E+03  0.68743067774E+03  0.10566000000E+00 0. -1.
         -4    1    4    4    0  501  0.24183925795E+03 -0.25200372927E+03  0.97531168130E+00  0.34927504561E+03  0.00000000000E+00 0. -1.
<mgrwt>
<rscale>  2 0.10359007E+04</rscale>
<asrwt>0</asrwt>
<pdfrwt beam="1">  1        2 0.14152075E+00 0.10359007E+04</pdfrwt>
<pdfrwt beam="2">  1       -2 0.18291484E+00 0.10359007E+04</pdfrwt>
<totfact> 0.60531705E+00</totfact>
</mgrwt>
</event>
<event>
 8    1  0.7046235E-006  0.1371565E+04  0.7818608E-02  0.8487479E-01
          1   -1    0    0  502    0  0.00000000000E+00  0.00000000000E+00  0.16024739844E+04  0.16024739844E+04  0.00000000000E+00 0. -1.
         -1   -1    0    0    0  501 -0.00000000000E+00 -0.00000000000E+00 -0.12456770855E+04  0.12456770855E+04  0.00000000000E+00 0.  1.
    9000010    2    1    2  502    0 -0.66818320431E+03 -0.67446590212E+03 -0.16393051247E+03  0.13765269492E+04  0.98314809741E+03 0.  0.
   -9000010    2    1    2    0  501  0.66818320431E+03  0.67446590212E+03  0.52072741141E+03  0.14716241207E+04  0.99656784415E+03 0.  0.
        -13    1    3    3    0    0 -0.59930692215E+03 -0.92692346832E+03 -0.10919772317E+03  0.11091799029E+04  0.10566000000E+00 0.  1.
          4    1    3    3  502    0 -0.68876282166E+02  0.25245756620E+03 -0.54732789298E+02  0.26734704636E+03  0.00000000000E+00 0.  1.
         13    1    4    4    0    0  0.81116493182E+03  0.76349592392E+03  0.23276980406E+03  0.11380230074E+04  0.10566000000E+00 0. -1.
         -4    1    4    4    0  501 -0.14298172751E+03 -0.89030021798E+02  0.28795760735E+03  0.33360111333E+03  0.00000000000E+00 0. -1.
<mgrwt>
<rscale>  2 0.13715648E+04</rscale>
<asrwt>0</asrwt>
<pdfrwt beam="1">  1        1 0.24653446E+00 0.13715648E+04</pdfrwt>
<pdfrwt beam="2">  1       -1 0.19164263E+00 0.13715648E+04</pdfrwt>
<totfact> 0.11447958E+00</totfact>
</mgrwt>
</event>
<event>
 8    1  0.7046235E-006  0.1511138E+04  0.7818608E-02  0.8403118E-01
          2   -1    0    0  502    0  0.00000000000E+00  0.00000000000E+00  0.40648786633E+04  0.40648786633E+04  0.00000000000E+00 0.  1.
         -2   -1    0    0    0  501 -0.00000000000E+00 -0.00000000000E+00 -0.64861840937E+03  0.64861840937E+03  0.00000000000E+00 0. -1.
    9000010    2    1    2  502    0  0.10888071562E+04  0.28708394905E+03  0.84422834584E+03  0.17296013232E+04  0.10054257904E+04 0.  0.
   -9000010    2    1    2    0  501 -0.10888071562E+04 -0.28708394905E+03  0.25720319081E+04  0.29838957495E+04  0.10101324122E+04 0.  0.
        -13    1    3    3    0    0  0.12191245099E+04  0.22860140127E+03  0.46552123197E+03  0.13248521427E+04  0.10566000000E+00 0.  1.
          4    1    3    3  502    0 -0.13031735367E+03  0.58482547771E+02  0.37870711387E+03  0.40474918055E+03  0.00000000000E+00 0.  1.
         13    1    4    4    0    0 -0.32081791156E+03 -0.60133150765E+03  0.10973072498E+04  0.12917456894E+04  0.10566000000E+00 0. -1.
         -4    1    4    4    0  501 -0.76798924467E+03  0.31424755860E+03  0.14747246583E+04  0.16921500601E+04  0.00000000000E+00 0. -1.
<mgrwt>
<rscale>  2 0.15111378E+04</rscale>
<asrwt>0</asrwt>
<pdfrwt beam="1">  1        2 0.62536593E+00 0.15111378E+04</pdfrwt>
<pdfrwt beam="2">  1       -2 0.99787450E-01 0.15111378E+04</pdfrwt>
<totfact> 0.34575771E-01</totfact>
</mgrwt>
</event>
<event>
 8    1  0.7046235E-006  0.1187779E+04  0.7818608E-02  0.8615823E-01
          2   -1    0    0  502    0  0.00000000000E+00  0.00000000000E+00  0.16066047515E+04  0.16066047515E+04  0.00000000000E+00 0. -1.
         -2   -1    0    0    0  501 -0.00000000000E+00 -0.00000000000E+00 -0.92235605434E+03  0.92235605434E+03  0.00000000000E+00 0.  1.
    9000010    2    1    2  502    0 -0.57036848012E+03  0.87911570745E+02  0.60872325716E+03  0.13079626536E+04  0.10035804163E+04 0.  0.
   -9000010    2    1    2    0  501  0.57036848012E+03 -0.87911570745E+02  0.75525440005E+02  0.12209981522E+04  0.10733516424E+04 0.  0.
        -13    1    3    3    0    0 -0.16655352112E+03  0.36680231753E+03  0.70108897384E+03  0.80858504559E+03  0.10566000000E+00 0.  1.
          4    1    3    3  502    0 -0.40381495900E+03 -0.27889074679E+03 -0.92365716681E+02  0.49937760800E+03  0.00000000000E+00 0.  1.
         13    1    4    4    0    0  0.21503056675E+03 -0.39579916703E+03 -0.36266571150E+03  0.57829192863E+03  0.10566000000E+00 0. -1.
         -4    1    4    4    0  501  0.35533791338E+03  0.30788759629E+03  0.43819115150E+03  0.64270622362E+03  0.00000000000E+00 0. -1.
<mgrwt>
<rscale>  2 0.11877786E+04</rscale>
<asrwt>0</asrwt>
<pdfrwt beam="1">  1        2 0.24716996E+00 0.11877786E+04</pdfrwt>
<pdfrwt beam="2">  1       -2 0.14190093E+00 0.11877786E+04</pdfrwt>
<totfact> 0.54382177E+00</totfact>
</mgrwt>
</event>
<event>
 8    1  0.7046235E-006  0.1160164E+04  0.7818608E-02  0.8637179E-01
         -1   -1    0    0    0  501 -0.00000000000E+00  0.00000000000E+00  0.11038672223E+04  0.11038672223E+04  0.00000000000E+00 0.  1.
          1   -1    0    0  502    0  0.00000000000E+00 -0.00000000000E+00 -0.12784749604E+04  0.12784749604E+04  0.00000000000E+00 0. -1.
    9000010    2    1    2  502    0  0.14362419992E+03 -0.56702855098E+03  0.16880854893E+03  0.11735663027E+04  0.10033006788E+04 0.  0.
   -9000010    2    1    2    0  501 -0.14362419992E+03  0.56702855098E+03 -0.34341628702E+03  0.12087758800E+04  0.10005274076E+04 0.  0.
        -13    1    3    3    0    0 -0.40504221103E+03 -0.97273174230E+02  0.17353319161E+03  0.45125939646E+03  0.10566000000E+00 0.  1.
          4    1    3    3  502    0  0.54866641096E+03 -0.46975537675E+03 -0.47246426844E+01  0.72230690620E+03  0.00000000000E+00 0.  1.
         13    1    4    4    0    0  0.13233229087E+03 -0.17068903139E+03  0.16456811566E+03  0.27153131771E+03  0.10566000000E+00 0. -1.
         -4    1    4    4    0  501 -0.27595649079E+03  0.73771758236E+03 -0.50798440268E+03  0.93724456227E+03  0.00000000000E+00 0. -1.
<mgrwt>
<rscale>  2 0.11601638E+04</rscale>
<asrwt>0</asrwt>
<pdfrwt beam="2">  1        1 0.19668845E+00 0.11601638E+04</pdfrwt>
<pdfrwt beam="1">  1       -1 0.16982573E+00 0.11601638E+04</pdfrwt>
<totfact> 0.31874718E+00</totfact>
</mgrwt>
</event>
<event>
 8    1  0.7046235E-006  0.1473284E+04  0.7818608E-02  0.8425043E-01
          2   -1    0    0  502    0  0.00000000000E+00  0.00000000000E+00  0.13197183817E+04  0.13197183817E+04  0.00000000000E+00 0. -1.
         -2   -1    0    0    0  501 -0.00000000000E+00 -0.00000000000E+00 -0.16461396044E+04  0.16461396044E+04  0.00000000000E+00 0.  1.
    9000010    2    1    2  502    0  0.29965905531E+03  0.10831593666E+04 -0.11941880789E+03  0.14753254115E+04  0.94831137038E+03 0.  0.
   -9000010    2    1    2    0  501 -0.29965905531E+03 -0.10831593666E+04 -0.20700241479E+03  0.14905325745E+04  0.95697836606E+03 0.  0.
        -13    1    3    3    0    0  0.13810880274E+03 -0.13672294626E+03  0.11041257003E+03  0.22351320367E+03  0.10566000000E+00 0.  1.
          4    1    3    3  502    0  0.16155025256E+03  0.12198823129E+04 -0.22983137792E+03  0.12518122078E+04  0.00000000000E+00 0.  1.
         13    1    4    4    0    0  0.83999373573E+01  0.16512282181E+03 -0.11522878601E+03  0.20152863201E+03  0.10566000000E+00 0. -1.
         -4    1    4    4    0  501 -0.30805899266E+03 -0.12482821884E+04 -0.91773628780E+02  0.12890039425E+04  0.00000000000E+00 0. -1.
<mgrwt>
<rscale>  2 0.14732838E+04</rscale>
<asrwt>0</asrwt>
<pdfrwt beam="1">  1        2 0.20303360E+00 0.14732838E+04</pdfrwt>
<pdfrwt beam="2">  1       -2 0.25325225E+00 0.14732838E+04</pdfrwt>
<totfact> 0.91051523E-01</totfact>
</mgrwt>
</event>
<event>
 8    1  0.7046235E-006  0.1090661E+04  0.7818608E-02  0.8693785E-01
          1   -1    0    0  502    0  0.00000000000E+00  0.00000000000E+00  0.85486621268E+03  0.85486621268E+03  0.00000000000E+00 0.  1.
         -1   -1    0    0    0  501 -0.00000000000E+00 -0.00000000000E+00 -0.14382373285E+04  0.14382373285E+04  0.00000000000E+00 0. -1.
    9000010    2    1    2  502    0 -0.79405771992E+02  0.56545780487E+03 -0.46302071695E+03  0.11181072872E+04  0.84245350946E+03 0.  0.
   -9000010    2    1    2    0  501  0.79405771992E+02 -0.56545780487E+03 -0.12035039888E+03  0.11749962540E+04  0.10198451710E+04 0.  0.
        -13    1    3    3    0    0 -0.18266465220E+03 -0.16575747538E+03 -0.24610342066E+03  0.34843768544E+03  0.10566000000E+00 0.  1.
          4    1    3    3  502    0  0.10325888021E+03  0.73121528025E+03 -0.21691729629E+03  0.76966960174E+03  0.00000000000E+00 0.  1.
         13    1    4    4    0    0 -0.69372433392E+02 -0.12977928002E+03 -0.53533187882E+03  0.55518954212E+03  0.10566000000E+00 0. -1.
         -4    1    4    4    0  501  0.14877820538E+03 -0.43567852484E+03  0.41498147994E+03  0.61980671189E+03  0.00000000000E+00 0. -1.
<mgrwt>
<rscale>  2 0.10906605E+04</rscale>
<asrwt>0</asrwt>
<pdfrwt beam="1">  1        1 0.13151788E+00 0.10906605E+04</pdfrwt>
<pdfrwt beam="2">  1       -1 0.22126728E+00 0.10906605E+04</pdfrwt>
<totfact> 0.24462630E+00</totfact>
</mgrwt>
</event>
<event>
 8    1  0.7046235E-006  0.1118520E+04  0.7818608E-02  0.8670582E-01
         -2   -1    0    0    0  501 -0.00000000000E+00  0.00000000000E+00  0.64637292696E+03  0.64637292696E+03  0.00000000000E+00 0. -1.
          2   -1    0    0  502    0  0.00000000000E+00 -0.00000000000E+00 -0.23537569450E+04  0.23537569450E+04  0.00000000000E+00 0.  1.
    9000010    2    1    2  502    0 -0.18290380835E+03 -0.43280690834E+03 -0.20834860628E+03  0.11165266706E+04  0.99118466565E+03 0.  0.
   -9000010    2    1    2    0  501  0.18290380835E+03  0.43280690834E+03 -0.14990354117E+04  0.18836032013E+04  0.10392681230E+04 0.  0.
        -13    1    3    3    0    0 -0.23163706977E+03 -0.72882873626E+03 -0.26855974218E+03  0.81053772594E+03  0.10566000000E+00 0.  1.
          4    1    3    3  502    0  0.48733261424E+02  0.29602182792E+03  0.60211135895E+02  0.30598894467E+03  0.00000000000E+00 0.  1.
         13    1    4    4    0    0  0.19331584738E+03 -0.23108431297E+03 -0.72153924497E+02  0.30980183429E+03  0.10566000000E+00 0. -1.
         -4    1    4    4    0  501 -0.10412039035E+02  0.66389122130E+03 -0.14268814872E+04  0.15738013670E+04  0.00000000000E+00 0. -1.
<mgrwt>
<rscale>  2 0.11185197E+04</rscale>
<asrwt>0</asrwt>
<pdfrwt beam="2">  1        2 0.36211646E+00 0.11185197E+04</pdfrwt>
<pdfrwt beam="1">  1       -2 0.99441988E-01 0.11185197E+04</pdfrwt>
<totfact> 0.54806424E+00</totfact>
</mgrwt>
</event>
<event>
 8    1  0.7046235E-006  0.1095292E+04  0.7818608E-02  0.8689878E-01
         -2   -1    0    0    0  501 -0.00000000000E+00  0.00000000000E+00  0.14173191957E+04  0.14173191957E+04  0.00000000000E+00 0.  1.
          2   -1    0    0  502    0  0.00000000000E+00 -0.00000000000E+00 -0.94557163458E+03  0.94557163458E+03  0.00000000000E+00 0. -1.
    9000010    2    1    2  502    0 -0.28505296978E+03  0.23019669925E+03  0.61128593474E+03  0.12285751622E+04  0.10007400857E+04 0.  0.
   -9000010    2    1    2    0  501  0.28505296978E+03 -0.23019669925E+03 -0.13953837359E+03  0.11343156681E+04  0.10644037586E+04 0.  0.
        -13    1    3    3    0    0 -0.55063490795E+03  0.11401513728E+03  0.11524973853E+02  0.56243318676E+03  0.10566000000E+00 0.  1.
          4    1    3    3  502    0  0.26558193817E+03  0.11618156197E+03  0.59976096089E+03  0.66614197543E+03  0.00000000000E+00 0.  1.
         13    1    4    4    0    0 -0.32589321562E+03 -0.13749797210E+03 -0.33401593600E+03  0.48649638949E+03  0.10566000000E+00 0. -1.
         -4    1    4    4    0  501  0.61094618540E+03 -0.92698727149E+02  0.19447756241E+03  0.64781927862E+03  0.00000000000E+00 0. -1.
<mgrwt>
<rscale>  2 0.10952918E+04</rscale>
<asrwt>0</asrwt>
<pdfrwt beam="2">  1        2 0.14547256E+00 0.10952918E+04</pdfrwt>
<pdfrwt beam="1">  1       -2 0.21804911E+00 0.10952918E+04</pdfrwt>
<totfact> 0.29731405E+00</totfact>
</mgrwt>
</event>
<event>
 8    1  0.7046235E-006  0.1228374E+04  0.7818608E-02  0.8585497E-01
         -2   -1    0    0    0  501 -0.00000000000E+00  0.00000000000E+00  0.57332516436E+03  0.57332516436E+03  0.00000000000E+00 0. -1.
          2   -1    0    0  502    0  0.00000000000E+00 -0.00000000000E+00 -0.27600150786E+04  0.27600150786E+04  0.00000000000E+00 0.  1.
    9000010    2    1    2  502    0  0.35356227258E+02  0.71091734212E+03 -0.73235101356E+03  0.14282517132E+04  0.99845451532E+03 0.  0.
   -9000010    2    1    2    0  501 -0.35356227258E+02 -0.71091734212E+03 -0.14543389007E+04  0.19050885297E+04  0.10037963628E+04 0.  0.
        -13    1    3    3    0    0  0.45474853414E+03  0.65850153317E+03 -0.42896430012E+03  0.90798176216E+03  0.10566000000E+00 0.  1.
          4    1    3    3  502    0 -0.41939230688E+03  0.52415808954E+02 -0.30338671343E+03  0.52026995107E+03  0.00000000000E+00 0.  1.
         13    1    4    4    0    0 -0.30774566086E+03 -0.71659695642E+02 -0.26432222370E+02  0.31708228790E+03  0.10566000000E+00 0. -1.
         -4    1    4    4    0  501  0.27238943360E+03 -0.63925764648E+03 -0.14279066783E+04  0.15880062418E+04  0.00000000000E+00 0. -1.
<mgrwt>
<rscale>  2 0.12283743E+04</rscale>
<asrwt>0</asrwt>
<pdfrwt beam="2">  1        2 0.42461771E+00 0.12283743E+04</pdfrwt>
<pdfrwt beam="1">  1       -2 0.88203869E-01 0.12283743E+04</pdfrwt>
<totfact> 0.42158795E+00</totfact>
</mgrwt>
</event>
<event>
 8    1  0.7046235E-006  0.1177755E+04  0.7818608E-02  0.8623504E-01
         -2   -1    0    0    0  501 -0.00000000000E+00  0.00000000000E+00  0.81205005947E+03  0.81205005947E+03  0.00000000000E+00 0.  1.
          2   -1    0    0  502    0  0.00000000000E+00 -0.00000000000E+00 -0.18071116463E+04  0.18071116463E+04  0.00000000000E+00 0. -1.
    9000010    2    1    2  502    0 -0.90485543078E+02  0.62256646314E+03 -0.79191851527E+03  0.13974668999E+04  0.96436619958E+03 0.  0.
   -9000010    2    1    2    0  501  0.90485543078E+02 -0.62256646314E+03 -0.20314307160E+03  0.12216948059E+04  0.10273725988E+04 0.  0.
        -13    1    3    3    0    0 -0.82934850097E+01  0.79275461012E+03 -0.26218243988E+03  0.83502592577E+03  0.10566000000E+00 0.  1.
          4    1    3    3  502    0 -0.82192058069E+02 -0.17018814699E+03 -0.52973607539E+03  0.56244097410E+03  0.00000000000E+00 0.  1.
         13    1    4    4    0    0  0.44130854563E+03 -0.70001012684E+03 -0.43771755493E+02  0.82866361563E+03  0.10566000000E+00 0. -1.
         -4    1    4    4    0  501 -0.35082300255E+03  0.77443663698E+02 -0.15937131611E+03  0.39303119032E+03  0.00000000000E+00 0. -1.
<mgrwt>
<rscale>  2 0.11777549E+04</rscale>
<asrwt>0</asrwt>
<pdfrwt beam="2">  1        2 0.27801718E+00 0.11777549E+04</pdfrwt>
<pdfrwt beam="1">  1       -2 0.12493078E+00 0.11777549E+04</pdfrwt>
<totfact> 0.60646557E+00</totfact>
</mgrwt>
</event>
<event>
 8    1  0.7046235E-006  0.1426783E+04  0.7818608E-02  0.8452923E-01
          4   -1    0    0  502    0  0.00000000000E+00  0.00000000000E+00  0.29765776682E+04  0.29765776682E+04  0.00000000000E+00 0. -1.
         -4   -1    0    0    0  501 -0.00000000000E+00 -0.00000000000E+00 -0.71374839223E+03  0.71374839223E+03  0.00000000000E+00 0.  1.
    9000010    2    1    2  502    0 -0.12878353679E+03 -0.10377010273E+04  0.77737500468E+03  0.16499135555E+04  0.10121730195E+04 0.  0.
   -9000010    2    1    2    0  501  0.12878353679E+03  0.10377010273E+04  0.14854542713E+04  0.20404125049E+04  0.92913948176E+03 0.  0.
        -13    1    3    3    0    0  0.74210295859E+02 -0.11908762866E+04  0.57287168454E+03  0.13235843290E+04  0.10566000000E+00 0.  1.
          4    1    3    3  502    0 -0.20299383265E+03  0.15317525923E+03  0.20450332014E+03  0.32632922652E+03  0.00000000000E+00 0.  1.
         13    1    4    4    0    0  0.12537802564E+03  0.10158003894E+04  0.66700934715E+03  0.12216675328E+04  0.10566000000E+00 0. -1.
         -4    1    4    4    0  501  0.34055111472E+01  0.21900637947E+02  0.81844492414E+03  0.81874497207E+03  0.00000000000E+00 0. -1.
<mgrwt>
<rscale>  2 0.14267834E+04</rscale>
<asrwt>0</asrwt>
<pdfrwt beam="1">  1        4 0.45793502E+00 0.14267834E+04</pdfrwt>
<pdfrwt beam="2">  1       -4 0.10980745E+00 0.14267834E+04</pdfrwt>
<totfact> 0.64034067E-02</totfact>
</mgrwt>
</event>
<event>
 8    1  0.7046235E-006  0.1442063E+04  0.7818608E-02  0.8443643E-01
         -1   -1    0    0    0  501 -0.00000000000E+00  0.00000000000E+00  0.25108314444E+04  0.25108314444E+04  0.00000000000E+00 0. -1.
          1   -1    0    0  502    0  0.00000000000E+00 -0.00000000000E+00 -0.92211307825E+03  0.92211307825E+03  0.00000000000E+00 0.  1.
    9000010    2    1    2  502    0 -0.17690555760E+01 -0.10427014898E+04  0.24530752140E+03  0.14600599048E+04  0.99215402994E+03 0.  0.
   -9000010    2    1    2    0  501  0.17690555760E+01  0.10427014898E+04  0.13434108448E+04  0.19728846179E+04  0.10001457350E+04 0.  0.
        -13    1    3    3    0    0  0.48730121199E+03 -0.40633749085E+03  0.14869592830E+03  0.65167715775E+03  0.10566000000E+00 0.  1.
          4    1    3    3  502    0 -0.48907026757E+03 -0.63636399897E+03  0.96611593107E+02  0.80838274705E+03  0.00000000000E+00 0.  1.
         13    1    4    4    0    0 -0.10699055152E+03  0.52025727463E+03  0.13376121969E+04  0.14392084666E+04  0.10566000000E+00 0. -1.
         -4    1    4    4    0  501  0.10875960709E+03  0.52244421518E+03  0.57986478822E+01  0.53367615127E+03  0.00000000000E+00 0. -1.
<mgrwt>
<rscale>  2 0.14420627E+04</rscale>
<asrwt>0</asrwt>
<pdfrwt beam="2">  1        1 0.14186355E+00 0.14420627E+04</pdfrwt>
<pdfrwt beam="1">  1       -1 0.38628176E+00 0.14420627E+04</pdfrwt>
<totfact> 0.25394085E-01</totfact>
</mgrwt>
</event>
<event>
 8    1  0.7046235E-006  0.1060623E+04  0.7818608E-02  0.8719626E-01
         -2   -1    0    0    0  501 -0.00000000000E+00  0.00000000000E+00  0.58648308185E+03  0.58648308185E+03  0.00000000000E+00 0.  1.
          2   -1    0    0  502    0  0.00000000000E+00 -0.00000000000E+00 -0.19785720155E+04  0.19785720155E+04  0.00000000000E+00 0. -1.
    9000010    2    1    2  502    0  0.38860264365E+03  0.28878109277E+02 -0.47305099991E+03  0.11631275095E+04  0.98855571161E+03 0.  0.
   -9000010    2    1    2    0  501 -0.38860264365E+03 -0.28878109277E+02 -0.91903793377E+03  0.14019275879E+04  0.98433951366E+03 0.  0.
        -13    1    3    3    0    0  0.32923312809E+03  0.12942517387E+03  0.24841869791E+03  0.43226981030E+03  0.10566000000E+00 0.  1.
          4    1    3    3  502    0  0.59369515566E+02 -0.10054706460E+03 -0.72146969783E+03  0.73085769919E+03  0.00000000000E+00 0.  1.
         13    1    4    4    0    0  0.69159012411E+02 -0.36694961615E+03 -0.69768051152E+03  0.79132363614E+03  0.10566000000E+00 0. -1.
         -4    1    4    4    0  501 -0.45776165607E+03  0.33807150687E+03 -0.22135742225E+03  0.61060395176E+03  0.00000000000E+00 0. -1.
<mgrwt>
<rscale>  2 0.10606232E+04</rscale>
<asrwt>0</asrwt>
<pdfrwt beam="2">  1        2 0.30439570E+00 0.10606232E+04</pdfrwt>
<pdfrwt beam="1">  1       -2 0.90228166E-01 0.10606232E+04</pdfrwt>
<totfact> 0.11109694E+01</totfact>
</mgrwt>
</event>
<event>
 8    1  0.7046235E-006  0.1168881E+04  0.7818608E-02  0.8630372E-01
          1   -1    0    0  502    0  0.00000000000E+00  0.00000000000E+00  0.17751482060E+04  0.17751482060E+04  0.00000000000E+00 0.  1.
         -1   -1    0    0    0  501 -0.00000000000E+00 -0.00000000000E+00 -0.83718129985E+03  0.83718129985E+03  0.00000000000E+00 0. -1.
    9000010    2    1    2  502    0  0.57684985826E+02 -0.57032271880E+03  0.83391806810E+03  0.14236300860E+04  0.10013529429E+04 0.  0.
   -9000010    2    1    2    0  501 -0.57684985826E+02  0.57032271880E+03  0.10404883804E+03  0.11886994199E+04  0.10361392710E+04 0.  0.
        -13    1    3    3    0    0  0.43441819993E+03 -0.37414130936E+03  0.81757370373E+03  0.99856279923E+03  0.10566000000E+00 0.  1.
          4    1    3    3  502    0 -0.37673321410E+03 -0.19618140944E+03  0.16344364362E+02  0.42506728675E+03  0.00000000000E+00 0.  1.
         13    1    4    4    0    0 -0.12349401001E+03  0.55722459113E+03 -0.38925889996E+03  0.69084912813E+03  0.10566000000E+00 0. -1.
         -4    1    4    4    0  501  0.65809024185E+02  0.13098127662E+02  0.49330773800E+03  0.49785029173E+03  0.00000000000E+00 0. -1.
<mgrwt>
<rscale>  2 0.11688807E+04</rscale>
<asrwt>0</asrwt>
<pdfrwt beam="1">  1        1 0.27309972E+00 0.11688807E+04</pdfrwt>
<pdfrwt beam="2">  1       -1 0.12879712E+00 0.11688807E+04</pdfrwt>
<totfact> 0.30813354E+00</totfact>
</mgrwt>
</event>
<event>
 8    1  0.7046235E-006  0.1627063E+04  0.7818608E-02  0.8339907E-01
         -2   -1    0    0    0  501 -0.00000000000E+00  0.00000000000E+00  0.96383818540E+03  0.96383818540E+03  0.00000000000E+00 0. -1.
          2   -1    0    0  502    0  0.00000000000E+00 -0.00000000000E+00 -0.27941530161E+04  0.27941530161E+04  0.00000000000E+00 0.  1.
    9000010    2    1    2  502    0  0.77838430600E+03 -0.10064780625E+04 -0.11570731370E+04  0.19921519471E+04  0.10054704957E+04 0.  0.
   -9000010    2    1    2    0  501 -0.77838430600E+03  0.10064780625E+04 -0.67324169367E+03  0.17658392544E+04  0.10227676549E+04 0.  0.
        -13    1    3    3    0    0  0.26673348585E+03 -0.61838687054E+03 -0.11698374785E+04  0.13498402910E+04  0.10566000000E+00 0.  1.
          4    1    3    3  502    0  0.51165082016E+03 -0.38809119199E+03  0.12764341483E+02  0.64231165604E+03  0.00000000000E+00 0.  1.
         13    1    4    4    0    0 -0.58912800125E+03  0.10459926275E+04 -0.15221715924E+03  0.12101001832E+04  0.10566000000E+00 0. -1.
         -4    1    4    4    0  501 -0.18925630475E+03 -0.39514564987E+02 -0.52102453443E+03  0.55573907116E+03  0.00000000000E+00 0. -1.
<mgrwt>
<rscale>  2 0.16270631E+04</rscale>
<asrwt>0</asrwt>
<pdfrwt beam="2">  1        2 0.42986969E+00 0.16270631E+04</pdfrwt>
<pdfrwt beam="1">  1       -2 0.14828280E+00 0.16270631E+04</pdfrwt>
<totfact> 0.99449652E-01</totfact>
</mgrwt>
</event>
<event>
 8    1  0.7046235E-006  0.1292201E+04  0.7818608E-02  0.8540190E-01
          4   -1    0    0  502    0  0.00000000000E+00  0.00000000000E+00  0.20442560622E+04  0.20442560622E+04  0.00000000000E+00 0.  1.
         -4   -1    0    0    0  501 -0.00000000000E+00 -0.00000000000E+00 -0.11141557451E+04  0.11141557451E+04  0.00000000000E+00 0. -1.
    9000010    2    1    2  502    0  0.55291831205E+03  0.72447577599E+03  0.12951633692E+04  0.18808605323E+04  0.10146942295E+04 0.  0.
   -9000010    2    1    2    0  501 -0.55291831205E+03 -0.72447577599E+03 -0.36506305206E+03  0.12775512750E+04  0.81748542404E+03 0.  0.
        -13    1    3    3    0    0  0.43211852114E+03  0.88759339554E+03  0.13482782491E+04  0.16710483836E+04  0.10566000000E+00 0.  1.
          4    1    3    3  502    0  0.12079979091E+03 -0.16311761955E+03 -0.53114879893E+02  0.20981214874E+03  0.00000000000E+00 0.  1.
         13    1    4    4    0    0 -0.38606094801E+03 -0.27408223340E+03  0.21875146759E+03  0.52155185934E+03  0.10566000000E+00 0. -1.
         -4    1    4    4    0  501 -0.16685736404E+03 -0.45039354258E+03 -0.58381451965E+03  0.75599941567E+03  0.00000000000E+00 0. -1.
<mgrwt>
<rscale>  2 0.12922006E+04</rscale>
<asrwt>0</asrwt>
<pdfrwt beam="1">  1        4 0.31450093E+00 0.12922006E+04</pdfrwt>
<pdfrwt beam="2">  1       -4 0.17140858E+00 0.12922006E+04</pdfrwt>
<totfact> 0.11340320E-01</totfact>
</mgrwt>
</event>
<event>
 8    1  0.7046235E-006  0.1243526E+04  0.7818608E-02  0.8574488E-01
         -1   -1    0    0    0  501 -0.00000000000E+00  0.00000000000E+00  0.12747001047E+04  0.12747001047E+04  0.00000000000E+00 0. -1.
          1   -1    0    0  502    0  0.00000000000E+00 -0.00000000000E+00 -0.16113127826E+04  0.16113127826E+04  0.00000000000E+00 0.  1.
    9000010    2    1    2  502    0 -0.71495503377E+03  0.12851449703E+03 -0.88680863229E+03  0.15378120235E+04  0.10250656531E+04 0.  0.
   -9000010    2    1    2    0  501  0.71495503377E+03 -0.12851449703E+03  0.55019595435E+03  0.13482008637E+04  0.99360621202E+03 0.  0.
        -13    1    3    3    0    0 -0.97292152798E+03  0.18889887943E+03 -0.68525965813E+03  0.12049231911E+04  0.10566000000E+00 0.  1.
          4    1    3    3  502    0  0.25796649421E+03 -0.60384382394E+02 -0.20154897417E+03  0.33288883243E+03  0.00000000000E+00 0.  1.
         13    1    4    4    0    0  0.78317571028E+03 -0.36725917350E+03  0.15101190892E+03  0.87809344690E+03  0.10566000000E+00 0. -1.
         -4    1    4    4    0  501 -0.68220676504E+02  0.23874467647E+03  0.39918404543E+03  0.47010741685E+03  0.00000000000E+00 0. -1.
<mgrwt>
<rscale>  2 0.12435261E+04</rscale>
<asrwt>0</asrwt>
<pdfrwt beam="2">  1        1 0.24789427E+00 0.12435261E+04</pdfrwt>
<pdfrwt beam="1">  1       -1 0.19610771E+00 0.12435261E+04</pdfrwt>
<totfact> 0.10465902E+00</totfact>
</mgrwt>
</event>
<event>
 8    1  0.7046235E-006  0.1022194E+04  0.7818608E-02  0.8754013E-01
          1   -1    0    0  502    0  0.00000000000E+00  0.00000000000E+00  0.33467725580E+03  0.33467725580E+03  0.00000000000E+00 0.  1.
         -1   -1    0    0    0  501 -0.00000000000E+00 -0.00000000000E+00 -0.31233116213E+04  0.31233116213E+04  0.00000000000E+00 0. -1.
    9000010    2    1    2  502    0 -0.23389642740E+03  0.22021131727E+01 -0.13552687467E+04  0.16953588522E+04  0.99135053027E+03 0.  0.
   -9000010    2    1    2    0  501  0.23389642740E+03 -0.22021131727E+01 -0.14333656187E+04  0.17626300249E+04  0.99880689802E+03 0.  0.
        -13    1    3    3    0    0 -0.57417420882E+03  0.13160389907E+03 -0.11092987640E+04  0.12560013405E+04  0.10566000000E+00 0.  1.
          4    1    3    3  502    0  0.34027778142E+03 -0.12940178589E+03 -0.24596998277E+03  0.43935751176E+03  0.00000000000E+00 0.  1.
         13    1    4    4    0    0 -0.23602043179E+03  0.17378567442E+03 -0.11491494935E+04  0.11859391529E+04  0.10566000000E+00 0. -1.
         -4    1    4    4    0  501  0.46991685919E+03 -0.17598778759E+03 -0.28421612523E+03  0.57669087194E+03  0.00000000000E+00 0. -1.
<mgrwt>
<rscale>  2 0.10221945E+04</rscale>
<asrwt>0</asrwt>
<pdfrwt beam="1">  1        1 0.51488809E-01 0.10221945E+04</pdfrwt>
<pdfrwt beam="2">  1       -1 0.48050948E+00 0.10221945E+04</pdfrwt>
<totfact> 0.11025566E+00</totfact>
</mgrwt>
</event>
<event>
 8    1  0.7046235E-006  0.1479658E+04  0.7818608E-02  0.8421303E-01
          2   -1    0    0  502    0  0.00000000000E+00  0.00000000000E+00  0.17492738804E+04  0.17492738804E+04  0.00000000000E+00 0.  1.
         -2   -1    0    0    0  501 -0.00000000000E+00 -0.00000000000E+00 -0.12543395258E+04  0.12543395258E+04  0.00000000000E+00 0. -1.
    9000010    2    1    2  502    0  0.93286014077E+03  0.67171917116E+03  0.18359146187E+03  0.14516974221E+04  0.86734358430E+03 0.  0.
   -9000010    2    1    2    0  501 -0.93286014077E+03 -0.67171917116E+03  0.31134289273E+03  0.15519159842E+04  0.99502469215E+03 0.  0.
        -13    1    3    3    0    0  0.81267456774E+03  0.15841449079E+03  0.34994545461E+03  0.89888649802E+03  0.10566000000E+00 0.  1.
          4    1    3    3  502    0  0.12018557302E+03  0.51330468037E+03 -0.16635399274E+03  0.55281092405E+03  0.00000000000E+00 0.  1.
         13    1    4    4    0    0 -0.45025744963E+02 -0.33555304488E+03  0.48032073279E+03  0.58764885872E+03  0.10566000000E+00 0. -1.
         -4    1    4    4    0  501 -0.88783439581E+03 -0.33616612628E+03 -0.16897784006E+03  0.96426712547E+03  0.00000000000E+00 0. -1.
<mgrwt>
<rscale>  2 0.14796582E+04</rscale>
<asrwt>0</asrwt>
<pdfrwt beam="1">  1        2 0.26911906E+00 0.14796582E+04</pdfrwt>
<pdfrwt beam="2">  1       -2 0.19297531E+00 0.14796582E+04</pdfrwt>
<totfact> 0.16125616E+00</totfact>
</mgrwt>
</event>
<event>
 8    1  0.7046235E-006  0.1408910E+04  0.7818608E-02  0.8463930E-01
         -1   -1    0    0    0  501 -0.00000000000E+00  0.00000000000E+00  0.26547341872E+04  0.26547341872E+04  0.00000000000E+00 0.  1.
          1   -1    0    0  502    0  0.00000000000E+00 -0.00000000000E+00 -0.93158301996E+03  0.93158301996E+03  0.00000000000E+00 0. -1.
    9000010    2    1    2  502    0  0.47333425850E+03 -0.96630423006E+03  0.16486721791E+04  0.21566709414E+04  0.88052280510E+03 0.  0.
   -9000010    2    1    2    0  501 -0.47333425850E+03  0.96630423006E+03  0.74478988212E+02  0.14296462658E+04  0.93837739756E+03 0.  0.
        -13    1    3    3    0    0  0.56204354333E+03 -0.84809976711E+03  0.17154651738E+04  0.19944891409E+04  0.10566000000E+00 0.  1.
          4    1    3    3  502    0 -0.88709284835E+02 -0.11820446294E+03 -0.66792994722E+02  0.16218180052E+03  0.00000000000E+00 0.  1.
         13    1    4    4    0    0  0.25273761136E+03  0.94555167842E+02  0.11749201442E+03  0.29431507705E+03  0.10566000000E+00 0. -1.
         -4    1    4    4    0  501 -0.72607186985E+03  0.87174906221E+03 -0.43013026206E+02  0.11353311887E+04  0.00000000000E+00 0. -1.
<mgrwt>
<rscale>  2 0.14089103E+04</rscale>
<asrwt>0</asrwt>
<pdfrwt beam="2">  1        1 0.14332047E+00 0.14089103E+04</pdfrwt>
<pdfrwt beam="1">  1       -1 0.40842064E+00 0.14089103E+04</pdfrwt>
<totfact> 0.25869862E-01</totfact>
</mgrwt>
</event>
<event>
 8    1  0.7046235E-006  0.1239247E+04  0.7818608E-02  0.8577580E-01
         -2   -1    0    0    0  501 -0.00000000000E+00  0.00000000000E+00  0.70749319200E+03  0.70749319200E+03  0.00000000000E+00 0.  1.
          2   -1    0    0  502    0  0.00000000000E+00 -0.00000000000E+00 -0.23577815381E+04  0.23577815381E+04  0.00000000000E+00 0. -1.
    9000010    2    1    2  502    0 -0.58186716963E+02  0.73812379872E+03 -0.39517971464E+03  0.13034969699E+04  0.99735896615E+03 0.  0.
   -9000010    2    1    2    0  501  0.58186716963E+02 -0.73812379872E+03 -0.12551086315E+04  0.17617777603E+04  0.99012664008E+03 0.  0.
        -13    1    3    3    0    0 -0.33158105031E+03 -0.17849532235E+02  0.11496618806E+03  0.35139982113E+03  0.10566000000E+00 0.  1.
          4    1    3    3  502    0  0.27339433335E+03  0.75597333095E+03 -0.51014590270E+03  0.95209714875E+03  0.00000000000E+00 0.  1.
         13    1    4    4    0    0  0.39578417188E+03  0.26963204486E+02 -0.46597746081E+03  0.61196987692E+03  0.10566000000E+00 0. -1.
         -4    1    4    4    0  501 -0.33759745492E+03 -0.76508700320E+03 -0.78913117068E+03  0.11498078833E+04  0.00000000000E+00 0. -1.
<mgrwt>
<rscale>  2 0.12392471E+04</rscale>
<asrwt>0</asrwt>
<pdfrwt beam="2">  1        2 0.36273561E+00 0.12392471E+04</pdfrwt>
<pdfrwt beam="1">  1       -2 0.10884511E+00 0.12392471E+04</pdfrwt>
<totfact> 0.43102418E+00</totfact>
</mgrwt>
</event>
<event>
 8    1  0.7046235E-006  0.1815859E+04  0.7818608E-02  0.8247786E-01
          2   -1    0    0  502    0  0.00000000000E+00  0.00000000000E+00  0.23446567205E+04  0.23446567205E+04  0.00000000000E+00 0.  1.
         -2   -1    0    0    0  501 -0.00000000000E+00 -0.00000000000E+00 -0.14089785274E+04  0.14089785274E+04  0.00000000000E+00 0. -1.
    9000010    2    1    2  502    0 -0.54956336696E+03  0.14105864813E+04  0.38589522427E+03  0.18545725415E+04  0.99937484059E+03 0.  0.
   -9000010    2    1    2    0  501  0.54956336696E+03 -0.14105864813E+04  0.54978296884E+03  0.18990627065E+04  0.10061827543E+04 0.  0.
        -13    1    3    3    0    0 -0.63123603066E+03  0.12544913462E+04 -0.28119383101E+02  0.14046345343E+04  0.10566000000E+00 0.  1.
          4    1    3    3  502    0  0.81672663701E+02  0.15609513511E+03  0.41401460737E+03  0.44993800720E+03  0.00000000000E+00 0.  1.
         13    1    4    4    0    0 -0.13497326477E+03 -0.70627907119E+03  0.56862150371E+03  0.91672151401E+03  0.10566000000E+00 0. -1.
         -4    1    4    4    0  501  0.68453663174E+03 -0.70430741008E+03 -0.18838534873E+02  0.98234119250E+03  0.00000000000E+00 0. -1.
<mgrwt>
<rscale>  2 0.18158590E+04</rscale>
<asrwt>0</asrwt>
<pdfrwt beam="1">  1        2 0.36071642E+00 0.18158590E+04</pdfrwt>
<pdfrwt beam="2">  1       -2 0.21676593E+00 0.18158590E+04</pdfrwt>
<totfact> 0.46690918E-01</totfact>
</mgrwt>
</event>
<event>
 8    1  0.7046235E-006  0.1385814E+04  0.7818608E-02  0.8478404E-01
          1   -1    0    0  502    0  0.00000000000E+00  0.00000000000E+00  0.15849254515E+04  0.15849254515E+04  0.00000000000E+00 0. -1.
         -1   -1    0    0    0  501 -0.00000000000E+00 -0.00000000000E+00 -0.13868792637E+04  0.13868792637E+04  0.00000000000E+00 0.  1.
    9000010    2    1    2  502    0 -0.60616277866E+03 -0.75479447855E+03 -0.42913327213E+03  0.14493905840E+04  0.98966139696E+03 0.  0.
   -9000010    2    1    2    0  501  0.60616277866E+03  0.75479447855E+03  0.62717945986E+03  0.15224141312E+04  0.99360087202E+03 0.  0.
        -13    1    3    3    0    0  0.21437684493E+03 -0.11668899862E+02  0.82302133502E+02  0.22992878725E+03  0.10566000000E+00 0.  1.
          4    1    3    3  502    0 -0.82053962358E+03 -0.74312557868E+03 -0.51143540563E+03  0.12194617967E+04  0.00000000000E+00 0.  1.
         13    1    4    4    0    0  0.48571873563E+03  0.75291472389E+03  0.87155392176E+03  0.12499638080E+04  0.10566000000E+00 0. -1.
         -4    1    4    4    0  501  0.12044404303E+03  0.18797546580E+01 -0.24437446190E+03  0.27245032319E+03  0.00000000000E+00 0. -1.
<mgrwt>
<rscale>  2 0.13858139E+04</rscale>
<asrwt>0</asrwt>
<pdfrwt beam="1">  1        1 0.24383469E+00 0.13858139E+04</pdfrwt>
<pdfrwt beam="2">  1       -1 0.21336604E+00 0.13858139E+04</pdfrwt>
<totfact> 0.74977658E-01</totfact>
</mgrwt>
</event>
<event>
 8    1  0.7046235E-006  0.1276082E+04  0.7818608E-02  0.8551372E-01
         -2   -1    0    0    0  501 -0.00000000000E+00  0.00000000000E+00  0.90226059933E+03  0.90226059933E+03  0.00000000000E+00 0.  1.
          2   -1    0    0  502    0  0.00000000000E+00 -0.00000000000E+00 -0.18726543810E+04  0.18726543810E+04  0.00000000000E+00 0. -1.
    9000010    2    1    2  502    0 -0.70866213149E+03 -0.18101964545E+03 -0.24251826277E+03  0.13446490017E+04  0.11019508615E+04 0.  0.
   -9000010    2    1    2    0  501  0.70866213149E+03  0.18101964545E+03 -0.72787551890E+03  0.14302659787E+04  0.99039783424E+03 0.  0.
        -13    1    3    3    0    0 -0.87126578369E+03 -0.34991728184E+03  0.84023527418E+02  0.94265907638E+03  0.10566000000E+00 0.  1.
          4    1    3    3  502    0  0.16260365221E+03  0.16889763640E+03 -0.32654179018E+03  0.40198992528E+03  0.00000000000E+00 0.  1.
         13    1    4    4    0    0 -0.13007039984E+03 -0.33914096612E+02 -0.52371103365E+03  0.54068635344E+03  0.10566000000E+00 0. -1.
         -4    1    4    4    0  501  0.83873253132E+03  0.21493374206E+03 -0.20416448524E+03  0.88957962522E+03  0.00000000000E+00 0. -1.
<mgrwt>
<rscale>  2 0.12760820E+04</rscale>
<asrwt>0</asrwt>
<pdfrwt beam="2">  1        2 0.28810067E+00 0.12760820E+04</pdfrwt>
<pdfrwt beam="1">  1       -2 0.13880932E+00 0.12760820E+04</pdfrwt>
<totfact> 0.41155861E+00</totfact>
</mgrwt>
</event>
<event>
 8    1  0.7046235E-006  0.1104880E+04  0.7818608E-02  0.8681853E-01
         -2   -1    0    0    0  501 -0.00000000000E+00  0.00000000000E+00  0.19156804592E+04  0.19156804592E+04  0.00000000000E+00 0. -1.
          2   -1    0    0  502    0  0.00000000000E+00 -0.00000000000E+00 -0.68918607136E+03  0.68918607136E+03  0.00000000000E+00 0.  1.
    9000010    2    1    2  502    0 -0.14813493716E+03  0.44572507938E+03  0.25058754754E+03  0.11228859112E+04  0.98866771194E+03 0.  0.
   -9000010    2    1    2    0  501  0.14813493716E+03 -0.44572507938E+03  0.97590684027E+03  0.14819806193E+04  0.10115619551E+04 0.  0.
        -13    1    3    3    0    0 -0.44202795807E+03  0.33877448423E+03 -0.18483169029E+03  0.58678755251E+03  0.10566000000E+00 0.  1.
          4    1    3    3  502    0  0.29389302090E+03  0.10695059515E+03  0.43541923783E+03  0.53609835871E+03  0.00000000000E+00 0.  1.
         13    1    4    4    0    0 -0.38396713909E+03 -0.18449339791E+03  0.12314258487E+03  0.44343284175E+03  0.10566000000E+00 0. -1.
         -4    1    4    4    0  501  0.53210207625E+03 -0.26123168147E+03  0.85276425540E+03  0.10385477775E+04  0.00000000000E+00 0. -1.
<mgrwt>
<rscale>  2 0.11048805E+04</rscale>
<asrwt>0</asrwt>
<pdfrwt beam="2">  1        2 0.10602863E+00 0.11048805E+04</pdfrwt>
<pdfrwt beam="1">  1       -2 0.29472007E+00 0.11048805E+04</pdfrwt>
<totfact> 0.11489456E+00</totfact>
</mgrwt>
</event>
<event>
 8    1  0.7046235E-006  0.1700344E+04  0.7818608E-02  0.8302692E-01
         -2   -1    0    0    0  501 -0.00000000000E+00  0.00000000000E+00  0.98663542510E+03  0.98663542510E+03  0.00000000000E+00 0. -1.
          2   -1    0    0  502    0  0.00000000000E+00 -0.00000000000E+00 -0.35395309541E+04  0.35395309541E+04  0.00000000000E+00 0.  1.
    9000010    2    1    2  502    0  0.12298614205E+04 -0.55928988573E+03 -0.35034167220E+03  0.17557260028E+04  0.10651151204E+04 0.  0.
   -9000010    2    1    2    0  501 -0.12298614205E+04  0.55928988573E+03 -0.22025538568E+04  0.27704403765E+04  0.99936584758E+03 0.  0.
        -13    1    3    3    0    0  0.78510094797E+03 -0.40757576927E+03  0.31687483440E+03  0.93963353391E+03  0.10566000000E+00 0.  1.
          4    1    3    3  502    0  0.44476047254E+03 -0.15171411647E+03 -0.66721650660E+03  0.81609246887E+03  0.00000000000E+00 0.  1.
         13    1    4    4    0    0 -0.71866547187E+03  0.61115952832E+03 -0.20124136754E+04  0.22225671737E+04  0.10566000000E+00 0. -1.
         -4    1    4    4    0  501 -0.51119594864E+03 -0.51869642589E+02 -0.19014018148E+03  0.54787320280E+03  0.00000000000E+00 0. -1.
<mgrwt>
<rscale>  2 0.17003438E+04</rscale>
<asrwt>0</asrwt>
<pdfrwt beam="2">  1        2 0.54454321E+00 0.17003438E+04</pdfrwt>
<pdfrwt beam="1">  1       -2 0.15179007E+00 0.17003438E+04</pdfrwt>
<totfact> 0.29631397E-01</totfact>
</mgrwt>
</event>
<event>
 8    1  0.7046235E-006  0.1200660E+04  0.7818608E-02  0.8606065E-01
          1   -1    0    0  502    0  0.00000000000E+00  0.00000000000E+00  0.10329532685E+04  0.10329532685E+04  0.00000000000E+00 0. -1.
         -1   -1    0    0    0  501 -0.00000000000E+00 -0.00000000000E+00 -0.17293355786E+04  0.17293355786E+04  0.00000000000E+00 0.  1.
    9000010    2    1    2  502    0  0.29160269118E+03  0.62159876738E+03 -0.95624198039E+03  0.15394289047E+04  0.99198057970E+03 0.  0.
   -9000010    2    1    2    0  501 -0.29160269118E+03 -0.62159876738E+03  0.25985967031E+03  0.12228599424E+04  0.97797864669E+03 0.  0.
        -13    1    3    3    0    0  0.27182870362E+03  0.67557300305E+02  0.13838305011E+03  0.31241752937E+03  0.10566000000E+00 0.  1.
          4    1    3    3  502    0  0.19773987560E+02  0.55404146708E+03 -0.10946250305E+04  0.12270113753E+04  0.00000000000E+00 0.  1.
         13    1    4    4    0    0 -0.43103101608E+02  0.37410111545E+02  0.48121652390E+03  0.48458925685E+03  0.10566000000E+00 0. -1.
         -4    1    4    4    0  501 -0.24849958957E+03 -0.65900887893E+03 -0.22135685359E+03  0.73827068556E+03  0.00000000000E+00 0. -1.
<mgrwt>
<rscale>  2 0.12006603E+04</rscale>
<asrwt>0</asrwt>
<pdfrwt beam="1">  1        1 0.15891589E+00 0.12006603E+04</pdfrwt>
<pdfrwt beam="2">  1       -1 0.26605163E+00 0.12006603E+04</pdfrwt>
<totfact> 0.63264234E-01</totfact>
</mgrwt>
</event>
<event>
 8    1  0.7046235E-006  0.1302120E+04  0.7818608E-02  0.8533391E-01
          1   -1    0    0  502    0  0.00000000000E+00  0.00000000000E+00  0.14175717858E+04  0.14175717858E+04  0.00000000000E+00 0. -1.
         -1   -1    0    0    0  501 -0.00000000000E+00 -0.00000000000E+00 -0.12699604030E+04  0.12699604030E+04  0.00000000000E+00 0.  1.
    9000010    2    1    2  502    0  0.67119337820E+03 -0.52133313135E+03  0.39833925663E+03  0.13732257986E+04  0.10023902163E+04 0.  0.
   -9000010    2    1    2    0  501 -0.67119337820E+03  0.52133313135E+03 -0.25072787381E+03  0.13143063903E+04  0.97069461520E+03 0.  0.
        -13    1    3    3    0    0  0.50460801206E+03 -0.15005360526E+02 -0.22530756570E+03  0.55282720357E+03  0.10566000000E+00 0.  1.
          4    1    3    3  502    0  0.16658536613E+03 -0.50632777083E+03  0.62364682233E+03  0.82039859503E+03  0.00000000000E+00 0.  1.
         13    1    4    4    0    0  0.20484731336E+03 -0.35035372879E-01 -0.21100735220E+03  0.29408593449E+03  0.10566000000E+00 0. -1.
         -4    1    4    4    0  501 -0.87604069155E+03  0.52136816673E+03 -0.39720521616E+02  0.10202204558E+04  0.00000000000E+00 0. -1.
<mgrwt>
<rscale>  2 0.13021204E+04</rscale>
<asrwt>0</asrwt>
<pdfrwt beam="1">  1        1 0.21808797E+00 0.13021204E+04</pdfrwt>
<pdfrwt beam="2">  1       -1 0.19537852E+00 0.13021204E+04</pdfrwt>
<totfact> 0.14702024E+00</totfact>
</mgrwt>
</event>
<event>
 8    1  0.7046235E-006  0.1164762E+04  0.7818608E-02  0.8633580E-01
         -2   -1    0    0    0  501 -0.00000000000E+00  0.00000000000E+00  0.48835169239E+03  0.48835169239E+03  0.00000000000E+00 0. -1.
          2   -1    0    0  502    0  0.00000000000E+00 -0.00000000000E+00 -0.29532129449E+04  0.29532129449E+04  0.00000000000E+00 0.  1.
    9000010    2    1    2  502    0 -0.52467826593E+03 -0.32663175059E+03 -0.16660053744E+04  0.20415804802E+04  0.10052369704E+04 0.  0.
   -9000010    2    1    2    0  501  0.52467826593E+03  0.32663175059E+03 -0.79885587817E+03  0.13999841571E+04  0.96943764257E+03 0.  0.
        -13    1    3    3    0    0  0.14696936347E+03 -0.42038533758E+03 -0.37047831531E+03  0.57929096241E+03  0.10566000000E+00 0.  1.
          4    1    3    3  502    0 -0.67164762940E+03  0.93753586994E+02 -0.12955270590E+04  0.14622895178E+04  0.00000000000E+00 0.  1.
         13    1    4    4    0    0 -0.18095817052E+03  0.36249537371E+03 -0.12596251905E+03  0.42428212643E+03  0.10566000000E+00 0. -1.
         -4    1    4    4    0  501  0.70563643644E+03 -0.35863623127E+02 -0.67289335912E+03  0.97570203067E+03  0.00000000000E+00 0. -1.
<mgrwt>
<rscale>  2 0.11647620E+04</rscale>
<asrwt>0</asrwt>
<pdfrwt beam="2">  1        2 0.45434045E+00 0.11647620E+04</pdfrwt>
<pdfrwt beam="1">  1       -2 0.75131030E-01 0.11647620E+04</pdfrwt>
<totfact> 0.46317635E+00</totfact>
</mgrwt>
</event>
<event>
 8    1  0.7046235E-006  0.1038365E+04  0.7818608E-02  0.8739356E-01
          4   -1    0    0  502    0  0.00000000000E+00  0.00000000000E+00  0.62177655128E+03  0.62177655128E+03  0.00000000000E+00 0.  1.
         -4   -1    0    0    0  501 -0.00000000000E+00 -0.00000000000E+00 -0.18558067399E+04  0.18558067399E+04  0.00000000000E+00 0. -1.
    9000010    2    1    2  502    0 -0.17928328902E+03  0.17118631226E+03 -0.30244838927E+03  0.10861351553E+04  0.10132952660E+04 0.  0.
   -9000010    2    1    2    0  501  0.17928328902E+03 -0.17118631226E+03 -0.93158179934E+03  0.13914481359E+04  0.10034121859E+04 0.  0.
        -13    1    3    3    0    0  0.50749766725E+02  0.40771978065E+03 -0.54074988271E+03  0.67913283323E+03  0.10566000000E+00 0.  1.
          4    1    3    3  502    0 -0.23003305574E+03 -0.23653346839E+03  0.23830149344E+03  0.40700232208E+03  0.00000000000E+00 0.  1.
         13    1    4    4    0    0 -0.39385100606E+03 -0.34252561892E+02 -0.17467344044E+03  0.43220675021E+03  0.10566000000E+00 0. -1.
         -4    1    4    4    0  501  0.57313429508E+03 -0.13693375036E+03 -0.75690835890E+03  0.95924138566E+03  0.00000000000E+00 0. -1.
<mgrwt>
<rscale>  2 0.10383655E+04</rscale>
<asrwt>0</asrwt>
<pdfrwt beam="1">  1        4 0.95657930E-01 0.10383655E+04</pdfrwt>
<pdfrwt beam="2">  1       -4 0.28550873E+00 0.10383655E+04</pdfrwt>
<totfact> 0.35761359E-01</totfact>
</mgrwt>
</event>
<event>
 8    1  0.7046235E-006  0.1084675E+04  0.7818608E-02  0.8698864E-01
          1   -1    0    0  502    0  0.00000000000E+00  0.00000000000E+00  0.13026141930E+04  0.13026141930E+04  0.00000000000E+00 0. -1.
         -1   -1    0    0    0  501 -0.00000000000E+00 -0.00000000000E+00 -0.10819904233E+04  0.10819904233E+04  0.00000000000E+00 0.  1.
    9000010    2    1    2  502    0  0.87032399801E+02  0.26363263917E+03 -0.36944300917E+03  0.11821809053E+04  0.10881115516E+04 0.  0.
   -9000010    2    1    2    0  501 -0.87032399801E+02 -0.26363263917E+03  0.59006677887E+03  0.12024237110E+04  0.10102312459E+04 0.  0.
        -13    1    3    3    0    0 -0.59973117409E+02  0.63125204558E+03 -0.45077157727E+03  0.77799161044E+03  0.10566000000E+00 0.  1.
          4    1    3    3  502    0  0.14700551721E+03 -0.36761940641E+03  0.81328568103E+02  0.40418929483E+03  0.00000000000E+00 0.  1.
         13    1    4    4    0    0  0.22790051692E+03 -0.28107871671E+03 -0.15475812418E+03  0.39356572356E+03  0.10566000000E+00 0. -1.
         -4    1    4    4    0  501 -0.31493291672E+03  0.17446077540E+02  0.74482490306E+03  0.80885798745E+03  0.00000000000E+00 0. -1.
<mgrwt>
<rscale>  2 0.10846750E+04</rscale>
<asrwt>0</asrwt>
<pdfrwt beam="1">  1        1 0.20040218E+00 0.10846750E+04</pdfrwt>
<pdfrwt beam="2">  1       -1 0.16646007E+00 0.10846750E+04</pdfrwt>
<totfact> 0.33026597E+00</totfact>
</mgrwt>
</event>
<event>
 8    1  0.7046235E-006  0.1275445E+04  0.7818608E-02  0.8551817E-01
         -2   -1    0    0    0  501 -0.00000000000E+00  0.00000000000E+00  0.56485622533E+03  0.56485622533E+03  0.00000000000E+00 0.  1.
          2   -1    0    0  502    0  0.00000000000E+00 -0.00000000000E+00 -0.30824528892E+04  0.30824528892E+04  0.00000000000E+00 0. -1.
    9000010    2    1    2  502    0  0.18483367454E+03 -0.77847407640E+03 -0.79329121875E+03  0.15037737540E+04  0.99591122627E+03 0.  0.
   -9000010    2    1    2    0  501 -0.18483367454E+03  0.77847407640E+03 -0.17243054451E+04  0.21435353605E+04  0.99062061301E+03 0.  0.
        -13    1    3    3    0    0  0.49967707711E+02 -0.36055099216E+03 -0.96568044514E+03  0.10320041294E+04  0.10566000000E+00 0.  1.
          4    1    3    3  502    0  0.13486596683E+03 -0.41792308423E+03  0.17238922638E+03  0.47176962462E+03  0.00000000000E+00 0.  1.
         13    1    4    4    0    0  0.28259067503E+03  0.13852973344E+03 -0.10716378897E+04  0.11168955880E+04  0.10566000000E+00 0. -1.
         -4    1    4    4    0  501 -0.46742434957E+03  0.63994434295E+03 -0.65266755537E+03  0.10266397725E+04  0.00000000000E+00 0. -1.
<mgrwt>
<rscale>  2 0.12754454E+04</rscale>
<asrwt>0</asrwt>
<pdfrwt beam="2">  1        2 0.47422350E+00 0.12754454E+04</pdfrwt>
<pdfrwt beam="1">  1       -2 0.86900961E-01 0.12754454E+04</pdfrwt>
<totfact> 0.27572620E+00</totfact>
</mgrwt>
</event>
<event>
 8    1  0.7046235E-006  0.1088873E+04  0.7818608E-02  0.8695299E-01
         -2   -1    0    0    0  501 -0.00000000000E+00  0.00000000000E+00  0.51805421916E+03  0.51805421916E+03  0.00000000000E+00 0. -1.
          2   -1    0    0  502    0  0.00000000000E+00 -0.00000000000E+00 -0.22905366006E+04  0.22905366006E+04  0.00000000000E+00 0.  1.
    9000010    2    1    2  502    0 -0.52090593480E+03 -0.94584792029E+02 -0.84511463470E+03  0.13775590713E+04  0.95034781698E+03 0.  0.
   -9000010    2    1    2    0  501  0.52090593480E+03  0.94584792029E+02 -0.92736774679E+03  0.14310317485E+04  0.95265505393E+03 0.  0.
        -13    1    3    3    0    0  0.25227369224E+03 -0.77186712909E+02 -0.50285713074E+02  0.26856743762E+03  0.10566000000E+00 0.  1.
          4    1    3    3  502    0 -0.77317962704E+03 -0.17398079120E+02 -0.79482892163E+03  0.11089916336E+04  0.00000000000E+00 0.  1.
         13    1    4    4    0    0  0.49806035693E+03 -0.30329627302E+03 -0.22809489701E+03  0.62616295130E+03  0.10566000000E+00 0. -1.
         -4    1    4    4    0  501  0.22845577865E+02  0.39788106505E+03 -0.69927284978E+03  0.80486879725E+03  0.00000000000E+00 0. -1.
<mgrwt>
<rscale>  2 0.10888726E+04</rscale>
<asrwt>0</asrwt>
<pdfrwt beam="2">  1        2 0.35239025E+00 0.10888726E+04</pdfrwt>
<pdfrwt beam="1">  1       -2 0.79700648E-01 0.10888726E+04</pdfrwt>
<totfact> 0.98874019E+00</totfact>
</mgrwt>
</event>
<event>
 8    1  0.7046235E-006  0.1334219E+04  0.7818608E-02  0.8511812E-01
          2   -1    0    0  502    0  0.00000000000E+00  0.00000000000E+00  0.16898046559E+04  0.16898046559E+04  0.00000000000E+00 0. -1.
         -2   -1    0    0    0  501 -0.00000000000E+00 -0.00000000000E+00 -0.11518986527E+04  0.11518986527E+04  0.00000000000E+00 0.  1.
    9000010    2    1    2  502    0 -0.68974710632E+03 -0.47829863803E+03  0.69055991824E+03  0.15661319171E+04  0.11275528916E+04 0.  0.
   -9000010    2    1    2    0  501  0.68974710632E+03  0.47829863803E+03 -0.15265391498E+03  0.12755713915E+04  0.94829241231E+03 0.  0.
        -13    1    3    3    0    0 -0.42527122963E+03 -0.80015281156E+03  0.70685280406E+03  0.11492349796E+04  0.10566000000E+00 0.  1.
          4    1    3    3  502    0 -0.26447587669E+03  0.32185417353E+03 -0.16292885821E+02  0.41689693750E+03  0.00000000000E+00 0.  1.
         13    1    4    4    0    0  0.17983462283E+03  0.41370004042E+03 -0.48589384588E+03  0.66300909167E+03  0.10566000000E+00 0. -1.
         -4    1    4    4    0  501  0.50991248349E+03  0.64598597609E+02  0.33323993090E+03  0.61256229984E+03  0.00000000000E+00 0. -1.
<mgrwt>
<rscale>  2 0.13342192E+04</rscale>
<asrwt>0</asrwt>
<pdfrwt beam="1">  1        2 0.25996995E+00 0.13342192E+04</pdfrwt>
<pdfrwt beam="2">  1       -2 0.17721518E+00 0.13342192E+04</pdfrwt>
<totfact> 0.23879109E+00</totfact>
</mgrwt>
</event>
<event>
 8    1  0.7046235E-006  0.1280972E+04  0.7818608E-02  0.8547962E-01
         -2   -1    0    0    0  501 -0.00000000000E+00  0.00000000000E+00  0.12981595371E+04  0.12981595371E+04  0.00000000000E+00 0.  1.
          2   -1    0    0  502    0  0.00000000000E+00 -0.00000000000E+00 -0.17674489818E+04  0.17674489818E+04  0.00000000000E+00 0. -1.
    9000010    2    1    2  502    0 -0.63249819236E+03  0.76983643567E+02 -0.10576338585E+04  0.17466603919E+04  0.12354160034E+04 0.  0.
   -9000010    2    1    2    0  501  0.63249819236E+03 -0.76983643567E+02  0.58834441380E+03  0.13189481269E+04  0.99372761234E+03 0.  0.
        -13    1    3    3    0    0  0.21045557159E+02 -0.10864377414E+03  0.24981526730E+03  0.27322895907E+03  0.10566000000E+00 0.  1.
          4    1    3    3  502    0 -0.65354374952E+03  0.18562741771E+03 -0.13074491258E+04  0.14734314329E+04  0.00000000000E+00 0.  1.
         13    1    4    4    0    0  0.11399575070E+03  0.40543500682E+03  0.39594409853E+02  0.42301336195E+03  0.10566000000E+00 0. -1.
         -4    1    4    4    0  501  0.51850244166E+03 -0.48241865039E+03  0.54875000395E+03  0.89593476497E+03  0.00000000000E+00 0. -1.
<mgrwt>
<rscale>  2 0.12809721E+04</rscale>
<asrwt>0</asrwt>
<pdfrwt beam="2">  1        2 0.27191523E+00 0.12809721E+04</pdfrwt>
<pdfrwt beam="1">  1       -2 0.19971685E+00 0.12809721E+04</pdfrwt>
<totfact> 0.14149448E+00</totfact>
</mgrwt>
</event>
<event>
 8    1  0.7046235E-006  0.1217800E+04  0.7818608E-02  0.8593278E-01
          2   -1    0    0  502    0  0.00000000000E+00  0.00000000000E+00  0.12838448583E+04  0.12838448583E+04  0.00000000000E+00 0.  1.
         -2   -1    0    0    0  501 -0.00000000000E+00 -0.00000000000E+00 -0.11953680485E+04  0.11953680485E+04  0.00000000000E+00 0. -1.
    9000010    2    1    2  502    0  0.61801806120E+03 -0.32536111241E+03 -0.18304344762E+03  0.12336615344E+04  0.10003048037E+04 0.  0.
   -9000010    2    1    2    0  501 -0.61801806120E+03  0.32536111241E+03  0.27152025742E+03  0.12455513725E+04  0.99492150134E+03 0.  0.
        -13    1    3    3    0    0  0.38278565490E+02  0.12853613862E+01  0.36781837028E+03  0.36980706511E+03  0.10566000000E+00 0.  1.
          4    1    3    3  502    0  0.57973949571E+03 -0.32664647380E+03 -0.55086181790E+03  0.86385446931E+03  0.00000000000E+00 0.  1.
         13    1    4    4    0    0  0.48692235775E+02  0.40547241578E+03  0.38881761750E+03  0.56387761494E+03  0.10566000000E+00 0. -1.
         -4    1    4    4    0  501 -0.66671029697E+03 -0.80111303372E+02 -0.11729736009E+03  0.68167375753E+03  0.00000000000E+00 0. -1.
<mgrwt>
<rscale>  2 0.12177995E+04</rscale>
<asrwt>0</asrwt>
<pdfrwt beam="1">  1        2 0.19751459E+00 0.12177995E+04</pdfrwt>
<pdfrwt beam="2">  1       -2 0.18390278E+00 0.12177995E+04</pdfrwt>
<totfact> 0.35585349E+00</totfact>
</mgrwt>
</event>
<event>
 8    1  0.7046235E-006  0.1914963E+04  0.7818608E-02  0.8203920E-01
          1   -1    0    0  502    0  0.00000000000E+00  0.00000000000E+00  0.15072606539E+04  0.15072606539E+04  0.00000000000E+00 0.  1.
         -1   -1    0    0    0  501 -0.00000000000E+00 -0.00000000000E+00 -0.24864078113E+04  0.24864078113E+04  0.00000000000E+00 0. -1.
    9000010    2    1    2  502    0  0.15424241388E+04  0.56210447107E+03 -0.19911369872E+03  0.19340507209E+04  0.10029318351E+04 0.  0.
   -9000010    2    1    2    0  501 -0.15424241388E+04 -0.56210447107E+03 -0.78003345877E+03  0.20596177443E+04  0.96878242935E+03 0.  0.
        -13    1    3    3    0    0 -0.16438858870E+02 -0.16238452226E+03 -0.13838571477E+03  0.21398501436E+03  0.10566000000E+00 0.  1.
          4    1    3    3  502    0  0.15588629977E+04  0.72448899333E+03 -0.60727983944E+02  0.17200657066E+04  0.00000000000E+00 0.  1.
         13    1    4    4    0    0 -0.85784656758E+03 -0.21829692971E+03  0.10236063263E+03  0.89108472847E+03  0.10566000000E+00 0. -1.
         -4    1    4    4    0  501 -0.68457757120E+03 -0.34380754136E+03 -0.88239409139E+03  0.11685330158E+04  0.00000000000E+00 0. -1.
<mgrwt>
<rscale>  2 0.19149634E+04</rscale>
<asrwt>0</asrwt>
<pdfrwt beam="1">  1        1 0.23188626E+00 0.19149634E+04</pdfrwt>
<pdfrwt beam="2">  1       -1 0.38252427E+00 0.19149634E+04</pdfrwt>
<totfact> 0.85812005E-02</totfact>
</mgrwt>
</event>
<event>
 8    1  0.7046235E-006  0.1133396E+04  0.7818608E-02  0.8658478E-01
         -2   -1    0    0    0  501 -0.00000000000E+00  0.00000000000E+00  0.49613678613E+03  0.49613678613E+03  0.00000000000E+00 0.  1.
          2   -1    0    0  502    0  0.00000000000E+00 -0.00000000000E+00 -0.27959182289E+04  0.27959182289E+04  0.00000000000E+00 0. -1.
    9000010    2    1    2  502    0  0.49282765604E+03  0.24935096896E+03 -0.71035025203E+03  0.13447537190E+04  0.99935483181E+03 0.  0.
   -9000010    2    1    2    0  501 -0.49282765604E+03 -0.24935096896E+03 -0.15894311908E+04  0.19473012961E+04  0.98012031061E+03 0.  0.
        -13    1    3    3    0    0 -0.19290075080E+03 -0.19973748359E+03 -0.35664926112E+03  0.45200051840E+03  0.10566000000E+00 0.  1.
          4    1    3    3  502    0  0.68572840684E+03  0.44908845255E+03 -0.35370099091E+03  0.89275320057E+03  0.00000000000E+00 0.  1.
         13    1    4    4    0    0 -0.29579216528E+03 -0.50886685935E+03 -0.39407688113E+03  0.70833260901E+03  0.10566000000E+00 0. -1.
         -4    1    4    4    0  501 -0.19703549075E+03  0.25951589039E+03 -0.11953543096E+04  0.12389686871E+04  0.00000000000E+00 0. -1.
<mgrwt>
<rscale>  2 0.11333962E+04</rscale>
<asrwt>0</asrwt>
<pdfrwt beam="2">  1        2 0.43014126E+00 0.11333962E+04</pdfrwt>
<pdfrwt beam="1">  1       -2 0.76328737E-01 0.11333962E+04</pdfrwt>
<totfact> 0.55944368E+00</totfact>
</mgrwt>
</event>
<event>
 8    1  0.7046235E-006  0.1099228E+04  0.7818608E-02  0.8686573E-01
         -1   -1    0    0    0  501 -0.00000000000E+00  0.00000000000E+00  0.17713534891E+04  0.17713534891E+04  0.00000000000E+00 0. -1.
          1   -1    0    0  502    0  0.00000000000E+00 -0.00000000000E+00 -0.12210652439E+04  0.12210652439E+04  0.00000000000E+00 0.  1.
    9000010    2    1    2  502    0  0.30811465398E+03  0.36007509624E+03 -0.72494693430E+03  0.12616820379E+04  0.91744470808E+03 0.  0.
   -9000010    2    1    2    0  501 -0.30811465398E+03 -0.36007509624E+03  0.12752351794E+04  0.17307366951E+04  0.10698766424E+04 0.  0.
        -13    1    3    3    0    0 -0.17244535379E+03  0.86953422869E-01 -0.63074860866E+03  0.65389695373E+03  0.10566000000E+00 0.  1.
          4    1    3    3  502    0  0.48056000777E+03  0.35998814281E+03 -0.94198325642E+02  0.60778508421E+03  0.00000000000E+00 0.  1.
         13    1    4    4    0    0  0.10960075669E+03  0.49109906172E+02 -0.14885971024E+03  0.19126770049E+03  0.10566000000E+00 0. -1.
         -4    1    4    4    0  501 -0.41771541067E+03 -0.40918500241E+03  0.14240948897E+04  0.15394689946E+04  0.00000000000E+00 0. -1.
<mgrwt>
<rscale>  2 0.10992282E+04</rscale>
<asrwt>0</asrwt>
<pdfrwt beam="2">  1        1 0.18785619E+00 0.10992282E+04</pdfrwt>
<pdfrwt beam="1">  1       -1 0.27251592E+00 0.10992282E+04</pdfrwt>
<totfact> 0.39423730E-01</totfact>
</mgrwt>
</event>
<event>
 8    1  0.7046235E-006  0.1178633E+04  0.7818608E-02  0.8622828E-01
         -2   -1    0    0    0  501 -0.00000000000E+00  0.00000000000E+00  0.98697378729E+03  0.98697378729E+03  0.00000000000E+00 0. -1.
          2   -1    0    0  502    0  0.00000000000E+00 -0.00000000000E+00 -0.15572026367E+04  0.15572026367E+04  0.00000000000E+00 0.  1.
    9000010    2    1    2  502    0  0.51485247611E+03  0.33723138601E+03 -0.67943006926E+03  0.13600856342E+04  0.10046938009E+04 0.  0.
   -9000010    2    1    2    0  501 -0.51485247611E+03 -0.33723138601E+03  0.10920121983E+03  0.11840907898E+04  0.10056579996E+04 0.  0.
        -13    1    3    3    0    0  0.11032727159E+03 -0.24533768248E+02  0.25532101318E+03  0.27921827229E+03  0.10566000000E+00 0.  1.
          4    1    3    3  502    0  0.40452520451E+03  0.36176515426E+03 -0.93475108244E+03  0.10808673619E+04  0.00000000000E+00 0.  1.
         13    1    4    4    0    0  0.16239662755E+03 -0.45607577787E+03  0.11012343211E+03  0.49649265983E+03  0.10566000000E+00 0. -1.
         -4    1    4    4    0  501 -0.67724910365E+03  0.11884439186E+03 -0.92221228168E+00  0.68759812998E+03  0.00000000000E+00 0. -1.
<mgrwt>
<rscale>  2 0.11786333E+04</rscale>
<asrwt>0</asrwt>
<pdfrwt beam="2">  1        2 0.23956964E+00 0.11786333E+04</pdfrwt>
<pdfrwt beam="1">  1       -2 0.15184212E+00 0.11786333E+04</pdfrwt>
<totfact> 0.47264371E+00</totfact>
</mgrwt>
</event>
<event>
 8    1  0.7046235E-006  0.1084037E+04  0.7818608E-02  0.8699408E-01
          4   -1    0    0  502    0  0.00000000000E+00  0.00000000000E+00  0.14926338326E+04  0.14926338326E+04  0.00000000000E+00 0.  1.
         -4   -1    0    0    0  501 -0.00000000000E+00 -0.00000000000E+00 -0.14862330402E+04  0.14862330402E+04  0.00000000000E+00 0. -1.
    9000010    2    1    2  502    0  0.23986082135E+03  0.39007172761E+03  0.10245917601E+04  0.14957770176E+04  0.98887382674E+03 0.  0.
   -9000010    2    1    2    0  501 -0.23986082135E+03 -0.39007172761E+03 -0.10181909677E+04  0.14830898552E+04  0.97629580848E+03 0.  0.
        -13    1    3    3    0    0  0.51452067323E+03 -0.39054246957E+02  0.26216457239E+03  0.57878064201E+03  0.10566000000E+00 0.  1.
          4    1    3    3  502    0 -0.27465985188E+03  0.42912597457E+03  0.76242718770E+03  0.91699637558E+03  0.00000000000E+00 0.  1.
         13    1    4    4    0    0 -0.61458326781E+03 -0.22135669955E+03 -0.50522577586E+03  0.82581140538E+03  0.10566000000E+00 0. -1.
         -4    1    4    4    0  501  0.37472244646E+03 -0.16871502806E+03 -0.51296519188E+03  0.65727844986E+03  0.00000000000E+00 0. -1.
<mgrwt>
<rscale>  2 0.10840372E+04</rscale>
<asrwt>0</asrwt>
<pdfrwt beam="1">  1        4 0.22963598E+00 0.10840372E+04</pdfrwt>
<pdfrwt beam="2">  1       -4 0.22865123E+00 0.10840372E+04</pdfrwt>
<totfact> 0.12824711E-01</totfact>
</mgrwt>
</event>
<event>
 8    1  0.7046235E-006  0.1539196E+04  0.7818608E-02  0.8387292E-01
         -1   -1    0    0    0  501 -0.00000000000E+00  0.00000000000E+00  0.18773572533E+04  0.18773572533E+04  0.00000000000E+00 0. -1.
          1   -1    0    0  502    0  0.00000000000E+00 -0.00000000000E+00 -0.12620325504E+04  0.12620325504E+04  0.00000000000E+00 0.  1.
    9000010    2    1    2  502    0 -0.83550134407E+03 -0.82219848793E+03  0.29459464409E+03  0.15661424249E+04  0.99596347379E+03 0.  0.
   -9000010    2    1    2    0  501  0.83550134407E+03  0.82219848793E+03  0.32073005879E+03  0.15732473788E+04  0.99908292685E+03 0.  0.
        -13    1    3    3    0    0 -0.52935391232E+02  0.17388771573E+03 -0.13731801813E+03  0.22780549290E+03  0.10566000000E+00 0.  1.
          4    1    3    3  502    0 -0.78256595284E+03 -0.99608620366E+03  0.43191266223E+03  0.13383369320E+04  0.00000000000E+00 0.  1.
         13    1    4    4    0    0 -0.11484379232E+03 -0.13965571395E+03  0.88454617868E+02  0.20128846380E+03  0.10566000000E+00 0. -1.
         -4    1    4    4    0  501  0.95034513639E+03  0.96185420188E+03  0.23227544092E+03  0.13719589150E+04  0.00000000000E+00 0. -1.
<mgrwt>
<rscale>  2 0.15391965E+04</rscale>
<asrwt>0</asrwt>
<pdfrwt beam="2">  1        1 0.19415886E+00 0.15391965E+04</pdfrwt>
<pdfrwt beam="1">  1       -1 0.28882419E+00 0.15391965E+04</pdfrwt>
<totfact> 0.24467256E-01</totfact>
</mgrwt>
</event>
<event>
 8    1  0.7046235E-006  0.1415780E+04  0.7818608E-02  0.8459679E-01
          1   -1    0    0  502    0  0.00000000000E+00  0.00000000000E+00  0.14697065036E+04  0.14697065036E+04  0.00000000000E+00 0.  1.
         -1   -1    0    0    0  501 -0.00000000000E+00 -0.00000000000E+00 -0.13642061503E+04  0.13642061503E+04  0.00000000000E+00 0. -1.
    9000010    2    1    2  502    0 -0.87237646495E+03  0.49680472365E+03  0.76171233446E+02  0.14202892719E+04  0.10017803796E+04 0.  0.
   -9000010    2    1    2    0  501  0.87237646495E+03 -0.49680472365E+03  0.29329119868E+02  0.14136233821E+04  0.99479406868E+03 0.  0.
        -13    1    3    3    0    0 -0.10629223049E+04  0.38413327844E+03 -0.10384842522E+03  0.11349655098E+04  0.10566000000E+00 0.  1.
          4    1    3    3  502    0  0.19054583995E+03  0.11267144520E+03  0.18001965867E+03  0.28532376206E+03  0.00000000000E+00 0.  1.
         13    1    4    4    0    0  0.97881083787E+03 -0.56993461087E+03 -0.20025139912E+03  0.11502159584E+04  0.10566000000E+00 0. -1.
         -4    1    4    4    0  501 -0.10643437293E+03  0.73129887219E+02  0.22958051899E+03  0.26340742367E+03  0.00000000000E+00 0. -1.
<mgrwt>
<rscale>  2 0.14157800E+04</rscale>
<asrwt>0</asrwt>
<pdfrwt beam="1">  1        1 0.22610869E+00 0.14157800E+04</pdfrwt>
<pdfrwt beam="2">  1       -1 0.20987787E+00 0.14157800E+04</pdfrwt>
<totfact> 0.98034601E-01</totfact>
</mgrwt>
</event>
<event>
 8    1  0.7046235E-006  0.1393515E+04  0.7818608E-02  0.8473546E-01
          2   -1    0    0  502    0  0.00000000000E+00  0.00000000000E+00  0.25255560105E+04  0.25255560105E+04  0.00000000000E+00 0.  1.
         -2   -1    0    0    0  501 -0.00000000000E+00 -0.00000000000E+00 -0.85762924653E+03  0.85762924653E+03  0.00000000000E+00 0. -1.
    9000010    2    1    2  502    0  0.71472924290E+03  0.63053065599E+03  0.13869492261E+04  0.19784422191E+04  0.10402877774E+04 0.  0.
   -9000010    2    1    2    0  501 -0.71472924290E+03 -0.63053065599E+03  0.28097753786E+03  0.14047430379E+04  0.99294905558E+03 0.  0.
        -13    1    3    3    0    0  0.23600922518E+03  0.82580449639E+03  0.10697938746E+04  0.13719010044E+04  0.10566000000E+00 0.  1.
          4    1    3    3  502    0  0.47872001773E+03 -0.19527384040E+03  0.31715535150E+03  0.60654121468E+03  0.00000000000E+00 0.  1.
         13    1    4    4    0    0 -0.87602537755E+02 -0.60862717501E+03 -0.16289978066E+03  0.63611130511E+03  0.10566000000E+00 0. -1.
         -4    1    4    4    0  501 -0.62712670515E+03 -0.21903480981E+02  0.44387731852E+03  0.76863173281E+03  0.00000000000E+00 0. -1.
<mgrwt>
<rscale>  2 0.13935149E+04</rscale>
<asrwt>0</asrwt>
<pdfrwt beam="1">  1        2 0.38854708E+00 0.13935149E+04</pdfrwt>
<pdfrwt beam="2">  1       -2 0.13194296E+00 0.13935149E+04</pdfrwt>
<totfact> 0.20527103E+00</totfact>
</mgrwt>
</event>
<event>
 8    1  0.7046235E-006  0.1047705E+04  0.7818608E-02  0.8731016E-01
         -2   -1    0    0    0  501 -0.00000000000E+00  0.00000000000E+00  0.75827295784E+03  0.75827295784E+03  0.00000000000E+00 0.  1.
          2   -1    0    0  502    0  0.00000000000E+00 -0.00000000000E+00 -0.20557158274E+04  0.20557158274E+04  0.00000000000E+00 0. -1.
    9000010    2    1    2  502    0  0.22985942776E+03  0.67752759387E+02  0.11810105651E+03  0.10507157690E+04  0.10161840260E+04 0.  0.
   -9000010    2    1    2    0  501 -0.22985942776E+03 -0.67752759387E+02 -0.14155439261E+04  0.17632730163E+04  0.10236900558E+04 0.  0.
        -13    1    3    3    0    0  0.17770190176E+03 -0.24178711821E+03 -0.36629095921E+03  0.47350612919E+03  0.10566000000E+00 0.  1.
          4    1    3    3  502    0  0.52157526002E+02  0.30953987759E+03  0.48439201572E+03  0.57720963976E+03  0.00000000000E+00 0.  1.
         13    1    4    4    0    0  0.32972681382E+03 -0.22583902650E+03 -0.90556913620E+03  0.98983761761E+03  0.10566000000E+00 0. -1.
         -4    1    4    4    0  501 -0.55958624158E+03  0.15808626711E+03 -0.50997478986E+03  0.77343539866E+03  0.00000000000E+00 0. -1.
<mgrwt>
<rscale>  2 0.10477045E+04</rscale>
<asrwt>0</asrwt>
<pdfrwt beam="2">  1        2 0.31626397E+00 0.10477045E+04</pdfrwt>
<pdfrwt beam="1">  1       -2 0.11665738E+00 0.10477045E+04</pdfrwt>
<totfact> 0.54077986E+00</totfact>
</mgrwt>
</event>
<event>
 8    1  0.7046235E-006  0.1351954E+04  0.7818608E-02  0.8500156E-01
          2   -1    0    0  502    0  0.00000000000E+00  0.00000000000E+00  0.32789913637E+04  0.32789913637E+04  0.00000000000E+00 0.  1.
         -2   -1    0    0    0  501 -0.00000000000E+00 -0.00000000000E+00 -0.59021308434E+03  0.59021308434E+03  0.00000000000E+00 0. -1.
    9000010    2    1    2  502    0  0.58737766820E+03  0.67776177252E+03  0.88569559720E+03  0.16138356248E+04  0.10077872730E+04 0.  0.
   -9000010    2    1    2    0  501 -0.58737766820E+03 -0.67776177252E+03  0.18030826822E+04  0.22553688232E+04  0.10154840347E+04 0.  0.
        -13    1    3    3    0    0  0.71248990554E+03  0.86404501173E+03  0.78643142527E+03  0.13684626577E+04  0.10566000000E+00 0.  1.
          4    1    3    3  502    0 -0.12511223734E+03 -0.18628323920E+03  0.99264171931E+02  0.24537296707E+03  0.00000000000E+00 0.  1.
         13    1    4    4    0    0 -0.76731303096E+03 -0.13802294276E+03  0.11481068863E+04  0.13877928713E+04  0.10566000000E+00 0. -1.
         -4    1    4    4    0  501  0.17993536276E+03 -0.53973882977E+03  0.65497579588E+03  0.86757595190E+03  0.00000000000E+00 0. -1.
<mgrwt>
<rscale>  2 0.13519536E+04</rscale>
<asrwt>0</asrwt>
<pdfrwt beam="1">  1        2 0.50446020E+00 0.13519536E+04</pdfrwt>
<pdfrwt beam="2">  1       -2 0.90802015E-01 0.13519536E+04</pdfrwt>
<totfact> 0.18431898E+00</totfact>
</mgrwt>
</event>
<event>
 8    1  0.7046235E-006  0.1290915E+04  0.7818608E-02  0.8541075E-01
         -2   -1    0    0    0  501 -0.00000000000E+00  0.00000000000E+00  0.14665192436E+04  0.14665192436E+04  0.00000000000E+00 0.  1.
          2   -1    0    0  502    0  0.00000000000E+00 -0.00000000000E+00 -0.11405265543E+04  0.11405265543E+04  0.00000000000E+00 0. -1.
    9000010    2    1    2  502    0 -0.63772541405E+02  0.83860873625E+03  0.86109579181E+02  0.13045787675E+04  0.99356899677E+03 0.  0.
   -9000010    2    1    2    0  501  0.63772541405E+02 -0.83860873625E+03  0.23988311014E+03  0.13024670305E+04  0.96516574197E+03 0.  0.
        -13    1    3    3    0    0  0.16060053650E+03  0.99630363561E+03 -0.22994908034E+02  0.10094266906E+04  0.10566000000E+00 0.  1.
          4    1    3    3  502    0 -0.22437307791E+03 -0.15769489936E+03  0.10910448721E+03  0.29515207691E+03  0.00000000000E+00 0.  1.
         13    1    4    4    0    0  0.22843235787E+03 -0.31993737699E+03 -0.33089973490E+03  0.51384424979E+03  0.10566000000E+00 0. -1.
         -4    1    4    4    0  501 -0.16465981647E+03 -0.51867135926E+03  0.57078284504E+03  0.78862278072E+03  0.00000000000E+00 0. -1.
<mgrwt>
<rscale>  2 0.12909150E+04</rscale>
<asrwt>0</asrwt>
<pdfrwt beam="2">  1        2 0.17546562E+00 0.12909150E+04</pdfrwt>
<pdfrwt beam="1">  1       -2 0.22561835E+00 0.12909150E+04</pdfrwt>
<totfact> 0.19334172E+00</totfact>
</mgrwt>
</event>
<event>
 8    1  0.7046235E-006  0.1097126E+04  0.7818608E-02  0.8688337E-01
          2   -1    0    0  502    0  0.00000000000E+00  0.00000000000E+00  0.13183229002E+04  0.13183229002E+04  0.00000000000E+00 0. -1.
         -2   -1    0    0    0  501 -0.00000000000E+00 -0.00000000000E+00 -0.12618495662E+04  0.12618495662E+04  0.00000000000E+00 0.  1.
    9000010    2    1    2  502    0 -0.25323321974E+03  0.46426504385E+03 -0.64849014238E+03  0.12312864445E+04  0.90324844258E+03 0.  0.
   -9000010    2    1    2    0  501  0.25323321974E+03 -0.46426504385E+03  0.70496347639E+03  0.13488860219E+04  0.10212007161E+04 0.  0.
        -13    1    3    3    0    0  0.14777665734E+03 -0.46247955830E+01 -0.59374997543E+03  0.61188101267E+03  0.10566000000E+00 0.  1.
          4    1    3    3  502    0 -0.40100987709E+03  0.46888983943E+03 -0.54740166953E+02  0.61940543178E+03  0.00000000000E+00 0.  1.
         13    1    4    4    0    0  0.62270433356E+03 -0.36212524807E+03  0.63281173096E+03  0.95882536487E+03  0.10566000000E+00 0. -1.
         -4    1    4    4    0  501 -0.36947111382E+03 -0.10213979578E+03  0.72151745431E+02  0.39006065707E+03  0.00000000000E+00 0. -1.
<mgrwt>
<rscale>  2 0.10971255E+04</rscale>
<asrwt>0</asrwt>
<pdfrwt beam="1">  1        2 0.20281891E+00 0.10971255E+04</pdfrwt>
<pdfrwt beam="2">  1       -2 0.19413070E+00 0.10971255E+04</pdfrwt>
<totfact> 0.28360412E+00</totfact>
</mgrwt>
</event>
<event>
 8    1  0.7046235E-006  0.1210038E+04  0.7818608E-02  0.8599042E-01
          2   -1    0    0  502    0  0.00000000000E+00  0.00000000000E+00  0.59264477895E+03  0.59264477895E+03  0.00000000000E+00 0.  1.
         -2   -1    0    0    0  501 -0.00000000000E+00 -0.00000000000E+00 -0.25093210666E+04  0.25093210666E+04  0.00000000000E+00 0. -1.
    9000010    2    1    2  502    0  0.68478599722E+03 -0.12849182143E+03 -0.11605506163E+04  0.16862387155E+04  0.10055253663E+04 0.  0.
   -9000010    2    1    2    0  501 -0.68478599722E+03  0.12849182143E+03 -0.75612567132E+03  0.14157271301E+04  0.97319847195E+03 0.  0.
        -13    1    3    3    0    0  0.30187228202E+03  0.25851665548E+03 -0.10607243604E+04  0.11327373552E+04  0.10566000000E+00 0.  1.
          4    1    3    3  502    0  0.38291371520E+03 -0.38700847691E+03 -0.99826255884E+02  0.55350136030E+03  0.00000000000E+00 0.  1.
         13    1    4    4    0    0 -0.60090410835E+03  0.43147231904E+03 -0.80977026208E+03  0.10968053601E+04  0.10566000000E+00 0. -1.
         -4    1    4    4    0  501 -0.83881888871E+02 -0.30298049761E+03  0.53644590757E+02  0.31892176992E+03  0.00000000000E+00 0. -1.
<mgrwt>
<rscale>  2 0.12100376E+04</rscale>
<asrwt>0</asrwt>
<pdfrwt beam="1">  1        2 0.91176120E-01 0.12100376E+04</pdfrwt>
<pdfrwt beam="2">  1       -2 0.38604939E+00 0.12100376E+04</pdfrwt>
<totfact> 0.30828616E-01</totfact>
</mgrwt>
</event>
<event>
 8    1  0.7046235E-006  0.1189307E+04  0.7818608E-02  0.8614658E-01
         -2   -1    0    0    0  501 -0.00000000000E+00  0.00000000000E+00  0.18265413744E+04  0.18265413744E+04  0.00000000000E+00 0.  1.
          2   -1    0    0  502    0  0.00000000000E+00 -0.00000000000E+00 -0.90185900285E+03  0.90185900285E+03  0.00000000000E+00 0. -1.
    9000010    2    1    2  502    0  0.23150152342E+03  0.57149297302E+03 -0.52883124115E+02  0.11832864768E+04  0.10085499927E+04 0.  0.
   -9000010    2    1    2    0  501 -0.23150152342E+03 -0.57149297302E+03  0.97756549567E+03  0.15451139005E+04  0.10254489229E+04 0.  0.
        -13    1    3    3    0    0 -0.10645256122E+02  0.50438588860E+02  0.42979738418E+03  0.43287778337E+03  0.10566000000E+00 0.  1.
          4    1    3    3  502    0  0.24214677954E+03  0.52105438416E+03 -0.48268050830E+03  0.75040869343E+03  0.00000000000E+00 0.  1.
         13    1    4    4    0    0 -0.22877793274E+03 -0.65152682771E+03  0.11576911367E+04  0.13479893652E+04  0.10566000000E+00 0. -1.
         -4    1    4    4    0  501 -0.27235906828E+01  0.80033854695E+02 -0.18012564098E+03  0.19712453522E+03  0.00000000000E+00 0. -1.
<mgrwt>
<rscale>  2 0.11893074E+04</rscale>
<asrwt>0</asrwt>
<pdfrwt beam="2">  1        2 0.13874754E+00 0.11893074E+04</pdfrwt>
<pdfrwt beam="1">  1       -2 0.28100637E+00 0.11893074E+04</pdfrwt>
<totfact> 0.10153856E+00</totfact>
</mgrwt>
</event>
<event>
 8    1  0.7046235E-006  0.1126858E+04  0.7818608E-02  0.8663774E-01
         -2   -1    0    0    0  501 -0.00000000000E+00  0.00000000000E+00  0.80364819705E+03  0.80364819705E+03  0.00000000000E+00 0. -1.
          2   -1    0    0  502    0  0.00000000000E+00 -0.00000000000E+00 -0.15925955155E+04  0.15925955155E+04  0.00000000000E+00 0.  1.
    9000010    2    1    2  502    0 -0.46070486948E+03  0.31436894633E+02 -0.49302258433E+03  0.12140236820E+04  0.10087343439E+04 0.  0.
   -9000010    2    1    2    0  501  0.46070486948E+03 -0.31436894633E+02 -0.29592473410E+03  0.11822200305E+04  0.10472991441E+04 0.  0.
        -13    1    3    3    0    0 -0.18225040739E+03  0.50406425838E+03 -0.37153362004E+03  0.65217576585E+03  0.10566000000E+00 0.  1.
          4    1    3    3  502    0 -0.27845446209E+03 -0.47262736375E+03 -0.12148896429E+03  0.56184791614E+03  0.00000000000E+00 0.  1.
         13    1    4    4    0    0  0.65972318987E+03  0.17017764797E+01  0.16415875631E+03  0.67984240213E+03  0.10566000000E+00 0. -1.
         -4    1    4    4    0  501 -0.19901832039E+03 -0.33138671112E+02 -0.46008349041E+03  0.50237762841E+03  0.00000000000E+00 0. -1.
<mgrwt>
<rscale>  2 0.11268579E+04</rscale>
<asrwt>0</asrwt>
<pdfrwt beam="2">  1        2 0.24501469E+00 0.11268579E+04</pdfrwt>
<pdfrwt beam="1">  1       -2 0.12363819E+00 0.11268579E+04</pdfrwt>
<totfact> 0.82029221E+00</totfact>
</mgrwt>
</event>
<event>
 8    1  0.7046235E-006  0.1306749E+04  0.7818608E-02  0.8530240E-01
         -2   -1    0    0    0  501 -0.00000000000E+00  0.00000000000E+00  0.47425188934E+03  0.47425188934E+03  0.00000000000E+00 0. -1.
          2   -1    0    0  502    0  0.00000000000E+00 -0.00000000000E+00 -0.36157385034E+04  0.36157385034E+04  0.00000000000E+00 0.  1.
    9000010    2    1    2  502    0 -0.86763711976E+03 -0.18968716540E+03 -0.16293083787E+04  0.20613326106E+04  0.89759174806E+03 0.  0.
   -9000010    2    1    2    0  501  0.86763711976E+03  0.18968716540E+03 -0.15121782353E+04  0.20286577821E+04  0.10198009558E+04 0.  0.
        -13    1    3    3    0    0 -0.25967103492E+03 -0.29624863336E+03 -0.91719494791E+02  0.40448087227E+03  0.10566000000E+00 0.  1.
          4    1    3    3  502    0 -0.60796608484E+03  0.10656146796E+03 -0.15375888839E+04  0.16568517383E+04  0.00000000000E+00 0.  1.
         13    1    4    4    0    0 -0.86323603048E+02  0.36985021282E+03 -0.47185476477E+03  0.60571269969E+03  0.10566000000E+00 0. -1.
         -4    1    4    4    0  501  0.95396072281E+03 -0.18016304742E+03 -0.10403234706E+04  0.14229450825E+04  0.00000000000E+00 0. -1.
<mgrwt>
<rscale>  2 0.13067491E+04</rscale>
<asrwt>0</asrwt>
<pdfrwt beam="2">  1        2 0.55626748E+00 0.13067491E+04</pdfrwt>
<pdfrwt beam="1">  1       -2 0.72961827E-01 0.13067491E+04</pdfrwt>
<totfact> 0.17189615E+00</totfact>
</mgrwt>
</event>
<event>
 8    1  0.7046235E-006  0.1261976E+04  0.7818608E-02  0.8561299E-01
         -2   -1    0    0    0  501 -0.00000000000E+00  0.00000000000E+00  0.76072657757E+03  0.76072657757E+03  0.00000000000E+00 0. -1.
          2   -1    0    0  502    0  0.00000000000E+00 -0.00000000000E+00 -0.21584690301E+04  0.21584690301E+04  0.00000000000E+00 0.  1.
    9000010    2    1    2  502    0 -0.49385503143E+03 -0.57109692806E+03 -0.43617027459E+03  0.13169321734E+04  0.98692519855E+03 0.  0.
   -9000010    2    1    2    0  501  0.49385503143E+03  0.57109692806E+03 -0.96157217793E+03  0.16022634343E+04  0.10356556214E+04 0.  0.
        -13    1    3    3    0    0  0.15478109312E+03  0.17906888678E+03 -0.82294140178E+01  0.23683451484E+03  0.10566000000E+00 0.  1.
          4    1    3    3  502    0 -0.64863612456E+03 -0.75016581484E+03 -0.42794086057E+03  0.10800976585E+04  0.00000000000E+00 0.  1.
         13    1    4    4    0    0  0.47695416184E+02 -0.77540333073E+02  0.18804349212E+03  0.20892037256E+03  0.10566000000E+00 0. -1.
         -4    1    4    4    0  501  0.44615961525E+03  0.64863726113E+03 -0.11496156701E+04  0.13933430617E+04  0.00000000000E+00 0. -1.
<mgrwt>
<rscale>  2 0.12619763E+04</rscale>
<asrwt>0</asrwt>
<pdfrwt beam="2">  1        2 0.33207216E+00 0.12619763E+04</pdfrwt>
<pdfrwt beam="1">  1       -2 0.11703486E+00 0.12619763E+04</pdfrwt>
<totfact> 0.45963186E+00</totfact>
</mgrwt>
</event>
<event>
 8    1  0.7046235E-006  0.9866712E+03  0.7818608E-02  0.8787216E-01
          2   -1    0    0  502    0  0.00000000000E+00  0.00000000000E+00  0.69096086315E+03  0.69096086315E+03  0.00000000000E+00 0. -1.
         -2   -1    0    0    0  501 -0.00000000000E+00 -0.00000000000E+00 -0.16516224475E+04  0.16516224475E+04  0.00000000000E+00 0.  1.
    9000010    2    1    2  502    0  0.26220677163E+03 -0.38849455178E+03 -0.49475312635E+02  0.10268224711E+04  0.91226979163E+03 0.  0.
   -9000010    2    1    2    0  501 -0.26220677163E+03  0.38849455178E+03 -0.91118627172E+03  0.13157608396E+04  0.82540036184E+03 0.  0.
        -13    1    3    3    0    0  0.54454951819E+03  0.45584607251E+00 -0.41552068566E+02  0.54613274130E+03  0.10566000000E+00 0.  1.
          4    1    3    3  502    0 -0.28234274656E+03 -0.38895039785E+03 -0.79232440694E+01  0.48068972979E+03  0.00000000000E+00 0.  1.
         13    1    4    4    0    0 -0.45755675226E+03  0.47934198180E+02 -0.19636180770E+03  0.50021379387E+03  0.10566000000E+00 0. -1.
         -4    1    4    4    0  501  0.19534998063E+03  0.34056035360E+03 -0.71482446402E+03  0.81554704570E+03  0.00000000000E+00 0. -1.
<mgrwt>
<rscale>  2 0.98667119E+03</rscale>
<asrwt>0</asrwt>
<pdfrwt beam="1">  1        2 0.10630167E+00 0.98667119E+03</pdfrwt>
<pdfrwt beam="2">  1       -2 0.25409576E+00 0.98667119E+03</pdfrwt>
<totfact> 0.23363657E+00</totfact>
</mgrwt>
</event>
<event>
 8    1  0.7046235E-006  0.1057083E+04  0.7818608E-02  0.8722730E-01
          2   -1    0    0  502    0  0.00000000000E+00  0.00000000000E+00  0.13415317507E+04  0.13415317507E+04  0.00000000000E+00 0.  1.
         -2   -1    0    0    0  501 -0.00000000000E+00 -0.00000000000E+00 -0.86438053218E+03  0.86438053218E+03  0.00000000000E+00 0. -1.
    9000010    2    1    2  502    0 -0.36056623746E+03  0.11715775467E+03  0.45061498763E+03  0.11572269805E+04  0.99618595972E+03 0.  0.
   -9000010    2    1    2    0  501  0.36056623746E+03 -0.11715775467E+03  0.26536230895E+02  0.10486853023E+04  0.97739589764E+03 0.  0.
        -13    1    3    3    0    0 -0.22225486893E+03 -0.42910587229E+03  0.99800421261E+02  0.49344626014E+03  0.10566000000E+00 0.  1.
          4    1    3    3  502    0 -0.13831136853E+03  0.54626362696E+03  0.35081456637E+03  0.66378072040E+03  0.00000000000E+00 0.  1.
         13    1    4    4    0    0  0.51336953242E+03  0.29218459794E+03 -0.87440994192E+02  0.59713152213E+03  0.10566000000E+00 0. -1.
         -4    1    4    4    0  501 -0.15280329495E+03 -0.40934235261E+03  0.11397722509E+03  0.45155378021E+03  0.00000000000E+00 0. -1.
<mgrwt>
<rscale>  2 0.10570831E+04</rscale>
<asrwt>0</asrwt>
<pdfrwt beam="1">  1        2 0.20638950E+00 0.10570831E+04</pdfrwt>
<pdfrwt beam="2">  1       -2 0.13298162E+00 0.10570831E+04</pdfrwt>
<totfact> 0.92845691E+00</totfact>
</mgrwt>
</event>
<event>
 8    1  0.7046235E-006  0.1084654E+04  0.7818608E-02  0.8698882E-01
          2   -1    0    0  502    0  0.00000000000E+00  0.00000000000E+00  0.16802341110E+04  0.16802341110E+04  0.00000000000E+00 0.  1.
         -2   -1    0    0    0  501 -0.00000000000E+00 -0.00000000000E+00 -0.70380258722E+03  0.70380258722E+03  0.00000000000E+00 0. -1.
    9000010    2    1    2  502    0 -0.10167046776E+03 -0.34683589994E+03  0.39742602285E+03  0.11166436448E+04  0.97893491113E+03 0.  0.
   -9000010    2    1    2    0  501  0.10167046776E+03  0.34683589994E+03  0.57900550091E+03  0.12673930535E+04  0.10678978211E+04 0.  0.
        -13    1    3    3    0    0  0.28268662915E+02 -0.36289333140E+03  0.69887872435E+03  0.78798614822E+03  0.10566000000E+00 0.  1.
          4    1    3    3  502    0 -0.12993913068E+03  0.16057431462E+02 -0.30145270150E+03  0.32865749653E+03  0.00000000000E+00 0.  1.
         13    1    4    4    0    0  0.27096355896E+03  0.40524388975E+02  0.80529618378E+03  0.85062649333E+03  0.10566000000E+00 0. -1.
         -4    1    4    4    0  501 -0.16929309120E+03  0.30631151096E+03 -0.22629068287E+03  0.41676656012E+03  0.00000000000E+00 0. -1.
<mgrwt>
<rscale>  2 0.10846538E+04</rscale>
<asrwt>0</asrwt>
<pdfrwt beam="1">  1        2 0.25849756E+00 0.10846538E+04</pdfrwt>
<pdfrwt beam="2">  1       -2 0.10827732E+00 0.10846538E+04</pdfrwt>
<totfact> 0.10401874E+01</totfact>
</mgrwt>
</event>
<event>
 8    1  0.7046235E-006  0.1695831E+04  0.7818608E-02  0.8304928E-01
         -2   -1    0    0    0  501 -0.00000000000E+00  0.00000000000E+00  0.84863248063E+03  0.84863248063E+03  0.00000000000E+00 0. -1.
          2   -1    0    0  502    0  0.00000000000E+00 -0.00000000000E+00 -0.37092589429E+04  0.37092589429E+04  0.00000000000E+00 0.  1.
    9000010    2    1    2  502    0  0.97918123814E+03  0.92094915581E+03 -0.76110751085E+03  0.18595628363E+04  0.10352516864E+04 0.  0.
   -9000010    2    1    2    0  501 -0.97918123814E+03 -0.92094915581E+03 -0.20995189514E+04  0.26983285873E+04  0.10324989553E+04 0.  0.
        -13    1    3    3    0    0  0.18065419970E+03  0.53671456021E+03 -0.79109121125E+03  0.97289453420E+03  0.10566000000E+00 0.  1.
          4    1    3    3  502    0  0.79852703844E+03  0.38423459560E+03  0.29983700399E+02  0.88666830206E+03  0.00000000000E+00 0.  1.
         13    1    4    4    0    0 -0.26088692395E+03 -0.77026086617E+03 -0.54416439692E+03  0.97850840113E+03  0.10566000000E+00 0. -1.
         -4    1    4    4    0  501 -0.71829431419E+03 -0.15068828964E+03 -0.15553545545E+04  0.17198201861E+04  0.00000000000E+00 0. -1.
<mgrwt>
<rscale>  2 0.16958307E+04</rscale>
<asrwt>0</asrwt>
<pdfrwt beam="2">  1        2 0.57065522E+00 0.16958307E+04</pdfrwt>
<pdfrwt beam="1">  1       -2 0.13055884E+00 0.16958307E+04</pdfrwt>
<totfact> 0.33775249E-01</totfact>
</mgrwt>
</event>
<event>
 8    1  0.7046235E-006  0.1395967E+04  0.7818608E-02  0.8472006E-01
          1   -1    0    0  502    0  0.00000000000E+00  0.00000000000E+00  0.25677629542E+04  0.25677629542E+04  0.00000000000E+00 0. -1.
         -1   -1    0    0    0  501 -0.00000000000E+00 -0.00000000000E+00 -0.76697469373E+03  0.76697469373E+03  0.00000000000E+00 0.  1.
    9000010    2    1    2  502    0  0.82466850820E+03 -0.49630710673E+03  0.10707432087E+04  0.17586647080E+04  0.10099562583E+04 0.  0.
   -9000010    2    1    2    0  501 -0.82466850820E+03  0.49630710673E+03  0.73004505178E+03  0.15760729399E+04  0.10122456429E+04 0.  0.
        -13    1    3    3    0    0 -0.16851805263E+03 -0.23996746713E+03  0.51353613330E+03  0.59135614541E+03  0.10566000000E+00 0.  1.
          4    1    3    3  502    0  0.99318656084E+03 -0.25633963960E+03  0.55720707536E+03  0.11673085626E+04  0.00000000000E+00 0.  1.
         13    1    4    4    0    0 -0.31710322466E+03  0.10987334459E+03 -0.24174723725E+03  0.41360409188E+03  0.10566000000E+00 0. -1.
         -4    1    4    4    0  501 -0.50756528354E+03  0.38643376214E+03  0.97179228903E+03  0.11624688480E+04  0.00000000000E+00 0. -1.
<mgrwt>
<rscale>  2 0.13959670E+04</rscale>
<asrwt>0</asrwt>
<pdfrwt beam="1">  1        1 0.39504045E+00 0.13959670E+04</pdfrwt>
<pdfrwt beam="2">  1       -1 0.11799611E+00 0.13959670E+04</pdfrwt>
<totfact> 0.84530574E-01</totfact>
</mgrwt>
</event>
<event>
 8    1  0.7046235E-006  0.1737089E+04  0.7818608E-02  0.8284752E-01
          1   -1    0    0  502    0  0.00000000000E+00  0.00000000000E+00  0.55882133229E+04  0.55882133229E+04  0.00000000000E+00 0. -1.
         -1   -1    0    0    0  501 -0.00000000000E+00 -0.00000000000E+00 -0.62427304668E+03  0.62427304668E+03  0.00000000000E+00 0.  1.
    9000010    2    1    2  502    0 -0.86800933134E+02 -0.14188440097E+04  0.36193613977E+04  0.40132091236E+04  0.99268213282E+03 0.  0.
   -9000010    2    1    2    0  501  0.86800933134E+02  0.14188440097E+04  0.13445788785E+04  0.21992772459E+04  0.10041291342E+04 0.  0.
        -13    1    3    3    0    0  0.40790864655E+03 -0.51503453386E+03  0.97986619963E+03  0.11797405712E+04  0.10566000000E+00 0.  1.
          4    1    3    3  502    0 -0.49470957969E+03 -0.90380947583E+03  0.26394951981E+04  0.28334685524E+04  0.00000000000E+00 0.  1.
         13    1    4    4    0    0 -0.21299604785E+03  0.14216982359E+04  0.10621458591E+04  0.17873855286E+04  0.10566000000E+00 0. -1.
         -4    1    4    4    0  501  0.29979698098E+03 -0.28542262583E+01  0.28243301939E+03  0.41189171739E+03  0.00000000000E+00 0. -1.
<mgrwt>
<rscale>  2 0.17370888E+04</rscale>
<asrwt>0</asrwt>
<pdfrwt beam="1">  1        1 0.85972509E+00 0.17370888E+04</pdfrwt>
<pdfrwt beam="2">  1       -1 0.96042011E-01 0.17370888E+04</pdfrwt>
<totfact> 0.21189691E-03</totfact>
</mgrwt>
</event>
<event>
 8    1  0.7046235E-006  0.1196368E+04  0.7818608E-02  0.8609302E-01
          1   -1    0    0  502    0  0.00000000000E+00  0.00000000000E+00  0.14108560648E+04  0.14108560648E+04  0.00000000000E+00 0. -1.
         -1   -1    0    0    0  501 -0.00000000000E+00 -0.00000000000E+00 -0.11048660650E+04  0.11048660650E+04  0.00000000000E+00 0.  1.
    9000010    2    1    2  502    0 -0.61680317171E+03 -0.30633679353E+03  0.51500147589E+03  0.13404322591E+04  0.10282235833E+04 0.  0.
   -9000010    2    1    2    0  501  0.61680317171E+03  0.30633679353E+03 -0.20901147605E+03  0.11752898707E+04  0.92915666033E+03 0.  0.
        -13    1    3    3    0    0 -0.72330118723E+03  0.17236855977E+03  0.35992906166E+03  0.82608986705E+03  0.10566000000E+00 0.  1.
          4    1    3    3  502    0  0.10649801552E+03 -0.47870535330E+03  0.15507241423E+03  0.51434239203E+03  0.00000000000E+00 0.  1.
         13    1    4    4    0    0 -0.47765122265E+02 -0.26254718771E+03  0.29695057077E+02  0.26850389244E+03  0.10566000000E+00 0. -1.
         -4    1    4    4    0  501  0.66456829397E+03  0.56888398124E+03 -0.23870653313E+03  0.90678597829E+03  0.00000000000E+00 0. -1.
<mgrwt>
<rscale>  2 0.11963679E+04</rscale>
<asrwt>0</asrwt>
<pdfrwt beam="1">  1        1 0.21705478E+00 0.11963679E+04</pdfrwt>
<pdfrwt beam="2">  1       -1 0.16997939E+00 0.11963679E+04</pdfrwt>
<totfact> 0.25153280E+00</totfact>
</mgrwt>
</event>
<event>
 8    1  0.7046235E-006  0.1237655E+04  0.7818608E-02  0.8578734E-01
          2   -1    0    0  502    0  0.00000000000E+00  0.00000000000E+00  0.14448495152E+04  0.14448495152E+04  0.00000000000E+00 0. -1.
         -2   -1    0    0    0  501 -0.00000000000E+00 -0.00000000000E+00 -0.10656500104E+04  0.10656500104E+04  0.00000000000E+00 0.  1.
    9000010    2    1    2  502    0 -0.42256910912E+03 -0.53406709697E+03  0.10068784723E+03  0.12106263224E+04  0.99583418992E+03 0.  0.
   -9000010    2    1    2    0  501  0.42256910912E+03  0.53406709697E+03  0.27851165754E+03  0.12998732032E+04  0.10715919396E+04 0.  0.
        -13    1    3    3    0    0 -0.12912324096E+03  0.29555743469E+03 -0.16010795254E+02  0.32292935030E+03  0.10566000000E+00 0.  1.
          4    1    3    3  502    0 -0.29344586817E+03 -0.82962453166E+03  0.11669864249E+03  0.88769697208E+03  0.00000000000E+00 0.  1.
         13    1    4    4    0    0 -0.28415413100E+03  0.48346183374E+03  0.10750055042E+03  0.57099500379E+03  0.10566000000E+00 0. -1.
         -4    1    4    4    0  501  0.70672324013E+03  0.50605263227E+02  0.17101110712E+03  0.72887819940E+03  0.00000000000E+00 0. -1.
<mgrwt>
<rscale>  2 0.12376548E+04</rscale>
<asrwt>0</asrwt>
<pdfrwt beam="1">  1        2 0.22228454E+00 0.12376548E+04</pdfrwt>
<pdfrwt beam="2">  1       -2 0.16394616E+00 0.12376548E+04</pdfrwt>
<totfact> 0.42465346E+00</totfact>
</mgrwt>
</event>
<event>
 8    1  0.7046235E-006  0.1687350E+04  0.7818608E-02  0.8309148E-01
         -2   -1    0    0    0  501 -0.00000000000E+00  0.00000000000E+00  0.12905722599E+04  0.12905722599E+04  0.00000000000E+00 0.  1.
          2   -1    0    0  502    0  0.00000000000E+00 -0.00000000000E+00 -0.22830166574E+04  0.22830166574E+04  0.00000000000E+00 0. -1.
    9000010    2    1    2  502    0  0.92351671359E+03  0.85796967991E+03 -0.19929975338E+03  0.17751387941E+04  0.12338566589E+04 0.  0.
   -9000010    2    1    2    0  501 -0.92351671359E+03 -0.85796967991E+03 -0.79314464418E+03  0.17984501232E+04  0.10081415214E+04 0.  0.
        -13    1    3    3    0    0 -0.20065553737E+03  0.44692742816E+03  0.17624935963E+03  0.52064442631E+03  0.10566000000E+00 0.  1.
          4    1    3    3  502    0  0.11241722510E+04  0.41104225176E+03 -0.37554911301E+03  0.12544943678E+04  0.00000000000E+00 0.  1.
         13    1    4    4    0    0 -0.87159589575E+03 -0.38044730182E+03 -0.10155451308E+03  0.95641669017E+03  0.10566000000E+00 0. -1.
         -4    1    4    4    0  501 -0.51920817839E+02 -0.47752237809E+03 -0.69159013110E+03  0.84203343303E+03  0.00000000000E+00 0. -1.
<mgrwt>
<rscale>  2 0.16873499E+04</rscale>
<asrwt>0</asrwt>
<pdfrwt beam="2">  1        2 0.35123332E+00 0.16873499E+04</pdfrwt>
<pdfrwt beam="1">  1       -2 0.19854958E+00 0.16873499E+04</pdfrwt>
<totfact> 0.72278989E-01</totfact>
</mgrwt>
</event>
<event>
 8    1  0.7046235E-006  0.1490097E+04  0.7818608E-02  0.8415221E-01
          2   -1    0    0  502    0  0.00000000000E+00  0.00000000000E+00  0.24278779362E+04  0.24278779362E+04  0.00000000000E+00 0. -1.
         -2   -1    0    0    0  501 -0.00000000000E+00 -0.00000000000E+00 -0.92138959988E+03  0.92138959988E+03  0.00000000000E+00 0.  1.
    9000010    2    1    2  502    0 -0.53800551517E+03  0.97720129618E+03  0.60429202474E+03  0.15987848967E+04  0.97291931179E+03 0.  0.
   -9000010    2    1    2    0  501  0.53800551517E+03 -0.97720129618E+03  0.90219631160E+03  0.17504826394E+04  0.10029252108E+04 0.  0.
        -13    1    3    3    0    0 -0.49940162712E+03  0.11219358842E+04  0.30695194119E+03  0.12658442317E+04  0.10566000000E+00 0.  1.
          4    1    3    3  502    0 -0.38603888045E+02 -0.14473458807E+03  0.29734008355E+03  0.33294066504E+03  0.00000000000E+00 0.  1.
         13    1    4    4    0    0 -0.45396760242E+01  0.18174907578E+03  0.26391171848E+03  0.32047268452E+03  0.10566000000E+00 0. -1.
         -4    1    4    4    0  501  0.54254519119E+03 -0.11589503720E+04  0.63828459312E+03  0.14300099549E+04  0.00000000000E+00 0. -1.
<mgrwt>
<rscale>  2 0.14900973E+04</rscale>
<asrwt>0</asrwt>
<pdfrwt beam="1">  1        2 0.37351968E+00 0.14900973E+04</pdfrwt>
<pdfrwt beam="2">  1       -2 0.14175225E+00 0.14900973E+04</pdfrwt>
<totfact> 0.18765555E+00</totfact>
</mgrwt>
</event>
<event>
 8    1  0.7046235E-006  0.1316495E+04  0.7818608E-02  0.8523649E-01
          1   -1    0    0  502    0  0.00000000000E+00  0.00000000000E+00  0.19269338950E+04  0.19269338950E+04  0.00000000000E+00 0.  1.
         -1   -1    0    0    0  501 -0.00000000000E+00 -0.00000000000E+00 -0.89949925708E+03  0.89949925708E+03  0.00000000000E+00 0. -1.
    9000010    2    1    2  502    0  0.49408474401E+03 -0.69419240428E+03  0.50152833189E+03  0.14067847117E+04  0.10007445872E+04 0.  0.
   -9000010    2    1    2    0  501 -0.49408474401E+03  0.69419240428E+03  0.52590630603E+03  0.14196484404E+04  0.10063803571E+04 0.  0.
        -13    1    3    3    0    0  0.59837646981E+02 -0.64046543013E+03  0.67835387497E+03  0.93484784967E+03  0.10566000000E+00 0.  1.
          4    1    3    3  502    0  0.43424709703E+03 -0.53726974150E+02 -0.17682554308E+03  0.47193686200E+03  0.00000000000E+00 0.  1.
         13    1    4    4    0    0  0.27152468310E+03  0.39436858511E+03  0.30703981064E+03  0.56879318819E+03  0.10566000000E+00 0. -1.
         -4    1    4    4    0  501 -0.76560942710E+03  0.29982381916E+03  0.21886649539E+03  0.85085525221E+03  0.00000000000E+00 0. -1.
<mgrwt>
<rscale>  2 0.13164950E+04</rscale>
<asrwt>0</asrwt>
<pdfrwt beam="1">  1        1 0.29645137E+00 0.13164950E+04</pdfrwt>
<pdfrwt beam="2">  1       -1 0.13838450E+00 0.13164950E+04</pdfrwt>
<totfact> 0.19163001E+00</totfact>
</mgrwt>
</event>
<event>
 8    1  0.7046235E-006  0.2071848E+04  0.7818608E-02  0.8139750E-01
          2   -1    0    0  502    0  0.00000000000E+00  0.00000000000E+00  0.99522233809E+03  0.99522233809E+03  0.00000000000E+00 0. -1.
         -2   -1    0    0    0  501 -0.00000000000E+00 -0.00000000000E+00 -0.43352240282E+04  0.43352240282E+04  0.00000000000E+00 0.  1.
    9000010    2    1    2  502    0  0.10941309889E+04  0.14514913454E+04 -0.18618597331E+04  0.27871227594E+04  0.99879019991E+03 0.  0.
   -9000010    2    1    2    0  501 -0.10941309889E+04 -0.14514913454E+04 -0.14781419570E+04  0.25433236069E+04  0.98976844662E+03 0.  0.
        -13    1    3    3    0    0  0.59900781366E+03  0.14565422243E+04 -0.13411722674E+04  0.20685909877E+04  0.10566000000E+00 0.  1.
          4    1    3    3  502    0  0.49512317525E+03 -0.50508789697E+01 -0.52068746565E+03  0.71853177170E+03  0.00000000000E+00 0.  1.
         13    1    4    4    0    0 -0.38931299904E+02 -0.58490454077E+03 -0.86886228710E+03  0.10481176714E+04  0.10566000000E+00 0. -1.
         -4    1    4    4    0  501 -0.10551996890E+04 -0.86658680460E+03 -0.60927966993E+03  0.14952059356E+04  0.00000000000E+00 0. -1.
<mgrwt>
<rscale>  2 0.20718475E+04</rscale>
<asrwt>0</asrwt>
<pdfrwt beam="1">  1        2 0.15311113E+00 0.20718475E+04</pdfrwt>
<pdfrwt beam="2">  1       -2 0.66695755E+00 0.20718475E+04</pdfrwt>
<totfact> 0.84462605E-02</totfact>
</mgrwt>
</event>
<event>
 8    1  0.7046235E-006  0.1234819E+04  0.7818608E-02  0.8580794E-01
         -1   -1    0    0    0  501 -0.00000000000E+00  0.00000000000E+00  0.89749546909E+03  0.89749546909E+03  0.00000000000E+00 0. -1.
          1   -1    0    0  502    0  0.00000000000E+00 -0.00000000000E+00 -0.18689713175E+04  0.18689713175E+04  0.00000000000E+00 0.  1.
    9000010    2    1    2  502    0  0.62987958466E+02  0.70850999044E+03 -0.90162728526E+03  0.15259797660E+04  0.10048525241E+04 0.  0.
   -9000010    2    1    2    0  501 -0.62987958466E+02 -0.70850999044E+03 -0.69848563166E+02  0.12404870206E+04  0.10138911860E+04 0.  0.
        -13    1    3    3    0    0 -0.35092715748E+03  0.23521298133E+03  0.52038082015E+01  0.42249509728E+03  0.10566000000E+00 0.  1.
          4    1    3    3  502    0  0.41391511595E+03  0.47329700911E+03 -0.90683109346E+03  0.11034846687E+04  0.00000000000E+00 0.  1.
         13    1    4    4    0    0  0.30749087837E+03 -0.79963717986E+03 -0.36214142671E+02  0.85748570541E+03  0.10566000000E+00 0. -1.
         -4    1    4    4    0  501 -0.37047883684E+03  0.91127189421E+02 -0.33634420495E+02  0.38300131519E+03  0.00000000000E+00 0. -1.
<mgrwt>
<rscale>  2 0.12348192E+04</rscale>
<asrwt>0</asrwt>
<pdfrwt beam="2">  1        1 0.28753405E+00 0.12348192E+04</pdfrwt>
<pdfrwt beam="1">  1       -1 0.13807623E+00 0.12348192E+04</pdfrwt>
<totfact> 0.21545080E+00</totfact>
</mgrwt>
</event>
<event>
 8    1  0.7046235E-006  0.1567272E+04  0.7818608E-02  0.8371803E-01
          2   -1    0    0  502    0  0.00000000000E+00  0.00000000000E+00  0.21598781901E+04  0.21598781901E+04  0.00000000000E+00 0. -1.
         -2   -1    0    0    0  501 -0.00000000000E+00 -0.00000000000E+00 -0.11372722463E+04  0.11372722463E+04  0.00000000000E+00 0.  1.
    9000010    2    1    2  502    0 -0.66062237213E+03  0.10087679733E+04  0.51098186396E+03  0.16532464438E+04  0.10090027731E+04 0.  0.
   -9000010    2    1    2    0  501  0.66062237213E+03 -0.10087679733E+04  0.51162407981E+03  0.16439039926E+04  0.99329069031E+03 0.  0.
        -13    1    3    3    0    0 -0.91105170792E+03  0.59701362497E+03  0.38300248736E+03  0.11546130951E+04  0.10566000000E+00 0.  1.
          4    1    3    3  502    0  0.25042933579E+03  0.41175434829E+03  0.12797937660E+03  0.49863334866E+03  0.00000000000E+00 0.  1.
         13    1    4    4    0    0  0.86571192175E+03 -0.10238745220E+04  0.35968579816E+03  0.13882183016E+04  0.10566000000E+00 0. -1.
         -4    1    4    4    0  501 -0.20508954962E+03  0.15106548729E+02  0.15193828165E+03  0.25568569105E+03  0.00000000000E+00 0. -1.
<mgrwt>
<rscale>  2 0.15672718E+04</rscale>
<asrwt>0</asrwt>
<pdfrwt beam="1">  1        2 0.33228895E+00 0.15672718E+04</pdfrwt>
<pdfrwt beam="2">  1       -2 0.17496496E+00 0.15672718E+04</pdfrwt>
<totfact> 0.13462660E+00</totfact>
</mgrwt>
</event>
<event>
 8    1  0.7046235E-006  0.1363697E+04  0.7818608E-02  0.8492539E-01
          2   -1    0    0  502    0  0.00000000000E+00  0.00000000000E+00  0.19657659192E+04  0.19657659192E+04  0.00000000000E+00 0.  1.
         -2   -1    0    0    0  501 -0.00000000000E+00 -0.00000000000E+00 -0.94862419451E+03  0.94862419451E+03  0.00000000000E+00 0. -1.
    9000010    2    1    2  502    0  0.75425093641E+03 -0.52735797502E+03  0.58647973787E+03  0.14891011995E+04  0.10131450984E+04 0.  0.
   -9000010    2    1    2    0  501 -0.75425093641E+03  0.52735797502E+03  0.43066198678E+03  0.14252889142E+04  0.99948878592E+03 0.  0.
        -13    1    3    3    0    0  0.16449108076E+03 -0.53040735683E+03  0.69481054556E+03  0.88946668583E+03  0.10566000000E+00 0.  1.
          4    1    3    3  502    0  0.58975985565E+03  0.30493818071E+01 -0.10833080768E+03  0.59963451365E+03  0.00000000000E+00 0.  1.
         13    1    4    4    0    0 -0.43566562804E+03 -0.17012670504E+02  0.62789756279E+03  0.76442745302E+03  0.10566000000E+00 0. -1.
         -4    1    4    4    0  501 -0.31858530837E+03  0.54437064553E+03 -0.19723557601E+03  0.66086146117E+03  0.00000000000E+00 0. -1.
<mgrwt>
<rscale>  2 0.13636974E+04</rscale>
<asrwt>0</asrwt>
<pdfrwt beam="1">  1        2 0.30242552E+00 0.13636974E+04</pdfrwt>
<pdfrwt beam="2">  1       -2 0.14594218E+00 0.13636974E+04</pdfrwt>
<totfact> 0.31313204E+00</totfact>
</mgrwt>
</event>
<event>
 8    1  0.7046235E-006  0.1093931E+04  0.7818608E-02  0.8691024E-01
         -2   -1    0    0    0  501 -0.00000000000E+00  0.00000000000E+00  0.47269523640E+03  0.47269523640E+03  0.00000000000E+00 0.  1.
          2   -1    0    0  502    0  0.00000000000E+00 -0.00000000000E+00 -0.35427573528E+04  0.35427573528E+04  0.00000000000E+00 0. -1.
    9000010    2    1    2  502    0  0.40815695242E+03 -0.11879665311E+03 -0.26084117664E+04  0.28288156708E+04  0.10088019693E+04 0.  0.
   -9000010    2    1    2    0  501 -0.40815695242E+03  0.11879665311E+03 -0.46165034992E+03  0.11866369184E+04  0.10071153796E+04 0.  0.
        -13    1    3    3    0    0  0.46217171054E+03  0.26798949312E+03 -0.21991602025E+04  0.22631232105E+04  0.10566000000E+00 0.  1.
          4    1    3    3  502    0 -0.54014758123E+02 -0.38678614623E+03 -0.40925156393E+03  0.56569246026E+03  0.00000000000E+00 0.  1.
         13    1    4    4    0    0 -0.34737674217E+03  0.40211612362E+03  0.11281652186E+03  0.54322698445E+03  0.10566000000E+00 0. -1.
         -4    1    4    4    0  501 -0.60780210252E+02 -0.28331947051E+03 -0.57446687178E+03  0.64340993394E+03  0.00000000000E+00 0. -1.
<mgrwt>
<rscale>  2 0.10939310E+04</rscale>
<asrwt>0</asrwt>
<pdfrwt beam="2">  1        2 0.54503958E+00 0.10939310E+04</pdfrwt>
<pdfrwt beam="1">  1       -2 0.72722346E-01 0.10939310E+04</pdfrwt>
<totfact> 0.20303660E+00</totfact>
</mgrwt>
</event>
<event>
 8    1  0.7046235E-006  0.1138618E+04  0.7818608E-02  0.8654275E-01
          2   -1    0    0  502    0  0.00000000000E+00  0.00000000000E+00  0.48501548561E+04  0.48501548561E+04  0.00000000000E+00 0.  1.
         -2   -1    0    0    0  501 -0.00000000000E+00 -0.00000000000E+00 -0.33641360080E+03  0.33641360080E+03  0.00000000000E+00 0. -1.
    9000010    2    1    2  502    0  0.23081262473E+03  0.67233591327E+03  0.12197979871E+04  0.17256083226E+04  0.99222321365E+03 0.  0.
   -9000010    2    1    2    0  501 -0.23081262473E+03 -0.67233591327E+03  0.32939432682E+04  0.34609601343E+04  0.78922287666E+03 0.  0.
        -13    1    3    3    0    0  0.27369327794E+02  0.42068165884E+03 -0.41359983675E+02  0.42359508685E+03  0.10566000000E+00 0.  1.
          4    1    3    3  502    0  0.20344329694E+03  0.25165425443E+03  0.12611579708E+04  0.13020132358E+04  0.00000000000E+00 0.  1.
         13    1    4    4    0    0  0.82458002463E+01 -0.63970910920E+02  0.20902057320E+04  0.20912006800E+04  0.10566000000E+00 0. -1.
         -4    1    4    4    0  501 -0.23905842498E+03 -0.60836500235E+03  0.12037375361E+04  0.13697594543E+04  0.00000000000E+00 0. -1.
<mgrwt>
<rscale>  2 0.11386181E+04</rscale>
<asrwt>0</asrwt>
<pdfrwt beam="1">  1        2 0.74617762E+00 0.11386181E+04</pdfrwt>
<pdfrwt beam="2">  1       -2 0.51755942E-01 0.11386181E+04</pdfrwt>
<totfact> 0.29456220E-01</totfact>
</mgrwt>
</event>
<event>
 8    1  0.7046235E-006  0.1327741E+04  0.7818608E-02  0.8516117E-01
          4   -1    0    0  502    0  0.00000000000E+00  0.00000000000E+00  0.11331484964E+04  0.11331484964E+04  0.00000000000E+00 0.  1.
         -4   -1    0    0    0  501 -0.00000000000E+00 -0.00000000000E+00 -0.15577990572E+04  0.15577990572E+04  0.00000000000E+00 0. -1.
    9000010    2    1    2  502    0 -0.80932461022E+03  0.35088396255E+03 -0.26145588618E+03  0.13556089946E+04  0.99558559946E+03 0.  0.
   -9000010    2    1    2    0  501  0.80932461022E+03 -0.35088396255E+03 -0.16319467464E+03  0.13353385591E+04  0.98912622335E+03 0.  0.
        -13    1    3    3    0    0 -0.77509706124E+03 -0.14392698759E+03 -0.33052112556E+03  0.85483019232E+03  0.10566000000E+00 0.  1.
          4    1    3    3  502    0 -0.34227548979E+02  0.49481095014E+03  0.69065239386E+02  0.50077880224E+03  0.00000000000E+00 0.  1.
         13    1    4    4    0    0  0.85696814493E+02  0.23509387352E+03  0.21541388976E+03  0.33017605674E+03  0.10566000000E+00 0. -1.
         -4    1    4    4    0  501  0.72362779573E+03 -0.58597783607E+03 -0.37860856440E+03  0.10051625024E+04  0.00000000000E+00 0. -1.
<mgrwt>
<rscale>  2 0.13277405E+04</rscale>
<asrwt>0</asrwt>
<pdfrwt beam="1">  1        4 0.17433054E+00 0.13277405E+04</pdfrwt>
<pdfrwt beam="2">  1       -4 0.23966139E+00 0.13277405E+04</pdfrwt>
<totfact> 0.17161221E-01</totfact>
</mgrwt>
</event>
<event>
 8    1  0.7046235E-006  0.1133015E+04  0.7818608E-02  0.8658786E-01
         -2   -1    0    0    0  501 -0.00000000000E+00  0.00000000000E+00  0.86075375948E+03  0.86075375948E+03  0.00000000000E+00 0. -1.
          2   -1    0    0  502    0  0.00000000000E+00 -0.00000000000E+00 -0.15423413548E+04  0.15423413548E+04  0.00000000000E+00 0.  1.
    9000010    2    1    2  502    0  0.36894331108E+03 -0.46597419555E+03 -0.11531636514E+03  0.11038518293E+04  0.92300589343E+03 0.  0.
   -9000010    2    1    2    0  501 -0.36894331108E+03  0.46597419555E+03 -0.56627123019E+03  0.12992432850E+04  0.10070347013E+04 0.  0.
        -13    1    3    3    0    0  0.12292173304E+03  0.25543685180E+03 -0.18494463031E+03  0.33847047900E+03  0.10566000000E+00 0.  1.
          4    1    3    3  502    0  0.24602157804E+03 -0.72141104735E+03  0.69628265165E+02  0.76538135031E+03  0.00000000000E+00 0.  1.
         13    1    4    4    0    0 -0.21492669632E+03  0.34630994846E+03 -0.85709620104E+03  0.94907216491E+03  0.10566000000E+00 0. -1.
         -4    1    4    4    0  501 -0.15401661476E+03  0.11966424708E+03  0.29082497085E+03  0.35017112006E+03  0.00000000000E+00 0. -1.
<mgrwt>
<rscale>  2 0.11330145E+04</rscale>
<asrwt>0</asrwt>
<pdfrwt beam="2">  1        2 0.23728328E+00 0.11330145E+04</pdfrwt>
<pdfrwt beam="1">  1       -2 0.13242366E+00 0.11330145E+04</pdfrwt>
<totfact> 0.72289499E+00</totfact>
</mgrwt>
</event>
<event>
 8    1  0.7046235E-006  0.1010308E+04  0.7818608E-02  0.8764966E-01
         -2   -1    0    0    0  501 -0.00000000000E+00  0.00000000000E+00  0.15959720647E+04  0.15959720647E+04  0.00000000000E+00 0.  1.
          2   -1    0    0  502    0  0.00000000000E+00 -0.00000000000E+00 -0.74486891332E+03  0.74486891332E+03  0.00000000000E+00 0. -1.
    9000010    2    1    2  502    0  0.15224707403E+02  0.21753815585E+03  0.86894599944E+03  0.13398683348E+04  0.99630585844E+03 0.  0.
   -9000010    2    1    2    0  501 -0.15224707403E+02 -0.21753815585E+03 -0.17842848021E+02  0.10009726433E+04  0.97676671958E+03 0.  0.
        -13    1    3    3    0    0 -0.36069628414E+02 -0.39802612687E+03  0.29568458437E+03  0.49714706110E+03  0.10566000000E+00 0.  1.
          4    1    3    3  502    0  0.51294335817E+02  0.61556428272E+03  0.57326141507E+03  0.84272127365E+03  0.00000000000E+00 0.  1.
         13    1    4    4    0    0 -0.24935781602E+02 -0.64287335464E+02  0.47745931957E+03  0.48241275658E+03  0.10566000000E+00 0. -1.
         -4    1    4    4    0  501  0.97110741991E+01 -0.15325082038E+03 -0.49530216759E+03  0.51855988673E+03  0.00000000000E+00 0. -1.
<mgrwt>
<rscale>  2 0.10103078E+04</rscale>
<asrwt>0</asrwt>
<pdfrwt beam="2">  1        2 0.11459522E+00 0.10103078E+04</pdfrwt>
<pdfrwt beam="1">  1       -2 0.24553416E+00 0.10103078E+04</pdfrwt>
<totfact> 0.24679485E+00</totfact>
</mgrwt>
</event>
<event>
 8    1  0.7046235E-006  0.1066588E+04  0.7818608E-02  0.8714424E-01
          2   -1    0    0  502    0  0.00000000000E+00  0.00000000000E+00  0.29981856005E+04  0.29981856005E+04  0.00000000000E+00 0.  1.
         -2   -1    0    0    0  501 -0.00000000000E+00 -0.00000000000E+00 -0.41685231990E+03  0.41685231990E+03  0.00000000000E+00 0. -1.
    9000010    2    1    2  502    0 -0.11458460006E+03 -0.35394980349E+03  0.78643892425E+03  0.13305030408E+04  0.10066489289E+04 0.  0.
   -9000010    2    1    2    0  501  0.11458460006E+03  0.35394980349E+03  0.17948943564E+04  0.20845348796E+04  0.99258743688E+03 0.  0.
        -13    1    3    3    0    0  0.35250229863E+03  0.94361719778E+02  0.82521551642E+02  0.37412808282E+03  0.10566000000E+00 0.  1.
          4    1    3    3  502    0 -0.46708689869E+03 -0.44831152327E+03  0.70391737261E+03  0.95637495800E+03  0.00000000000E+00 0.  1.
         13    1    4    4    0    0  0.53574467291E+03  0.31610732101E+03  0.89144456200E+03  0.10870232800E+04  0.10566000000E+00 0. -1.
         -4    1    4    4    0  501 -0.42116007286E+03  0.37842482481E+02  0.90344979439E+03  0.99751159965E+03  0.00000000000E+00 0. -1.
<mgrwt>
<rscale>  2 0.10665876E+04</rscale>
<asrwt>0</asrwt>
<pdfrwt beam="1">  1        2 0.46125931E+00 0.10665876E+04</pdfrwt>
<pdfrwt beam="2">  1       -2 0.64131128E-01 0.10665876E+04</pdfrwt>
<totfact> 0.61286149E+00</totfact>
</mgrwt>
</event>
<event>
 8    1  0.7046235E-006  0.1643475E+04  0.7818608E-02  0.8331399E-01
          2   -1    0    0  502    0  0.00000000000E+00  0.00000000000E+00  0.26837170931E+04  0.26837170931E+04  0.00000000000E+00 0.  1.
         -2   -1    0    0    0  501 -0.00000000000E+00 -0.00000000000E+00 -0.10249290920E+04  0.10249290920E+04  0.00000000000E+00 0. -1.
    9000010    2    1    2  502    0  0.87430096895E+03 -0.96580780282E+03  0.10802746186E+04  0.19699038779E+04  0.10081374610E+04 0.  0.
   -9000010    2    1    2    0  501 -0.87430096895E+03  0.96580780282E+03  0.57851338254E+03  0.17387423072E+04  0.99567071898E+03 0.  0.
        -13    1    3    3    0    0  0.42463382185E+03 -0.41503212663E+01 -0.39996122324E+02  0.42653347910E+03  0.10566000000E+00 0.  1.
          4    1    3    3  502    0  0.44966714710E+03 -0.96165748155E+03  0.11202707409E+04  0.15433703988E+04  0.00000000000E+00 0.  1.
         13    1    4    4    0    0 -0.27264948475E+03  0.76467346510E+03 -0.90406730229E+02  0.81684554097E+03  0.10566000000E+00 0. -1.
         -4    1    4    4    0  501 -0.60165148420E+03  0.20113433772E+03  0.66892011277E+03  0.92189676619E+03  0.00000000000E+00 0. -1.
<mgrwt>
<rscale>  2 0.16434746E+04</rscale>
<asrwt>0</asrwt>
<pdfrwt beam="1">  1        2 0.41287955E+00 0.16434746E+04</pdfrwt>
<pdfrwt beam="2">  1       -2 0.15768140E+00 0.16434746E+04</pdfrwt>
<totfact> 0.95226103E-01</totfact>
</mgrwt>
</event>
<event>
 8    1  0.7046235E-006  0.1264570E+04  0.7818608E-02  0.8559464E-01
          1   -1    0    0  502    0  0.00000000000E+00  0.00000000000E+00  0.15665557385E+04  0.15665557385E+04  0.00000000000E+00 0. -1.
         -1   -1    0    0    0  501 -0.00000000000E+00 -0.00000000000E+00 -0.14209924467E+04  0.14209924467E+04  0.00000000000E+00 0.  1.
    9000010    2    1    2  502    0 -0.76023792331E+03  0.39369430627E+02 -0.72020288340E+03  0.14490355112E+04  0.10007497527E+04 0.  0.
   -9000010    2    1    2    0  501  0.76023792331E+03 -0.39369430627E+02  0.86576617521E+03  0.15385126739E+04  0.10188024959E+04 0.  0.
        -13    1    3    3    0    0  0.18691033685E+03 -0.45038275541E+02  0.78046585593E+02  0.20749747221E+03  0.10566000000E+00 0.  1.
          4    1    3    3  502    0 -0.94714826016E+03  0.84407706168E+02 -0.79824946900E+03  0.12415380390E+04  0.00000000000E+00 0.  1.
         13    1    4    4    0    0  0.71294416265E+03 -0.31861271421E+03  0.18692577999E+03  0.80295996108E+03  0.10566000000E+00 0. -1.
         -4    1    4    4    0  501  0.47293760655E+02  0.27924328358E+03  0.67884039521E+03  0.73555271286E+03  0.00000000000E+00 0. -1.
<mgrwt>
<rscale>  2 0.12645699E+04</rscale>
<asrwt>0</asrwt>
<pdfrwt beam="1">  1        1 0.24100858E+00 0.12645699E+04</pdfrwt>
<pdfrwt beam="2">  1       -1 0.21861422E+00 0.12645699E+04</pdfrwt>
<totfact> 0.70345311E-01</totfact>
</mgrwt>
</event>
<event>
 8    1  0.7046235E-006  0.1196701E+04  0.7818608E-02  0.8609051E-01
          2   -1    0    0  502    0  0.00000000000E+00  0.00000000000E+00  0.12734249356E+04  0.12734249356E+04  0.00000000000E+00 0.  1.
         -2   -1    0    0    0  501 -0.00000000000E+00 -0.00000000000E+00 -0.11257356630E+04  0.11257356630E+04  0.00000000000E+00 0. -1.
    9000010    2    1    2  502    0 -0.70923253240E+03 -0.20711287196E+02  0.45735952826E+02  0.11704858460E+04  0.92978793063E+03 0.  0.
   -9000010    2    1    2    0  501  0.70923253240E+03  0.20711287196E+02  0.10195331977E+03  0.12286747525E+04  0.99790151101E+03 0.  0.
        -13    1    3    3    0    0 -0.61396252632E+03 -0.39229447431E+03  0.20231381576E+03  0.75615860077E+03  0.10566000000E+00 0.  1.
          4    1    3    3  502    0 -0.95270006086E+02  0.37158318712E+03 -0.15657786293E+03  0.41432724527E+03  0.00000000000E+00 0.  1.
         13    1    4    4    0    0  0.47698502122E+03 -0.47693328308E+03  0.34889521944E+02  0.67542383500E+03  0.10566000000E+00 0. -1.
         -4    1    4    4    0  501  0.23224751118E+03  0.49764457028E+03  0.67063797829E+02  0.55325091754E+03  0.00000000000E+00 0. -1.
<mgrwt>
<rscale>  2 0.11967006E+04</rscale>
<asrwt>0</asrwt>
<pdfrwt beam="1">  1        2 0.19591153E+00 0.11967006E+04</pdfrwt>
<pdfrwt beam="2">  1       -2 0.17319010E+00 0.11967006E+04</pdfrwt>
<totfact> 0.44388735E+00</totfact>
</mgrwt>
</event>
<event>
 8    1  0.7046235E-006  0.1045547E+04  0.7818608E-02  0.8732935E-01
         -2   -1    0    0    0  501 -0.00000000000E+00  0.00000000000E+00  0.56138343767E+03  0.56138343767E+03  0.00000000000E+00 0.  1.
          2   -1    0    0  502    0  0.00000000000E+00 -0.00000000000E+00 -0.26555239458E+04  0.26555239458E+04  0.00000000000E+00 0. -1.
    9000010    2    1    2  502    0 -0.11637654950E+03 -0.29548017778E+03 -0.18767589259E+04  0.21477006865E+04  0.99475732518E+03 0.  0.
   -9000010    2    1    2    0  501  0.11637654950E+03  0.29548017778E+03 -0.21738158224E+03  0.10692066970E+04  0.99754507260E+03 0.  0.
        -13    1    3    3    0    0 -0.19051223438E+03  0.33467239136E+03 -0.49442881029E+03  0.62670597620E+03  0.10566000000E+00 0.  1.
          4    1    3    3  502    0  0.74135684879E+02 -0.63015256914E+03 -0.13823301156E+04  0.15209947103E+04  0.00000000000E+00 0.  1.
         13    1    4    4    0    0  0.20244682998E+03  0.64953385442E+03 -0.17413865581E+03  0.70228429401E+03  0.10566000000E+00 0. -1.
         -4    1    4    4    0  501 -0.86070280480E+02 -0.35405367664E+03 -0.43242926430E+02  0.36692240298E+03  0.00000000000E+00 0. -1.
<mgrwt>
<rscale>  2 0.10455466E+04</rscale>
<asrwt>0</asrwt>
<pdfrwt beam="2">  1        2 0.40854213E+00 0.10455466E+04</pdfrwt>
<pdfrwt beam="1">  1       -2 0.86366685E-01 0.10455466E+04</pdfrwt>
<totfact> 0.52041558E+00</totfact>
</mgrwt>
</event>
<event>
 8    1  0.7046235E-006  0.1391324E+04  0.7818608E-02  0.8474925E-01
         -2   -1    0    0    0  501 -0.00000000000E+00  0.00000000000E+00  0.43601981883E+03  0.43601981883E+03  0.00000000000E+00 0. -1.
          2   -1    0    0  502    0  0.00000000000E+00 -0.00000000000E+00 -0.44401589227E+04  0.44401589227E+04  0.00000000000E+00 0.  1.
    9000010    2    1    2  502    0  0.83559321379E+03 -0.46131906598E+03 -0.19800729173E+04  0.24213374696E+04  0.10154580661E+04 0.  0.
   -9000010    2    1    2    0  501 -0.83559321379E+03  0.46131906598E+03 -0.20240661865E+04  0.24548412719E+04  0.10091434206E+04 0.  0.
        -13    1    3    3    0    0  0.30394325022E+03 -0.66016118798E+03 -0.15407856691E+04  0.17035887951E+04  0.10566000000E+00 0.  1.
          4    1    3    3  502    0  0.53164996357E+03  0.19884212200E+03 -0.43928724821E+03  0.71774867446E+03  0.00000000000E+00 0.  1.
         13    1    4    4    0    0 -0.62425136121E+03  0.18869111366E+02 -0.36180231306E+03  0.72176639589E+03  0.10566000000E+00 0. -1.
         -4    1    4    4    0  501 -0.21134185258E+03  0.44244995462E+03 -0.16622638735E+04  0.17330748760E+04  0.00000000000E+00 0. -1.
<mgrwt>
<rscale>  2 0.13913244E+04</rscale>
<asrwt>0</asrwt>
<pdfrwt beam="2">  1        2 0.68310138E+00 0.13913244E+04</pdfrwt>
<pdfrwt beam="1">  1       -2 0.67079972E-01 0.13913244E+04</pdfrwt>
<totfact> 0.38284652E-01</totfact>
</mgrwt>
</event>
<event>
 8    1  0.7046235E-006  0.1625904E+04  0.7818608E-02  0.8340511E-01
         -1   -1    0    0    0  501 -0.00000000000E+00  0.00000000000E+00  0.14247613100E+04  0.14247613100E+04  0.00000000000E+00 0.  1.
          1   -1    0    0  502    0  0.00000000000E+00 -0.00000000000E+00 -0.19150856592E+04  0.19150856592E+04  0.00000000000E+00 0. -1.
    9000010    2    1    2  502    0 -0.83404358857E+03  0.97027510047E+03 -0.53904852728E+03  0.17079680597E+04  0.99474574642E+03 0.  0.
   -9000010    2    1    2    0  501  0.83404358857E+03 -0.97027510047E+03  0.48724177986E+02  0.16318789095E+04  0.10117273602E+04 0.  0.
        -13    1    3    3    0    0 -0.98827345845E+03  0.95718177345E+03 -0.27671085431E+03  0.14033710429E+04  0.10566000000E+00 0.  1.
          4    1    3    3  502    0  0.15422986987E+03  0.13093327021E+02 -0.26233767297E+03  0.30459701678E+03  0.00000000000E+00 0.  1.
         13    1    4    4    0    0  0.38638605209E+03 -0.13408385992E+03  0.44459575289E+03  0.60410103243E+03  0.10566000000E+00 0. -1.
         -4    1    4    4    0  501  0.44765753648E+03 -0.83619124055E+03 -0.39587157490E+03  0.10277778770E+04  0.00000000000E+00 0. -1.
<mgrwt>
<rscale>  2 0.16259038E+04</rscale>
<asrwt>0</asrwt>
<pdfrwt beam="2">  1        1 0.29462856E+00 0.16259038E+04</pdfrwt>
<pdfrwt beam="1">  1       -1 0.21919405E+00 0.16259038E+04</pdfrwt>
<totfact> 0.36354903E-01</totfact>
</mgrwt>
</event>
<event>
 8    1  0.7046235E-006  0.1438794E+04  0.7818608E-02  0.8445619E-01
         -1   -1    0    0    0  501 -0.00000000000E+00  0.00000000000E+00  0.15525792985E+04  0.15525792985E+04  0.00000000000E+00 0.  1.
          1   -1    0    0  502    0  0.00000000000E+00 -0.00000000000E+00 -0.13967941473E+04  0.13967941473E+04  0.00000000000E+00 0. -1.
    9000010    2    1    2  502    0 -0.92301687213E+03  0.45331818116E+03  0.39185351832E+03  0.14858865776E+04  0.99842487048E+03 0.  0.
   -9000010    2    1    2    0  501  0.92301687213E+03 -0.45331818116E+03 -0.23606836711E+03  0.14634868682E+04  0.10142031453E+04 0.  0.
        -13    1    3    3    0    0 -0.17063229809E+03  0.32298806379E+03  0.59278978963E+03  0.69630195774E+03  0.10566000000E+00 0.  1.
          4    1    3    3  502    0 -0.75238457404E+03  0.13033011737E+03 -0.20093627131E+03  0.78958461983E+03  0.00000000000E+00 0.  1.
         13    1    4    4    0    0  0.64710497256E+03 -0.75520127076E+03 -0.32244867062E+03  0.10454888623E+04  0.10566000000E+00 0. -1.
         -4    1    4    4    0  501  0.27591189957E+03  0.30188308960E+03  0.86380303511E+02  0.41799800591E+03  0.00000000000E+00 0. -1.
<mgrwt>
<rscale>  2 0.14387935E+04</rscale>
<asrwt>0</asrwt>
<pdfrwt beam="2">  1        1 0.21489141E+00 0.14387935E+04</pdfrwt>
<pdfrwt beam="1">  1       -1 0.23885835E+00 0.14387935E+04</pdfrwt>
<totfact> 0.59486784E-01</totfact>
</mgrwt>
</event>
<event>
 8    1  0.7046235E-006  0.1432648E+04  0.7818608E-02  0.8449347E-01
          2   -1    0    0  502    0  0.00000000000E+00  0.00000000000E+00  0.24074129011E+04  0.24074129011E+04  0.00000000000E+00 0. -1.
         -2   -1    0    0    0  501 -0.00000000000E+00 -0.00000000000E+00 -0.92010665358E+03  0.92010665358E+03  0.00000000000E+00 0.  1.
    9000010    2    1    2  502    0  0.92533240890E+03  0.40838526569E+03  0.29048816061E+03  0.14568481920E+04  0.10074744120E+04 0.  0.
   -9000010    2    1    2    0  501 -0.92533240890E+03 -0.40838526569E+03  0.11968180869E+04  0.18706713627E+04  0.10217725881E+04 0.  0.
        -13    1    3    3    0    0  0.19154387969E+03  0.59308081779E+03 -0.53732178122E+02  0.62555661008E+03  0.10566000000E+00 0.  1.
          4    1    3    3  502    0  0.73378852922E+03 -0.18469555210E+03  0.34422033873E+03  0.83129158192E+03  0.00000000000E+00 0.  1.
         13    1    4    4    0    0 -0.12303072978E+03 -0.28270467555E+03 -0.11397217492E+03  0.32870680228E+03  0.10566000000E+00 0. -1.
         -4    1    4    4    0  501 -0.80230167913E+03 -0.12568059014E+03  0.13107902618E+04  0.15419645604E+04  0.00000000000E+00 0. -1.
<mgrwt>
<rscale>  2 0.14326476E+04</rscale>
<asrwt>0</asrwt>
<pdfrwt beam="1">  1        2 0.37037121E+00 0.14326476E+04</pdfrwt>
<pdfrwt beam="2">  1       -2 0.14155487E+00 0.14326476E+04</pdfrwt>
<totfact> 0.19457664E+00</totfact>
</mgrwt>
</event>
<event>
 8    1  0.7046235E-006  0.1139210E+04  0.7818608E-02  0.8653800E-01
          2   -1    0    0  502    0  0.00000000000E+00  0.00000000000E+00  0.27971844055E+04  0.27971844055E+04  0.00000000000E+00 0.  1.
         -2   -1    0    0    0  501 -0.00000000000E+00 -0.00000000000E+00 -0.47598408061E+03  0.47598408061E+03  0.00000000000E+00 0. -1.
    9000010    2    1    2  502    0  0.37776013571E+03 -0.37428564216E+03  0.88996223044E+03  0.14368861218E+04  0.99489521732E+03 0.  0.
   -9000010    2    1    2    0  501 -0.37776013571E+03  0.37428564216E+03  0.14312380944E+04  0.18362823642E+04  0.10201460563E+04 0.  0.
        -13    1    3    3    0    0  0.70427945630E+03 -0.17218186310E+03  0.45182644026E+03  0.85428525086E+03  0.10566000000E+00 0.  1.
          4    1    3    3  502    0 -0.32651932059E+03 -0.20210377906E+03  0.43813579018E+03  0.58260087098E+03  0.00000000000E+00 0.  1.
         13    1    4    4    0    0  0.22437950475E+03  0.34407233655E+03  0.18222986620E+03  0.44937698008E+03  0.10566000000E+00 0. -1.
         -4    1    4    4    0  501 -0.60213964046E+03  0.30213305613E+02  0.12490082282E+04  0.13869053841E+04  0.00000000000E+00 0. -1.
<mgrwt>
<rscale>  2 0.11392104E+04</rscale>
<asrwt>0</asrwt>
<pdfrwt beam="1">  1        2 0.43033605E+00 0.11392104E+04</pdfrwt>
<pdfrwt beam="2">  1       -2 0.73228322E-01 0.11392104E+04</pdfrwt>
<totfact> 0.60968741E+00</totfact>
</mgrwt>
</event>
<event>
 8    1  0.7046235E-006  0.1187796E+04  0.7818608E-02  0.8615809E-01
          1   -1    0    0  502    0  0.00000000000E+00  0.00000000000E+00  0.12874739550E+04  0.12874739550E+04  0.00000000000E+00 0.  1.
         -1   -1    0    0    0  501 -0.00000000000E+00 -0.00000000000E+00 -0.12151271986E+04  0.12151271986E+04  0.00000000000E+00 0. -1.
    9000010    2    1    2  502    0  0.35584858880E+03  0.56407450551E+03 -0.35533148283E+03  0.12517844530E+04  0.99794568397E+03 0.  0.
   -9000010    2    1    2    0  501 -0.35584858880E+03 -0.56407450551E+03  0.42767823931E+03  0.12508167006E+04  0.96789745131E+03 0.  0.
        -13    1    3    3    0    0  0.16651132478E+03  0.75231115702E+03 -0.52778419804E+03  0.93394553862E+03  0.10566000000E+00 0.  1.
          4    1    3    3  502    0  0.18933726401E+03 -0.18823665150E+03  0.17245271520E+03  0.31783891438E+03  0.00000000000E+00 0.  1.
         13    1    4    4    0    0  0.15851991097E+03 -0.31054597612E+03 -0.19892040592E+03  0.40141836594E+03  0.10566000000E+00 0. -1.
         -4    1    4    4    0  501 -0.51436849976E+03 -0.25352852940E+03  0.62659864523E+03  0.84939833469E+03  0.00000000000E+00 0. -1.
<mgrwt>
<rscale>  2 0.11877961E+04</rscale>
<asrwt>0</asrwt>
<pdfrwt beam="1">  1        1 0.19807291E+00 0.11877961E+04</pdfrwt>
<pdfrwt beam="2">  1       -1 0.18694265E+00 0.11877961E+04</pdfrwt>
<totfact> 0.22177424E+00</totfact>
</mgrwt>
</event>
<event>
 8    1  0.7046235E-006  0.1143834E+04  0.7818608E-02  0.8650101E-01
         -2   -1    0    0    0  501 -0.00000000000E+00  0.00000000000E+00  0.37665585504E+03  0.37665585504E+03  0.00000000000E+00 0. -1.
          2   -1    0    0  502    0  0.00000000000E+00 -0.00000000000E+00 -0.43968123478E+04  0.43968123478E+04  0.00000000000E+00 0.  1.
    9000010    2    1    2  502    0  0.12729777573E+03  0.55270521395E+03 -0.91435713729E+03  0.14632193626E+04  0.99160181084E+03 0.  0.
   -9000010    2    1    2    0  501 -0.12729777573E+03 -0.55270521395E+03 -0.31057993555E+04  0.33102488403E+04  0.99502259816E+03 0.  0.
        -13    1    3    3    0    0  0.51068959425E+03  0.95639741228E+02 -0.27160419766E+03  0.58627610656E+03  0.10566000000E+00 0.  1.
          4    1    3    3  502    0 -0.38339181852E+03  0.45706547272E+03 -0.64275293964E+03  0.87694325601E+03  0.00000000000E+00 0.  1.
         13    1    4    4    0    0 -0.28406637506E+03 -0.51006089591E+03 -0.75771161457E+03  0.95654729365E+03  0.10566000000E+00 0. -1.
         -4    1    4    4    0  501  0.15676859932E+03 -0.42644318037E+02 -0.23480877409E+04  0.23537015466E+04  0.00000000000E+00 0. -1.
<mgrwt>
<rscale>  2 0.11438337E+04</rscale>
<asrwt>0</asrwt>
<pdfrwt beam="2">  1        2 0.67643269E+00 0.11438337E+04</pdfrwt>
<pdfrwt beam="1">  1       -2 0.57947053E-01 0.11438337E+04</pdfrwt>
<totfact> 0.58809227E-01</totfact>
</mgrwt>
</event>
<event>
 8    1  0.7046235E-006  0.1765516E+04  0.7818608E-02  0.8271183E-01
          1   -1    0    0  502    0  0.00000000000E+00  0.00000000000E+00  0.23760373999E+04  0.23760373999E+04  0.00000000000E+00 0. -1.
         -1   -1    0    0    0  501 -0.00000000000E+00 -0.00000000000E+00 -0.13602233290E+04  0.13602233290E+04  0.00000000000E+00 0.  1.
    9000010    2    1    2  502    0 -0.34265524735E+03 -0.14075954396E+04  0.85486200816E+03  0.19461068766E+04  0.97867531990E+03 0.  0.
   -9000010    2    1    2    0  501  0.34265524735E+03  0.14075954396E+04  0.16095206273E+03  0.17901538524E+04  0.10392341933E+04 0.  0.
        -13    1    3    3    0    0 -0.28750212183E+03 -0.59061056311E+03 -0.12550857963E+03  0.66875310993E+03  0.10566000000E+00 0.  1.
          4    1    3    3  502    0 -0.55153125521E+02 -0.81698487652E+03  0.98037058779E+03  0.12773537666E+04  0.00000000000E+00 0.  1.
         13    1    4    4    0    0 -0.22481117889E+03  0.49765501513E+03 -0.29981787358E+03  0.62296978155E+03  0.10566000000E+00 0. -1.
         -4    1    4    4    0  501  0.56746642624E+03  0.90994042450E+03  0.46076993631E+03  0.11671840709E+04  0.00000000000E+00 0. -1.
<mgrwt>
<rscale>  2 0.17655156E+04</rscale>
<asrwt>0</asrwt>
<pdfrwt beam="1">  1        1 0.36554422E+00 0.17655156E+04</pdfrwt>
<pdfrwt beam="2">  1       -1 0.20926513E+00 0.17655156E+04</pdfrwt>
<totfact> 0.18787274E-01</totfact>
</mgrwt>
</event>
<event>
 8    1  0.7046235E-006  0.1300198E+04  0.7818608E-02  0.8534703E-01
         -1   -1    0    0    0  501 -0.00000000000E+00  0.00000000000E+00  0.91417879797E+03  0.91417879797E+03  0.00000000000E+00 0. -1.
          1   -1    0    0  502    0  0.00000000000E+00 -0.00000000000E+00 -0.18959687713E+04  0.18959687713E+04  0.00000000000E+00 0.  1.
    9000010    2    1    2  502    0 -0.29044455226E+03 -0.76237600475E+03 -0.26636271119E+03  0.13159586441E+04  0.99760856473E+03 0.  0.
   -9000010    2    1    2    0  501  0.29044455226E+03  0.76237600475E+03 -0.71542726214E+03  0.14941889252E+04  0.10272240098E+04 0.  0.
        -13    1    3    3    0    0 -0.18388512752E+03  0.97569180105E+02  0.23572503225E+03  0.31448336526E+03  0.10566000000E+00 0.  1.
          4    1    3    3  502    0 -0.10655942474E+03 -0.85994518486E+03 -0.50208774344E+03  0.10014752788E+04  0.00000000000E+00 0.  1.
         13    1    4    4    0    0  0.22474025702E+03  0.14498397089E+03  0.23694132775E+03  0.35730902438E+03  0.10566000000E+00 0. -1.
         -4    1    4    4    0  501  0.65704295245E+02  0.61739203386E+03 -0.95236858989E+03  0.11368799008E+04  0.00000000000E+00 0. -1.
<mgrwt>
<rscale>  2 0.13001982E+04</rscale>
<asrwt>0</asrwt>
<pdfrwt beam="2">  1        1 0.29168750E+00 0.13001982E+04</pdfrwt>
<pdfrwt beam="1">  1       -1 0.14064289E+00 0.13001982E+04</pdfrwt>
<totfact> 0.19364511E+00</totfact>
</mgrwt>
</event>
<event>
 8    1  0.7046235E-006  0.1005110E+04  0.7818608E-02  0.8769805E-01
         -2   -1    0    0    0  501 -0.00000000000E+00  0.00000000000E+00  0.70445375665E+03  0.70445375665E+03  0.00000000000E+00 0. -1.
          2   -1    0    0  502    0  0.00000000000E+00 -0.00000000000E+00 -0.14611063195E+04  0.14611063195E+04  0.00000000000E+00 0.  1.
    9000010    2    1    2  502    0 -0.17654236075E+02  0.17466674549E+03 -0.23271060866E+03  0.10358373051E+04  0.99397412004E+03 0.  0.
   -9000010    2    1    2    0  501  0.17654236075E+02 -0.17466674549E+03 -0.52394195418E+03  0.11297227710E+04  0.98536197610E+03 0.  0.
        -13    1    3    3    0    0  0.10016878511E+03 -0.40288579239E+03 -0.14583649320E+03  0.44002163712E+03  0.10566000000E+00 0.  1.
          4    1    3    3  502    0 -0.11782302119E+03  0.57755253787E+03 -0.86874115469E+02  0.59581566803E+03  0.00000000000E+00 0.  1.
         13    1    4    4    0    0 -0.41553346270E+03  0.12317922948E+03 -0.39961186576E+03  0.58951745998E+03  0.10566000000E+00 0. -1.
         -4    1    4    4    0  501  0.43318769878E+03 -0.29784597496E+03 -0.12433008842E+03  0.54020531102E+03  0.00000000000E+00 0. -1.
<mgrwt>
<rscale>  2 0.10051097E+04</rscale>
<asrwt>0</asrwt>
<pdfrwt beam="2">  1        2 0.22478558E+00 0.10051097E+04</pdfrwt>
<pdfrwt beam="1">  1       -2 0.10837750E+00 0.10051097E+04</pdfrwt>
<totfact> 0.13768515E+01</totfact>
</mgrwt>
</event>
<event>
 8    1  0.7046235E-006  0.1302217E+04  0.7818608E-02  0.8533325E-01
          2   -1    0    0  502    0  0.00000000000E+00  0.00000000000E+00  0.37312897496E+04  0.37312897496E+04  0.00000000000E+00 0.  1.
         -2   -1    0    0    0  501 -0.00000000000E+00 -0.00000000000E+00 -0.46847931615E+03  0.46847931615E+03  0.00000000000E+00 0. -1.
    9000010    2    1    2  502    0  0.81455950358E+03 -0.18178265218E+03  0.20009461713E+04  0.23903244257E+04  0.10066345723E+04 0.  0.
   -9000010    2    1    2    0  501 -0.81455950358E+03  0.18178265218E+03  0.12618642621E+04  0.18094446400E+04  0.99259073731E+03 0.  0.
        -13    1    3    3    0    0  0.24268804892E+03  0.31001867175E+03  0.13083868756E+04  0.13663401090E+04  0.10566000000E+00 0.  1.
          4    1    3    3  502    0  0.57187145467E+03 -0.49180132393E+03  0.69255929569E+03  0.10239843167E+04  0.00000000000E+00 0.  1.
         13    1    4    4    0    0 -0.74879542141E+03  0.43269327193E+03  0.12851221748E+04  0.15490180974E+04  0.10566000000E+00 0. -1.
         -4    1    4    4    0  501 -0.65764082172E+02 -0.25091061976E+03 -0.23257912677E+02  0.26042654264E+03  0.00000000000E+00 0. -1.
<mgrwt>
<rscale>  2 0.13022169E+04</rscale>
<asrwt>0</asrwt>
<pdfrwt beam="1">  1        2 0.57404456E+00 0.13022169E+04</pdfrwt>
<pdfrwt beam="2">  1       -2 0.72073743E-01 0.13022169E+04</pdfrwt>
<totfact> 0.14192157E+00</totfact>
</mgrwt>
</event>
<event>
 8    1  0.7046235E-006  0.1302453E+04  0.7818608E-02  0.8533164E-01
          2   -1    0    0  502    0  0.00000000000E+00  0.00000000000E+00  0.19588136989E+04  0.19588136989E+04  0.00000000000E+00 0.  1.
         -2   -1    0    0    0  501 -0.00000000000E+00 -0.00000000000E+00 -0.87362853751E+03  0.87362853751E+03  0.00000000000E+00 0. -1.
    9000010    2    1    2  502    0  0.39767932306E+03 -0.71760700129E+03  0.66909960111E+03  0.14536537815E+04  0.99614576648E+03 0.  0.
   -9000010    2    1    2    0  501 -0.39767932306E+03  0.71760700129E+03  0.41608556030E+03  0.13787884549E+04  0.10270451585E+04 0.  0.
        -13    1    3    3    0    0  0.49180411944E+02 -0.74979084114E+03  0.63349386596E+02  0.75406775181E+03  0.10566000000E+00 0.  1.
          4    1    3    3  502    0  0.34849891112E+03  0.32183839856E+02  0.60575021452E+03  0.69958602972E+03  0.00000000000E+00 0.  1.
         13    1    4    4    0    0  0.27298932890E+02  0.16384531685E+03  0.62775779577E+03  0.64936151788E+03  0.10566000000E+00 0. -1.
         -4    1    4    4    0  501 -0.42497825595E+03  0.55376168444E+03 -0.21167223547E+03  0.72942693702E+03  0.00000000000E+00 0. -1.
<mgrwt>
<rscale>  2 0.13024534E+04</rscale>
<asrwt>0</asrwt>
<pdfrwt beam="1">  1        2 0.30135595E+00 0.13024534E+04</pdfrwt>
<pdfrwt beam="2">  1       -2 0.13440439E+00 0.13024534E+04</pdfrwt>
<totfact> 0.40398032E+00</totfact>
</mgrwt>
</event>
<event>
 8    1  0.7046235E-006  0.1106093E+04  0.7818608E-02  0.8680844E-01
          4   -1    0    0  502    0  0.00000000000E+00  0.00000000000E+00  0.65788929246E+03  0.65788929246E+03  0.00000000000E+00 0.  1.
         -4   -1    0    0    0  501 -0.00000000000E+00 -0.00000000000E+00 -0.25684302609E+04  0.25684302609E+04  0.00000000000E+00 0. -1.
    9000010    2    1    2  502    0  0.49245349795E+03 -0.11475396613E+03 -0.12058815085E+03  0.11323628485E+04  0.10059946313E+04 0.  0.
   -9000010    2    1    2    0  501 -0.49245349795E+03  0.11475396613E+03 -0.17899528176E+04  0.20939567049E+04  0.96179242672E+03 0.  0.
        -13    1    3    3    0    0  0.20594027800E+03 -0.15902327641E+03 -0.55334808733E+03  0.61146865615E+03  0.10566000000E+00 0.  1.
          4    1    3    3  502    0  0.28651321994E+03  0.44269310282E+02  0.43275993648E+03  0.52089419238E+03  0.00000000000E+00 0.  1.
         13    1    4    4    0    0 -0.39947963217E+03 -0.23335866061E+03 -0.16394414564E+04  0.17034695598E+04  0.10566000000E+00 0. -1.
         -4    1    4    4    0  501 -0.92973865773E+02  0.34811262674E+03 -0.15051136124E+03  0.39048714508E+03  0.00000000000E+00 0. -1.
<mgrwt>
<rscale>  2 0.11060927E+04</rscale>
<asrwt>0</asrwt>
<pdfrwt beam="1">  1        4 0.10121374E+00 0.11060927E+04</pdfrwt>
<pdfrwt beam="2">  1       -4 0.39514312E+00 0.11060927E+04</pdfrwt>
<totfact> 0.14288945E-01</totfact>
</mgrwt>
</event>
<event>
 8    1  0.7046235E-006  0.1257119E+04  0.7818608E-02  0.8564748E-01
          2   -1    0    0  502    0  0.00000000000E+00  0.00000000000E+00  0.15891671535E+04  0.15891671535E+04  0.00000000000E+00 0. -1.
         -2   -1    0    0    0  501 -0.00000000000E+00 -0.00000000000E+00 -0.10062599514E+04  0.10062599514E+04  0.00000000000E+00 0.  1.
    9000010    2    1    2  502    0  0.61349902907E+03  0.41500974000E+03  0.42869104325E+03  0.13167688668E+04  0.10007447702E+04 0.  0.
   -9000010    2    1    2    0  501 -0.61349902907E+03 -0.41500974000E+03  0.15421615879E+03  0.12786582381E+04  0.10308104206E+04 0.  0.
        -13    1    3    3    0    0  0.87481903871E+03  0.39404480441E+03  0.22687902655E+03  0.98592786867E+03  0.10566000000E+00 0.  1.
          4    1    3    3  502    0 -0.26132000964E+03  0.20964935592E+02  0.20181201671E+03  0.33084099814E+03  0.00000000000E+00 0.  1.
         13    1    4    4    0    0 -0.39047730567E+02  0.15777593072E+03 -0.30563555060E+03  0.34616624696E+03  0.10566000000E+00 0. -1.
         -4    1    4    4    0  501 -0.57445129851E+03 -0.57278567072E+03  0.45985170940E+03  0.93249199116E+03  0.00000000000E+00 0. -1.
<mgrwt>
<rscale>  2 0.12571194E+04</rscale>
<asrwt>0</asrwt>
<pdfrwt beam="1">  1        2 0.24448726E+00 0.12571194E+04</pdfrwt>
<pdfrwt beam="2">  1       -2 0.15480922E+00 0.12571194E+04</pdfrwt>
<totfact> 0.42395610E+00</totfact>
</mgrwt>
</event>
<event>
 8    1  0.7046235E-006  0.1042028E+04  0.7818608E-02  0.8736075E-01
          1   -1    0    0  502    0  0.00000000000E+00  0.00000000000E+00  0.17529705857E+04  0.17529705857E+04  0.00000000000E+00 0.  1.
         -1   -1    0    0    0  501 -0.00000000000E+00 -0.00000000000E+00 -0.63058419744E+03  0.63058419744E+03  0.00000000000E+00 0. -1.
    9000010    2    1    2  502    0 -0.10779014103E+03 -0.35816594510E+03  0.70543577886E+03  0.12396068452E+04  0.94820036594E+03 0.  0.
   -9000010    2    1    2    0  501  0.10779014103E+03  0.35816594510E+03  0.41695060936E+03  0.11439479379E+04  0.99743045630E+03 0.  0.
        -13    1    3    3    0    0 -0.38269188585E+03 -0.43382724994E+03  0.75402225691E+03  0.95037294646E+03  0.10566000000E+00 0.  1.
          4    1    3    3  502    0  0.27490174482E+03  0.75661304846E+02 -0.48586478053E+02  0.28923389879E+03  0.00000000000E+00 0.  1.
         13    1    4    4    0    0  0.20155053056E+03  0.66622152725E+03  0.43609296562E+03  0.82137130798E+03  0.10566000000E+00 0. -1.
         -4    1    4    4    0  501 -0.93760389533E+02 -0.30805558216E+03 -0.19142356255E+02  0.32257662988E+03  0.00000000000E+00 0. -1.
<mgrwt>
<rscale>  2 0.10420277E+04</rscale>
<asrwt>0</asrwt>
<pdfrwt beam="1">  1        1 0.26968778E+00 0.10420277E+04</pdfrwt>
<pdfrwt beam="2">  1       -1 0.97012954E-01 0.10420277E+04</pdfrwt>
<totfact> 0.63087142E+00</totfact>
</mgrwt>
</event>
<event>
 8    1  0.7046235E-006  0.1282327E+04  0.7818608E-02  0.8547020E-01
          4   -1    0    0  502    0  0.00000000000E+00  0.00000000000E+00  0.60594761332E+03  0.60594761332E+03  0.00000000000E+00 0.  1.
         -4   -1    0    0    0  501 -0.00000000000E+00 -0.00000000000E+00 -0.31340743926E+04  0.31340743926E+04  0.00000000000E+00 0. -1.
    9000010    2    1    2  502    0  0.47322901472E+03  0.65941119599E+03 -0.58003172088E+03  0.14082990065E+04  0.99403242847E+03 0.  0.
   -9000010    2    1    2    0  501 -0.47322901472E+03 -0.65941119599E+03 -0.19480950584E+04  0.23317229993E+04  0.99150842833E+03 0.  0.
        -13    1    3    3    0    0 -0.14682302168E+03  0.63877497843E+03 -0.22201434797E+03  0.69201217809E+03  0.10566000000E+00 0.  1.
          4    1    3    3  502    0  0.62005203640E+03  0.20636217568E+02 -0.35801737291E+03  0.71628682846E+03  0.00000000000E+00 0.  1.
         13    1    4    4    0    0  0.11583099779E+03 -0.67559502506E+03 -0.92879762305E+03  0.11543441834E+04  0.10566000000E+00 0. -1.
         -4    1    4    4    0  501 -0.58906001251E+03  0.16183829063E+02 -0.10192974353E+04  0.11773788160E+04  0.00000000000E+00 0. -1.
<mgrwt>
<rscale>  2 0.12823266E+04</rscale>
<asrwt>0</asrwt>
<pdfrwt beam="1">  1        4 0.93222711E-01 0.12823266E+04</pdfrwt>
<pdfrwt beam="2">  1       -4 0.48216528E+00 0.12823266E+04</pdfrwt>
<totfact> 0.67794455E-02</totfact>
</mgrwt>
</event>
<event>
 8    1  0.7046235E-006  0.1043593E+04  0.7818608E-02  0.8734676E-01
          2   -1    0    0  502    0  0.00000000000E+00  0.00000000000E+00  0.19632226504E+04  0.19632226504E+04  0.00000000000E+00 0.  1.
         -2   -1    0    0    0  501 -0.00000000000E+00 -0.00000000000E+00 -0.59314996578E+03  0.59314996578E+03  0.00000000000E+00 0. -1.
    9000010    2    1    2  502    0  0.22072114167E+03 -0.23251875138E+03  0.10114902739E+04  0.14547670638E+04  0.99521447105E+03 0.  0.
   -9000010    2    1    2    0  501 -0.22072114167E+03  0.23251875138E+03  0.35858241066E+03  0.11016055524E+04  0.99104523394E+03 0.  0.
        -13    1    3    3    0    0 -0.39986426992E+02 -0.58731775636E+03  0.44852694000E+03  0.74007937976E+03  0.10566000000E+00 0.  1.
          4    1    3    3  502    0  0.26070756867E+03  0.35479900498E+03  0.56296333395E+03  0.71468768400E+03  0.00000000000E+00 0.  1.
         13    1    4    4    0    0 -0.32666895093E+03 -0.33098951177E+03  0.11789598101E+03  0.47975632763E+03  0.10566000000E+00 0. -1.
         -4    1    4    4    0  501  0.10594780926E+03  0.56350826315E+03  0.24068642965E+03  0.62184922477E+03  0.00000000000E+00 0. -1.
<mgrwt>
<rscale>  2 0.10435929E+04</rscale>
<asrwt>0</asrwt>
<pdfrwt beam="1">  1        2 0.30203425E+00 0.10435929E+04</pdfrwt>
<pdfrwt beam="2">  1       -2 0.91253842E-01 0.10435929E+04</pdfrwt>
<totfact> 0.11054165E+01</totfact>
</mgrwt>
</event>
<event>
 8    1  0.7046235E-006  0.1059902E+04  0.7818608E-02  0.8720257E-01
         -2   -1    0    0    0  501 -0.00000000000E+00  0.00000000000E+00  0.11023624116E+04  0.11023624116E+04  0.00000000000E+00 0. -1.
          2   -1    0    0  502    0  0.00000000000E+00 -0.00000000000E+00 -0.11207862483E+04  0.11207862483E+04  0.00000000000E+00 0.  1.
    9000010    2    1    2  502    0 -0.23768082113E+03  0.23968331663E+03  0.32562951527E+03  0.11029415462E+04  0.99825107468E+03 0.  0.
   -9000010    2    1    2    0  501  0.23768082113E+03 -0.23968331663E+03 -0.34405335197E+03  0.11202071138E+04  0.10112126402E+04 0.  0.
        -13    1    3    3    0    0 -0.20381360286E+03  0.59211106885E+03  0.39743715546E+03  0.74168174190E+03  0.10566000000E+00 0.  1.
          4    1    3    3  502    0 -0.33867218274E+02 -0.35242775222E+03 -0.71807640187E+02  0.36125980429E+03  0.00000000000E+00 0.  1.
         13    1    4    4    0    0  0.53118405219E+03 -0.36391215043E+03 -0.44864285094E+03  0.78477319615E+03  0.10566000000E+00 0. -1.
         -4    1    4    4    0  501 -0.29350323105E+03  0.12422883380E+03  0.10458949896E+03  0.33543391761E+03  0.00000000000E+00 0. -1.
<mgrwt>
<rscale>  2 0.10599023E+04</rscale>
<asrwt>0</asrwt>
<pdfrwt beam="2">  1        2 0.17242865E+00 0.10599023E+04</pdfrwt>
<pdfrwt beam="1">  1       -2 0.16959422E+00 0.10599023E+04</pdfrwt>
<totfact> 0.58997225E+00</totfact>
</mgrwt>
</event>
<event>
 8    1  0.7046235E-006  0.1054477E+04  0.7818608E-02  0.8725023E-01
         -2   -1    0    0    0  501 -0.00000000000E+00  0.00000000000E+00  0.59315379942E+03  0.59315379942E+03  0.00000000000E+00 0.  1.
          2   -1    0    0  502    0  0.00000000000E+00 -0.00000000000E+00 -0.18784546521E+04  0.18784546521E+04  0.00000000000E+00 0. -1.
    9000010    2    1    2  502    0 -0.32886469038E+03  0.12226451200E+03 -0.70097866254E+03  0.12696530707E+04  0.99877286668E+03 0.  0.
   -9000010    2    1    2    0  501  0.32886469038E+03 -0.12226451200E+03 -0.58432219011E+03  0.12019553808E+04  0.99003218131E+03 0.  0.
        -13    1    3    3    0    0  0.32384446951E+03  0.46688678759E+02 -0.47100796318E+03  0.57350116452E+03  0.10566000000E+00 0.  1.
          4    1    3    3  502    0 -0.65270915988E+03  0.75575833238E+02 -0.22997069936E+03  0.69615190622E+03  0.00000000000E+00 0.  1.
         13    1    4    4    0    0  0.45164798946E+03  0.22500286019E+03  0.77616612499E+01  0.50465081792E+03  0.10566000000E+00 0. -1.
         -4    1    4    4    0  501 -0.12278329909E+03 -0.34726737219E+03 -0.59208385136E+03  0.69730456285E+03  0.00000000000E+00 0. -1.
<mgrwt>
<rscale>  2 0.10544772E+04</rscale>
<asrwt>0</asrwt>
<pdfrwt beam="2">  1        2 0.28899302E+00 0.10544772E+04</pdfrwt>
<pdfrwt beam="1">  1       -2 0.91254431E-01 0.10544772E+04</pdfrwt>
<totfact> 0.12274974E+01</totfact>
</mgrwt>
</event>
<event>
 8    1  0.7046235E-006  0.1207690E+04  0.7818608E-02  0.8600794E-01
         -2   -1    0    0    0  501 -0.00000000000E+00  0.00000000000E+00  0.12455692129E+04  0.12455692129E+04  0.00000000000E+00 0. -1.
          2   -1    0    0  502    0  0.00000000000E+00 -0.00000000000E+00 -0.11829419278E+04  0.11829419278E+04  0.00000000000E+00 0.  1.
    9000010    2    1    2  502    0 -0.73386970646E+02  0.65193673915E+03 -0.89087010283E+02  0.12289437563E+04  0.10353545776E+04 0.  0.
   -9000010    2    1    2    0  501  0.73386970646E+02 -0.65193673915E+03  0.15171429536E+03  0.11995673844E+04  0.99274242531E+03 0.  0.
        -13    1    3    3    0    0  0.39206521159E+03  0.59102159428E+03  0.11242949947E+03  0.71809613462E+03  0.10566000000E+00 0.  1.
          4    1    3    3  502    0 -0.46545218224E+03  0.60915144864E+02 -0.20151650975E+03  0.51084762163E+03  0.00000000000E+00 0.  1.
         13    1    4    4    0    0  0.21855974465E+03 -0.66877209022E+03 -0.26972353265E+03  0.75350863689E+03  0.10566000000E+00 0. -1.
         -4    1    4    4    0  501 -0.14517277401E+03  0.16835351075E+02  0.42143782801E+03  0.44605874751E+03  0.00000000000E+00 0. -1.
<mgrwt>
<rscale>  2 0.12076902E+04</rscale>
<asrwt>0</asrwt>
<pdfrwt beam="2">  1        2 0.18199107E+00 0.12076902E+04</pdfrwt>
<pdfrwt beam="1">  1       -2 0.19162603E+00 0.12076902E+04</pdfrwt>
<totfact> 0.35052072E+00</totfact>
</mgrwt>
</event>
<event>
 8    1  0.7046235E-006  0.1224541E+04  0.7818608E-02  0.8588308E-01
          2   -1    0    0  502    0  0.00000000000E+00  0.00000000000E+00  0.17909114164E+04  0.17909114164E+04  0.00000000000E+00 0. -1.
         -2   -1    0    0    0  501 -0.00000000000E+00 -0.00000000000E+00 -0.95193810007E+03  0.95193810007E+03  0.00000000000E+00 0.  1.
    9000010    2    1    2  502    0 -0.59773068182E+03  0.35763317455E+03 -0.58504348096E+02  0.12189908951E+04  0.99866540342E+03 0.  0.
   -9000010    2    1    2    0  501  0.59773068182E+03 -0.35763317455E+03  0.89747766440E+03  0.15238586214E+04  0.10156256615E+04 0.  0.
        -13    1    3    3    0    0 -0.79039778632E+03  0.14726452180E+03 -0.28680038484E+03  0.85362167961E+03  0.10566000000E+00 0.  1.
          4    1    3    3  502    0  0.19266710450E+03  0.21036865275E+03  0.22829603674E+03  0.36536921546E+03  0.00000000000E+00 0.  1.
         13    1    4    4    0    0  0.18227365910E+03 -0.18732471323E+03 -0.20582836146E+03  0.33268537770E+03  0.10566000000E+00 0. -1.
         -4    1    4    4    0  501  0.41545702272E+03 -0.17030846132E+03  0.11033060259E+04  0.11911732437E+04  0.00000000000E+00 0. -1.
<mgrwt>
<rscale>  2 0.12245408E+04</rscale>
<asrwt>0</asrwt>
<pdfrwt beam="1">  1        2 0.27552483E+00 0.12245408E+04</pdfrwt>
<pdfrwt beam="2">  1       -2 0.14645202E+00 0.12245408E+04</pdfrwt>
<totfact> 0.39154837E+00</totfact>
</mgrwt>
</event>
<event>
 8    1  0.7046235E-006  0.1176834E+04  0.7818608E-02  0.8624214E-01
          2   -1    0    0  502    0  0.00000000000E+00  0.00000000000E+00  0.15485679853E+04  0.15485679853E+04  0.00000000000E+00 0. -1.
         -2   -1    0    0    0  501 -0.00000000000E+00 -0.00000000000E+00 -0.97361202659E+03  0.97361202659E+03  0.00000000000E+00 0.  1.
    9000010    2    1    2  502    0 -0.30894661637E+02  0.60144200907E+03 -0.75559413068E+02  0.11634102260E+04  0.99253572155E+03 0.  0.
   -9000010    2    1    2    0  501  0.30894661637E+02 -0.60144200907E+03  0.65051537177E+03  0.13587697859E+04  0.10297563361E+04 0.  0.
        -13    1    3    3    0    0  0.39646969579E+03  0.59425011613E+03  0.55021460620E+02  0.71648363031E+03  0.10566000000E+00 0.  1.
          4    1    3    3  502    0 -0.42736435743E+03  0.71918929417E+01 -0.13058087369E+03  0.44692659565E+03  0.00000000000E+00 0.  1.
         13    1    4    4    0    0  0.11279063369E+03 -0.87801442459E+03  0.59062419815E+03  0.10641748030E+04  0.10566000000E+00 0. -1.
         -4    1    4    4    0  501 -0.81895972052E+02  0.27657241551E+03  0.59891173627E+02  0.29459498288E+03  0.00000000000E+00 0. -1.
<mgrwt>
<rscale>  2 0.11768340E+04</rscale>
<asrwt>0</asrwt>
<pdfrwt beam="1">  1        2 0.23824123E+00 0.11768340E+04</pdfrwt>
<pdfrwt beam="2">  1       -2 0.14978647E+00 0.11768340E+04</pdfrwt>
<totfact> 0.49833836E+00</totfact>
</mgrwt>
</event>
<event>
 8    1  0.7046235E-006  0.1518297E+04  0.7818608E-02  0.8399046E-01
          2   -1    0    0  502    0  0.00000000000E+00  0.00000000000E+00  0.11643533238E+04  0.11643533238E+04  0.00000000000E+00 0. -1.
         -2   -1    0    0    0  501 -0.00000000000E+00 -0.00000000000E+00 -0.23408255230E+04  0.23408255230E+04  0.00000000000E+00 0.  1.
    9000010    2    1    2  502    0 -0.11413501687E+04  0.30809758675E+02  0.99076865144E+02  0.15243511668E+04  0.10050874617E+04 0.  0.
   -9000010    2    1    2    0  501  0.11413501687E+04 -0.30809758675E+02 -0.12755490643E+04  0.19808276799E+04  0.99650561123E+03 0.  0.
        -13    1    3    3    0    0 -0.86633389004E+03  0.23218688045E+03  0.47663449809E+03  0.10156897225E+04  0.10566000000E+00 0.  1.
          4    1    3    3  502    0 -0.27501627866E+03 -0.20137712178E+03 -0.37755763294E+03  0.50866144428E+03  0.00000000000E+00 0.  1.
         13    1    4    4    0    0  0.29981572328E+03  0.16502037746E+03 -0.10258815492E+04  0.10814592720E+04  0.10566000000E+00 0. -1.
         -4    1    4    4    0  501  0.84153444542E+03 -0.19583013613E+03 -0.24966751517E+03  0.89936840793E+03  0.00000000000E+00 0. -1.
<mgrwt>
<rscale>  2 0.15182969E+04</rscale>
<asrwt>0</asrwt>
<pdfrwt beam="1">  1        2 0.17913128E+00 0.15182969E+04</pdfrwt>
<pdfrwt beam="2">  1       -2 0.36012700E+00 0.15182969E+04</pdfrwt>
<totfact> 0.19707993E-01</totfact>
</mgrwt>
</event>
<event>
 8    1  0.7046235E-006  0.1875434E+04  0.7818608E-02  0.8221084E-01
          1   -1    0    0  502    0  0.00000000000E+00  0.00000000000E+00  0.97520123317E+03  0.97520123317E+03  0.00000000000E+00 0. -1.
         -1   -1    0    0    0  501 -0.00000000000E+00 -0.00000000000E+00 -0.40075067001E+04  0.40075067001E+04  0.00000000000E+00 0.  1.
    9000010    2    1    2  502    0 -0.26662502108E+03  0.15647980577E+04 -0.72291522025E+03  0.20030256706E+04  0.98479620145E+03 0.  0.
   -9000010    2    1    2    0  501  0.26662502108E+03 -0.15647980577E+04 -0.23093902466E+04  0.29796822626E+04  0.10126900866E+04 0.  0.
        -13    1    3    3    0    0  0.24884460767E+03  0.96150092824E+03 -0.68901550208E+03  0.12087803965E+04  0.10566000000E+00 0.  1.
          4    1    3    3  502    0 -0.51546962875E+03  0.60329712943E+03 -0.33899718171E+02  0.79424527410E+03  0.00000000000E+00 0.  1.
         13    1    4    4    0    0  0.95206856202E+02  0.55833112801E+02  0.42567910330E+02  0.11829505529E+03  0.10566000000E+00 0. -1.
         -4    1    4    4    0  501  0.17141816488E+03 -0.16206311705E+04 -0.23519581570E+04  0.28613872073E+04  0.00000000000E+00 0. -1.
<mgrwt>
<rscale>  2 0.18754343E+04</rscale>
<asrwt>0</asrwt>
<pdfrwt beam="1">  1        1 0.15003096E+00 0.18754343E+04</pdfrwt>
<pdfrwt beam="2">  1       -1 0.61653949E+00 0.18754343E+04</pdfrwt>
<totfact> 0.39645945E-02</totfact>
</mgrwt>
</event>
<event>
 8    1  0.7046235E-006  0.9672235E+03  0.7818608E-02  0.8806012E-01
         -1   -1    0    0    0  501 -0.00000000000E+00  0.00000000000E+00  0.31505821941E+04  0.31505821941E+04  0.00000000000E+00 0.  1.
          1   -1    0    0  502    0  0.00000000000E+00 -0.00000000000E+00 -0.31577860579E+03  0.31577860579E+03  0.00000000000E+00 0. -1.
    9000010    2    1    2  502    0 -0.40774764519E+03 -0.11514124268E+03  0.12083701891E+04  0.16273756322E+04  0.10043292720E+04 0.  0.
   -9000010    2    1    2    0  501  0.40774764519E+03  0.11514124268E+03  0.16264333992E+04  0.18389851676E+04  0.74636800358E+03 0.  0.
        -13    1    3    3    0    0 -0.73649391260E+03 -0.64058152830E+01  0.90658877993E+03  0.11680614474E+04  0.10566000000E+00 0.  1.
          4    1    3    3  502    0  0.32874626742E+03 -0.10873542740E+03  0.30178140915E+03  0.45931418487E+03  0.00000000000E+00 0.  1.
         13    1    4    4    0    0 -0.15981969019E+03  0.17450680417E+03  0.22802027020E+03  0.32861560045E+03  0.10566000000E+00 0. -1.
         -4    1    4    4    0  501  0.56756733537E+03 -0.59365561481E+02  0.13984131290E+04  0.15103695672E+04  0.00000000000E+00 0. -1.
<mgrwt>
<rscale>  2 0.96722352E+03</rscale>
<asrwt>0</asrwt>
<pdfrwt beam="2">  1        1 0.48581326E-01 0.96722352E+03</pdfrwt>
<pdfrwt beam="1">  1       -1 0.48470493E+00 0.96722352E+03</pdfrwt>
<totfact> 0.11848848E+00</totfact>
</mgrwt>
</event>
<event>
 8    1  0.7046235E-006  0.1220485E+04  0.7818608E-02  0.8591294E-01
         -1   -1    0    0    0  501 -0.00000000000E+00  0.00000000000E+00  0.34039151022E+03  0.34039151022E+03  0.00000000000E+00 0.  1.
          1   -1    0    0  502    0  0.00000000000E+00 -0.00000000000E+00 -0.45176727795E+04  0.45176727795E+04  0.00000000000E+00 0. -1.
    9000010    2    1    2  502    0  0.31776952978E+03  0.60991255162E+03 -0.16469286320E+04  0.20456017517E+04  0.99957081435E+03 0.  0.
   -9000010    2    1    2    0  501 -0.31776952978E+03 -0.60991255162E+03 -0.25303526373E+04  0.28124625380E+04  0.10170006216E+04 0.  0.
        -13    1    3    3    0    0 -0.33011298688E+03  0.50143319152E+02 -0.29609180841E+03  0.44627268204E+03  0.10566000000E+00 0.  1.
          4    1    3    3  502    0  0.64788251666E+03  0.55976923247E+03 -0.13508368236E+04  0.15993290696E+04  0.00000000000E+00 0.  1.
         13    1    4    4    0    0 -0.61903253758E+03 -0.90325110551E+02 -0.12211886905E+04  0.13721012124E+04  0.10566000000E+00 0. -1.
         -4    1    4    4    0  501  0.30126300780E+03 -0.51958744107E+03 -0.13091639468E+04  0.14403613256E+04  0.00000000000E+00 0. -1.
<mgrwt>
<rscale>  2 0.12204848E+04</rscale>
<asrwt>0</asrwt>
<pdfrwt beam="2">  1        1 0.69502656E+00 0.12204848E+04</pdfrwt>
<pdfrwt beam="1">  1       -1 0.52367926E-01 0.12204848E+04</pdfrwt>
<totfact> 0.10392209E-01</totfact>
</mgrwt>
</event>
<event>
 8    1  0.7046235E-006  0.1028920E+04  0.7818608E-02  0.8747883E-01
         -2   -1    0    0    0  501 -0.00000000000E+00  0.00000000000E+00  0.11010549777E+04  0.11010549777E+04  0.00000000000E+00 0. -1.
          2   -1    0    0  502    0  0.00000000000E+00 -0.00000000000E+00 -0.96432033076E+03  0.96432033076E+03  0.00000000000E+00 0.  1.
    9000010    2    1    2  502    0 -0.16591063638E+03  0.17472613825E+03  0.12363718035E+03  0.10319619941E+04  0.99579307202E+03 0.  0.
   -9000010    2    1    2    0  501  0.16591063638E+03 -0.17472613825E+03  0.13097466623E+02  0.10334133144E+04  0.10048462430E+04 0.  0.
        -13    1    3    3    0    0 -0.17932557104E+03  0.54976657041E+03 -0.11174526102E+03  0.58897194916E+03  0.10566000000E+00 0.  1.
          4    1    3    3  502    0  0.13414934656E+02 -0.37504043217E+03  0.23538244136E+03  0.44299004496E+03  0.00000000000E+00 0.  1.
         13    1    4    4    0    0  0.34587330150E+02 -0.38605307670E+03 -0.39630342123E+03  0.55433714856E+03  0.10566000000E+00 0. -1.
         -4    1    4    4    0  501  0.13132330623E+03  0.21132693845E+03  0.40940088785E+03  0.47907616581E+03  0.00000000000E+00 0. -1.
<mgrwt>
<rscale>  2 0.10289202E+04</rscale>
<asrwt>0</asrwt>
<pdfrwt beam="2">  1        2 0.14835697E+00 0.10289202E+04</pdfrwt>
<pdfrwt beam="1">  1       -2 0.16939307E+00 0.10289202E+04</pdfrwt>
<totfact> 0.73645393E+00</totfact>
</mgrwt>
</event>
<event>
 8    1  0.7046235E-006  0.1213779E+04  0.7818608E-02  0.8596258E-01
          1   -1    0    0  502    0  0.00000000000E+00  0.00000000000E+00  0.26326731315E+04  0.26326731315E+04  0.00000000000E+00 0. -1.
         -1   -1    0    0    0  501 -0.00000000000E+00 -0.00000000000E+00 -0.77110083279E+03  0.77110083279E+03  0.00000000000E+00 0.  1.
    9000010    2    1    2  502    0 -0.49682210431E+03 -0.67149237676E+03  0.17954116235E+04  0.21431421847E+04  0.81964706468E+03 0.  0.
   -9000010    2    1    2    0  501  0.49682210431E+03  0.67149237676E+03  0.66160675181E+02  0.12606317796E+04  0.94184979340E+03 0.  0.
        -13    1    3    3    0    0  0.17672869313E+03 -0.57188401476E+02  0.66765528135E+03  0.69301308077E+03  0.10566000000E+00 0.  1.
          4    1    3    3  502    0 -0.67355079744E+03 -0.61430397529E+03  0.11277563422E+04  0.14501291039E+04  0.00000000000E+00 0.  1.
         13    1    4    4    0    0  0.31292385553E+03 -0.17964701933E+03  0.13931347703E+03  0.38678501388E+03  0.10566000000E+00 0. -1.
         -4    1    4    4    0  501  0.18389824878E+03  0.85113939609E+03 -0.73152801849E+02  0.87384676569E+03  0.00000000000E+00 0. -1.
<mgrwt>
<rscale>  2 0.12137789E+04</rscale>
<asrwt>0</asrwt>
<pdfrwt beam="1">  1        1 0.40502663E+00 0.12137789E+04</pdfrwt>
<pdfrwt beam="2">  1       -1 0.11863090E+00 0.12137789E+04</pdfrwt>
<totfact> 0.74521123E-01</totfact>
</mgrwt>
</event>
<event>
 8    1  0.7046235E-006  0.1269663E+04  0.7818608E-02  0.8555873E-01
          1   -1    0    0  502    0  0.00000000000E+00  0.00000000000E+00  0.18466440981E+04  0.18466440981E+04  0.00000000000E+00 0. -1.
         -1   -1    0    0    0  501 -0.00000000000E+00 -0.00000000000E+00 -0.91037748761E+03  0.91037748761E+03  0.00000000000E+00 0.  1.
    9000010    2    1    2  502    0 -0.25388842118E+03 -0.68503041176E+03  0.20796589612E+03  0.13300987731E+04  0.10918731322E+04 0.  0.
   -9000010    2    1    2    0  501  0.25388842118E+03  0.68503041176E+03  0.72830071433E+03  0.14269228126E+04  0.98588071649E+03 0.  0.
        -13    1    3    3    0    0  0.12512212751E+03 -0.78636099465E+03  0.40249067282E+03  0.89219835999E+03  0.10566000000E+00 0.  1.
          4    1    3    3  502    0 -0.37901054868E+03  0.10133058289E+03 -0.19452477670E+03  0.43790041310E+03  0.00000000000E+00 0.  1.
         13    1    4    4    0    0  0.18823733178E+03  0.90155140284E+03  0.34827580053E+03  0.98464423496E+03  0.10566000000E+00 0. -1.
         -4    1    4    4    0  501  0.65651089393E+02 -0.21652099108E+03  0.38002491381E+03  0.44227857763E+03  0.00000000000E+00 0. -1.
<mgrwt>
<rscale>  2 0.12696628E+04</rscale>
<asrwt>0</asrwt>
<pdfrwt beam="1">  1        1 0.28409909E+00 0.12696628E+04</pdfrwt>
<pdfrwt beam="2">  1       -1 0.14005808E+00 0.12696628E+04</pdfrwt>
<totfact> 0.21426833E+00</totfact>
</mgrwt>
</event>
<event>
 8    1  0.7046235E-006  0.1107508E+04  0.7818608E-02  0.8679668E-01
         -2   -1    0    0    0  501 -0.00000000000E+00  0.00000000000E+00  0.81888274352E+03  0.81888274352E+03  0.00000000000E+00 0.  1.
          2   -1    0    0  502    0  0.00000000000E+00 -0.00000000000E+00 -0.16399932598E+04  0.16399932598E+04  0.00000000000E+00 0. -1.
    9000010    2    1    2  502    0 -0.34751286085E+03  0.33465987113E+03 -0.42080184392E+02  0.10868753849E+04  0.97301846981E+03 0.  0.
   -9000010    2    1    2    0  501  0.34751286085E+03 -0.33465987113E+03 -0.77903033190E+03  0.13720006184E+04  0.10211439767E+04 0.  0.
        -13    1    3    3    0    0 -0.12543333562E+03 -0.11461623868E+03 -0.42399547629E+03  0.45677410055E+03  0.10566000000E+00 0.  1.
          4    1    3    3  502    0 -0.22207952523E+03  0.44927610981E+03  0.38191529189E+03  0.63010128436E+03  0.00000000000E+00 0.  1.
         13    1    4    4    0    0  0.62901850966E+03  0.72969150269E+02 -0.41210370135E+03  0.75552515128E+03  0.10566000000E+00 0. -1.
         -4    1    4    4    0  501 -0.28150564881E+03 -0.40762902139E+03 -0.36692663054E+03  0.61647546715E+03  0.00000000000E+00 0. -1.
<mgrwt>
<rscale>  2 0.11075081E+04</rscale>
<asrwt>0</asrwt>
<pdfrwt beam="2">  1        2 0.25230665E+00 0.11075081E+04</pdfrwt>
<pdfrwt beam="1">  1       -2 0.12598196E+00 0.11075081E+04</pdfrwt>
<totfact> 0.73641332E+00</totfact>
</mgrwt>
</event>
<event>
 8    1  0.7046235E-006  0.9911889E+03  0.7818608E-02  0.8782914E-01
         -2   -1    0    0    0  501 -0.00000000000E+00  0.00000000000E+00  0.96190045204E+03  0.96190045204E+03  0.00000000000E+00 0. -1.
          2   -1    0    0  502    0  0.00000000000E+00 -0.00000000000E+00 -0.12490309443E+04  0.12490309443E+04  0.00000000000E+00 0.  1.
    9000010    2    1    2  502    0 -0.25071866241E+03  0.12928452064E+03  0.33113913806E+03  0.10044538511E+04  0.90537289290E+03 0.  0.
   -9000010    2    1    2    0  501  0.25071866241E+03 -0.12928452064E+03 -0.61826963037E+03  0.12064775453E+04  0.99687331020E+03 0.  0.
        -13    1    3    3    0    0 -0.33952673682E+03 -0.33345898116E+03  0.14091893545E+03  0.49631789678E+03  0.10566000000E+00 0.  1.
          4    1    3    3  502    0  0.88808074418E+02  0.46274350180E+03  0.19022020261E+03  0.50813595427E+03  0.00000000000E+00 0.  1.
         13    1    4    4    0    0  0.30195170793E+03 -0.40761868335E+03 -0.74099901926E+03  0.89800188343E+03  0.10566000000E+00 0. -1.
         -4    1    4    4    0  501 -0.51233045524E+02  0.27833416271E+03  0.12272938889E+03  0.30847566190E+03  0.00000000000E+00 0. -1.
<mgrwt>
<rscale>  2 0.99118895E+03</rscale>
<asrwt>0</asrwt>
<pdfrwt beam="2">  1        2 0.19215861E+00 0.99118895E+03</pdfrwt>
<pdfrwt beam="1">  1       -2 0.14798469E+00 0.99118895E+03</pdfrwt>
<totfact> 0.77240749E+00</totfact>
</mgrwt>
</event>
<event>
 8    1  0.7046235E-006  0.1700508E+04  0.7818608E-02  0.8302611E-01
          2   -1    0    0  502    0  0.00000000000E+00  0.00000000000E+00  0.22668456614E+04  0.22668456614E+04  0.00000000000E+00 0.  1.
         -2   -1    0    0    0  501 -0.00000000000E+00 -0.00000000000E+00 -0.12803102209E+04  0.12803102209E+04  0.00000000000E+00 0. -1.
    9000010    2    1    2  502    0 -0.51342142324E+03 -0.12540424384E+04  0.60238174423E+03  0.18128456338E+04  0.10427471079E+04 0.  0.
   -9000010    2    1    2    0  501  0.51342142324E+03  0.12540424384E+04  0.38415369623E+03  0.17343102485E+04  0.10119456410E+04 0.  0.
        -13    1    3    3    0    0 -0.33145898963E+03 -0.91603582298E+03  0.90065473138E+03  0.13267123453E+04  0.10566000000E+00 0.  1.
          4    1    3    3  502    0 -0.18196243361E+03 -0.33800661547E+03 -0.29827298715E+03  0.48613328852E+03  0.00000000000E+00 0.  1.
         13    1    4    4    0    0 -0.23282842480E+03  0.45641535002E+01  0.17851538035E+02  0.23355640746E+03  0.10566000000E+00 0. -1.
         -4    1    4    4    0  501  0.74624984804E+03  0.12494782849E+04  0.36630215819E+03  0.15007538410E+04  0.00000000000E+00 0. -1.
<mgrwt>
<rscale>  2 0.17005083E+04</rscale>
<asrwt>0</asrwt>
<pdfrwt beam="1">  1        2 0.34874548E+00 0.17005083E+04</pdfrwt>
<pdfrwt beam="2">  1       -2 0.19697080E+00 0.17005083E+04</pdfrwt>
<totfact> 0.75961535E-01</totfact>
</mgrwt>
</event>
<event>
 8    1  0.7046235E-006  0.1339167E+04  0.7818608E-02  0.8508542E-01
          1   -1    0    0  502    0  0.00000000000E+00  0.00000000000E+00  0.18823535125E+04  0.18823535125E+04  0.00000000000E+00 0. -1.
         -1   -1    0    0    0  501 -0.00000000000E+00 -0.00000000000E+00 -0.11240992164E+04  0.11240992164E+04  0.00000000000E+00 0.  1.
    9000010    2    1    2  502    0  0.27837221294E+03  0.84335164929E+03  0.96501124915E+03  0.16471452748E+04  0.99654791756E+03 0.  0.
   -9000010    2    1    2    0  501 -0.27837221294E+03 -0.84335164929E+03 -0.20675695310E+03  0.13593074541E+04  0.10080849289E+04 0.  0.
        -13    1    3    3    0    0  0.44380940763E+03  0.72410161008E+03  0.11094788687E+04  0.13972234264E+04  0.10566000000E+00 0.  1.
          4    1    3    3  502    0 -0.16543719469E+03  0.11925003922E+03 -0.14446761950E+03  0.24992184844E+03  0.00000000000E+00 0.  1.
         13    1    4    4    0    0 -0.44495748928E+03 -0.98588964887E+03 -0.37444105685E+02  0.10822973895E+04  0.10566000000E+00 0. -1.
         -4    1    4    4    0  501  0.16658527634E+03  0.14253799958E+03 -0.16931284741E+03  0.27701006465E+03  0.00000000000E+00 0. -1.
<mgrwt>
<rscale>  2 0.13391666E+04</rscale>
<asrwt>0</asrwt>
<pdfrwt beam="1">  1        1 0.28959285E+00 0.13391666E+04</pdfrwt>
<pdfrwt beam="2">  1       -1 0.17293834E+00 0.13391666E+04</pdfrwt>
<totfact> 0.10340724E+00</totfact>
</mgrwt>
</event>
<event>
 8    1  0.7046235E-006  0.1266473E+04  0.7818608E-02  0.8558120E-01
          2   -1    0    0  502    0  0.00000000000E+00  0.00000000000E+00  0.38797132520E+03  0.38797132520E+03  0.00000000000E+00 0.  1.
         -2   -1    0    0    0  501 -0.00000000000E+00 -0.00000000000E+00 -0.47568446302E+04  0.47568446302E+04  0.00000000000E+00 0. -1.
    9000010    2    1    2  502    0 -0.24050074723E+03  0.73508817934E+03 -0.12355994514E+04  0.17606008968E+04  0.98732683181E+03 0.  0.
   -9000010    2    1    2    0  501  0.24050074723E+03 -0.73508817934E+03 -0.31332738536E+04  0.33842150586E+04  0.10184847962E+04 0.  0.
        -13    1    3    3    0    0 -0.49400080188E+03  0.80819885662E+03 -0.11347911899E+04  0.14781654981E+04  0.10566000000E+00 0.  1.
          4    1    3    3  502    0  0.25350005465E+03 -0.73110677273E+02 -0.10080826147E+03  0.28243539866E+03  0.00000000000E+00 0.  1.
         13    1    4    4    0    0  0.29011008626E+03  0.19354521976E+03 -0.83045905270E+03  0.90071408539E+03  0.10566000000E+00 0. -1.
         -4    1    4    4    0  501 -0.49609339026E+02 -0.92863339911E+03 -0.23028148009E+04  0.24835009732E+04  0.00000000000E+00 0. -1.
<mgrwt>
<rscale>  2 0.12664729E+04</rscale>
<asrwt>0</asrwt>
<pdfrwt beam="1">  1        2 0.59687899E-01 0.12664729E+04</pdfrwt>
<pdfrwt beam="2">  1       -2 0.73182222E+00 0.12664729E+04</pdfrwt>
<totfact> 0.43326719E-02</totfact>
</mgrwt>
</event>
<event>
 8    1  0.7046235E-006  0.1160841E+04  0.7818608E-02  0.8636648E-01
          1   -1    0    0  502    0  0.00000000000E+00  0.00000000000E+00  0.13849721160E+04  0.13849721160E+04  0.00000000000E+00 0.  1.
         -1   -1    0    0    0  501 -0.00000000000E+00 -0.00000000000E+00 -0.12834071624E+04  0.12834071624E+04  0.00000000000E+00 0. -1.
    9000010    2    1    2  502    0  0.61459894863E+03 -0.29975308784E+03 -0.60478291124E+03  0.12672786424E+04  0.87900455432E+03 0.  0.
   -9000010    2    1    2    0  501 -0.61459894863E+03  0.29975308784E+03  0.70634786485E+03  0.14011006359E+04  0.99828448070E+03 0.  0.
        -13    1    3    3    0    0  0.18870630415E+03 -0.10984034148E+03  0.22620386157E+03  0.31439333325E+03  0.10566000000E+00 0.  1.
          4    1    3    3  502    0  0.42589264449E+03 -0.18991274635E+03 -0.83098677281E+03  0.95288530918E+03  0.00000000000E+00 0.  1.
         13    1    4    4    0    0  0.49453479639E+02 -0.28193854479E+03  0.27669931886E+02  0.28757716526E+03  0.10566000000E+00 0. -1.
         -4    1    4    4    0  501 -0.66405242827E+03  0.58169163263E+03  0.67867793296E+03  0.11135234706E+04  0.00000000000E+00 0. -1.
<mgrwt>
<rscale>  2 0.11608407E+04</rscale>
<asrwt>0</asrwt>
<pdfrwt beam="1">  1        1 0.21307263E+00 0.11608407E+04</pdfrwt>
<pdfrwt beam="2">  1       -1 0.19744726E+00 0.11608407E+04</pdfrwt>
<totfact> 0.15185803E+00</totfact>
</mgrwt>
</event>
<event>
 8    1  0.7046235E-006  0.1075467E+04  0.7818608E-02  0.8706746E-01
         -2   -1    0    0    0  501 -0.00000000000E+00  0.00000000000E+00  0.50096265992E+03  0.50096265992E+03  0.00000000000E+00 0. -1.
          2   -1    0    0  502    0  0.00000000000E+00 -0.00000000000E+00 -0.23442779176E+04  0.23442779176E+04  0.00000000000E+00 0.  1.
    9000010    2    1    2  502    0 -0.29083519215E+03  0.12889123601E+03 -0.73407048590E+03  0.12885676997E+04  0.10101233483E+04 0.  0.
   -9000010    2    1    2    0  501  0.29083519215E+03 -0.12889123601E+03 -0.11092447718E+04  0.15566728778E+04  0.10448006628E+04 0.  0.
        -13    1    3    3    0    0 -0.41667712538E+03 -0.34472013521E+03 -0.53166970953E+03  0.75836962599E+03  0.10566000000E+00 0.  1.
          4    1    3    3  502    0  0.12584193323E+03  0.47361137122E+03 -0.20240077637E+03  0.53019807372E+03  0.00000000000E+00 0.  1.
         13    1    4    4    0    0  0.69701361149E+02 -0.57974173579E+03 -0.51413569376E+03  0.77800660841E+03  0.10566000000E+00 0. -1.
         -4    1    4    4    0  501  0.22113383100E+03  0.45085049978E+03 -0.59510907802E+03  0.77866626941E+03  0.00000000000E+00 0. -1.
<mgrwt>
<rscale>  2 0.10754665E+04</rscale>
<asrwt>0</asrwt>
<pdfrwt beam="2">  1        2 0.36065813E+00 0.10754665E+04</pdfrwt>
<pdfrwt beam="1">  1       -2 0.77071180E-01 0.10754665E+04</pdfrwt>
<totfact> 0.99523621E+00</totfact>
</mgrwt>
</event>
<event>
 8    1  0.7046235E-006  0.1279889E+04  0.7818608E-02  0.8548716E-01
         -1   -1    0    0    0  501 -0.00000000000E+00  0.00000000000E+00  0.64495042732E+03  0.64495042732E+03  0.00000000000E+00 0. -1.
          1   -1    0    0  502    0  0.00000000000E+00 -0.00000000000E+00 -0.31144278008E+04  0.31144278008E+04  0.00000000000E+00 0.  1.
    9000010    2    1    2  502    0 -0.80040634340E+03 -0.21284694069E+03 -0.44377889425E+03  0.13738313338E+04  0.10022567995E+04 0.  0.
   -9000010    2    1    2    0  501  0.80040634340E+03  0.21284694069E+03 -0.20256984792E+04  0.23855468943E+04  0.94943431650E+03 0.  0.
        -13    1    3    3    0    0 -0.66176868531E+03  0.30428203865E+03 -0.41355714066E+03  0.83758872465E+03  0.10566000000E+00 0.  1.
          4    1    3    3  502    0 -0.13863765809E+03 -0.51712897934E+03 -0.30221753591E+02  0.53624260919E+03  0.00000000000E+00 0.  1.
         13    1    4    4    0    0  0.24565233504E+03  0.54367796346E+03 -0.77634652316E+03  0.97910404598E+03  0.10566000000E+00 0. -1.
         -4    1    4    4    0  501  0.55475400836E+03 -0.33083102277E+03 -0.12493519561E+04  0.14064428483E+04  0.00000000000E+00 0. -1.
<mgrwt>
<rscale>  2 0.12798888E+04</rscale>
<asrwt>0</asrwt>
<pdfrwt beam="2">  1        1 0.47914274E+00 0.12798888E+04</pdfrwt>
<pdfrwt beam="1">  1       -1 0.99223142E-01 0.12798888E+04</pdfrwt>
<totfact> 0.35156689E-01</totfact>
</mgrwt>
</event>
<event>
 8    1  0.7046235E-006  0.2275005E+04  0.7818608E-02  0.8064803E-01
          2   -1    0    0  502    0  0.00000000000E+00  0.00000000000E+00  0.39020171255E+04  0.39020171255E+04  0.00000000000E+00 0.  1.
         -2   -1    0    0    0  501 -0.00000000000E+00 -0.00000000000E+00 -0.17201960682E+04  0.17201960682E+04  0.00000000000E+00 0. -1.
    9000010    2    1    2  502    0  0.18584447234E+04 -0.84508240585E+03  0.24362875781E+04  0.33340374720E+04  0.10061449392E+04 0.  0.
   -9000010    2    1    2    0  501 -0.18584447234E+04  0.84508240585E+03 -0.25446652080E+03  0.22881757218E+04  0.10015057967E+04 0.  0.
        -13    1    3    3    0    0  0.11736632451E+04 -0.82006981356E+02  0.87514611871E+03  0.14663189620E+04  0.10566000000E+00 0.  1.
          4    1    3    3  502    0  0.68478147830E+03 -0.76307542450E+03  0.15611414594E+04  0.18677185100E+04  0.00000000000E+00 0.  1.
         13    1    4    4    0    0 -0.19542164045E+04  0.85764011984E+03 -0.14045212465E+03  0.21387461611E+04  0.10566000000E+00 0. -1.
         -4    1    4    4    0  501  0.95771681112E+02 -0.12557713992E+02 -0.11401439616E+03  0.14942956071E+03  0.00000000000E+00 0. -1.
<mgrwt>
<rscale>  2 0.22750054E+04</rscale>
<asrwt>0</asrwt>
<pdfrwt beam="1">  1        2 0.60031032E+00 0.22750054E+04</pdfrwt>
<pdfrwt beam="2">  1       -2 0.26464555E+00 0.22750054E+04</pdfrwt>
<totfact> 0.16702884E-02</totfact>
</mgrwt>
</event>
<event>
 8    1  0.7046235E-006  0.1165459E+04  0.7818608E-02  0.8633037E-01
          2   -1    0    0  502    0  0.00000000000E+00  0.00000000000E+00  0.12208138596E+04  0.12208138596E+04  0.00000000000E+00 0. -1.
         -2   -1    0    0    0  501 -0.00000000000E+00 -0.00000000000E+00 -0.12950691231E+04  0.12950691231E+04  0.00000000000E+00 0.  1.
    9000010    2    1    2  502    0  0.52545893310E+03  0.32341608004E+03 -0.50924935194E+03  0.12705260649E+04  0.98701394517E+03 0.  0.
   -9000010    2    1    2    0  501 -0.52545893310E+03 -0.32341608004E+03  0.43499408843E+03  0.12453569178E+04  0.99044886019E+03 0.  0.
        -13    1    3    3    0    0  0.34667780181E+03 -0.86561195924E+02 -0.69872071653E+03  0.78478595157E+03  0.10566000000E+00 0.  1.
          4    1    3    3  502    0  0.17878113129E+03  0.40997727597E+03  0.18947136459E+03  0.48574011335E+03  0.00000000000E+00 0.  1.
         13    1    4    4    0    0 -0.28507148499E+03 -0.55681128178E+03 -0.80337702252E+02  0.63068114974E+03  0.10566000000E+00 0. -1.
         -4    1    4    4    0  501 -0.24038744812E+03  0.23339520174E+03  0.51533179069E+03  0.61467576811E+03  0.00000000000E+00 0. -1.
<mgrwt>
<rscale>  2 0.11654585E+04</rscale>
<asrwt>0</asrwt>
<pdfrwt beam="1">  1        2 0.18781752E+00 0.11654585E+04</pdfrwt>
<pdfrwt beam="2">  1       -2 0.19924140E+00 0.11654585E+04</pdfrwt>
<totfact> 0.28963090E+00</totfact>
</mgrwt>
</event>
<event>
 8    1  0.7046235E-006  0.1088049E+04  0.7818608E-02  0.8695997E-01
         -2   -1    0    0    0  501 -0.00000000000E+00  0.00000000000E+00  0.13722821870E+04  0.13722821870E+04  0.00000000000E+00 0.  1.
          2   -1    0    0  502    0  0.00000000000E+00 -0.00000000000E+00 -0.10494859037E+04  0.10494859037E+04  0.00000000000E+00 0. -1.
    9000010    2    1    2  502    0  0.37715719255E+03 -0.14164211385E+03 -0.34933262139E+03  0.11437383207E+04  0.10118270749E+04 0.  0.
   -9000010    2    1    2    0  501 -0.37715719255E+03  0.14164211385E+03  0.67212890460E+03  0.12780297701E+04  0.10096003132E+04 0.  0.
        -13    1    3    3    0    0 -0.31213128091E+03 -0.22902591835E+03 -0.62947935105E+02  0.39222603368E+03  0.10566000000E+00 0.  1.
          4    1    3    3  502    0  0.68928847347E+03  0.87383804495E+02 -0.28638468628E+03  0.75151228698E+03  0.00000000000E+00 0.  1.
         13    1    4    4    0    0  0.15397067153E+03 -0.33171010820E+03  0.31157357446E+03  0.48043383211E+03  0.10566000000E+00 0. -1.
         -4    1    4    4    0  501 -0.53112786408E+03  0.47335222205E+03  0.36055533014E+03  0.79759593794E+03  0.00000000000E+00 0. -1.
<mgrwt>
<rscale>  2 0.10880493E+04</rscale>
<asrwt>0</asrwt>
<pdfrwt beam="2">  1        2 0.16145937E+00 0.10880493E+04</pdfrwt>
<pdfrwt beam="1">  1       -2 0.21112034E+00 0.10880493E+04</pdfrwt>
<totfact> 0.29324165E+00</totfact>
</mgrwt>
</event>
<event>
 8    1  0.7046235E-006  0.1331293E+04  0.7818608E-02  0.8513753E-01
         -1   -1    0    0    0  501 -0.00000000000E+00  0.00000000000E+00  0.15253393752E+04  0.15253393752E+04  0.00000000000E+00 0.  1.
          1   -1    0    0  502    0  0.00000000000E+00 -0.00000000000E+00 -0.12065590756E+04  0.12065590756E+04  0.00000000000E+00 0. -1.
    9000010    2    1    2  502    0 -0.28243856024E+03  0.82021992958E+03 -0.10485735570E+03  0.13000923323E+04  0.96265919949E+03 0.  0.
   -9000010    2    1    2    0  501  0.28243856024E+03 -0.82021992958E+03  0.42363765525E+03  0.14318061184E+04  0.10573871688E+04 0.  0.
        -13    1    3    3    0    0 -0.33754014289E+03  0.17705294252E+03 -0.43224431037E+03  0.57629527807E+03  0.10566000000E+00 0.  1.
          4    1    3    3  502    0  0.55101582655E+02  0.64316698706E+03  0.32738695468E+03  0.72379705426E+03  0.00000000000E+00 0.  1.
         13    1    4    4    0    0 -0.13076867379E+03 -0.70686049999E+03  0.63034287843E+03  0.95607759520E+03  0.10566000000E+00 0. -1.
         -4    1    4    4    0  501  0.41320723403E+03 -0.11335942959E+03 -0.20670522318E+03  0.47572852324E+03  0.00000000000E+00 0. -1.
<mgrwt>
<rscale>  2 0.13312933E+04</rscale>
<asrwt>0</asrwt>
<pdfrwt beam="2">  1        1 0.18562447E+00 0.13312933E+04</pdfrwt>
<pdfrwt beam="1">  1       -1 0.23466760E+00 0.13312933E+04</pdfrwt>
<totfact> 0.92143721E-01</totfact>
</mgrwt>
</event>
<event>
 8    1  0.7046235E-006  0.1130433E+04  0.7818608E-02  0.8660874E-01
         -1   -1    0    0    0  501 -0.00000000000E+00  0.00000000000E+00  0.15751980948E+04  0.15751980948E+04  0.00000000000E+00 0.  1.
          1   -1    0    0  502    0  0.00000000000E+00 -0.00000000000E+00 -0.81434829408E+03  0.81434829408E+03  0.00000000000E+00 0. -1.
    9000010    2    1    2  502    0 -0.53290873295E+03  0.65701892015E+02  0.30788254157E+03  0.11747229399E+04  0.99843571142E+03 0.  0.
   -9000010    2    1    2    0  501  0.53290873295E+03 -0.65701892015E+02  0.45296725911E+03  0.12148234490E+04  0.99111463416E+03 0.  0.
        -13    1    3    3    0    0  0.26054498873E+03  0.17709203540E+03  0.18151824309E+03  0.36358515356E+03  0.10566000000E+00 0.  1.
          4    1    3    3  502    0 -0.79345372167E+03 -0.11139014338E+03  0.12636429848E+03  0.81113778633E+03  0.00000000000E+00 0.  1.
         13    1    4    4    0    0 -0.43286474145E+02 -0.16162877554E+03 -0.25000735336E+03  0.30083428632E+03  0.10566000000E+00 0. -1.
         -4    1    4    4    0  501  0.57619520709E+03  0.95926883527E+02  0.70297461247E+03  0.91398916265E+03  0.00000000000E+00 0. -1.
<mgrwt>
<rscale>  2 0.11304330E+04</rscale>
<asrwt>0</asrwt>
<pdfrwt beam="2">  1        1 0.12528435E+00 0.11304330E+04</pdfrwt>
<pdfrwt beam="1">  1       -1 0.24233817E+00 0.11304330E+04</pdfrwt>
<totfact> 0.16724924E+00</totfact>
</mgrwt>
</event>
<event>
 8    1  0.7046235E-006  0.1847749E+04  0.7818608E-02  0.8233364E-01
         -1   -1    0    0    0  501 -0.00000000000E+00  0.00000000000E+00  0.14240061967E+04  0.14240061967E+04  0.00000000000E+00 0. -1.
          1   -1    0    0  502    0  0.00000000000E+00 -0.00000000000E+00 -0.25430158880E+04  0.25430158880E+04  0.00000000000E+00 0.  1.
    9000010    2    1    2  502    0 -0.66895720103E+03  0.14111450090E+04 -0.83755474638E+02  0.18446024191E+04  0.97811509143E+03 0.  0.
   -9000010    2    1    2    0  501  0.66895720103E+03 -0.14111450090E+04 -0.10352542166E+04  0.21224196655E+04  0.99703559141E+03 0.  0.
        -13    1    3    3    0    0 -0.88689083438E+03  0.12123783784E+04 -0.22268185552E+03  0.15185598126E+04  0.10566000000E+00 0.  1.
          4    1    3    3  502    0  0.21793363335E+03  0.19876663054E+03  0.13892638089E+03  0.32604260653E+03  0.00000000000E+00 0.  1.
         13    1    4    4    0    0  0.69479366135E+03 -0.15553027060E+04 -0.98419818565E+03  0.19673207209E+04  0.10566000000E+00 0. -1.
         -4    1    4    4    0  501 -0.25836460325E+02  0.14415769709E+03 -0.51056030947E+02  0.15509894458E+03  0.00000000000E+00 0. -1.
<mgrwt>
<rscale>  2 0.18477493E+04</rscale>
<asrwt>0</asrwt>
<pdfrwt beam="2">  1        1 0.39123321E+00 0.18477493E+04</pdfrwt>
<pdfrwt beam="1">  1       -1 0.21907788E+00 0.18477493E+04</pdfrwt>
<totfact> 0.10707226E-01</totfact>
</mgrwt>
</event>
<event>
 8    1  0.7046235E-006  0.1086131E+04  0.7818608E-02  0.8697625E-01
         -4   -1    0    0    0  501 -0.00000000000E+00  0.00000000000E+00  0.11984599342E+04  0.11984599342E+04  0.00000000000E+00 0. -1.
          4   -1    0    0  502    0  0.00000000000E+00 -0.00000000000E+00 -0.11896024749E+04  0.11896024749E+04  0.00000000000E+00 0.  1.
    9000010    2    1    2  502    0  0.34779335734E+02 -0.47882966023E+03  0.49993094820E+03  0.12158288449E+04  0.99891009673E+03 0.  0.
   -9000010    2    1    2    0  501 -0.34779335734E+02  0.47882966023E+03 -0.49107348893E+03  0.11722335643E+04  0.94999521683E+03 0.  0.
        -13    1    3    3    0    0 -0.71421245063E+02 -0.17317944391E+03 -0.29957681408E+03  0.35332476949E+03  0.10566000000E+00 0.  1.
          4    1    3    3  502    0  0.10620058080E+03 -0.30565021632E+03  0.79950776228E+03  0.86250407538E+03  0.00000000000E+00 0.  1.
         13    1    4    4    0    0  0.58485850075E+02 -0.85260381383E+02 -0.58391370780E+03  0.59299675937E+03  0.10566000000E+00 0. -1.
         -4    1    4    4    0  501 -0.93265185809E+02  0.56409004161E+03  0.92840218878E+02  0.57923680492E+03  0.00000000000E+00 0. -1.
<mgrwt>
<rscale>  2 0.10861312E+04</rscale>
<asrwt>0</asrwt>
<pdfrwt beam="2">  1        4 0.18301577E+00 0.10861312E+04</pdfrwt>
<pdfrwt beam="1">  1       -4 0.18437845E+00 0.10861312E+04</pdfrwt>
<totfact> 0.22766039E-01</totfact>
</mgrwt>
</event>
<event>
 8    1  0.7046235E-006  0.1557573E+04  0.7818608E-02  0.8377115E-01
         -2   -1    0    0    0  501 -0.00000000000E+00  0.00000000000E+00  0.35495508955E+04  0.35495508955E+04  0.00000000000E+00 0. -1.
          2   -1    0    0  502    0  0.00000000000E+00 -0.00000000000E+00 -0.69676969475E+03  0.69676969475E+03  0.00000000000E+00 0.  1.
    9000010    2    1    2  502    0 -0.11613509646E+04  0.25641285913E+03  0.17222776741E+04  0.23241105608E+04  0.10103295971E+04 0.  0.
   -9000010    2    1    2    0  501  0.11613509646E+04 -0.25641285913E+03  0.11305035267E+04  0.19222100295E+04  0.10011840772E+04 0.  0.
        -13    1    3    3    0    0  0.13019285504E+03  0.21835585205E+03  0.17681707702E+03  0.30966715603E+03  0.10566000000E+00 0.  1.
          4    1    3    3  502    0 -0.12915438197E+04  0.38057007073E+02  0.15454605971E+04  0.20144434047E+04  0.00000000000E+00 0.  1.
         13    1    4    4    0    0  0.21917361073E+03  0.15343409071E+03 -0.12880279832E+03  0.29693309659E+03  0.10566000000E+00 0. -1.
         -4    1    4    4    0  501  0.94217735388E+03 -0.40984694984E+03  0.12593063250E+04  0.16252769329E+04  0.00000000000E+00 0. -1.
<mgrwt>
<rscale>  2 0.15575731E+04</rscale>
<asrwt>0</asrwt>
<pdfrwt beam="2">  1        2 0.10719534E+00 0.15575731E+04</pdfrwt>
<pdfrwt beam="1">  1       -2 0.54608474E+00 0.15575731E+04</pdfrwt>
<totfact> 0.20595570E-01</totfact>
</mgrwt>
</event>
<event>
 8    1  0.7046235E-006  0.1183505E+04  0.7818608E-02  0.8619088E-01
         -1   -1    0    0    0  501 -0.00000000000E+00  0.00000000000E+00  0.72270367644E+03  0.72270367644E+03  0.00000000000E+00 0.  1.
          1   -1    0    0  502    0  0.00000000000E+00 -0.00000000000E+00 -0.19692706834E+04  0.19692706834E+04  0.00000000000E+00 0. -1.
    9000010    2    1    2  502    0  0.31517113042E+03  0.46036628198E+03 -0.76474543577E+03  0.13753885269E+04  0.99779159319E+03 0.  0.
   -9000010    2    1    2    0  501 -0.31517113042E+03 -0.46036628198E+03 -0.48182157115E+03  0.13165858329E+04  0.10908603365E+04 0.  0.
        -13    1    3    3    0    0  0.43861284093E+03  0.16071967249E+03 -0.90795837018E+03  0.10210780825E+04  0.10566000000E+00 0.  1.
          4    1    3    3  502    0 -0.12344171051E+03  0.29964660949E+03  0.14321293441E+03  0.35431044447E+03  0.00000000000E+00 0.  1.
         13    1    4    4    0    0  0.10755273858E+03 -0.69003970378E+03 -0.10657040629E+03  0.70645569361E+03  0.10566000000E+00 0. -1.
         -4    1    4    4    0  501 -0.42272386900E+03  0.22967342179E+03 -0.37525116487E+03  0.61013013926E+03  0.00000000000E+00 0. -1.
<mgrwt>
<rscale>  2 0.11835050E+04</rscale>
<asrwt>0</asrwt>
<pdfrwt beam="2">  1        1 0.30296472E+00 0.11835050E+04</pdfrwt>
<pdfrwt beam="1">  1       -1 0.11118518E+00 0.11835050E+04</pdfrwt>
<totfact> 0.31536536E+00</totfact>
</mgrwt>
</event>
<event>
 8    1  0.7046235E-006  0.1333940E+04  0.7818608E-02  0.8511997E-01
         -2   -1    0    0    0  501 -0.00000000000E+00  0.00000000000E+00  0.11780390454E+04  0.11780390454E+04  0.00000000000E+00 0. -1.
          2   -1    0    0  502    0  0.00000000000E+00 -0.00000000000E+00 -0.15476160066E+04  0.15476160066E+04  0.00000000000E+00 0.  1.
    9000010    2    1    2  502    0  0.57903666823E+03 -0.65974129896E+03 -0.39638815858E+03  0.13951914616E+04  0.10094025944E+04 0.  0.
   -9000010    2    1    2    0  501 -0.57903666823E+03  0.65974129896E+03  0.26811197388E+02  0.13304635903E+04  0.99943608103E+03 0.  0.
        -13    1    3    3    0    0  0.78659251180E+03 -0.35229547023E+03 -0.13365273883E+02  0.86198522011E+03  0.10566000000E+00 0.  1.
          4    1    3    3  502    0 -0.20755584358E+03 -0.30744582873E+03 -0.38302288470E+03  0.53320624153E+03  0.00000000000E+00 0.  1.
         13    1    4    4    0    0 -0.72530696990E+03  0.36921441829E+03 -0.30186172175E+03  0.86804953631E+03  0.10566000000E+00 0. -1.
         -4    1    4    4    0  501  0.14627030168E+03  0.29052688067E+03  0.32867291914E+03  0.46241405398E+03  0.00000000000E+00 0. -1.
<mgrwt>
<rscale>  2 0.13339404E+04</rscale>
<asrwt>0</asrwt>
<pdfrwt beam="2">  1        2 0.23809477E+00 0.13339404E+04</pdfrwt>
<pdfrwt beam="1">  1       -2 0.18123678E+00 0.13339404E+04</pdfrwt>
<totfact> 0.26436760E+00</totfact>
</mgrwt>
</event>
<event>
 8    1  0.7046235E-006  0.1280084E+04  0.7818608E-02  0.8548580E-01
          1   -1    0    0  502    0  0.00000000000E+00  0.00000000000E+00  0.12994316489E+04  0.12994316489E+04  0.00000000000E+00 0.  1.
         -1   -1    0    0    0  501 -0.00000000000E+00 -0.00000000000E+00 -0.14066497338E+04  0.14066497338E+04  0.00000000000E+00 0. -1.
    9000010    2    1    2  502    0  0.61448381352E+03 -0.54441350663E+03 -0.48885391147E+03  0.13679029478E+04  0.97887890187E+03 0.  0.
   -9000010    2    1    2    0  501 -0.61448381352E+03  0.54441350663E+03  0.38163582658E+03  0.13381784350E+04  0.98544365463E+03 0.  0.
        -13    1    3    3    0    0  0.63403330222E+03 -0.17613097421E+03  0.10745850431E+03  0.66675909421E+03  0.10566000000E+00 0.  1.
          4    1    3    3  502    0 -0.19549488701E+02 -0.36828253242E+03 -0.59631241578E+03  0.70114385358E+03  0.00000000000E+00 0.  1.
         13    1    4    4    0    0 -0.91935297500E+02 -0.74164689494E+02  0.50540389361E+03  0.51902370556E+03  0.10566000000E+00 0. -1.
         -4    1    4    4    0  501 -0.52254851602E+03  0.61857819612E+03 -0.12376806704E+03  0.81915472942E+03  0.00000000000E+00 0. -1.
<mgrwt>
<rscale>  2 0.12800841E+04</rscale>
<asrwt>0</asrwt>
<pdfrwt beam="1">  1        1 0.19991256E+00 0.12800841E+04</pdfrwt>
<pdfrwt beam="2">  1       -1 0.21640765E+00 0.12800841E+04</pdfrwt>
<totfact> 0.11659546E+00</totfact>
</mgrwt>
</event>
<event>
 8    1  0.7046235E-006  0.1949793E+04  0.7818608E-02  0.8189145E-01
         -2   -1    0    0    0  501 -0.00000000000E+00  0.00000000000E+00  0.41730198828E+04  0.41730198828E+04  0.00000000000E+00 0.  1.
          2   -1    0    0  502    0  0.00000000000E+00 -0.00000000000E+00 -0.92814346269E+03  0.92814346269E+03  0.00000000000E+00 0. -1.
    9000010    2    1    2  502    0 -0.42578459954E+03 -0.16096787934E+04  0.12740813425E+04  0.23272127967E+04  0.10100880114E+04 0.  0.
   -9000010    2    1    2    0  501  0.42578459954E+03  0.16096787934E+04  0.19707950776E+04  0.27739505488E+04  0.10190240752E+04 0.  0.
        -13    1    3    3    0    0 -0.44490507967E+03 -0.30415500698E+03  0.56441420695E+02  0.54188231501E+03  0.10566000000E+00 0.  1.
          4    1    3    3  502    0  0.19120480131E+02 -0.13055237865E+04  0.12176399218E+04  0.17853304817E+04  0.00000000000E+00 0.  1.
         13    1    4    4    0    0 -0.16727578039E+03  0.31448410904E+03  0.96913224456E+03  0.10325205858E+04  0.10566000000E+00 0. -1.
         -4    1    4    4    0  501  0.59306037993E+03  0.12951946844E+04  0.10016628330E+04  0.17414299629E+04  0.00000000000E+00 0. -1.
<mgrwt>
<rscale>  2 0.19497927E+04</rscale>
<asrwt>0</asrwt>
<pdfrwt beam="2">  1        2 0.14279130E+00 0.19497927E+04</pdfrwt>
<pdfrwt beam="1">  1       -2 0.64200305E+00 0.19497927E+04</pdfrwt>
<totfact> 0.14239074E-01</totfact>
</mgrwt>
</event>
<event>
 8    1  0.7046235E-006  0.1612163E+04  0.7818608E-02  0.8347721E-01
          4   -1    0    0  502    0  0.00000000000E+00  0.00000000000E+00  0.14003626607E+04  0.14003626607E+04  0.00000000000E+00 0.  1.
         -4   -1    0    0    0  501 -0.00000000000E+00 -0.00000000000E+00 -0.20697201253E+04  0.20697201253E+04  0.00000000000E+00 0. -1.
    9000010    2    1    2  502    0  0.12269458350E+03 -0.12599743662E+04  0.22281500434E+03  0.16277521228E+04  0.99866965654E+03 0.  0.
   -9000010    2    1    2    0  501 -0.12269458350E+03  0.12599743662E+04 -0.89217246896E+03  0.18423306632E+04  0.99780819485E+03 0.  0.
        -13    1    3    3    0    0  0.49459670994E+03 -0.10961199449E+04  0.21284224198E+03  0.12212316203E+04  0.10566000000E+00 0.  1.
          4    1    3    3  502    0 -0.37190212645E+03 -0.16385442127E+03  0.99727623618E+01  0.40652050257E+03  0.00000000000E+00 0.  1.
         13    1    4    4    0    0 -0.56114264072E+03  0.67585060903E+03 -0.43021953797E+03  0.97813290047E+03  0.10566000000E+00 0. -1.
         -4    1    4    4    0  501  0.43844805722E+03  0.58412375718E+03 -0.46195293099E+03  0.86419776269E+03  0.00000000000E+00 0. -1.
<mgrwt>
<rscale>  2 0.16121633E+04</rscale>
<asrwt>0</asrwt>
<pdfrwt beam="1">  1        4 0.21544041E+00 0.16121633E+04</pdfrwt>
<pdfrwt beam="2">  1       -4 0.31841848E+00 0.16121633E+04</pdfrwt>
<totfact> 0.79660860E-02</totfact>
</mgrwt>
</event>
<event>
 8    1  0.7046235E-006  0.1438503E+04  0.7818608E-02  0.8445795E-01
         -2   -1    0    0    0  501 -0.00000000000E+00  0.00000000000E+00  0.10863360898E+04  0.10863360898E+04  0.00000000000E+00 0.  1.
          2   -1    0    0  502    0  0.00000000000E+00 -0.00000000000E+00 -0.20380250553E+04  0.20380250553E+04  0.00000000000E+00 0. -1.
    9000010    2    1    2  502    0 -0.10337923760E+04 -0.26765179300E+03 -0.73597720373E+02  0.14306372708E+04  0.94917976023E+03 0.  0.
   -9000010    2    1    2    0  501  0.10337923760E+04  0.26765179300E+03 -0.87809124507E+03  0.16937238743E+04  0.97841308707E+03 0.  0.
        -13    1    3    3    0    0 -0.11195227873E+04 -0.46530632391E+03 -0.44006377466E+02  0.12131685039E+04  0.10566000000E+00 0.  1.
          4    1    3    3  502    0  0.85730411333E+02  0.19765453090E+03 -0.29591342907E+02  0.21746876693E+03  0.00000000000E+00 0.  1.
         13    1    4    4    0    0  0.56324677983E+03  0.26306293952E+03 -0.10267117026E+04  0.12002441321E+04  0.10566000000E+00 0. -1.
         -4    1    4    4    0  501  0.47054559613E+03  0.45888534846E+01  0.14862045755E+03  0.49347974225E+03  0.00000000000E+00 0. -1.
<mgrwt>
<rscale>  2 0.14385025E+04</rscale>
<asrwt>0</asrwt>
<pdfrwt beam="2">  1        2 0.31354231E+00 0.14385025E+04</pdfrwt>
<pdfrwt beam="1">  1       -2 0.16712863E+00 0.14385025E+04</pdfrwt>
<totfact> 0.18526531E+00</totfact>
</mgrwt>
</event>
<event>
 8    1  0.7046235E-006  0.9476609E+03  0.7818608E-02  0.8825385E-01
          1   -1    0    0  502    0  0.00000000000E+00  0.00000000000E+00  0.60527424474E+03  0.60527424474E+03  0.00000000000E+00 0.  1.
         -1   -1    0    0    0  501 -0.00000000000E+00 -0.00000000000E+00 -0.14940220825E+04  0.14940220825E+04  0.00000000000E+00 0. -1.
    9000010    2    1    2  502    0 -0.22057770839E+03 -0.17744410869E+02 -0.39668938461E+03  0.95853221985E+03  0.84406881181E+03 0.  0.
   -9000010    2    1    2    0  501  0.22057770839E+03  0.17744410869E+02 -0.49205845311E+03  0.11407641073E+04  0.10051128483E+04 0.  0.
        -13    1    3    3    0    0 -0.34779347472E+03 -0.24038842359E+03 -0.52313976093E+03  0.67262330905E+03  0.10566000000E+00 0.  1.
          4    1    3    3  502    0  0.12721576634E+03  0.22264401272E+03  0.12645037632E+03  0.28590891080E+03  0.00000000000E+00 0.  1.
         13    1    4    4    0    0 -0.33547337796E+03  0.12986010783E+03  0.41375417726E+02  0.36210215587E+03  0.10566000000E+00 0. -1.
         -4    1    4    4    0  501  0.55605108635E+03 -0.11211569696E+03 -0.53343387083E+03  0.77866195148E+03  0.00000000000E+00 0. -1.
<mgrwt>
<rscale>  2 0.94766089E+03</rscale>
<asrwt>0</asrwt>
<pdfrwt beam="1">  1        1 0.93119117E-01 0.94766089E+03</pdfrwt>
<pdfrwt beam="2">  1       -1 0.22984955E+00 0.94766089E+03</pdfrwt>
<totfact> 0.35836410E+00</totfact>
</mgrwt>
</event>
<event>
 8    1  0.7046235E-006  0.2133655E+04  0.7818608E-02  0.8116043E-01
         -2   -1    0    0    0  501 -0.00000000000E+00  0.00000000000E+00  0.11425201930E+04  0.11425201930E+04  0.00000000000E+00 0. -1.
          2   -1    0    0  502    0  0.00000000000E+00 -0.00000000000E+00 -0.40364354923E+04  0.40364354923E+04  0.00000000000E+00 0.  1.
    9000010    2    1    2  502    0 -0.96876952854E+03 -0.16177684387E+04 -0.11561978141E+04  0.24302690237E+04  0.10068391240E+04 0.  0.
   -9000010    2    1    2    0  501  0.96876952854E+03  0.16177684387E+04 -0.17377174851E+04  0.27486866616E+04  0.98991271564E+03 0.  0.
        -13    1    3    3    0    0 -0.73418766062E+03 -0.13602554959E+04 -0.39842699417E+03  0.15962677144E+04  0.10566000000E+00 0.  1.
          4    1    3    3  502    0 -0.23458186792E+03 -0.25751294285E+03 -0.75777081992E+03  0.83400130936E+03  0.00000000000E+00 0.  1.
         13    1    4    4    0    0  0.29864693296E+03  0.13895681614E+04 -0.11321179320E+04  0.18170802648E+04  0.10566000000E+00 0. -1.
         -4    1    4    4    0  501  0.67012259558E+03  0.22820027733E+03 -0.60559955318E+03  0.93160639676E+03  0.00000000000E+00 0. -1.
<mgrwt>
<rscale>  2 0.21336550E+04</rscale>
<asrwt>0</asrwt>
<pdfrwt beam="2">  1        2 0.62099007E+00 0.21336550E+04</pdfrwt>
<pdfrwt beam="1">  1       -2 0.17577234E+00 0.21336550E+04</pdfrwt>
<totfact> 0.67963946E-02</totfact>
</mgrwt>
</event>
<event>
 8    1  0.7046235E-006  0.1019693E+04  0.7818608E-02  0.8756306E-01
          4   -1    0    0  502    0  0.00000000000E+00  0.00000000000E+00  0.47187244700E+04  0.47187244700E+04  0.00000000000E+00 0.  1.
         -4   -1    0    0    0  501 -0.00000000000E+00 -0.00000000000E+00 -0.30272487885E+03  0.30272487885E+03  0.00000000000E+00 0. -1.
    9000010    2    1    2  502    0 -0.90384209642E+02  0.21048068828E+03  0.35250349785E+04  0.36708640068E+04  0.99844856245E+03 0.  0.
   -9000010    2    1    2    0  501  0.90384209642E+02 -0.21048068828E+03  0.89096461265E+03  0.13505853420E+04  0.98883335273E+03 0.  0.
        -13    1    3    3    0    0 -0.23721303961E+03  0.38577149369E+03  0.68210582150E+03  0.81875395230E+03  0.10566000000E+00 0.  1.
          4    1    3    3  502    0  0.14682882996E+03 -0.17529080541E+03  0.28429291570E+04  0.28521100545E+04  0.00000000000E+00 0.  1.
         13    1    4    4    0    0  0.10289120165E+03 -0.21869028271E+03  0.11074844635E+04  0.11335492434E+04  0.10566000000E+00 0. -1.
         -4    1    4    4    0  501 -0.12506992005E+02  0.82095944291E+01 -0.21651985084E+03  0.21703609860E+03  0.00000000000E+00 0. -1.
<mgrwt>
<rscale>  2 0.10196926E+04</rscale>
<asrwt>0</asrwt>
<pdfrwt beam="1">  1        4 0.72595756E+00 0.10196926E+04</pdfrwt>
<pdfrwt beam="2">  1       -4 0.46573062E-01 0.10196926E+04</pdfrwt>
<totfact> 0.17911490E-02</totfact>
</mgrwt>
</event>
<event>
 8    1  0.7046235E-006  0.1034562E+04  0.7818608E-02  0.8742779E-01
         -1   -1    0    0    0  501 -0.00000000000E+00  0.00000000000E+00  0.97135551299E+03  0.97135551299E+03  0.00000000000E+00 0.  1.
          1   -1    0    0  502    0  0.00000000000E+00 -0.00000000000E+00 -0.12101832795E+04  0.12101832795E+04  0.00000000000E+00 0. -1.
    9000010    2    1    2  502    0  0.28924612925E+03 -0.91260369782E+02  0.20552719453E+03  0.10656639020E+04  0.10007029259E+04 0.  0.
   -9000010    2    1    2    0  501 -0.28924612925E+03  0.91260369782E+02 -0.44435496104E+03  0.11158748905E+04  0.97761631610E+03 0.  0.
        -13    1    3    3    0    0  0.93342693937E+02 -0.90866973969E+02 -0.40449656604E+03  0.42495546657E+03  0.10566000000E+00 0.  1.
          4    1    3    3  502    0  0.19590343532E+03 -0.39339581221E+00  0.61002376057E+03  0.64070843540E+03  0.00000000000E+00 0.  1.
         13    1    4    4    0    0 -0.42250196858E+03  0.39188020690E+03 -0.16818057128E+02  0.57650747456E+03  0.10566000000E+00 0. -1.
         -4    1    4    4    0  501  0.13325583933E+03 -0.30061983712E+03 -0.42753690391E+03  0.53936741595E+03  0.00000000000E+00 0. -1.
<mgrwt>
<rscale>  2 0.10345618E+04</rscale>
<asrwt>0</asrwt>
<pdfrwt beam="2">  1        1 0.18618204E+00 0.10345618E+04</pdfrwt>
<pdfrwt beam="1">  1       -1 0.14943931E+00 0.10345618E+04</pdfrwt>
<totfact> 0.54800214E+00</totfact>
</mgrwt>
</event>
<event>
 8    1  0.7046235E-006  0.1361972E+04  0.7818608E-02  0.8493653E-01
         -2   -1    0    0    0  501 -0.00000000000E+00  0.00000000000E+00  0.99361946181E+03  0.99361946181E+03  0.00000000000E+00 0.  1.
          2   -1    0    0  502    0  0.00000000000E+00 -0.00000000000E+00 -0.18732462228E+04  0.18732462228E+04  0.00000000000E+00 0. -1.
    9000010    2    1    2  502    0 -0.49639467380E+03  0.82038306538E+03 -0.35253569793E+03  0.13882627457E+04  0.93997658840E+03 0.  0.
   -9000010    2    1    2    0  501  0.49639467380E+03 -0.82038306538E+03 -0.52709106308E+03  0.14786029389E+04  0.99448761481E+03 0.  0.
        -13    1    3    3    0    0 -0.13942403339E+03  0.64698963770E+03  0.21486762587E+03  0.69584679362E+03  0.10566000000E+00 0.  1.
          4    1    3    3  502    0 -0.35697064040E+03  0.17339342768E+03 -0.56740332381E+03  0.69241595211E+03  0.00000000000E+00 0.  1.
         13    1    4    4    0    0  0.12915410840E+03 -0.77761182257E+03  0.53727631825E+02  0.79009341214E+03  0.10566000000E+00 0. -1.
         -4    1    4    4    0  501  0.36724056540E+03 -0.42771242806E+02 -0.58081869491E+03  0.68850952676E+03  0.00000000000E+00 0. -1.
<mgrwt>
<rscale>  2 0.13619720E+04</rscale>
<asrwt>0</asrwt>
<pdfrwt beam="2">  1        2 0.28819173E+00 0.13619720E+04</pdfrwt>
<pdfrwt beam="1">  1       -2 0.15286453E+00 0.13619720E+04</pdfrwt>
<totfact> 0.30546663E+00</totfact>
</mgrwt>
</event>
<event>
 8    1  0.7046235E-006  0.1123937E+04  0.7818608E-02  0.8666152E-01
          1   -1    0    0  502    0  0.00000000000E+00  0.00000000000E+00  0.13967942603E+04  0.13967942603E+04  0.00000000000E+00 0.  1.
         -1   -1    0    0    0  501 -0.00000000000E+00 -0.00000000000E+00 -0.98124563382E+03  0.98124563382E+03  0.00000000000E+00 0. -1.
    9000010    2    1    2  502    0 -0.16357937054E+03  0.49772838018E+03 -0.12201614716E+03  0.11458327321E+04  0.10117079416E+04 0.  0.
   -9000010    2    1    2    0  501  0.16357937054E+03 -0.49772838018E+03  0.53756477362E+03  0.12322071619E+04  0.97717288808E+03 0.  0.
        -13    1    3    3    0    0  0.83117798215E+02 -0.13062818290E+03 -0.38994330627E+03  0.41955700901E+03  0.10566000000E+00 0.  1.
          4    1    3    3  502    0 -0.24669716876E+03  0.62835656307E+03  0.26792715911E+03  0.72627572314E+03  0.00000000000E+00 0.  1.
         13    1    4    4    0    0  0.21034012799E+03 -0.77236052869E+03  0.26696198270E+03  0.84383201355E+03  0.10566000000E+00 0. -1.
         -4    1    4    4    0  501 -0.46760757450E+02  0.27463214851E+03  0.27060279092E+03  0.38837514839E+03  0.00000000000E+00 0. -1.
<mgrwt>
<rscale>  2 0.11239372E+04</rscale>
<asrwt>0</asrwt>
<pdfrwt beam="1">  1        1 0.21489143E+00 0.11239372E+04</pdfrwt>
<pdfrwt beam="2">  1       -1 0.15096087E+00 0.11239372E+04</pdfrwt>
<totfact> 0.38003824E+00</totfact>
</mgrwt>
</event>
<event>
 8    1  0.7046235E-006  0.1139611E+04  0.7818608E-02  0.8653479E-01
         -2   -1    0    0    0  501 -0.00000000000E+00  0.00000000000E+00  0.59829387466E+03  0.59829387466E+03  0.00000000000E+00 0.  1.
          2   -1    0    0  502    0  0.00000000000E+00 -0.00000000000E+00 -0.21924963145E+04  0.21924963145E+04  0.00000000000E+00 0. -1.
    9000010    2    1    2  502    0  0.51471447613E+03  0.19334439342E+03 -0.93563805276E+03  0.14738238075E+04  0.99720860577E+03 0.  0.
   -9000010    2    1    2    0  501 -0.51471447613E+03 -0.19334439342E+03 -0.65856438710E+03  0.13169663817E+04  0.99918984785E+03 0.  0.
        -13    1    3    3    0    0  0.61272013892E+03  0.49694606742E+03 -0.50056208773E+03  0.93431460301E+03  0.10566000000E+00 0.  1.
          4    1    3    3  502    0 -0.98005662790E+02 -0.30360167400E+03 -0.43507596503E+03  0.53950920450E+03  0.00000000000E+00 0.  1.
         13    1    4    4    0    0 -0.71749690219E+02  0.39281480363E+03 -0.29985740024E+03  0.49936555713E+03  0.10566000000E+00 0. -1.
         -4    1    4    4    0  501 -0.44296478591E+03 -0.58615919706E+03 -0.35870698686E+03  0.81760082453E+03  0.00000000000E+00 0. -1.
<mgrwt>
<rscale>  2 0.11396114E+04</rscale>
<asrwt>0</asrwt>
<pdfrwt beam="2">  1        2 0.33730713E+00 0.11396114E+04</pdfrwt>
<pdfrwt beam="1">  1       -2 0.92045211E-01 0.11396114E+04</pdfrwt>
<totfact> 0.80398674E+00</totfact>
</mgrwt>
</event>
<event>
 8    1  0.7046235E-006  0.1107559E+04  0.7818608E-02  0.8679626E-01
          2   -1    0    0  502    0  0.00000000000E+00  0.00000000000E+00  0.10436341106E+04  0.10436341106E+04  0.00000000000E+00 0. -1.
         -2   -1    0    0    0  501 -0.00000000000E+00 -0.00000000000E+00 -0.12099297385E+04  0.12099297385E+04  0.00000000000E+00 0.  1.
    9000010    2    1    2  502    0  0.47159022345E+03 -0.88497330917E+02  0.10759398983E+03  0.11055358766E+04  0.99015351912E+03 0.  0.
   -9000010    2    1    2    0  501 -0.47159022345E+03  0.88497330917E+02 -0.27388961779E+03  0.11480279725E+04  0.10063416847E+04 0.  0.
        -13    1    3    3    0    0  0.42539265764E+03 -0.49103722115E+03  0.21852757594E+03  0.68544203135E+03  0.10566000000E+00 0.  1.
          4    1    3    3  502    0  0.46197565813E+02  0.40253989023E+03 -0.11093358611E+03  0.42009384528E+03  0.00000000000E+00 0.  1.
         13    1    4    4    0    0 -0.40087657194E+03  0.25963967308E+03 -0.60370236404E+03  0.76978655566E+03  0.10566000000E+00 0. -1.
         -4    1    4    4    0  501 -0.70713651507E+02 -0.17114234217E+03  0.32981274624E+03  0.37824141679E+03  0.00000000000E+00 0. -1.
<mgrwt>
<rscale>  2 0.11075588E+04</rscale>
<asrwt>0</asrwt>
<pdfrwt beam="1">  1        2 0.16055910E+00 0.11075588E+04</pdfrwt>
<pdfrwt beam="2">  1       -2 0.18614304E+00 0.11075588E+04</pdfrwt>
<totfact> 0.47443735E+00</totfact>
</mgrwt>
</event>
<event>
 8    1  0.7046235E-006  0.1054239E+04  0.7818608E-02  0.8725234E-01
          1   -1    0    0  502    0  0.00000000000E+00  0.00000000000E+00  0.14910422285E+04  0.14910422285E+04  0.00000000000E+00 0. -1.
         -1   -1    0    0    0  501 -0.00000000000E+00 -0.00000000000E+00 -0.79899076553E+03  0.79899076553E+03  0.00000000000E+00 0.  1.
    9000010    2    1    2  502    0  0.32632758257E+03  0.39639918115E+03  0.38109914687E+02  0.99417502038E+03  0.85047610407E+03 0.  0.
   -9000010    2    1    2    0  501 -0.32632758257E+03 -0.39639918115E+03  0.65394154827E+03  0.12958579736E+04  0.99397501847E+03 0.  0.
        -13    1    3    3    0    0  0.46514304234E+03  0.19960267940E+02  0.26249766883E+03  0.53447310451E+03  0.10566000000E+00 0.  1.
          4    1    3    3  502    0 -0.13881545977E+03  0.37643891321E+03 -0.22438775414E+03  0.45970191587E+03  0.00000000000E+00 0.  1.
         13    1    4    4    0    0  0.28351179480E+03  0.35000235584E+02  0.42958203785E+03  0.51589213280E+03  0.10566000000E+00 0. -1.
         -4    1    4    4    0  501 -0.60983937738E+03 -0.43139941673E+03  0.22435951042E+03  0.77996584084E+03  0.00000000000E+00 0. -1.
<mgrwt>
<rscale>  2 0.10542385E+04</rscale>
<asrwt>0</asrwt>
<pdfrwt beam="1">  1        1 0.22939111E+00 0.10542385E+04</pdfrwt>
<pdfrwt beam="2">  1       -1 0.12292166E+00 0.10542385E+04</pdfrwt>
<totfact> 0.57309107E+00</totfact>
</mgrwt>
</event>
<event>
 8    1  0.7046235E-006  0.1267398E+04  0.7818608E-02  0.8557467E-01
         -2   -1    0    0    0  501 -0.00000000000E+00  0.00000000000E+00  0.39130620678E+03  0.39130620678E+03  0.00000000000E+00 0. -1.
          2   -1    0    0  502    0  0.00000000000E+00 -0.00000000000E+00 -0.42246498166E+04  0.42246498166E+04  0.00000000000E+00 0.  1.
    9000010    2    1    2  502    0  0.75754900237E+03 -0.22545368747E+03 -0.15440660515E+04  0.20042984972E+04  0.10041726138E+04 0.  0.
   -9000010    2    1    2    0  501 -0.75754900237E+03  0.22545368747E+03 -0.22892775583E+04  0.26116575262E+04  0.97737067623E+03 0.  0.
        -13    1    3    3    0    0  0.95845354485E+03 -0.23599802548E+03 -0.15042842804E+04  0.17992219077E+04  0.10566000000E+00 0.  1.
          4    1    3    3  502    0 -0.20090454248E+03  0.10544338011E+02 -0.39781771069E+02  0.20507658950E+03  0.00000000000E+00 0.  1.
         13    1    4    4    0    0 -0.53276162176E+03 -0.43509944568E+02 -0.21798693002E+04  0.22444505426E+04  0.10566000000E+00 0. -1.
         -4    1    4    4    0  501 -0.22478738060E+03  0.26896363204E+03 -0.10940825808E+03  0.36720698356E+03  0.00000000000E+00 0. -1.
<mgrwt>
<rscale>  2 0.12673983E+04</rscale>
<asrwt>0</asrwt>
<pdfrwt beam="2">  1        2 0.64994610E+00 0.12673983E+04</pdfrwt>
<pdfrwt beam="1">  1       -2 0.60200957E-01 0.12673983E+04</pdfrwt>
<totfact> 0.76987144E-01</totfact>
</mgrwt>
</event>
<event>
 8    1  0.7046235E-006  0.1251867E+04  0.7818608E-02  0.8568496E-01
          1   -1    0    0  502    0  0.00000000000E+00  0.00000000000E+00  0.47544206193E+03  0.47544206193E+03  0.00000000000E+00 0.  1.
         -1   -1    0    0    0  501 -0.00000000000E+00 -0.00000000000E+00 -0.42161138318E+04  0.42161138318E+04  0.00000000000E+00 0. -1.
    9000010    2    1    2  502    0  0.64472158772E+03  0.43180746402E+03 -0.79813659445E+03  0.15013645930E+04  0.10074472720E+04 0.  0.
   -9000010    2    1    2    0  501 -0.64472158772E+03 -0.43180746402E+03 -0.29425351754E+04  0.31901913008E+04  0.95743598495E+03 0.  0.
        -13    1    3    3    0    0  0.88549404110E+03  0.45920908621E+03 -0.49582612230E+03  0.11139193132E+04  0.10566000000E+00 0.  1.
          4    1    3    3  502    0 -0.24077245338E+03 -0.27401622197E+02 -0.30231047215E+03  0.38744527972E+03  0.00000000000E+00 0.  1.
         13    1    4    4    0    0  0.16272775854E+03 -0.35073626061E+02 -0.70910177333E+02  0.18093851734E+03  0.10566000000E+00 0. -1.
         -4    1    4    4    0  501 -0.80744934626E+03 -0.39673383795E+03 -0.28716249981E+04  0.30092527834E+04  0.00000000000E+00 0. -1.
<mgrwt>
<rscale>  2 0.12518668E+04</rscale>
<asrwt>0</asrwt>
<pdfrwt beam="1">  1        1 0.73144932E-01 0.12518668E+04</pdfrwt>
<pdfrwt beam="2">  1       -1 0.64863291E+00 0.12518668E+04</pdfrwt>
<totfact> 0.77986071E-02</totfact>
</mgrwt>
</event>
<event>
 8    1  0.7046235E-006  0.1123401E+04  0.7818608E-02  0.8666589E-01
         -1   -1    0    0    0  501 -0.00000000000E+00  0.00000000000E+00  0.94368403717E+03  0.94368403717E+03  0.00000000000E+00 0. -1.
          1   -1    0    0  502    0  0.00000000000E+00 -0.00000000000E+00 -0.15507155145E+04  0.15507155145E+04  0.00000000000E+00 0.  1.
    9000010    2    1    2  502    0  0.26176216168E+03  0.44514833465E+03  0.15717267185E+03  0.11422875565E+04  0.10066981394E+04 0.  0.
   -9000010    2    1    2    0  501 -0.26176216168E+03 -0.44514833465E+03 -0.76420414922E+03  0.13521119952E+04  0.98869732311E+03 0.  0.
        -13    1    3    3    0    0  0.10752817157E+03 -0.18474062893E+03  0.39698073828E+03  0.45087151761E+03  0.10566000000E+00 0.  1.
          4    1    3    3  502    0  0.15423399011E+03  0.62988896358E+03 -0.23980806642E+03  0.69141603891E+03  0.00000000000E+00 0.  1.
         13    1    4    4    0    0  0.17841660760E+03 -0.23835982928E+03  0.13724049047E+03  0.32784578306E+03  0.10566000000E+00 0. -1.
         -4    1    4    4    0  501 -0.44017876928E+03 -0.20678850537E+03 -0.90144463969E+03  0.10242662121E+04  0.00000000000E+00 0. -1.
<mgrwt>
<rscale>  2 0.11234013E+04</rscale>
<asrwt>0</asrwt>
<pdfrwt beam="2">  1        1 0.23857161E+00 0.11234013E+04</pdfrwt>
<pdfrwt beam="1">  1       -1 0.14518216E+00 0.11234013E+04</pdfrwt>
<totfact> 0.32751362E+00</totfact>
</mgrwt>
</event>
<event>
 8    1  0.7046235E-006  0.1133118E+04  0.7818608E-02  0.8658703E-01
          1   -1    0    0  502    0  0.00000000000E+00  0.00000000000E+00  0.10942629411E+04  0.10942629411E+04  0.00000000000E+00 0.  1.
         -1   -1    0    0    0  501 -0.00000000000E+00 -0.00000000000E+00 -0.12565205387E+04  0.12565205387E+04  0.00000000000E+00 0. -1.
    9000010    2    1    2  502    0  0.53241938515E+03 -0.13009502399E+03  0.22074463596E+03  0.11609589871E+04  0.99935101863E+03 0.  0.
   -9000010    2    1    2    0  501 -0.53241938515E+03  0.13009502399E+03 -0.38300223354E+03  0.11898244927E+04  0.98417300083E+03 0.  0.
        -13    1    3    3    0    0  0.86212506021E+02 -0.52105191554E+03  0.47956462303E+00  0.52813628547E+03  0.10566000000E+00 0.  1.
          4    1    3    3  502    0  0.44620687913E+03  0.39095689155E+03  0.22026507134E+03  0.63282270162E+03  0.00000000000E+00 0.  1.
         13    1    4    4    0    0 -0.67431936435E+03  0.41002559021E+03 -0.16112903825E+03  0.80547511935E+03  0.10566000000E+00 0. -1.
         -4    1    4    4    0  501  0.14189997919E+03 -0.27993056622E+03 -0.22187319530E+03  0.38434937335E+03  0.00000000000E+00 0. -1.
<mgrwt>
<rscale>  2 0.11331180E+04</rscale>
<asrwt>0</asrwt>
<pdfrwt beam="1">  1        1 0.16834814E+00 0.11331180E+04</pdfrwt>
<pdfrwt beam="2">  1       -1 0.19331085E+00 0.11331180E+04</pdfrwt>
<totfact> 0.27668174E+00</totfact>
</mgrwt>
</event>
<event>
 8    1  0.7046235E-006  0.1059540E+04  0.7818608E-02  0.8720575E-01
         -1   -1    0    0    0  501 -0.00000000000E+00  0.00000000000E+00  0.78474902377E+03  0.78474902377E+03  0.00000000000E+00 0.  1.
          1   -1    0    0  502    0  0.00000000000E+00 -0.00000000000E+00 -0.14633914726E+04  0.14633914726E+04  0.00000000000E+00 0. -1.
    9000010    2    1    2  502    0 -0.25784721039E+03 -0.20983321938E+03 -0.50724461502E+03  0.11733819936E+04  0.10044964109E+04 0.  0.
   -9000010    2    1    2    0  501  0.25784721039E+03  0.20983321938E+03 -0.17139783383E+03  0.10747585028E+04  0.10075780159E+04 0.  0.
        -13    1    3    3    0    0 -0.18351458101E+02 -0.33982002567E+02 -0.77347150252E+03  0.77443510309E+03  0.10566000000E+00 0.  1.
          4    1    3    3  502    0 -0.23949575229E+03 -0.17585121681E+03  0.26622688751E+03  0.39894689051E+03  0.00000000000E+00 0.  1.
         13    1    4    4    0    0 -0.32071866907E+03 -0.16819219354E+03  0.22853907111E+01  0.36215233374E+03  0.10566000000E+00 0. -1.
         -4    1    4    4    0  501  0.57856587946E+03  0.37802541292E+03 -0.17368322454E+03  0.71260616906E+03  0.00000000000E+00 0. -1.
<mgrwt>
<rscale>  2 0.10595396E+04</rscale>
<asrwt>0</asrwt>
<pdfrwt beam="2">  1        1 0.22513715E+00 0.10595396E+04</pdfrwt>
<pdfrwt beam="1">  1       -1 0.12073062E+00 0.10595396E+04</pdfrwt>
<totfact> 0.62775158E+00</totfact>
</mgrwt>
</event>
<event>
 8    1  0.7046235E-006  0.1265986E+04  0.7818608E-02  0.8558464E-01
          2   -1    0    0  502    0  0.00000000000E+00  0.00000000000E+00  0.15195344073E+04  0.15195344073E+04  0.00000000000E+00 0. -1.
         -2   -1    0    0    0  501 -0.00000000000E+00 -0.00000000000E+00 -0.11719487452E+04  0.11719487452E+04  0.00000000000E+00 0.  1.
    9000010    2    1    2  502    0  0.87606079964E+02  0.78849668843E+03  0.59861339038E+03  0.13951696804E+04  0.97916218931E+03 0.  0.
   -9000010    2    1    2    0  501 -0.87606079964E+02 -0.78849668843E+03 -0.25102772825E+03  0.12963134721E+04  0.99398784939E+03 0.  0.
        -13    1    3    3    0    0  0.43175016474E+03  0.64326171347E+03  0.65862044802E+03  0.10168454860E+04  0.10566000000E+00 0.  1.
          4    1    3    3  502    0 -0.34414408478E+03  0.14523497495E+03 -0.60007057647E+02  0.37832419432E+03  0.00000000000E+00 0.  1.
         13    1    4    4    0    0  0.25650067913E+03 -0.11340125801E+03 -0.43406589252E+03  0.51678395285E+03  0.10566000000E+00 0. -1.
         -4    1    4    4    0  501 -0.34410675909E+03 -0.67509543042E+03  0.18303816427E+03  0.77952951926E+03  0.00000000000E+00 0. -1.
<mgrwt>
<rscale>  2 0.12659859E+04</rscale>
<asrwt>0</asrwt>
<pdfrwt beam="1">  1        2 0.23377453E+00 0.12659859E+04</pdfrwt>
<pdfrwt beam="2">  1       -2 0.18029981E+00 0.12659859E+04</pdfrwt>
<totfact> 0.28082877E+00</totfact>
</mgrwt>
</event>
<event>
 8    1  0.7046235E-006  0.1193792E+04  0.7818608E-02  0.8611252E-01
          1   -1    0    0  502    0  0.00000000000E+00  0.00000000000E+00  0.21750430160E+04  0.21750430160E+04  0.00000000000E+00 0.  1.
         -1   -1    0    0    0  501 -0.00000000000E+00 -0.00000000000E+00 -0.92301057069E+03  0.92301057069E+03  0.00000000000E+00 0. -1.
    9000010    2    1    2  502    0 -0.65514629057E+03  0.21724162068E+03  0.14600887813E+04  0.18855231480E+04  0.97310210602E+03 0.  0.
   -9000010    2    1    2    0  501  0.65514629057E+03 -0.21724162068E+03 -0.20805633596E+03  0.12125304387E+04  0.97495232805E+03 0.  0.
        -13    1    3    3    0    0  0.25421843574E+03  0.77037999955E+02  0.41903058511E+03  0.49613355956E+03  0.10566000000E+00 0.  1.
          4    1    3    3  502    0 -0.90936472631E+03  0.14020362073E+03  0.10410581962E+04  0.13893895885E+04  0.00000000000E+00 0.  1.
         13    1    4    4    0    0 -0.22368980941E+03 -0.22161014034E+03 -0.74771748513E+02  0.32363406909E+03  0.10566000000E+00 0. -1.
         -4    1    4    4    0  501  0.87883609999E+03  0.43685196540E+01 -0.13328458745E+03  0.88889636958E+03  0.00000000000E+00 0. -1.
<mgrwt>
<rscale>  2 0.11937920E+04</rscale>
<asrwt>0</asrwt>
<pdfrwt beam="1">  1        1 0.33462200E+00 0.11937920E+04</pdfrwt>
<pdfrwt beam="2">  1       -1 0.14200163E+00 0.11937920E+04</pdfrwt>
<totfact> 0.11655060E+00</totfact>
</mgrwt>
</event>
<event>
 8    1  0.7046235E-006  0.1180309E+04  0.7818608E-02  0.8621539E-01
         -2   -1    0    0    0  501 -0.00000000000E+00  0.00000000000E+00  0.53186709914E+03  0.53186709914E+03  0.00000000000E+00 0.  1.
          2   -1    0    0  502    0  0.00000000000E+00 -0.00000000000E+00 -0.33043361711E+04  0.33043361711E+04  0.00000000000E+00 0. -1.
    9000010    2    1    2  502    0 -0.23841988840E+03 -0.55548811521E+03 -0.22683987955E+04  0.25615774876E+04  0.10250048977E+04 0.  0.
   -9000010    2    1    2    0  501  0.23841988840E+03  0.55548811521E+03 -0.50407027643E+03  0.12746257826E+04  0.10025831401E+04 0.  0.
        -13    1    3    3    0    0 -0.12835695286E+03 -0.61911292706E+03 -0.54864336846E+03  0.83712954835E+03  0.10566000000E+00 0.  1.
          4    1    3    3  502    0 -0.11006293553E+03  0.63624811847E+02 -0.17197554270E+04  0.17244479393E+04  0.00000000000E+00 0.  1.
         13    1    4    4    0    0 -0.12821320683E+03  0.29938611813E+03  0.24133236308E+03  0.40535415967E+03  0.10566000000E+00 0. -1.
         -4    1    4    4    0  501  0.36663309523E+03  0.25610199708E+03 -0.74540263951E+03  0.86927162292E+03  0.00000000000E+00 0. -1.
<mgrwt>
<rscale>  2 0.11803091E+04</rscale>
<asrwt>0</asrwt>
<pdfrwt beam="2">  1        2 0.50835942E+00 0.11803091E+04</pdfrwt>
<pdfrwt beam="1">  1       -2 0.81825707E-01 0.11803091E+04</pdfrwt>
<totfact> 0.22940508E+00</totfact>
</mgrwt>
</event>
<event>
 8    1  0.7046235E-006  0.1200150E+04  0.7818608E-02  0.8606450E-01
          2   -1    0    0  502    0  0.00000000000E+00  0.00000000000E+00  0.31950561748E+04  0.31950561748E+04  0.00000000000E+00 0. -1.
         -2   -1    0    0    0  501 -0.00000000000E+00 -0.00000000000E+00 -0.62999395965E+03  0.62999395965E+03  0.00000000000E+00 0.  1.
    9000010    2    1    2  502    0  0.65342351842E+03 -0.68254992603E+02  0.25758017598E+03  0.12210746053E+04  0.99652125220E+03 0.  0.
   -9000010    2    1    2    0  501 -0.65342351842E+03  0.68254992603E+02  0.23074820392E+04  0.26039755292E+04  0.10122223852E+04 0.  0.
        -13    1    3    3    0    0  0.19243675715E+01 -0.43185806744E+03  0.19036527396E+03  0.47195767003E+03  0.10566000000E+00 0.  1.
          4    1    3    3  502    0  0.65149915085E+03  0.36360307483E+03  0.67214902022E+02  0.74911693523E+03  0.00000000000E+00 0.  1.
         13    1    4    4    0    0  0.20402417592E+03 -0.16459440239E+03  0.91808367427E+03  0.95477475133E+03  0.10566000000E+00 0. -1.
         -4    1    4    4    0  501 -0.85744769435E+03  0.23284939499E+03  0.13893983649E+04  0.16492007778E+04  0.00000000000E+00 0. -1.
<mgrwt>
<rscale>  2 0.12001496E+04</rscale>
<asrwt>0</asrwt>
<pdfrwt beam="1">  1        2 0.49154709E+00 0.12001496E+04</pdfrwt>
<pdfrwt beam="2">  1       -2 0.96922150E-01 0.12001496E+04</pdfrwt>
<totfact> 0.18315864E+00</totfact>
</mgrwt>
</event>
<event>
 8    1  0.7046235E-006  0.1258426E+04  0.7818608E-02  0.8563818E-01
          1   -1    0    0  502    0  0.00000000000E+00  0.00000000000E+00  0.14780528636E+04  0.14780528636E+04  0.00000000000E+00 0. -1.
         -1   -1    0    0    0  501 -0.00000000000E+00 -0.00000000000E+00 -0.10715646021E+04  0.10715646021E+04  0.00000000000E+00 0.  1.
    9000010    2    1    2  502    0 -0.83837483342E+02 -0.72618272293E+03  0.19273597305E+03  0.12624363865E+04  0.10110531163E+04 0.  0.
   -9000010    2    1    2    0  501  0.83837483342E+02  0.72618272293E+03  0.21375228845E+03  0.12871810792E+04  0.10376777049E+04 0.  0.
        -13    1    3    3    0    0  0.89855174460E+02 -0.29452633694E+02 -0.34987031155E+03  0.36242331062E+03  0.10566000000E+00 0.  1.
          4    1    3    3  502    0 -0.17369265780E+03 -0.69673008923E+03  0.54260628461E+03  0.90001307586E+03  0.00000000000E+00 0.  1.
         13    1    4    4    0    0 -0.12395945949E+02 -0.24148945946E+03 -0.10529068365E+03  0.26373653091E+03  0.10566000000E+00 0. -1.
         -4    1    4    4    0  501  0.96233429292E+02  0.96767218239E+03  0.31904297210E+03  0.10234445483E+04  0.00000000000E+00 0. -1.
<mgrwt>
<rscale>  2 0.12584264E+04</rscale>
<asrwt>0</asrwt>
<pdfrwt beam="1">  1        1 0.22739275E+00 0.12584264E+04</pdfrwt>
<pdfrwt beam="2">  1       -1 0.16485609E+00 0.12584264E+04</pdfrwt>
<totfact> 0.24651525E+00</totfact>
</mgrwt>
</event>
<event>
 8    1  0.7046235E-006  0.1394173E+04  0.7818608E-02  0.8473133E-01
         -2   -1    0    0    0  501 -0.00000000000E+00  0.00000000000E+00  0.65449559110E+03  0.65449559110E+03  0.00000000000E+00 0.  1.
          2   -1    0    0  502    0  0.00000000000E+00 -0.00000000000E+00 -0.30330857253E+04  0.30330857253E+04  0.00000000000E+00 0. -1.
    9000010    2    1    2  502    0  0.94842998837E+03 -0.28689418689E+03 -0.14525071998E+04  0.20107752748E+04  0.97550618809E+03 0.  0.
   -9000010    2    1    2    0  501 -0.94842998837E+03  0.28689418689E+03 -0.92608293442E+03  0.16768060416E+04  0.98601276990E+03 0.  0.
        -13    1    3    3    0    0 -0.49294061133E+02 -0.23221319384E+03 -0.75695101731E+03  0.79330178723E+03  0.10566000000E+00 0.  1.
          4    1    3    3  502    0  0.99772404950E+03 -0.54680993046E+02 -0.69555618249E+03  0.12174734876E+04  0.00000000000E+00 0.  1.
         13    1    4    4    0    0 -0.14557569430E+03  0.53714755320E+03 -0.38837378968E+03  0.67864128105E+03  0.10566000000E+00 0. -1.
         -4    1    4    4    0  501 -0.80285429407E+03 -0.25025336631E+03 -0.53770914474E+03  0.99816476054E+03  0.00000000000E+00 0. -1.
<mgrwt>
<rscale>  2 0.13941726E+04</rscale>
<asrwt>0</asrwt>
<pdfrwt beam="2">  1        2 0.46662856E+00 0.13941726E+04</pdfrwt>
<pdfrwt beam="1">  1       -2 0.10069163E+00 0.13941726E+04</pdfrwt>
<totfact> 0.20657214E+00</totfact>
</mgrwt>
</event>
<event>
 8    1  0.7046235E-006  0.1470731E+04  0.7818608E-02  0.8426546E-01
         -2   -1    0    0    0  501 -0.00000000000E+00  0.00000000000E+00  0.63978557748E+03  0.63978557748E+03  0.00000000000E+00 0. -1.
          2   -1    0    0  502    0  0.00000000000E+00 -0.00000000000E+00 -0.33914787699E+04  0.33914787699E+04  0.00000000000E+00 0.  1.
    9000010    2    1    2  502    0  0.10027868825E+04 -0.40186051158E+03 -0.12632247792E+04  0.19387316683E+04  0.99793298209E+03 0.  0.
   -9000010    2    1    2    0  501 -0.10027868825E+04  0.40186051158E+03 -0.14884684132E+04  0.20925326790E+04  0.99803877336E+03 0.  0.
        -13    1    3    3    0    0  0.39721630584E+02 -0.19071246183E+03 -0.84601141164E+03  0.86814997024E+03  0.10566000000E+00 0.  1.
          4    1    3    3  502    0  0.96306525188E+03 -0.21114804976E+03 -0.41721336753E+03  0.10705816981E+04  0.00000000000E+00 0.  1.
         13    1    4    4    0    0  0.13509430568E+03  0.17752618298E+03 -0.57325263366E+03  0.61512975073E+03  0.10566000000E+00 0. -1.
         -4    1    4    4    0  501 -0.11378811881E+04  0.22433432860E+03 -0.91521577955E+03  0.14774029283E+04  0.00000000000E+00 0. -1.
<mgrwt>
<rscale>  2 0.14707308E+04</rscale>
<asrwt>0</asrwt>
<pdfrwt beam="2">  1        2 0.52176595E+00 0.14707308E+04</pdfrwt>
<pdfrwt beam="1">  1       -2 0.98428554E-01 0.14707308E+04</pdfrwt>
<totfact> 0.12574701E+00</totfact>
</mgrwt>
</event>
<event>
 8    1  0.7046235E-006  0.2738779E+04  0.7818608E-02  0.7920232E-01
         -2   -1    0    0    0  501 -0.00000000000E+00  0.00000000000E+00  0.27117966124E+04  0.27117966124E+04  0.00000000000E+00 0. -1.
          2   -1    0    0  502    0  0.00000000000E+00 -0.00000000000E+00 -0.27844871705E+04  0.27844871705E+04  0.00000000000E+00 0.  1.
    9000010    2    1    2  502    0 -0.82653104761E+03  0.24132657990E+04  0.18735763935E+03  0.27475604286E+04  0.10034839482E+04 0.  0.
   -9000010    2    1    2    0  501  0.82653104761E+03 -0.24132657990E+04 -0.26004819742E+03  0.27487233543E+04  0.99037852562E+03 0.  0.
        -13    1    3    3    0    0 -0.45581932401E+03  0.19950371898E+04  0.50073898621E+03  0.21068184992E+04  0.10566000000E+00 0.  1.
          4    1    3    3  502    0 -0.37071172360E+03  0.41822860919E+03 -0.31338134686E+03  0.64074192942E+03  0.00000000000E+00 0.  1.
         13    1    4    4    0    0 -0.11999275063E+03 -0.10899718354E+03  0.15383204525E+03  0.22347920604E+03  0.10566000000E+00 0. -1.
         -4    1    4    4    0  501  0.94652379825E+03 -0.23042686155E+04 -0.41388024267E+03  0.25252441483E+04  0.00000000000E+00 0. -1.
<mgrwt>
<rscale>  2 0.27387787E+04</rscale>
<asrwt>0</asrwt>
<pdfrwt beam="2">  1        2 0.42838264E+00 0.27387787E+04</pdfrwt>
<pdfrwt beam="1">  1       -2 0.41719948E+00 0.27387787E+04</pdfrwt>
<totfact> 0.11115218E-02</totfact>
</mgrwt>
</event>
<event>
 8    1  0.7046235E-006  0.1099113E+04  0.7818608E-02  0.8686669E-01
          1   -1    0    0  502    0  0.00000000000E+00  0.00000000000E+00  0.11370961099E+04  0.11370961099E+04  0.00000000000E+00 0.  1.
         -1   -1    0    0    0  501 -0.00000000000E+00 -0.00000000000E+00 -0.11402788019E+04  0.11402788019E+04  0.00000000000E+00 0. -1.
    9000010    2    1    2  502    0 -0.45354450436E+03  0.81107458822E+02  0.29598513665E+03  0.11400936697E+04  0.99996266793E+03 0.  0.
   -9000010    2    1    2    0  501  0.45354450436E+03 -0.81107458822E+02 -0.29916782860E+03  0.11372812421E+04  0.99580429638E+03 0.  0.
        -13    1    3    3    0    0  0.22840056131E+03 -0.41964261059E+02 -0.18471373073E+03  0.29672712903E+03  0.10566000000E+00 0.  1.
          4    1    3    3  502    0 -0.68194506567E+03  0.12307171988E+03  0.48069886738E+03  0.84336654067E+03  0.00000000000E+00 0.  1.
         13    1    4    4    0    0  0.40361215277E+03  0.20145421282E+03  0.25140627513E+03  0.51642201354E+03  0.10566000000E+00 0. -1.
         -4    1    4    4    0  501  0.49932351585E+02 -0.28256167165E+03 -0.55057410372E+03  0.62085922858E+03  0.00000000000E+00 0. -1.
<mgrwt>
<rscale>  2 0.10991131E+04</rscale>
<asrwt>0</asrwt>
<pdfrwt beam="1">  1        1 0.17493786E+00 0.10991131E+04</pdfrwt>
<pdfrwt beam="2">  1       -1 0.17542751E+00 0.10991131E+04</pdfrwt>
<totfact> 0.36865993E+00</totfact>
</mgrwt>
</event>
<event>
 8    1  0.7046235E-006  0.1264887E+04  0.7818608E-02  0.8559239E-01
          1   -1    0    0  502    0  0.00000000000E+00  0.00000000000E+00  0.13458600678E+04  0.13458600678E+04  0.00000000000E+00 0. -1.
         -1   -1    0    0    0  501 -0.00000000000E+00 -0.00000000000E+00 -0.12172830668E+04  0.12172830668E+04  0.00000000000E+00 0.  1.
    9000010    2    1    2  502    0 -0.11353401820E+03 -0.72803338900E+03 -0.13020792338E+03  0.12365562903E+04  0.98447690018E+03 0.  0.
   -9000010    2    1    2    0  501  0.11353401820E+03  0.72803338900E+03  0.25878492438E+03  0.13265868444E+04  0.10723527544E+04 0.  0.
        -13    1    3    3    0    0 -0.36010152184E+03 -0.71831944610E+03  0.19642979057E+03  0.82718837423E+03  0.10566000000E+00 0.  1.
          4    1    3    3  502    0  0.24656750364E+03 -0.97139429040E+01 -0.32663771395E+03  0.40936791607E+03  0.00000000000E+00 0.  1.
         13    1    4    4    0    0  0.32186430333E+03 -0.17392035712E+03  0.14654221611E+03  0.39410601702E+03  0.10566000000E+00 0. -1.
         -4    1    4    4    0  501 -0.20833028514E+03  0.90195374611E+03  0.11224270827E+03  0.93248082736E+03  0.00000000000E+00 0. -1.
<mgrwt>
<rscale>  2 0.12648873E+04</rscale>
<asrwt>0</asrwt>
<pdfrwt beam="1">  1        1 0.20705540E+00 0.12648873E+04</pdfrwt>
<pdfrwt beam="2">  1       -1 0.18727432E+00 0.12648873E+04</pdfrwt>
<totfact> 0.19711702E+00</totfact>
</mgrwt>
</event>
<event>
 8    1  0.7046235E-006  0.1137524E+04  0.7818608E-02  0.8655154E-01
         -2   -1    0    0    0  501 -0.00000000000E+00  0.00000000000E+00  0.88162632117E+03  0.88162632117E+03  0.00000000000E+00 0.  1.
          2   -1    0    0  502    0  0.00000000000E+00 -0.00000000000E+00 -0.18920833156E+04  0.18920833156E+04  0.00000000000E+00 0. -1.
    9000010    2    1    2  502    0  0.34791598533E+03 -0.35981217925E+03  0.15879682125E+03  0.11264809337E+04  0.99661051888E+03 0.  0.
   -9000010    2    1    2    0  501 -0.34791598533E+03  0.35981217925E+03 -0.11692538157E+04  0.16472287031E+04  0.10467557392E+04 0.  0.
        -13    1    3    3    0    0 -0.12220684816E+03 -0.52472689383E+02  0.46716564796E+03  0.48572795953E+03  0.10566000000E+00 0.  1.
          4    1    3    3  502    0  0.47012283349E+03 -0.30733948987E+03 -0.30836882672E+03  0.64075297415E+03  0.00000000000E+00 0.  1.
         13    1    4    4    0    0 -0.39602888518E+03  0.67719306993E+03 -0.10363696028E+04  0.12998043301E+04  0.10566000000E+00 0. -1.
         -4    1    4    4    0  501  0.48112899851E+02 -0.31738089068E+03 -0.13288421290E+03  0.34742437298E+03  0.00000000000E+00 0. -1.
<mgrwt>
<rscale>  2 0.11375243E+04</rscale>
<asrwt>0</asrwt>
<pdfrwt beam="2">  1        2 0.29108974E+00 0.11375243E+04</pdfrwt>
<pdfrwt beam="1">  1       -2 0.13563482E+00 0.11375243E+04</pdfrwt>
<totfact> 0.43585556E+00</totfact>
</mgrwt>
</event>
<event>
 8    1  0.7046235E-006  0.1301346E+04  0.7818608E-02  0.8533920E-01
          2   -1    0    0  502    0  0.00000000000E+00  0.00000000000E+00  0.17832531262E+04  0.17832531262E+04  0.00000000000E+00 0.  1.
         -2   -1    0    0    0  501 -0.00000000000E+00 -0.00000000000E+00 -0.10722453974E+04  0.10722453974E+04  0.00000000000E+00 0. -1.
    9000010    2    1    2  502    0  0.24029922403E+03  0.80629746976E+03  0.83777602619E+03  0.15461105969E+04  0.99031812109E+03 0.  0.
   -9000010    2    1    2    0  501 -0.24029922403E+03 -0.80629746976E+03 -0.12676829740E+03  0.13093879267E+04  0.99527243231E+03 0.  0.
        -13    1    3    3    0    0 -0.11427108185E+01  0.57731991302E+03 -0.67843515954E+02  0.58129367928E+03  0.10566000000E+00 0.  1.
          4    1    3    3  502    0  0.24144193485E+03  0.22897755674E+03  0.90561954215E+03  0.96481691761E+03  0.00000000000E+00 0.  1.
         13    1    4    4    0    0  0.37219130201E+03 -0.47531377278E+03 -0.12172204327E+02  0.60381927893E+03  0.10566000000E+00 0. -1.
         -4    1    4    4    0  501 -0.61249052604E+03 -0.33098369698E+03 -0.11459609307E+03  0.70556864776E+03  0.00000000000E+00 0. -1.
<mgrwt>
<rscale>  2 0.13013458E+04</rscale>
<asrwt>0</asrwt>
<pdfrwt beam="1">  1        2 0.27434663E+00 0.13013458E+04</pdfrwt>
<pdfrwt beam="2">  1       -2 0.16496083E+00 0.13013458E+04</pdfrwt>
<totfact> 0.27003689E+00</totfact>
</mgrwt>
</event>
<event>
 8    1  0.7046235E-006  0.1430670E+04  0.7818608E-02  0.8450551E-01
          1   -1    0    0  502    0  0.00000000000E+00  0.00000000000E+00  0.15535189521E+04  0.15535189521E+04  0.00000000000E+00 0. -1.
         -1   -1    0    0    0  501 -0.00000000000E+00 -0.00000000000E+00 -0.14867444130E+04  0.14867444130E+04  0.00000000000E+00 0.  1.
    9000010    2    1    2  502    0 -0.80497803433E+03  0.62970998664E+03 -0.47949567577E+03  0.15061644611E+04  0.99704111133E+03 0.  0.
   -9000010    2    1    2    0  501  0.80497803433E+03 -0.62970998664E+03  0.54627021493E+03  0.15340989040E+04  0.10052482263E+04 0.  0.
        -13    1    3    3    0    0 -0.75679420150E+03  0.18564380413E+03  0.87758965342E+02  0.78415733919E+03  0.10566000000E+00 0.  1.
          4    1    3    3  502    0 -0.48183832834E+02  0.44406618251E+03 -0.56725464111E+03  0.72200712189E+03  0.00000000000E+00 0.  1.
         13    1    4    4    0    0  0.42395623052E+03  0.18969392452E+02 -0.20465869426E+03  0.47115169059E+03  0.10566000000E+00 0. -1.
         -4    1    4    4    0  501  0.38102180381E+03 -0.64867937909E+03  0.75092890919E+03  0.10629472134E+04  0.00000000000E+00 0. -1.
<mgrwt>
<rscale>  2 0.14306695E+04</rscale>
<asrwt>0</asrwt>
<pdfrwt beam="1">  1        1 0.23900292E+00 0.14306695E+04</pdfrwt>
<pdfrwt beam="2">  1       -1 0.22872991E+00 0.14306695E+04</pdfrwt>
<totfact> 0.56690070E-01</totfact>
</mgrwt>
</event>
<event>
 8    1  0.7046235E-006  0.1324075E+04  0.7818608E-02  0.8518564E-01
          4   -1    0    0  502    0  0.00000000000E+00  0.00000000000E+00  0.16545686783E+04  0.16545686783E+04  0.00000000000E+00 0. -1.
         -4   -1    0    0    0  501 -0.00000000000E+00 -0.00000000000E+00 -0.12283519076E+04  0.12283519076E+04  0.00000000000E+00 0.  1.
    9000010    2    1    2  502    0  0.75780808684E+03 -0.38946487372E+03 -0.32095810823E+03  0.13639173673E+04  0.10155296615E+04 0.  0.
   -9000010    2    1    2    0  501 -0.75780808684E+03  0.38946487372E+03  0.74717487888E+03  0.15190032186E+04  0.10115060524E+04 0.  0.
        -13    1    3    3    0    0  0.88590791400E+03  0.13988217895E+02 -0.31570363757E+03  0.94058348926E+03  0.10566000000E+00 0.  1.
          4    1    3    3  502    0 -0.12809982717E+03 -0.40345309161E+03 -0.52544706530E+01  0.42333387806E+03  0.00000000000E+00 0.  1.
         13    1    4    4    0    0 -0.19211211581E+03 -0.15395727957E+03  0.68987841648E+03  0.73249037513E+03  0.10566000000E+00 0. -1.
         -4    1    4    4    0  501 -0.56569597102E+03  0.54342215329E+03  0.57296462398E+02  0.78651284345E+03  0.00000000000E+00 0. -1.
<mgrwt>
<rscale>  2 0.13240747E+04</rscale>
<asrwt>0</asrwt>
<pdfrwt beam="1">  1        4 0.25454903E+00 0.13240747E+04</pdfrwt>
<pdfrwt beam="2">  1       -4 0.18897722E+00 0.13240747E+04</pdfrwt>
<totfact> 0.14126675E-01</totfact>
</mgrwt>
</event>
<event>
 8    1  0.7046235E-006  0.1344512E+04  0.7818608E-02  0.8505025E-01
          2   -1    0    0  502    0  0.00000000000E+00  0.00000000000E+00  0.14388078264E+04  0.14388078264E+04  0.00000000000E+00 0.  1.
         -2   -1    0    0    0  501 -0.00000000000E+00 -0.00000000000E+00 -0.12690747610E+04  0.12690747610E+04  0.00000000000E+00 0. -1.
    9000010    2    1    2  502    0 -0.28325260887E+03  0.87418706279E+03 -0.45087615837E+02  0.13758787422E+04  0.10230221694E+04 0.  0.
   -9000010    2    1    2    0  501  0.28325260887E+03 -0.87418706279E+03  0.21482068125E+03  0.13320038452E+04  0.94002726417E+03 0.  0.
        -13    1    3    3    0    0 -0.46870969404E+03  0.94852914071E+03 -0.25266359478E+03  0.10877661566E+04  0.10566000000E+00 0.  1.
          4    1    3    3  502    0  0.18545708517E+03 -0.74342077917E+02  0.20757597894E+03  0.28811258568E+03  0.00000000000E+00 0.  1.
         13    1    4    4    0    0  0.24917784908E+02 -0.66543922014E+03  0.54737152457E+03  0.86200107237E+03  0.10566000000E+00 0. -1.
         -4    1    4    4    0  501  0.25833482396E+03 -0.20874784265E+03 -0.33255084332E+03  0.47000277283E+03  0.00000000000E+00 0. -1.
<mgrwt>
<rscale>  2 0.13445123E+04</rscale>
<asrwt>0</asrwt>
<pdfrwt beam="1">  1        2 0.22135505E+00 0.13445123E+04</pdfrwt>
<pdfrwt beam="2">  1       -2 0.19524227E+00 0.13445123E+04</pdfrwt>
<totfact> 0.23169496E+00</totfact>
</mgrwt>
</event>
<event>
 8    1  0.7046235E-006  0.1012483E+04  0.7818608E-02  0.8762950E-01
          2   -1    0    0  502    0  0.00000000000E+00  0.00000000000E+00  0.17524543571E+04  0.17524543571E+04  0.00000000000E+00 0.  1.
         -2   -1    0    0    0  501 -0.00000000000E+00 -0.00000000000E+00 -0.69266747652E+03  0.69266747652E+03  0.00000000000E+00 0. -1.
    9000010    2    1    2  502    0  0.22740660893E+03  0.24187743501E+02  0.39912368901E+02  0.99438636685E+03  0.96690870131E+03 0.  0.
   -9000010    2    1    2    0  501 -0.22740660893E+03 -0.24187743501E+02  0.10198745117E+04  0.14507354668E+04  0.10060768173E+04 0.  0.
        -13    1    3    3    0    0  0.53571357101E+03 -0.23800788269E+03 -0.12139276557E+02  0.58633109724E+03  0.10566000000E+00 0.  1.
          4    1    3    3  502    0 -0.30830696208E+03  0.26219562619E+03  0.52051645458E+02  0.40805526961E+03  0.00000000000E+00 0.  1.
         13    1    4    4    0    0 -0.56514984570E+03 -0.54428672639E+02  0.27195635480E+03  0.62953720984E+03  0.10566000000E+00 0. -1.
         -4    1    4    4    0  501  0.33774323676E+03  0.30240929138E+02  0.74791815689E+03  0.82119825693E+03  0.00000000000E+00 0. -1.
<mgrwt>
<rscale>  2 0.10124833E+04</rscale>
<asrwt>0</asrwt>
<pdfrwt beam="1">  1        2 0.26960836E+00 0.10124833E+04</pdfrwt>
<pdfrwt beam="2">  1       -2 0.10656423E+00 0.10124833E+04</pdfrwt>
<totfact> 0.99624391E+00</totfact>
</mgrwt>
</event>
<event>
 8    1  0.7046235E-006  0.1128256E+04  0.7818608E-02  0.8662639E-01
          2   -1    0    0  502    0  0.00000000000E+00  0.00000000000E+00  0.24362857132E+04  0.24362857132E+04  0.00000000000E+00 0.  1.
         -2   -1    0    0    0  501 -0.00000000000E+00 -0.00000000000E+00 -0.52284470998E+03  0.52284470998E+03  0.00000000000E+00 0. -1.
    9000010    2    1    2  502    0  0.40841264887E+03  0.35975782674E+03  0.99812104382E+03  0.15098708945E+04  0.99359846741E+03 0.  0.
   -9000010    2    1    2    0  501 -0.40841264887E+03 -0.35975782674E+03  0.91531995936E+03  0.14492595286E+04  0.98301371686E+03 0.  0.
        -13    1    3    3    0    0  0.14599732207E+02  0.23387102038E+03  0.10655086669E+04  0.10909709147E+04  0.10566000000E+00 0.  1.
          4    1    3    3  502    0  0.39381291666E+03  0.12588680636E+03 -0.67387623097E+02  0.41889997982E+03  0.00000000000E+00 0.  1.
         13    1    4    4    0    0 -0.64033209638E+03 -0.38763487211E+03  0.32807664017E+03  0.81726389907E+03  0.10566000000E+00 0. -1.
         -4    1    4    4    0  501  0.23191944751E+03  0.27877045376E+02  0.58724331920E+03  0.63199562952E+03  0.00000000000E+00 0. -1.
<mgrwt>
<rscale>  2 0.11282555E+04</rscale>
<asrwt>0</asrwt>
<pdfrwt beam="1">  1        2 0.37481318E+00 0.11282555E+04</pdfrwt>
<pdfrwt beam="2">  1       -2 0.80437649E-01 0.11282555E+04</pdfrwt>
<totfact> 0.80272233E+00</totfact>
</mgrwt>
</event>
<event>
 8    1  0.7046235E-006  0.1783066E+04  0.7818608E-02  0.8262937E-01
         -2   -1    0    0    0  501 -0.00000000000E+00  0.00000000000E+00  0.88300448085E+03  0.88300448085E+03  0.00000000000E+00 0. -1.
          2   -1    0    0  502    0  0.00000000000E+00 -0.00000000000E+00 -0.36597708122E+04  0.36597708122E+04  0.00000000000E+00 0.  1.
    9000010    2    1    2  502    0  0.11092205957E+04  0.94022671686E+03 -0.16847294526E+04  0.24604871487E+04  0.10494222561E+04 0.  0.
   -9000010    2    1    2    0  501 -0.11092205957E+04 -0.94022671686E+03 -0.10920368788E+04  0.20822881444E+04  0.10143878759E+04 0.  0.
        -13    1    3    3    0    0  0.11513309837E+04  0.60108899478E+03 -0.16737572353E+04  0.21185689292E+04  0.10566000000E+00 0.  1.
          4    1    3    3  502    0 -0.42110388010E+02  0.33913772208E+03 -0.10972217276E+02  0.34191821956E+03  0.00000000000E+00 0.  1.
         13    1    4    4    0    0 -0.77852017167E+03 -0.11182743917E+04 -0.10145180959E+04  0.16987872883E+04  0.10566000000E+00 0. -1.
         -4    1    4    4    0  501 -0.33070042398E+03  0.17804767482E+03 -0.77518782918E+02  0.38350085611E+03  0.00000000000E+00 0. -1.
<mgrwt>
<rscale>  2 0.17830665E+04</rscale>
<asrwt>0</asrwt>
<pdfrwt beam="2">  1        2 0.56304167E+00 0.17830665E+04</pdfrwt>
<pdfrwt beam="1">  1       -2 0.13584684E+00 0.17830665E+04</pdfrwt>
<totfact> 0.32864167E-01</totfact>
</mgrwt>
</event>
<event>
 8    1  0.7046235E-006  0.1627524E+04  0.7818608E-02  0.8339666E-01
         -1   -1    0    0    0  501 -0.00000000000E+00  0.00000000000E+00  0.67467789334E+03  0.67467789334E+03  0.00000000000E+00 0.  1.
          1   -1    0    0  502    0  0.00000000000E+00 -0.00000000000E+00 -0.41442919735E+04  0.41442919735E+04  0.00000000000E+00 0. -1.
    9000010    2    1    2  502    0  0.58415192868E+03  0.11379387876E+04 -0.11845121913E+04  0.20150106294E+04  0.10104754054E+04 0.  0.
   -9000010    2    1    2    0  501 -0.58415192868E+03 -0.11379387876E+04 -0.22851018889E+04  0.28039592374E+04  0.10021769318E+04 0.  0.
        -13    1    3    3    0    0  0.49169698932E+03  0.96369530408E+03 -0.31990854602E+03  0.11281914985E+04  0.10566000000E+00 0.  1.
          4    1    3    3  502    0  0.92454939355E+02  0.17424348354E+03 -0.86460364527E+03  0.88681913082E+03  0.00000000000E+00 0.  1.
         13    1    4    4    0    0  0.15766103481E+03 -0.78526594270E+03 -0.10482600322E+04  0.13192227670E+04  0.10566000000E+00 0. -1.
         -4    1    4    4    0  501 -0.74181296348E+03 -0.35267284492E+03 -0.12368418567E+04  0.14847364705E+04  0.00000000000E+00 0. -1.
<mgrwt>
<rscale>  2 0.16275241E+04</rscale>
<asrwt>0</asrwt>
<pdfrwt beam="2">  1        1 0.63758337E+00 0.16275241E+04</pdfrwt>
<pdfrwt beam="1">  1       -1 0.10379660E+00 0.16275241E+04</pdfrwt>
<totfact> 0.45156847E-02</totfact>
</mgrwt>
</event>
<event>
 8    1  0.7046235E-006  0.1157561E+04  0.7818608E-02  0.8639224E-01
          1   -1    0    0  502    0  0.00000000000E+00  0.00000000000E+00  0.11088919372E+04  0.11088919372E+04  0.00000000000E+00 0. -1.
         -1   -1    0    0    0  501 -0.00000000000E+00 -0.00000000000E+00 -0.13157638714E+04  0.13157638714E+04  0.00000000000E+00 0.  1.
    9000010    2    1    2  502    0  0.63047489266E+03  0.22881354154E+03 -0.44999415184E+03  0.12891921733E+04  0.10048221216E+04 0.  0.
   -9000010    2    1    2    0  501 -0.63047489266E+03 -0.22881354154E+03  0.24312221765E+03  0.11354636353E+04  0.88335441773E+03 0.  0.
        -13    1    3    3    0    0  0.46742207586E+03  0.35015521720E+03  0.19279887199E+03  0.61503129134E+03  0.10566000000E+00 0.  1.
          4    1    3    3  502    0  0.16305281681E+03 -0.12134167565E+03 -0.64279302383E+03  0.67416088199E+03  0.00000000000E+00 0.  1.
         13    1    4    4    0    0 -0.46397086174E+03  0.22457077683E+03  0.37187710915E+03  0.63560490072E+03  0.10566000000E+00 0. -1.
         -4    1    4    4    0  501 -0.16650403093E+03 -0.45338431838E+03 -0.12875489150E+03  0.49985873459E+03  0.00000000000E+00 0. -1.
<mgrwt>
<rscale>  2 0.11575609E+04</rscale>
<asrwt>0</asrwt>
<pdfrwt beam="1">  1        1 0.17059876E+00 0.11575609E+04</pdfrwt>
<pdfrwt beam="2">  1       -1 0.20242521E+00 0.11575609E+04</pdfrwt>
<totfact> 0.22270817E+00</totfact>
</mgrwt>
</event>
<event>
 8    1  0.7046235E-006  0.1343131E+04  0.7818608E-02  0.8505932E-01
          1   -1    0    0  502    0  0.00000000000E+00  0.00000000000E+00  0.13075958325E+04  0.13075958325E+04  0.00000000000E+00 0.  1.
         -1   -1    0    0    0  501 -0.00000000000E+00 -0.00000000000E+00 -0.16648173507E+04  0.16648173507E+04  0.00000000000E+00 0. -1.
    9000010    2    1    2  502    0  0.55956247301E+03  0.69439753652E+03 -0.79461696932E+03  0.15681060352E+04  0.10159932627E+04 0.  0.
   -9000010    2    1    2    0  501 -0.55956247301E+03 -0.69439753652E+03  0.43739545112E+03  0.14043071480E+04  0.99270624316E+03 0.  0.
        -13    1    3    3    0    0  0.69439474936E+03  0.35365804567E+03 -0.89641885016E+03  0.11877814813E+04  0.10566000000E+00 0.  1.
          4    1    3    3  502    0 -0.13483227635E+03  0.34073949085E+03  0.10180188085E+03  0.38032455392E+03  0.00000000000E+00 0.  1.
         13    1    4    4    0    0 -0.38520939545E+02 -0.46247411229E+03  0.64739523807E+03  0.79654678003E+03  0.10566000000E+00 0. -1.
         -4    1    4    4    0  501 -0.52104153346E+03 -0.23192342423E+03 -0.20999978696E+03  0.60776036793E+03  0.00000000000E+00 0. -1.
<mgrwt>
<rscale>  2 0.13431309E+04</rscale>
<asrwt>0</asrwt>
<pdfrwt beam="1">  1        1 0.20116859E+00 0.13431309E+04</pdfrwt>
<pdfrwt beam="2">  1       -1 0.25612574E+00 0.13431309E+04</pdfrwt>
<totfact> 0.47715472E-01</totfact>
</mgrwt>
</event>
<event>
 8    1  0.7046235E-006  0.1462011E+04  0.7818608E-02  0.8431703E-01
         -2   -1    0    0    0  501 -0.00000000000E+00  0.00000000000E+00  0.11032552271E+04  0.11032552271E+04  0.00000000000E+00 0. -1.
          2   -1    0    0  502    0  0.00000000000E+00 -0.00000000000E+00 -0.19492887350E+04  0.19492887350E+04  0.00000000000E+00 0.  1.
    9000010    2    1    2  502    0  0.32907584962E+03 -0.10185595502E+04 -0.30358809065E+03  0.14919020656E+04  0.99390722536E+03 0.  0.
   -9000010    2    1    2    0  501 -0.32907584962E+03  0.10185595502E+04 -0.54244541728E+03  0.15606418965E+04  0.99779838964E+03 0.  0.
        -13    1    3    3    0    0  0.65960784351E+03 -0.56072982911E+03 -0.34592500513E+02  0.86642778160E+03  0.10566000000E+00 0.  1.
          4    1    3    3  502    0 -0.33053199389E+03 -0.45782972106E+03 -0.26899559014E+03  0.62547428403E+03  0.00000000000E+00 0.  1.
         13    1    4    4    0    0  0.39892267639E+02 -0.17126485327E+03  0.47699729970E+02  0.18220405700E+03  0.10566000000E+00 0. -1.
         -4    1    4    4    0  501 -0.36896811726E+03  0.11898244034E+04 -0.59014514726E+03  0.13784378395E+04  0.00000000000E+00 0. -1.
<mgrwt>
<rscale>  2 0.14620115E+04</rscale>
<asrwt>0</asrwt>
<pdfrwt beam="2">  1        2 0.29989057E+00 0.14620115E+04</pdfrwt>
<pdfrwt beam="1">  1       -2 0.16973157E+00 0.14620115E+04</pdfrwt>
<totfact> 0.19651595E+00</totfact>
</mgrwt>
</event>
<event>
 8    1  0.7046235E-006  0.1519939E+04  0.7818608E-02  0.8398116E-01
          1   -1    0    0  502    0  0.00000000000E+00  0.00000000000E+00  0.16859863742E+04  0.16859863742E+04  0.00000000000E+00 0.  1.
         -1   -1    0    0    0  501 -0.00000000000E+00 -0.00000000000E+00 -0.13812959668E+04  0.13812959668E+04  0.00000000000E+00 0. -1.
    9000010    2    1    2  502    0 -0.99672196257E+03  0.57695913542E+03  0.14748543029E+02  0.15147513643E+04  0.98382806504E+03 0.  0.
   -9000010    2    1    2    0  501  0.99672196257E+03 -0.57695913542E+03  0.28994186435E+03  0.15525309767E+04  0.99997481689E+03 0.  0.
        -13    1    3    3    0    0 -0.56296124153E+03 -0.66126626165E+02  0.35380593932E+03  0.66818915287E+03  0.10566000000E+00 0.  1.
          4    1    3    3  502    0 -0.43376072103E+03  0.64308576158E+03 -0.33905739629E+03  0.84656221144E+03  0.00000000000E+00 0.  1.
         13    1    4    4    0    0  0.11180646457E+04 -0.55818749452E+03  0.46955290638E+03  0.13349613381E+04  0.10566000000E+00 0. -1.
         -4    1    4    4    0  501 -0.12134268315E+03 -0.18771640896E+02 -0.17961104203E+03  0.21756963868E+03  0.00000000000E+00 0. -1.
<mgrwt>
<rscale>  2 0.15199390E+04</rscale>
<asrwt>0</asrwt>
<pdfrwt beam="1">  1        1 0.25938252E+00 0.15199390E+04</pdfrwt>
<pdfrwt beam="2">  1       -1 0.21250707E+00 0.15199390E+04</pdfrwt>
<totfact> 0.63165524E-01</totfact>
</mgrwt>
</event>
<event>
 8    1  0.7046235E-006  0.1241715E+04  0.7818608E-02  0.8575795E-01
          2   -1    0    0  502    0  0.00000000000E+00  0.00000000000E+00  0.10527543855E+04  0.10527543855E+04  0.00000000000E+00 0.  1.
         -2   -1    0    0    0  501 -0.00000000000E+00 -0.00000000000E+00 -0.14745583272E+04  0.14745583272E+04  0.00000000000E+00 0. -1.
    9000010    2    1    2  502    0 -0.73459991684E+03  0.57996063713E+02 -0.10670816978E+03  0.12443750699E+04  0.99703665926E+03 0.  0.
   -9000010    2    1    2    0  501  0.73459991684E+03 -0.57996063713E+02 -0.31509577193E+03  0.12829376427E+04  0.10018198782E+04 0.  0.
        -13    1    3    3    0    0 -0.43072583026E+03 -0.46449159232E+03 -0.20184941068E+02  0.63378594431E+03  0.10566000000E+00 0.  1.
          4    1    3    3  502    0 -0.30387408658E+03  0.52248765604E+03 -0.86523228710E+02  0.61058912561E+03  0.00000000000E+00 0.  1.
         13    1    4    4    0    0  0.20283946249E+03 -0.30639527751E+03 -0.54104761589E+03  0.65402939342E+03  0.10566000000E+00 0. -1.
         -4    1    4    4    0  501  0.53176045434E+03  0.24839921380E+03  0.22595184396E+03  0.62890824928E+03  0.00000000000E+00 0. -1.
<mgrwt>
<rscale>  2 0.12417148E+04</rscale>
<asrwt>0</asrwt>
<pdfrwt beam="1">  1        2 0.16196221E+00 0.12417148E+04</pdfrwt>
<pdfrwt beam="2">  1       -2 0.22685513E+00 0.12417148E+04</pdfrwt>
<totfact> 0.21388113E+00</totfact>
</mgrwt>
</event>
<event>
 8    1  0.7046235E-006  0.1203970E+04  0.7818608E-02  0.8603579E-01
         -1   -1    0    0    0  501 -0.00000000000E+00  0.00000000000E+00  0.93473618989E+03  0.93473618989E+03  0.00000000000E+00 0.  1.
          1   -1    0    0  502    0  0.00000000000E+00 -0.00000000000E+00 -0.17094301801E+04  0.17094301801E+04  0.00000000000E+00 0. -1.
    9000010    2    1    2  502    0 -0.63390208576E+03 -0.44687138893E+02 -0.79793297760E+03  0.14713574456E+04  0.10603616842E+04 0.  0.
   -9000010    2    1    2    0  501  0.63390208576E+03  0.44687138893E+02  0.23238987403E+02  0.11728089243E+04  0.98545011428E+03 0.  0.
        -13    1    3    3    0    0 -0.74363186087E+03 -0.38727548069E+03 -0.71566694522E+03  0.11023383465E+04  0.10566000000E+00 0.  1.
          4    1    3    3  502    0  0.10972977511E+03  0.34258834180E+03 -0.82266032381E+02  0.36901909919E+03  0.00000000000E+00 0.  1.
         13    1    4    4    0    0  0.26264413361E+03  0.31461683510E+03  0.40470193881E+03  0.57597687825E+03  0.10566000000E+00 0. -1.
         -4    1    4    4    0  501  0.37125795215E+03 -0.26992969620E+03 -0.38146295140E+03  0.59683204607E+03  0.00000000000E+00 0. -1.
<mgrwt>
<rscale>  2 0.12039702E+04</rscale>
<asrwt>0</asrwt>
<pdfrwt beam="2">  1        1 0.26298926E+00 0.12039702E+04</pdfrwt>
<pdfrwt beam="1">  1       -1 0.14380557E+00 0.12039702E+04</pdfrwt>
<totfact> 0.25393004E+00</totfact>
</mgrwt>
</event>
<event>
 8    1  0.7046235E-006  0.2096335E+04  0.7818608E-02  0.8130257E-01
          1   -1    0    0  502    0  0.00000000000E+00  0.00000000000E+00  0.22646907809E+04  0.22646907809E+04  0.00000000000E+00 0. -1.
         -1   -1    0    0    0  501 -0.00000000000E+00 -0.00000000000E+00 -0.21388244390E+04  0.21388244390E+04  0.00000000000E+00 0.  1.
    9000010    2    1    2  502    0 -0.62765541255E+02  0.18440314664E+04  0.73315788274E+03  0.22140070977E+04  0.97975271638E+03 0.  0.
   -9000010    2    1    2    0  501  0.62765541255E+02 -0.18440314664E+04 -0.60729154082E+03  0.21895081222E+04  0.10103223442E+04 0.  0.
        -13    1    3    3    0    0  0.37445982390E+03  0.13362135403E+04  0.31133655867E+03  0.14221874872E+04  0.10566000000E+00 0.  1.
          4    1    3    3  502    0 -0.43722536515E+03  0.50781792615E+03  0.42182132407E+03  0.79181961045E+03  0.00000000000E+00 0.  1.
         13    1    4    4    0    0  0.51150282512E+03 -0.12649265376E+04 -0.31220105060E+03  0.13996941783E+04  0.10566000000E+00 0. -1.
         -4    1    4    4    0  501 -0.44873728387E+03 -0.57910492884E+03 -0.29509049022E+03  0.78981394389E+03  0.00000000000E+00 0. -1.
<mgrwt>
<rscale>  2 0.20963348E+04</rscale>
<asrwt>0</asrwt>
<pdfrwt beam="1">  1        1 0.34841396E+00 0.20963348E+04</pdfrwt>
<pdfrwt beam="2">  1       -1 0.32904992E+00 0.20963348E+04</pdfrwt>
<totfact> 0.20920431E-02</totfact>
</mgrwt>
</event>
<event>
 8    1  0.7046235E-006  0.1210994E+04  0.7818608E-02  0.8598329E-01
         -1   -1    0    0    0  501 -0.00000000000E+00  0.00000000000E+00  0.88904914246E+03  0.88904914246E+03  0.00000000000E+00 0.  1.
          1   -1    0    0  502    0  0.00000000000E+00 -0.00000000000E+00 -0.18632353838E+04  0.18632353838E+04  0.00000000000E+00 0. -1.
    9000010    2    1    2  502    0  0.68440663088E+03  0.10685240117E+03 -0.95439786045E+03  0.15446567566E+04  0.99762685787E+03 0.  0.
   -9000010    2    1    2    0  501 -0.68440663088E+03 -0.10685240117E+03 -0.19788380908E+02  0.12076277697E+04  0.98901131345E+03 0.  0.
        -13    1    3    3    0    0  0.83838047757E+03  0.14731655013E+03 -0.10555693964E+04  0.13560275634E+04  0.10566000000E+00 0.  1.
          4    1    3    3  502    0 -0.15397384670E+03 -0.40464148956E+02  0.10117153591E+03  0.18862919312E+03  0.00000000000E+00 0.  1.
         13    1    4    4    0    0 -0.87946479370E+03 -0.63656391358E+02 -0.23644671337E+03  0.91291703837E+03  0.10566000000E+00 0. -1.
         -4    1    4    4    0  501  0.19505816282E+03 -0.43196009813E+02  0.21665833246E+03  0.29471073135E+03  0.00000000000E+00 0. -1.
<mgrwt>
<rscale>  2 0.12109939E+04</rscale>
<asrwt>0</asrwt>
<pdfrwt beam="2">  1        1 0.28665160E+00 0.12109939E+04</pdfrwt>
<pdfrwt beam="1">  1       -1 0.13677679E+00 0.12109939E+04</pdfrwt>
<totfact> 0.22405270E+00</totfact>
</mgrwt>
</event>
<event>
 8    1  0.7046235E-006  0.1132651E+04  0.7818608E-02  0.8659080E-01
         -2   -1    0    0    0  501 -0.00000000000E+00  0.00000000000E+00  0.63167947586E+03  0.63167947586E+03  0.00000000000E+00 0.  1.
          2   -1    0    0  502    0  0.00000000000E+00 -0.00000000000E+00 -0.21830333131E+04  0.21830333131E+04  0.00000000000E+00 0. -1.
    9000010    2    1    2  502    0  0.16091986618E+02  0.53727132808E+03 -0.11533851062E+04  0.16236646279E+04  0.10084989780E+04 0.  0.
   -9000010    2    1    2    0  501 -0.16091986618E+02 -0.53727132808E+03 -0.39796873099E+03  0.11910481610E+04  0.98554410305E+03 0.  0.
        -13    1    3    3    0    0 -0.27988785978E+03  0.58321990534E+03 -0.28838097963E+03  0.70826991508E+03  0.10566000000E+00 0.  1.
          4    1    3    3  502    0  0.29597984640E+03 -0.45948577258E+02 -0.86500412660E+03  0.91539471282E+03  0.00000000000E+00 0.  1.
         13    1    4    4    0    0 -0.32891087051E+03  0.11002234990E+03 -0.31290249384E+03  0.46711375491E+03  0.10566000000E+00 0. -1.
         -4    1    4    4    0  501  0.31281888389E+03 -0.64729367798E+03 -0.85066237150E+02  0.72393440612E+03  0.00000000000E+00 0. -1.
<mgrwt>
<rscale>  2 0.11326513E+04</rscale>
<asrwt>0</asrwt>
<pdfrwt beam="2">  1        2 0.33585128E+00 0.11326513E+04</pdfrwt>
<pdfrwt beam="1">  1       -2 0.97181458E-01 0.11326513E+04</pdfrwt>
<totfact> 0.71682179E+00</totfact>
</mgrwt>
</event>
<event>
 8    1  0.7046235E-006  0.1027545E+04  0.7818608E-02  0.8749133E-01
         -2   -1    0    0    0  501 -0.00000000000E+00  0.00000000000E+00  0.45326789541E+03  0.45326789541E+03  0.00000000000E+00 0.  1.
          2   -1    0    0  502    0  0.00000000000E+00 -0.00000000000E+00 -0.23660028568E+04  0.23660028568E+04  0.00000000000E+00 0. -1.
    9000010    2    1    2  502    0 -0.16111372422E+03  0.55660701682E+03 -0.79640120844E+03  0.12097883023E+04  0.70254099395E+03 0.  0.
   -9000010    2    1    2    0  501  0.16111372422E+03 -0.55660701682E+03 -0.11163337529E+04  0.16094824499E+04  0.10042229361E+04 0.  0.
        -13    1    3    3    0    0 -0.41915732639E+03  0.48813031377E+03 -0.57692270007E+03  0.86417815322E+03  0.10566000000E+00 0.  1.
          4    1    3    3  502    0  0.25804360217E+03  0.68476703049E+02 -0.21947850837E+03  0.34561014904E+03  0.00000000000E+00 0.  1.
         13    1    4    4    0    0  0.36804316771E+03 -0.47779078008E+03 -0.12230568250E+04  0.13636743787E+04  0.10566000000E+00 0. -1.
         -4    1    4    4    0  501 -0.20692944349E+03 -0.78816236741E+02  0.10672307208E+03  0.24580807121E+03  0.00000000000E+00 0. -1.
<mgrwt>
<rscale>  2 0.10275450E+04</rscale>
<asrwt>0</asrwt>
<pdfrwt beam="2">  1        2 0.36400045E+00 0.10275450E+04</pdfrwt>
<pdfrwt beam="1">  1       -2 0.69733520E-01 0.10275450E+04</pdfrwt>
<totfact> 0.12039726E+01</totfact>
</mgrwt>
</event>
<event>
 8    1  0.7046235E-006  0.1117665E+04  0.7818608E-02  0.8671283E-01
         -2   -1    0    0    0  501 -0.00000000000E+00  0.00000000000E+00  0.11165134059E+04  0.11165134059E+04  0.00000000000E+00 0. -1.
          2   -1    0    0  502    0  0.00000000000E+00 -0.00000000000E+00 -0.11383005013E+04  0.11383005013E+04  0.00000000000E+00 0.  1.
    9000010    2    1    2  502    0  0.31864932625E+03  0.62433645871E+03 -0.11154340573E+03  0.10224097713E+04  0.73589836415E+03 0.  0.
   -9000010    2    1    2    0  501 -0.31864932625E+03 -0.62433645871E+03  0.89756310274E+02  0.12324041359E+04  0.10096684368E+04 0.  0.
        -13    1    3    3    0    0  0.33370888825E+03  0.51887978789E+03  0.23476677036E+03  0.66008583079E+03  0.10566000000E+00 0.  1.
          4    1    3    3  502    0 -0.15059562006E+02  0.10545667082E+03 -0.34631017608E+03  0.36232394054E+03  0.00000000000E+00 0.  1.
         13    1    4    4    0    0 -0.43057484483E+03  0.89054116352E+02 -0.16062823045E+03  0.46810978651E+03  0.10566000000E+00 0. -1.
         -4    1    4    4    0  501  0.11192551859E+03 -0.71339057506E+03  0.25038454073E+03  0.76429434940E+03  0.00000000000E+00 0. -1.
<mgrwt>
<rscale>  2 0.11176648E+04</rscale>
<asrwt>0</asrwt>
<pdfrwt beam="2">  1        2 0.17512315E+00 0.11176648E+04</pdfrwt>
<pdfrwt beam="1">  1       -2 0.17177129E+00 0.11176648E+04</pdfrwt>
<totfact> 0.54924815E+00</totfact>
</mgrwt>
</event>
<event>
 8    1  0.7046235E-006  0.1064363E+04  0.7818608E-02  0.8716360E-01
         -1   -1    0    0    0  501 -0.00000000000E+00  0.00000000000E+00  0.31260479317E+04  0.31260479317E+04  0.00000000000E+00 0. -1.
          1   -1    0    0  502    0  0.00000000000E+00 -0.00000000000E+00 -0.38746442279E+03  0.38746442279E+03  0.00000000000E+00 0.  1.
    9000010    2    1    2  502    0 -0.48043677682E+03  0.14291471183E+03  0.87532212681E+03  0.13450263627E+04  0.88975444894E+03 0.  0.
   -9000010    2    1    2    0  501  0.48043677682E+03 -0.14291471183E+03  0.18632613821E+04  0.21684859917E+04  0.98961831380E+03 0.  0.
        -13    1    3    3    0    0  0.24361509780E+03 -0.90814246269E+02  0.23939526383E+03  0.35341992970E+03  0.10566000000E+00 0.  1.
          4    1    3    3  502    0 -0.72405187462E+03  0.23372895810E+03  0.63592686298E+03  0.99160643304E+03  0.00000000000E+00 0.  1.
         13    1    4    4    0    0 -0.21013478417E+03 -0.58416566072E+02  0.46413563613E+02  0.22298733767E+03  0.10566000000E+00 0. -1.
         -4    1    4    4    0  501  0.69057156099E+03 -0.84498145756E+02  0.18168478185E+04  0.19454986540E+04  0.00000000000E+00 0. -1.
<mgrwt>
<rscale>  2 0.10643626E+04</rscale>
<asrwt>0</asrwt>
<pdfrwt beam="2">  1        1 0.59609913E-01 0.10643626E+04</pdfrwt>
<pdfrwt beam="1">  1       -1 0.48093043E+00 0.10643626E+04</pdfrwt>
<totfact> 0.89863193E-01</totfact>
</mgrwt>
</event>
<event>
 8    1  0.7046235E-006  0.1038155E+04  0.7818608E-02  0.8739545E-01
         -2   -1    0    0    0  501 -0.00000000000E+00  0.00000000000E+00  0.29396777227E+03  0.29396777227E+03  0.00000000000E+00 0. -1.
          2   -1    0    0  502    0  0.00000000000E+00 -0.00000000000E+00 -0.36674057445E+04  0.36674057445E+04  0.00000000000E+00 0.  1.
    9000010    2    1    2  502    0 -0.22919760257E+03  0.11557041810E+03 -0.16415322559E+04  0.19371538407E+04  0.99601646216E+03 0.  0.
   -9000010    2    1    2    0  501  0.22919760257E+03 -0.11557041810E+03 -0.17319057163E+04  0.20242196760E+04  0.10159132955E+04 0.  0.
        -13    1    3    3    0    0  0.66843551051E+02 -0.20363965806E+03 -0.14427137709E+04  0.14585472932E+04  0.10566000000E+00 0.  1.
          4    1    3    3  502    0 -0.29604115362E+03  0.31921007616E+03 -0.19881848505E+03  0.47860654755E+03  0.00000000000E+00 0.  1.
         13    1    4    4    0    0 -0.16127382396E+03 -0.36089053302E+03 -0.14034728006E+04  0.14580765193E+04  0.10566000000E+00 0. -1.
         -4    1    4    4    0  501  0.39047142653E+03  0.24532011492E+03 -0.32843291571E+03  0.56614315667E+03  0.00000000000E+00 0. -1.
<mgrwt>
<rscale>  2 0.10381553E+04</rscale>
<asrwt>0</asrwt>
<pdfrwt beam="2">  1        2 0.56421627E+00 0.10381553E+04</pdfrwt>
<pdfrwt beam="1">  1       -2 0.45225811E-01 0.10381553E+04</pdfrwt>
<totfact> 0.42167645E+00</totfact>
</mgrwt>
</event>
<event>
 8    1  0.7046235E-006  0.1108392E+04  0.7818608E-02  0.8678934E-01
         -1   -1    0    0    0  501 -0.00000000000E+00  0.00000000000E+00  0.64102560657E+03  0.64102560657E+03  0.00000000000E+00 0.  1.
          1   -1    0    0  502    0  0.00000000000E+00 -0.00000000000E+00 -0.19957520238E+04  0.19957520238E+04  0.00000000000E+00 0. -1.
    9000010    2    1    2  502    0  0.93030863128E+02 -0.49072435268E+03 -0.40803869279E+03  0.11699767497E+04  0.97615822911E+03 0.  0.
   -9000010    2    1    2    0  501 -0.93030863128E+02  0.49072435268E+03 -0.94668772444E+03  0.14668008806E+04  0.10029067973E+04 0.  0.
        -13    1    3    3    0    0 -0.25448456792E+02  0.77504436428E+02 -0.56325599805E+03  0.56913257868E+03  0.10566000000E+00 0.  1.
          4    1    3    3  502    0  0.11847931992E+03 -0.56822878911E+03  0.15521730525E+03  0.60084417104E+03  0.00000000000E+00 0.  1.
         13    1    4    4    0    0 -0.31958629990E+02 -0.14130365943E+03 -0.80275179727E+03  0.81571964386E+03  0.10566000000E+00 0. -1.
         -4    1    4    4    0  501 -0.61072233137E+02  0.63202801211E+03 -0.14393592717E+03  0.65108123678E+03  0.00000000000E+00 0. -1.
<mgrwt>
<rscale>  2 0.11083923E+04</rscale>
<asrwt>0</asrwt>
<pdfrwt beam="2">  1        1 0.30703877E+00 0.11083923E+04</pdfrwt>
<pdfrwt beam="1">  1       -1 0.98619325E-01 0.11083923E+04</pdfrwt>
<totfact> 0.39723400E+00</totfact>
</mgrwt>
</event>
<event>
 8    1  0.7046235E-006  0.1150714E+04  0.7818608E-02  0.8644630E-01
          2   -1    0    0  502    0  0.00000000000E+00  0.00000000000E+00  0.41185002158E+03  0.41185002158E+03  0.00000000000E+00 0. -1.
         -2   -1    0    0    0  501 -0.00000000000E+00 -0.00000000000E+00 -0.36540427502E+04  0.36540427502E+04  0.00000000000E+00 0.  1.
    9000010    2    1    2  502    0  0.25538998678E+03  0.50847651622E+03 -0.91151497117E+03  0.14648231943E+04  0.99552751588E+03 0.  0.
   -9000010    2    1    2    0  501 -0.25538998678E+03 -0.50847651622E+03 -0.23306777575E+04  0.26010695775E+04  0.10048540815E+04 0.  0.
        -13    1    3    3    0    0  0.14995722266E+03  0.78102520643E+03 -0.43674046957E+03  0.90732011476E+03  0.10566000000E+00 0.  1.
          4    1    3    3  502    0  0.10543276412E+03 -0.27254869022E+03 -0.47477450160E+03  0.55750307950E+03  0.00000000000E+00 0.  1.
         13    1    4    4    0    0  0.15874184155E+03 -0.56859809976E+03 -0.69101435144E+03  0.90884741094E+03  0.10566000000E+00 0. -1.
         -4    1    4    4    0  501 -0.41413182833E+03  0.60121583542E+02 -0.16396634060E+04  0.16922221666E+04  0.00000000000E+00 0. -1.
<mgrwt>
<rscale>  2 0.11507141E+04</rscale>
<asrwt>0</asrwt>
<pdfrwt beam="1">  1        2 0.63361544E-01 0.11507141E+04</pdfrwt>
<pdfrwt beam="2">  1       -2 0.56216040E+00 0.11507141E+04</pdfrwt>
<totfact> 0.46359291E-01</totfact>
</mgrwt>
</event>
<event>
 8    1  0.7046235E-006  0.1366542E+04  0.7818608E-02  0.8490705E-01
          2   -1    0    0  502    0  0.00000000000E+00  0.00000000000E+00  0.20078574657E+04  0.20078574657E+04  0.00000000000E+00 0. -1.
         -2   -1    0    0    0  501 -0.00000000000E+00 -0.00000000000E+00 -0.13587929737E+04  0.13587929737E+04  0.00000000000E+00 0.  1.
    9000010    2    1    2  502    0 -0.64584577568E+03 -0.68987433853E+03  0.12713167846E+04  0.18722721656E+04  0.99805477122E+03 0.  0.
   -9000010    2    1    2    0  501  0.64584577568E+03  0.68987433853E+03 -0.62225229259E+03  0.14943782738E+04  0.97617884670E+03 0.  0.
        -13    1    3    3    0    0 -0.69518001553E+02 -0.76905462057E+03  0.56276362598E+03  0.95550022075E+03  0.10566000000E+00 0.  1.
          4    1    3    3  502    0 -0.57632777412E+03  0.79180282038E+02  0.70855315857E+03  0.91677194482E+03  0.00000000000E+00 0.  1.
         13    1    4    4    0    0  0.56686433686E+03 -0.44547929642E+02 -0.71694956499E+02  0.57311418792E+03  0.10566000000E+00 0. -1.
         -4    1    4    4    0  501  0.78981438814E+02  0.73442226818E+03 -0.55055733609E+03  0.92126408592E+03  0.00000000000E+00 0. -1.
<mgrwt>
<rscale>  2 0.13665423E+04</rscale>
<asrwt>0</asrwt>
<pdfrwt beam="1">  1        2 0.30890115E+00 0.13665423E+04</pdfrwt>
<pdfrwt beam="2">  1       -2 0.20904507E+00 0.13665423E+04</pdfrwt>
<totfact> 0.86803460E-01</totfact>
</mgrwt>
</event>
<event>
 8    1  0.7046235E-006  0.1086820E+04  0.7818608E-02  0.8697040E-01
         -2   -1    0    0    0  501 -0.00000000000E+00  0.00000000000E+00  0.74801134217E+03  0.74801134217E+03  0.00000000000E+00 0.  1.
          2   -1    0    0  502    0  0.00000000000E+00 -0.00000000000E+00 -0.15807336374E+04  0.15807336374E+04  0.00000000000E+00 0. -1.
    9000010    2    1    2  502    0  0.22646597108E+03  0.41253110533E+03 -0.44561740298E+03  0.11619825696E+04  0.96444796304E+03 0.  0.
   -9000010    2    1    2    0  501 -0.22646597108E+03 -0.41253110533E+03 -0.38710489225E+03  0.11667624099E+04  0.99499526364E+03 0.  0.
        -13    1    3    3    0    0  0.18387946802E+03  0.69958250472E+03 -0.48243091808E+03  0.86946359415E+03  0.10566000000E+00 0.  1.
          4    1    3    3  502    0  0.42586503058E+02 -0.28705139939E+03  0.36813515099E+02  0.29251897550E+03  0.00000000000E+00 0.  1.
         13    1    4    4    0    0 -0.47328570370E+03 -0.52627935444E+03 -0.17515315851E+02  0.70800855482E+03  0.10566000000E+00 0. -1.
         -4    1    4    4    0  501  0.24681973262E+03  0.11374824911E+03 -0.36958957640E+03  0.45875385510E+03  0.00000000000E+00 0. -1.
<mgrwt>
<rscale>  2 0.10868199E+04</rscale>
<asrwt>0</asrwt>
<pdfrwt beam="2">  1        2 0.24318979E+00 0.10868199E+04</pdfrwt>
<pdfrwt beam="1">  1       -2 0.11507867E+00 0.10868199E+04</pdfrwt>
<totfact> 0.10092191E+01</totfact>
</mgrwt>
</event>
<event>
 8    1  0.7046235E-006  0.1573980E+04  0.7818608E-02  0.8368151E-01
         -2   -1    0    0    0  501 -0.00000000000E+00  0.00000000000E+00  0.10572109373E+04  0.10572109373E+04  0.00000000000E+00 0. -1.
          2   -1    0    0  502    0  0.00000000000E+00 -0.00000000000E+00 -0.24422184255E+04  0.24422184255E+04  0.00000000000E+00 0.  1.
    9000010    2    1    2  502    0  0.11666789321E+04 -0.25766862829E+03 -0.10315678140E+04  0.18590812032E+04  0.98209872858E+03 0.  0.
   -9000010    2    1    2    0  501 -0.11666789321E+04  0.25766862829E+03 -0.35343967420E+03  0.16403481596E+04  0.10669065698E+04 0.  0.
        -13    1    3    3    0    0  0.71468035778E+03  0.33307143545E+03 -0.40440346565E+03  0.88614150626E+03  0.10566000000E+00 0.  1.
          4    1    3    3  502    0  0.45199857429E+03 -0.59074006374E+03 -0.62716434833E+03  0.97293969694E+03  0.00000000000E+00 0.  1.
         13    1    4    4    0    0 -0.54478085838E+03  0.29639910853E+03 -0.69360145287E+03  0.93044161653E+03  0.10566000000E+00 0. -1.
         -4    1    4    4    0  501 -0.62189807370E+03 -0.38730480247E+02  0.34016177867E+03  0.70990654303E+03  0.00000000000E+00 0. -1.
<mgrwt>
<rscale>  2 0.15739801E+04</rscale>
<asrwt>0</asrwt>
<pdfrwt beam="2">  1        2 0.37572591E+00 0.15739801E+04</pdfrwt>
<pdfrwt beam="1">  1       -2 0.16264784E+00 0.15739801E+04</pdfrwt>
<totfact> 0.11940374E+00</totfact>
</mgrwt>
</event>
<event>
 8    1  0.7046235E-006  0.1355589E+04  0.7818608E-02  0.8497789E-01
          2   -1    0    0  502    0  0.00000000000E+00  0.00000000000E+00  0.33598153001E+04  0.33598153001E+04  0.00000000000E+00 0. -1.
         -2   -1    0    0    0  501 -0.00000000000E+00 -0.00000000000E+00 -0.56499402536E+03  0.56499402536E+03  0.00000000000E+00 0.  1.
    9000010    2    1    2  502    0  0.20532908623E+03  0.88042184885E+03  0.10415406882E+04  0.17054143143E+04  0.10031591662E+04 0.  0.
   -9000010    2    1    2    0  501 -0.20532908623E+03 -0.88042184885E+03  0.17532805865E+04  0.22193950112E+04  0.10170637811E+04 0.  0.
        -13    1    3    3    0    0  0.40591784890E+03  0.85538329225E+03  0.11388862514E+04  0.14810509044E+04  0.10566000000E+00 0.  1.
          4    1    3    3  502    0 -0.20058876267E+03  0.25038556599E+02 -0.97345563192E+02  0.22436340989E+03  0.00000000000E+00 0.  1.
         13    1    4    4    0    0 -0.36674267544E+03 -0.74422994378E+03  0.54472174756E+03  0.99252213710E+03  0.10566000000E+00 0. -1.
         -4    1    4    4    0  501  0.16141358921E+03 -0.13619190507E+03  0.12085588390E+04  0.12268728741E+04  0.00000000000E+00 0. -1.
<mgrwt>
<rscale>  2 0.13555894E+04</rscale>
<asrwt>0</asrwt>
<pdfrwt beam="1">  1        2 0.51689465E+00 0.13555894E+04</pdfrwt>
<pdfrwt beam="2">  1       -2 0.86922160E-01 0.13555894E+04</pdfrwt>
<totfact> 0.17939393E+00</totfact>
</mgrwt>
</event>
<event>
 8    1  0.7046235E-006  0.1281149E+04  0.7818608E-02  0.8547839E-01
         -2   -1    0    0    0  501 -0.00000000000E+00  0.00000000000E+00  0.60770724721E+03  0.60770724721E+03  0.00000000000E+00 0.  1.
          2   -1    0    0  502    0  0.00000000000E+00 -0.00000000000E+00 -0.29089893636E+04  0.29089893636E+04  0.00000000000E+00 0. -1.
    9000010    2    1    2  502    0 -0.44848383474E+03  0.67315921539E+03 -0.16235100226E+04  0.20700417461E+04  0.99750035480E+03 0.  0.
   -9000010    2    1    2    0  501  0.44848383474E+03 -0.67315921539E+03 -0.67777209378E+03  0.14466548647E+04  0.98952221153E+03 0.  0.
        -13    1    3    3    0    0 -0.12803333395E+03  0.50995367412E+03 -0.14074788210E+03  0.54429336009E+03  0.10566000000E+00 0.  1.
          4    1    3    3  502    0 -0.32045050079E+03  0.16320554127E+03 -0.14827621405E+04  0.15257483860E+04  0.00000000000E+00 0.  1.
         13    1    4    4    0    0  0.18541556523E+03 -0.83551324725E+03 -0.20213575792E+03  0.87938625981E+03  0.10566000000E+00 0. -1.
         -4    1    4    4    0  501  0.26306826952E+03  0.16235403186E+03 -0.47563633585E+03  0.56726860487E+03  0.00000000000E+00 0. -1.
<mgrwt>
<rscale>  2 0.12811489E+04</rscale>
<asrwt>0</asrwt>
<pdfrwt beam="2">  1        2 0.44753682E+00 0.12811489E+04</pdfrwt>
<pdfrwt beam="1">  1       -2 0.93493423E-01 0.12811489E+04</pdfrwt>
<totfact> 0.29796439E+00</totfact>
</mgrwt>
</event>
<event>
 8    1  0.7046235E-006  0.1167323E+04  0.7818608E-02  0.8631583E-01
         -2   -1    0    0    0  501 -0.00000000000E+00  0.00000000000E+00  0.65204337860E+03  0.65204337860E+03  0.00000000000E+00 0.  1.
          2   -1    0    0  502    0  0.00000000000E+00 -0.00000000000E+00 -0.25118177911E+04  0.25118177911E+04  0.00000000000E+00 0. -1.
    9000010    2    1    2  502    0  0.60480421812E+03  0.10639830407E+03 -0.15731113002E+04  0.19543365801E+04  0.98368875355E+03 0.  0.
   -9000010    2    1    2    0  501 -0.60480421812E+03 -0.10639830407E+03 -0.28666311226E+03  0.12095245896E+04  0.10018309496E+04 0.  0.
        -13    1    3    3    0    0  0.69221605531E+03 -0.13009926781E+03 -0.15483089632E+04  0.17009848745E+04  0.10566000000E+00 0.  1.
          4    1    3    3  502    0 -0.87411837194E+02  0.23649757188E+03 -0.24802337076E+02  0.25335170556E+03  0.00000000000E+00 0.  1.
         13    1    4    4    0    0 -0.25411189484E+03 -0.34684246200E+03 -0.55851194491E+03  0.70484619054E+03  0.10566000000E+00 0. -1.
         -4    1    4    4    0  501 -0.35069232327E+03  0.24044415793E+03  0.27184883265E+03  0.50467839908E+03  0.00000000000E+00 0. -1.
<mgrwt>
<rscale>  2 0.11673235E+04</rscale>
<asrwt>0</asrwt>
<pdfrwt beam="2">  1        2 0.38643351E+00 0.11673235E+04</pdfrwt>
<pdfrwt beam="1">  1       -2 0.10031437E+00 0.11673235E+04</pdfrwt>
<totfact> 0.43611433E+00</totfact>
</mgrwt>
</event>
<event>
 8    1  0.7046235E-006  0.1383597E+04  0.7818608E-02  0.8479808E-01
          2   -1    0    0  502    0  0.00000000000E+00  0.00000000000E+00  0.25273231301E+04  0.25273231301E+04  0.00000000000E+00 0. -1.
         -2   -1    0    0    0  501 -0.00000000000E+00 -0.00000000000E+00 -0.85627848711E+03  0.85627848711E+03  0.00000000000E+00 0.  1.
    9000010    2    1    2  502    0  0.92907161358E+03 -0.25414188335E+03  0.26260281368E+03  0.14116068061E+04  0.99795359478E+03 0.  0.
   -9000010    2    1    2    0  501 -0.92907161358E+03  0.25414188335E+03  0.14084418293E+04  0.19719948111E+04  0.98858130083E+03 0.  0.
        -13    1    3    3    0    0  0.23614242822E+03 -0.51936111903E+03 -0.11049776738E+03  0.58112734071E+03  0.10566000000E+00 0.  1.
          4    1    3    3  502    0  0.69292918536E+03  0.26521923567E+03  0.37310058106E+03  0.83047946542E+03  0.00000000000E+00 0.  1.
         13    1    4    4    0    0 -0.20156882946E+02  0.26166549044E+03  0.88502249125E+03  0.92311426704E+03  0.10566000000E+00 0. -1.
         -4    1    4    4    0  501 -0.90891473063E+03 -0.75236070897E+01  0.52341933806E+03  0.10488805440E+04  0.00000000000E+00 0. -1.
<mgrwt>
<rscale>  2 0.13835974E+04</rscale>
<asrwt>0</asrwt>
<pdfrwt beam="1">  1        2 0.38881894E+00 0.13835974E+04</pdfrwt>
<pdfrwt beam="2">  1       -2 0.13173515E+00 0.13835974E+04</pdfrwt>
<totfact> 0.20593089E+00</totfact>
</mgrwt>
</event>
<event>
 8    1  0.7046235E-006  0.1459139E+04  0.7818608E-02  0.8433411E-01
         -1   -1    0    0    0  501 -0.00000000000E+00  0.00000000000E+00  0.25188017905E+04  0.25188017905E+04  0.00000000000E+00 0. -1.
          1   -1    0    0  502    0  0.00000000000E+00 -0.00000000000E+00 -0.10399070043E+04  0.10399070043E+04  0.00000000000E+00 0.  1.
    9000010    2    1    2  502    0  0.91195102202E+03 -0.55046667226E+03 -0.27136268899E+02  0.14670493417E+04  0.10083794772E+04 0.  0.
   -9000010    2    1    2    0  501 -0.91195102202E+03  0.55046667226E+03  0.15060310551E+04  0.20916594531E+04  0.98602307521E+03 0.  0.
        -13    1    3    3    0    0 -0.15577990391E+03 -0.18435031834E+03 -0.21444097480E+03  0.32285811307E+03  0.10566000000E+00 0.  1.
          4    1    3    3  502    0  0.10677309259E+04 -0.36611635392E+03  0.18730470590E+03  0.11441912286E+04  0.00000000000E+00 0.  1.
         13    1    4    4    0    0 -0.16718538965E+03 -0.24721312900E+03  0.10636545330E+03  0.31682630333E+03  0.10566000000E+00 0. -1.
         -4    1    4    4    0  501 -0.74476563237E+03  0.79767980127E+03  0.13996656019E+04  0.17748331498E+04  0.00000000000E+00 0. -1.
<mgrwt>
<rscale>  2 0.14591391E+04</rscale>
<asrwt>0</asrwt>
<pdfrwt beam="2">  1        1 0.15998569E+00 0.14591391E+04</pdfrwt>
<pdfrwt beam="1">  1       -1 0.38750797E+00 0.14591391E+04</pdfrwt>
<totfact> 0.20325044E-01</totfact>
</mgrwt>
</event>
<event>
 8    1  0.7046235E-006  0.1315102E+04  0.7818608E-02  0.8524587E-01
          4   -1    0    0  502    0  0.00000000000E+00  0.00000000000E+00  0.21031785100E+04  0.21031785100E+04  0.00000000000E+00 0.  1.
         -4   -1    0    0    0  501 -0.00000000000E+00 -0.00000000000E+00 -0.96421098756E+03  0.96421098756E+03  0.00000000000E+00 0. -1.
    9000010    2    1    2  502    0  0.71969406125E+03  0.38695733866E+03  0.11469595601E+04  0.17248439923E+04  0.99592923524E+03 0.  0.
   -9000010    2    1    2    0  501 -0.71969406125E+03 -0.38695733866E+03 -0.79920376392E+01  0.13425455053E+04  0.10652084478E+04 0.  0.
        -13    1    3    3    0    0  0.60878048762E+02 -0.29571258022E+03  0.47284124073E+03  0.56100883863E+03  0.10566000000E+00 0.  1.
          4    1    3    3  502    0  0.65881601249E+03  0.68266991889E+03  0.67411831939E+03  0.11638351537E+04  0.00000000000E+00 0.  1.
         13    1    4    4    0    0  0.77225726481E+02 -0.44129536961E+03  0.23729021304E+03  0.50696358098E+03  0.10566000000E+00 0. -1.
         -4    1    4    4    0  501 -0.79691978773E+03  0.54338030946E+02 -0.24528225068E+03  0.83558192428E+03  0.00000000000E+00 0. -1.
<mgrwt>
<rscale>  2 0.13151025E+04</rscale>
<asrwt>0</asrwt>
<pdfrwt beam="1">  1        4 0.32356592E+00 0.13151025E+04</pdfrwt>
<pdfrwt beam="2">  1       -4 0.14834015E+00 0.13151025E+04</pdfrwt>
<totfact> 0.13127461E-01</totfact>
</mgrwt>
</event>
<event>
 8    1  0.7046235E-006  0.1127604E+04  0.7818608E-02  0.8663168E-01
          2   -1    0    0  502    0  0.00000000000E+00  0.00000000000E+00  0.99163968626E+03  0.99163968626E+03  0.00000000000E+00 0.  1.
         -2   -1    0    0    0  501 -0.00000000000E+00 -0.00000000000E+00 -0.12891684454E+04  0.12891684454E+04  0.00000000000E+00 0. -1.
    9000010    2    1    2  502    0  0.20817739560E+03  0.46779411376E+03 -0.64589864303E+02  0.11258625613E+04  0.10006125601E+04 0.  0.
   -9000010    2    1    2    0  501 -0.20817739560E+03 -0.46779411376E+03 -0.23293889479E+03  0.11549455704E+04  0.10086969718E+04 0.  0.
        -13    1    3    3    0    0  0.52048566053E+03  0.10478410457E+03  0.21333782897E+03  0.57218709512E+03  0.10566000000E+00 0.  1.
          4    1    3    3  502    0 -0.31230826493E+03  0.36301000919E+03 -0.27792769327E+03  0.55367546614E+03  0.00000000000E+00 0.  1.
         13    1    4    4    0    0 -0.28980646815E+03 -0.26394624493E+03  0.35406144127E+03  0.52821863329E+03  0.10566000000E+00 0. -1.
         -4    1    4    4    0  501  0.81629072548E+02 -0.20384786883E+03 -0.58700033606E+03  0.62672693707E+03  0.00000000000E+00 0. -1.
<mgrwt>
<rscale>  2 0.11276040E+04</rscale>
<asrwt>0</asrwt>
<pdfrwt beam="1">  1        2 0.15255995E+00 0.11276040E+04</pdfrwt>
<pdfrwt beam="2">  1       -2 0.19833361E+00 0.11276040E+04</pdfrwt>
<totfact> 0.40295718E+00</totfact>
</mgrwt>
</event>
<event>
 8    1  0.7046235E-006  0.1189283E+04  0.7818608E-02  0.8614676E-01
          2   -1    0    0  502    0  0.00000000000E+00  0.00000000000E+00  0.24501202622E+04  0.24501202622E+04  0.00000000000E+00 0. -1.
         -2   -1    0    0    0  501 -0.00000000000E+00 -0.00000000000E+00 -0.61192548309E+03  0.61192548309E+03  0.00000000000E+00 0.  1.
    9000010    2    1    2  502    0 -0.54796069240E+03 -0.29807880300E+03  0.12862035752E+04  0.17544078694E+04  0.10171113225E+04 0.  0.
   -9000010    2    1    2    0  501  0.54796069240E+03  0.29807880300E+03  0.55199120397E+03  0.13076378759E+04  0.10080231307E+04 0.  0.
        -13    1    3    3    0    0 -0.64333959686E+03 -0.31312930190E+03  0.14196086308E+04  0.15897246530E+04  0.10566000000E+00 0.  1.
          4    1    3    3  502    0  0.95378904453E+02  0.15050498897E+02 -0.13340505558E+03  0.16468321647E+03  0.00000000000E+00 0.  1.
         13    1    4    4    0    0  0.59726302478E+02  0.76363130291E+02  0.73475883098E+03  0.74112691878E+03  0.10566000000E+00 0. -1.
         -4    1    4    4    0  501  0.48823438993E+03  0.22171567271E+03 -0.18276762701E+03  0.56651095710E+03  0.00000000000E+00 0. -1.
<mgrwt>
<rscale>  2 0.11892834E+04</rscale>
<asrwt>0</asrwt>
<pdfrwt beam="1">  1        2 0.37694158E+00 0.11892834E+04</pdfrwt>
<pdfrwt beam="2">  1       -2 0.94142383E-01 0.11892834E+04</pdfrwt>
<totfact> 0.54771367E+00</totfact>
</mgrwt>
</event>
<event>
 8    1  0.7046235E-006  0.1153222E+04  0.7818608E-02  0.8642645E-01
          4   -1    0    0  502    0  0.00000000000E+00  0.00000000000E+00  0.10243118321E+04  0.10243118321E+04  0.00000000000E+00 0.  1.
         -4   -1    0    0    0  501 -0.00000000000E+00 -0.00000000000E+00 -0.16767883424E+04  0.16767883424E+04  0.00000000000E+00 0. -1.
    9000010    2    1    2  502    0 -0.23179017064E+03  0.48446873385E+03  0.31512813439E+03  0.11965363444E+04  0.10217420639E+04 0.  0.
   -9000010    2    1    2    0  501  0.23179017064E+03 -0.48446873385E+03 -0.96760464475E+03  0.15045638301E+04  0.10193218006E+04 0.  0.
        -13    1    3    3    0    0  0.19595963555E+03 -0.11878200690E+02  0.48194964982E+03  0.52040056355E+03  0.10566000000E+00 0.  1.
          4    1    3    3  502    0 -0.42774980618E+03  0.49634693454E+03 -0.16682151543E+03  0.67613578084E+03  0.00000000000E+00 0.  1.
         13    1    4    4    0    0 -0.23279988704E+03 -0.75859266913E+02  0.10491453160E+03  0.26637846363E+03  0.10566000000E+00 0. -1.
         -4    1    4    4    0  501  0.46459005768E+03 -0.40860946694E+03 -0.10725191763E+04  0.12381853665E+04  0.00000000000E+00 0. -1.
<mgrwt>
<rscale>  2 0.11532221E+04</rscale>
<asrwt>0</asrwt>
<pdfrwt beam="1">  1        4 0.15758644E+00 0.11532221E+04</pdfrwt>
<pdfrwt beam="2">  1       -4 0.25796743E+00 0.11532221E+04</pdfrwt>
<totfact> 0.17991017E-01</totfact>
</mgrwt>
</event>
<event>
 8    1  0.7046235E-006  0.1062569E+04  0.7818608E-02  0.8717925E-01
         -2   -1    0    0    0  501 -0.00000000000E+00  0.00000000000E+00  0.76423933424E+03  0.76423933424E+03  0.00000000000E+00 0.  1.
          2   -1    0    0  502    0  0.00000000000E+00 -0.00000000000E+00 -0.15736877195E+04  0.15736877195E+04  0.00000000000E+00 0. -1.
    9000010    2    1    2  502    0  0.18286542764E+02 -0.43601172409E+03 -0.67487739720E+03  0.12237112459E+04  0.92280501235E+03 0.  0.
   -9000010    2    1    2    0  501 -0.18286542764E+02  0.43601172409E+03 -0.13457098810E+03  0.11142158079E+04  0.10163301110E+04 0.  0.
        -13    1    3    3    0    0 -0.22939793062E+03  0.62991170563E+02  0.10929698967E+03  0.26179599167E+03  0.10566000000E+00 0.  1.
          4    1    3    3  502    0  0.24768447338E+03 -0.49900289465E+03 -0.78417438687E+03  0.96191525419E+03  0.00000000000E+00 0.  1.
         13    1    4    4    0    0 -0.25239414264E+03 -0.13725335991E+03  0.25374061460E+03  0.38330875115E+03  0.10566000000E+00 0. -1.
         -4    1    4    4    0  501  0.23410759988E+03  0.57326508399E+03 -0.38831160270E+03  0.73090705677E+03  0.00000000000E+00 0. -1.
<mgrwt>
<rscale>  2 0.10625691E+04</rscale>
<asrwt>0</asrwt>
<pdfrwt beam="2">  1        2 0.24210580E+00 0.10625691E+04</pdfrwt>
<pdfrwt beam="1">  1       -2 0.11757528E+00 0.10625691E+04</pdfrwt>
<totfact> 0.96575470E+00</totfact>
</mgrwt>
</event>
<event>
 8    1  0.7046235E-006  0.1309457E+04  0.7818608E-02  0.8528402E-01
         -2   -1    0    0    0  501 -0.00000000000E+00  0.00000000000E+00  0.81050385263E+03  0.81050385263E+03  0.00000000000E+00 0. -1.
          2   -1    0    0  502    0  0.00000000000E+00 -0.00000000000E+00 -0.21345491200E+04  0.21345491200E+04  0.00000000000E+00 0.  1.
    9000010    2    1    2  502    0 -0.36787348675E+03  0.75917831404E+03 -0.53119306688E+03  0.14263073803E+04  0.10200510056E+04 0.  0.
   -9000010    2    1    2    0  501  0.36787348675E+03 -0.75917831404E+03 -0.79285220052E+03  0.15187455924E+04  0.98300099068E+03 0.  0.
        -13    1    3    3    0    0 -0.18876039743E+03  0.59633266644E+03 -0.83155313206E+03  0.10405401286E+04  0.10566000000E+00 0.  1.
          4    1    3    3  502    0 -0.17911308932E+03  0.16284564760E+03  0.30036006518E+03  0.38576725167E+03  0.00000000000E+00 0.  1.
         13    1    4    4    0    0 -0.27674325573E+02  0.22905188637E+03 -0.13117827627E+03  0.26540231022E+03  0.10566000000E+00 0. -1.
         -4    1    4    4    0  501  0.39554781232E+03 -0.98823020041E+03 -0.66167392425E+03  0.12533432821E+04  0.00000000000E+00 0. -1.
<mgrwt>
<rscale>  2 0.13094574E+04</rscale>
<asrwt>0</asrwt>
<pdfrwt beam="2">  1        2 0.32839217E+00 0.13094574E+04</pdfrwt>
<pdfrwt beam="1">  1       -2 0.12469290E+00 0.13094574E+04</pdfrwt>
<totfact> 0.39844265E+00</totfact>
</mgrwt>
</event>
<event>
 8    1  0.7046235E-006  0.1120234E+04  0.7818608E-02  0.8669177E-01
         -2   -1    0    0    0  501 -0.00000000000E+00  0.00000000000E+00  0.44231554886E+03  0.44231554886E+03  0.00000000000E+00 0.  1.
          2   -1    0    0  502    0  0.00000000000E+00 -0.00000000000E+00 -0.28766434692E+04  0.28766434692E+04  0.00000000000E+00 0. -1.
    9000010    2    1    2  502    0  0.46405095427E+03 -0.18589946202E+03 -0.13769465765E+04  0.17577051294E+04  0.97141317129E+03 0.  0.
   -9000010    2    1    2    0  501 -0.46405095427E+03  0.18589946202E+03 -0.10573813439E+04  0.15612538887E+04  0.10341936474E+04 0.  0.
        -13    1    3    3    0    0 -0.58500993858E+02 -0.43325230088E+03 -0.28418488966E+03  0.52143166875E+03  0.10566000000E+00 0.  1.
          4    1    3    3  502    0  0.52255194813E+03  0.24735283886E+03 -0.10927616868E+04  0.12362734607E+04  0.00000000000E+00 0.  1.
         13    1    4    4    0    0 -0.40592230635E+03  0.36017069203E+03 -0.12076096122E+04  0.13239398902E+04  0.10566000000E+00 0. -1.
         -4    1    4    4    0  501 -0.58128647924E+02 -0.17427123001E+03  0.15022826826E+03  0.23731399854E+03  0.00000000000E+00 0. -1.
<mgrwt>
<rscale>  2 0.11202338E+04</rscale>
<asrwt>0</asrwt>
<pdfrwt beam="2">  1        2 0.44256052E+00 0.11202338E+04</pdfrwt>
<pdfrwt beam="1">  1       -2 0.68048548E-01 0.11202338E+04</pdfrwt>
<totfact> 0.63904376E+00</totfact>
</mgrwt>
</event>
<event>
 8    1  0.7046235E-006  0.1285393E+04  0.7818608E-02  0.8544892E-01
         -2   -1    0    0    0  501 -0.00000000000E+00  0.00000000000E+00  0.59294590208E+03  0.59294590208E+03  0.00000000000E+00 0. -1.
          2   -1    0    0  502    0  0.00000000000E+00 -0.00000000000E+00 -0.31595826557E+04  0.31595826557E+04  0.00000000000E+00 0.  1.
    9000010    2    1    2  502    0 -0.61731482792E+03 -0.53678379118E+03 -0.19190534822E+04  0.23042061755E+04  0.97846072802E+03 0.  0.
   -9000010    2    1    2    0  501  0.61731482792E+03  0.53678379118E+03 -0.64758327142E+03  0.14483223823E+04  0.10045193848E+04 0.  0.
        -13    1    3    3    0    0 -0.65445765226E+03 -0.14100981525E+03 -0.17473201317E+04  0.18711831125E+04  0.10566000000E+00 0.  1.
          4    1    3    3  502    0  0.37142824345E+02 -0.39577397593E+03 -0.17173335054E+03  0.43302306302E+03  0.00000000000E+00 0.  1.
         13    1    4    4    0    0  0.32375980634E+03  0.94888173588E+02 -0.82307291419E+03  0.88953539048E+03  0.10566000000E+00 0. -1.
         -4    1    4    4    0  501  0.29355502158E+03  0.44189561759E+03  0.17548964277E+03  0.55878699185E+03  0.00000000000E+00 0. -1.
<mgrwt>
<rscale>  2 0.12853928E+04</rscale>
<asrwt>0</asrwt>
<pdfrwt beam="2">  1        2 0.48608962E+00 0.12853928E+04</pdfrwt>
<pdfrwt beam="1">  1       -2 0.91222449E-01 0.12853928E+04</pdfrwt>
<totfact> 0.22004425E+00</totfact>
</mgrwt>
</event>
<event>
 8    1  0.7046235E-006  0.1197525E+04  0.7818608E-02  0.8608428E-01
          2   -1    0    0  502    0  0.00000000000E+00  0.00000000000E+00  0.27987733652E+04  0.27987733652E+04  0.00000000000E+00 0. -1.
         -2   -1    0    0    0  501 -0.00000000000E+00 -0.00000000000E+00 -0.51444771683E+03  0.51444771683E+03  0.00000000000E+00 0.  1.
    9000010    2    1    2  502    0  0.17720839419E+03  0.62672917507E+03  0.10358158816E+04  0.15820445905E+04  0.10028750031E+04 0.  0.
   -9000010    2    1    2    0  501 -0.17720839419E+03 -0.62672917507E+03  0.12485097667E+04  0.17311764915E+04  0.10069772258E+04 0.  0.
        -13    1    3    3    0    0 -0.18480801855E+03 -0.20885811189E+03  0.31449404281E+03  0.42033585233E+03  0.10566000000E+00 0.  1.
          4    1    3    3  502    0  0.36201641275E+03  0.83558728695E+03  0.72132183880E+03  0.11617087382E+04  0.00000000000E+00 0.  1.
         13    1    4    4    0    0 -0.32806026989E+03 -0.10634703150E+03  0.11233594684E+04  0.11751041393E+04  0.10566000000E+00 0. -1.
         -4    1    4    4    0  501  0.15085187570E+03 -0.52038214357E+03  0.12515029835E+03  0.55607235224E+03  0.00000000000E+00 0. -1.
<mgrwt>
<rscale>  2 0.11975254E+04</rscale>
<asrwt>0</asrwt>
<pdfrwt beam="1">  1        2 0.43058051E+00 0.11975254E+04</pdfrwt>
<pdfrwt beam="2">  1       -2 0.79145804E-01 0.11975254E+04</pdfrwt>
<totfact> 0.51132626E+00</totfact>
</mgrwt>
</event>
<event>
 8    1  0.7046235E-006  0.1155185E+04  0.7818608E-02  0.8641096E-01
          2   -1    0    0  502    0  0.00000000000E+00  0.00000000000E+00  0.22756477307E+04  0.22756477307E+04  0.00000000000E+00 0. -1.
         -2   -1    0    0    0  501 -0.00000000000E+00 -0.00000000000E+00 -0.59101176983E+03  0.59101176983E+03  0.00000000000E+00 0.  1.
    9000010    2    1    2  502    0  0.54983837682E+03  0.20391564069E+03  0.95497165861E+03  0.14859847304E+04  0.97584625896E+03 0.  0.
   -9000010    2    1    2    0  501 -0.54983837682E+03 -0.20391564069E+03  0.72966430229E+03  0.13806747701E+04  0.10148640292E+04 0.  0.
        -13    1    3    3    0    0  0.15996447518E+03 -0.38942712002E+03  0.27458828453E+03  0.50263391479E+03  0.10566000000E+00 0.  1.
          4    1    3    3  502    0  0.38987390164E+03  0.59334276071E+03  0.68038337408E+03  0.98335081563E+03  0.00000000000E+00 0.  1.
         13    1    4    4    0    0 -0.10602760900E+03  0.39914164588E+03  0.34901717840E+03  0.54071148437E+03  0.10566000000E+00 0. -1.
         -4    1    4    4    0  501 -0.44381076781E+03 -0.60305728658E+03  0.38064712389E+03  0.83996328577E+03  0.00000000000E+00 0. -1.
<mgrwt>
<rscale>  2 0.11551845E+04</rscale>
<asrwt>0</asrwt>
<pdfrwt beam="1">  1        2 0.35009964E+00 0.11551845E+04</pdfrwt>
<pdfrwt beam="2">  1       -2 0.90924889E-01 0.11551845E+04</pdfrwt>
<totfact> 0.74345491E+00</totfact>
</mgrwt>
</event>
<event>
 8    1  0.7046235E-006  0.1074740E+04  0.7818608E-02  0.8707371E-01
          1   -1    0    0  502    0  0.00000000000E+00  0.00000000000E+00  0.12623888169E+04  0.12623888169E+04  0.00000000000E+00 0. -1.
         -1   -1    0    0    0  501 -0.00000000000E+00 -0.00000000000E+00 -0.11399666944E+04  0.11399666944E+04  0.00000000000E+00 0.  1.
    9000010    2    1    2  502    0 -0.40549246551E+03 -0.14810619545E+03 -0.47176993028E+03  0.11838989595E+04  0.99633844370E+03 0.  0.
   -9000010    2    1    2    0  501  0.40549246551E+03  0.14810619545E+03  0.59419205283E+03  0.12184565519E+04  0.97222044229E+03 0.  0.
        -13    1    3    3    0    0  0.25025894404E+03 -0.17610259132E+03 -0.42793319915E+03  0.52608791646E+03  0.10566000000E+00 0.  1.
          4    1    3    3  502    0 -0.65575140955E+03  0.27996395870E+02 -0.43836731130E+02  0.65781104301E+03  0.00000000000E+00 0.  1.
         13    1    4    4    0    0  0.49452453365E+03 -0.27440680912E+03  0.12192331913E+03  0.57854897648E+03  0.10566000000E+00 0. -1.
         -4    1    4    4    0  501 -0.89032068143E+02  0.42251300458E+03  0.47226873370E+03  0.63990757538E+03  0.00000000000E+00 0. -1.
<mgrwt>
<rscale>  2 0.10747405E+04</rscale>
<asrwt>0</asrwt>
<pdfrwt beam="1">  1        1 0.19421366E+00 0.10747405E+04</pdfrwt>
<pdfrwt beam="2">  1       -1 0.17537949E+00 0.10747405E+04</pdfrwt>
<totfact> 0.29664687E+00</totfact>
</mgrwt>
</event>
<event>
 8    1  0.7046235E-006  0.1335192E+04  0.7818608E-02  0.8511168E-01
          1   -1    0    0  502    0  0.00000000000E+00  0.00000000000E+00  0.23959344310E+04  0.23959344310E+04  0.00000000000E+00 0. -1.
         -1   -1    0    0    0  501 -0.00000000000E+00 -0.00000000000E+00 -0.75255896503E+03  0.75255896503E+03  0.00000000000E+00 0.  1.
    9000010    2    1    2  502    0  0.86723307301E+02  0.89924598724E+03  0.65370178713E+03  0.14854896847E+04  0.98142208003E+03 0.  0.
   -9000010    2    1    2    0  501 -0.86723307301E+02 -0.89924598724E+03  0.98967367881E+03  0.16630037113E+04  0.98486703456E+03 0.  0.
        -13    1    3    3    0    0 -0.14872092637E+03 -0.96383998697E+02 -0.11018485996E+03  0.20868278241E+03  0.10566000000E+00 0.  1.
          4    1    3    3  502    0  0.23544423367E+03  0.99562998594E+03  0.76388664709E+03  0.12768069023E+04  0.00000000000E+00 0.  1.
         13    1    4    4    0    0  0.13611256250E+03 -0.34792025520E+03 -0.12970850133E+03  0.39547369082E+03  0.10566000000E+00 0. -1.
         -4    1    4    4    0  501 -0.22283586980E+03 -0.55132573204E+03  0.11193821801E+04  0.12675300205E+04  0.00000000000E+00 0. -1.
<mgrwt>
<rscale>  2 0.13351918E+04</rscale>
<asrwt>0</asrwt>
<pdfrwt beam="1">  1        1 0.36860530E+00 0.13351918E+04</pdfrwt>
<pdfrwt beam="2">  1       -1 0.11577830E+00 0.13351918E+04</pdfrwt>
<totfact> 0.12710218E+00</totfact>
</mgrwt>
</event>
<event>
 8    1  0.7046235E-006  0.1112840E+04  0.7818608E-02  0.8675255E-01
          1   -1    0    0  502    0  0.00000000000E+00  0.00000000000E+00  0.18754772473E+04  0.18754772473E+04  0.00000000000E+00 0. -1.
         -1   -1    0    0    0  501 -0.00000000000E+00 -0.00000000000E+00 -0.66894033288E+03  0.66894033288E+03  0.00000000000E+00 0.  1.
    9000010    2    1    2  502    0 -0.31975356047E+03 -0.38580757242E+03  0.75077884035E+03  0.13474564966E+04  0.10004400636E+04 0.  0.
   -9000010    2    1    2    0  501  0.31975356047E+03  0.38580757242E+03  0.45575807404E+03  0.11969610835E+04  0.98686908505E+03 0.  0.
        -13    1    3    3    0    0  0.73030516840E+02  0.26108456948E+03  0.46546073525E+03  0.53865788404E+03  0.10566000000E+00 0.  1.
          4    1    3    3  502    0 -0.39278407731E+03 -0.64689214190E+03  0.28531810510E+03  0.80879861259E+03  0.00000000000E+00 0.  1.
         13    1    4    4    0    0  0.58499929364E+03 -0.20313858841E+02  0.96294829076E+02  0.59321963192E+03  0.10566000000E+00 0. -1.
         -4    1    4    4    0  501 -0.26524573317E+03  0.40612143126E+03  0.35946324496E+03  0.60374145160E+03  0.00000000000E+00 0. -1.
<mgrwt>
<rscale>  2 0.11128395E+04</rscale>
<asrwt>0</asrwt>
<pdfrwt beam="1">  1        1 0.28853496E+00 0.11128395E+04</pdfrwt>
<pdfrwt beam="2">  1       -1 0.10291390E+00 0.11128395E+04</pdfrwt>
<totfact> 0.44583136E+00</totfact>
</mgrwt>
</event>
<event>
 8    1  0.7046235E-006  0.1481157E+04  0.7818608E-02  0.8420427E-01
          1   -1    0    0  502    0  0.00000000000E+00  0.00000000000E+00  0.25439302981E+04  0.25439302981E+04  0.00000000000E+00 0. -1.
         -1   -1    0    0    0  501 -0.00000000000E+00 -0.00000000000E+00 -0.12828641949E+04  0.12828641949E+04  0.00000000000E+00 0.  1.
    9000010    2    1    2  502    0  0.98158512477E+03  0.46083014634E+03  0.17273922097E+04  0.22787161858E+04  0.10162626768E+04 0.  0.
   -9000010    2    1    2    0  501 -0.98158512477E+03 -0.46083014634E+03 -0.46632610653E+03  0.15480783072E+04  0.10016050253E+04 0.  0.
        -13    1    3    3    0    0  0.28777562977E+03  0.65203339971E+03  0.55610214764E+03  0.90399777500E+03  0.10566000000E+00 0.  1.
          4    1    3    3  502    0  0.69380949500E+03 -0.19120325337E+03  0.11712900620E+04  0.13747184108E+04  0.00000000000E+00 0.  1.
         13    1    4    4    0    0 -0.43932475546E+03 -0.68518514850E+03 -0.25888295159E+02  0.81434338180E+03  0.10566000000E+00 0. -1.
         -4    1    4    4    0  501 -0.54226036931E+03  0.22435500215E+03 -0.44043781137E+03  0.73373492544E+03  0.00000000000E+00 0. -1.
<mgrwt>
<rscale>  2 0.14811567E+04</rscale>
<asrwt>0</asrwt>
<pdfrwt beam="1">  1        1 0.39137389E+00 0.14811567E+04</pdfrwt>
<pdfrwt beam="2">  1       -1 0.19736372E+00 0.14811567E+04</pdfrwt>
<totfact> 0.17681118E-01</totfact>
</mgrwt>
</event>
<event>
 8    1  0.7046235E-006  0.1132879E+04  0.7818608E-02  0.8658896E-01
         -2   -1    0    0    0  501 -0.00000000000E+00  0.00000000000E+00  0.13055739334E+04  0.13055739334E+04  0.00000000000E+00 0.  1.
          2   -1    0    0  502    0  0.00000000000E+00 -0.00000000000E+00 -0.11204999763E+04  0.11204999763E+04  0.00000000000E+00 0. -1.
    9000010    2    1    2  502    0 -0.80208638967E+02 -0.52338656628E+03 -0.33234389033E+03  0.11807320243E+04  0.10016529980E+04 0.  0.
   -9000010    2    1    2    0  501  0.80208638967E+02  0.52338656628E+03  0.51741784742E+03  0.12453418853E+04  0.10013931590E+04 0.  0.
        -13    1    3    3    0    0 -0.44545437290E+03 -0.15278932057E+03  0.12580650985E+03  0.48744380589E+03  0.10566000000E+00 0.  1.
          4    1    3    3  502    0  0.36524573393E+03 -0.37059724571E+03 -0.45815040017E+03  0.69328821846E+03  0.00000000000E+00 0.  1.
         13    1    4    4    0    0  0.64344086372E+02 -0.26241366763E+03  0.34930195790E+03  0.44160272120E+03  0.10566000000E+00 0. -1.
         -4    1    4    4    0  501  0.15864552595E+02  0.78580023391E+03  0.16811588951E+03  0.80373916413E+03  0.00000000000E+00 0. -1.
<mgrwt>
<rscale>  2 0.11328792E+04</rscale>
<asrwt>0</asrwt>
<pdfrwt beam="2">  1        2 0.17238461E+00 0.11328792E+04</pdfrwt>
<pdfrwt beam="1">  1       -2 0.20085753E+00 0.11328792E+04</pdfrwt>
<totfact> 0.32185962E+00</totfact>
</mgrwt>
</event>
<event>
 8    1  0.7046235E-006  0.1322384E+04  0.7818608E-02  0.8519695E-01
          2   -1    0    0  502    0  0.00000000000E+00  0.00000000000E+00  0.24937472141E+04  0.24937472141E+04  0.00000000000E+00 0. -1.
         -2   -1    0    0    0  501 -0.00000000000E+00 -0.00000000000E+00 -0.73263576588E+03  0.73263576588E+03  0.00000000000E+00 0.  1.
    9000010    2    1    2  502    0 -0.31952961562E+02 -0.86133802373E+03  0.54777420518E+03  0.14330780909E+04  0.10053517055E+04 0.  0.
   -9000010    2    1    2    0  501  0.31952961562E+02  0.86133802373E+03  0.12133372430E+04  0.17933048891E+04  0.10004154022E+04 0.  0.
        -13    1    3    3    0    0  0.46275079412E+03 -0.23380154943E+03  0.28656292084E+03  0.59238482487E+03  0.10566000000E+00 0.  1.
          4    1    3    3  502    0 -0.49470375568E+03 -0.62753647430E+03  0.26121128433E+03  0.84069326601E+03  0.00000000000E+00 0.  1.
         13    1    4    4    0    0  0.40530914749E+03  0.22776271581E+03  0.85955144228E+03  0.97723080838E+03  0.10566000000E+00 0. -1.
         -4    1    4    4    0  501 -0.37335618593E+03  0.63357530792E+03  0.35378580074E+03  0.81607408070E+03  0.00000000000E+00 0. -1.
<mgrwt>
<rscale>  2 0.13223837E+04</rscale>
<asrwt>0</asrwt>
<pdfrwt beam="1">  1        2 0.38365341E+00 0.13223837E+04</pdfrwt>
<pdfrwt beam="2">  1       -2 0.11271320E+00 0.13223837E+04</pdfrwt>
<totfact> 0.32866371E+00</totfact>
</mgrwt>
</event>
<event>
 8    1  0.7046235E-006  0.1071832E+04  0.7818608E-02  0.8709879E-01
         -2   -1    0    0    0  501 -0.00000000000E+00  0.00000000000E+00  0.33228160098E+03  0.33228160098E+03  0.00000000000E+00 0.  1.
          2   -1    0    0  502    0  0.00000000000E+00 -0.00000000000E+00 -0.37006317422E+04  0.37006317422E+04  0.00000000000E+00 0. -1.
    9000010    2    1    2  502    0 -0.16673931086E+03 -0.33407147464E+03 -0.11612604731E+04  0.15775428534E+04  0.10003548470E+04 0.  0.
   -9000010    2    1    2    0  501  0.16673931086E+03  0.33407147464E+03 -0.22070896681E+04  0.24553704898E+04  0.10090558414E+04 0.  0.
        -13    1    3    3    0    0 -0.38582073558E+03  0.16572112975E+03 -0.18443636221E+03  0.45862611757E+03  0.10566000000E+00 0.  1.
          4    1    3    3  502    0  0.21908142473E+03 -0.49979260439E+03 -0.97682411089E+03  0.11189167358E+04  0.00000000000E+00 0.  1.
         13    1    4    4    0    0  0.45411422234E+03  0.15402834601E+03 -0.42329506731E+03  0.63962737862E+03  0.10566000000E+00 0. -1.
         -4    1    4    4    0  501 -0.28737491148E+03  0.18004312863E+03 -0.17837946008E+04  0.18157431111E+04  0.00000000000E+00 0. -1.
<mgrwt>
<rscale>  2 0.10718322E+04</rscale>
<asrwt>0</asrwt>
<pdfrwt beam="2">  1        2 0.56932791E+00 0.10718322E+04</pdfrwt>
<pdfrwt beam="1">  1       -2 0.51120251E-01 0.10718322E+04</pdfrwt>
<totfact> 0.31171849E+00</totfact>
</mgrwt>
</event>
<event>
 8    1  0.7046235E-006  0.1390195E+04  0.7818608E-02  0.8475636E-01
          2   -1    0    0  502    0  0.00000000000E+00  0.00000000000E+00  0.18643327866E+04  0.18643327866E+04  0.00000000000E+00 0.  1.
         -2   -1    0    0    0  501 -0.00000000000E+00 -0.00000000000E+00 -0.10520348008E+04  0.10520348008E+04  0.00000000000E+00 0. -1.
    9000010    2    1    2  502    0  0.98972726610E+02 -0.97048570882E+03  0.58306020974E+03  0.15092197846E+04  0.99304936357E+03 0.  0.
   -9000010    2    1    2    0  501 -0.98972726610E+02  0.97048570882E+03  0.22923777611E+03  0.14071478028E+04  0.98786480313E+03 0.  0.
        -13    1    3    3    0    0 -0.43026854357E+03 -0.38959367415E+03  0.39225336681E+03  0.70055475551E+03  0.10566000000E+00 0.  1.
          4    1    3    3  502    0  0.52924127018E+03 -0.58089203468E+03  0.19080684292E+03  0.80866502912E+03  0.00000000000E+00 0.  1.
         13    1    4    4    0    0 -0.37488934126E+02  0.91339978496E+03 -0.22808493644E+03  0.94219283416E+03  0.10566000000E+00 0. -1.
         -4    1    4    4    0  501 -0.61483792485E+02  0.57085923860E+02  0.45732271255E+03  0.46495496863E+03  0.00000000000E+00 0. -1.
<mgrwt>
<rscale>  2 0.13901954E+04</rscale>
<asrwt>0</asrwt>
<pdfrwt beam="1">  1        2 0.28682043E+00 0.13901954E+04</pdfrwt>
<pdfrwt beam="2">  1       -2 0.16185151E+00 0.13901954E+04</pdfrwt>
<totfact> 0.25702727E+00</totfact>
</mgrwt>
</event>
<event>
 8    1  0.7046235E-006  0.1471506E+04  0.7818608E-02  0.8426089E-01
          2   -1    0    0  502    0  0.00000000000E+00  0.00000000000E+00  0.61265150206E+03  0.61265150206E+03  0.00000000000E+00 0.  1.
         -2   -1    0    0    0  501 -0.00000000000E+00 -0.00000000000E+00 -0.37525309335E+04  0.37525309335E+04  0.00000000000E+00 0. -1.
    9000010    2    1    2  502    0  0.13298763525E+03  0.10622896573E+04 -0.21423320885E+04  0.26289580214E+04  0.10842916922E+04 0.  0.
   -9000010    2    1    2    0  501 -0.13298763525E+03 -0.10622896573E+04 -0.99754734300E+03  0.17362244142E+04  0.93446748901E+03 0.  0.
        -13    1    3    3    0    0 -0.22378628218E+03 -0.14129139887E+03 -0.30640175699E+03  0.40487727442E+03  0.10566000000E+00 0.  1.
          4    1    3    3  502    0  0.35677391743E+03  0.12035810561E+04 -0.18359303315E+04  0.22240807469E+04  0.00000000000E+00 0.  1.
         13    1    4    4    0    0 -0.33777264951E+02 -0.69989293282E+03 -0.11368948946E+04  0.13354853176E+04  0.10566000000E+00 0. -1.
         -4    1    4    4    0  501 -0.99210370303E+02 -0.36239672444E+03  0.13934755156E+03  0.40073909665E+03  0.00000000000E+00 0. -1.
<mgrwt>
<rscale>  2 0.14715058E+04</rscale>
<asrwt>0</asrwt>
<pdfrwt beam="1">  1        2 0.94254078E-01 0.14715058E+04</pdfrwt>
<pdfrwt beam="2">  1       -2 0.57731245E+00 0.14715058E+04</pdfrwt>
<totfact> 0.32913401E-01</totfact>
</mgrwt>
</event>
<event>
 8    1  0.7046235E-006  0.1365146E+04  0.7818608E-02  0.8491604E-01
          4   -1    0    0  502    0  0.00000000000E+00  0.00000000000E+00  0.87085552380E+03  0.87085552380E+03  0.00000000000E+00 0.  1.
         -4   -1    0    0    0  501 -0.00000000000E+00 -0.00000000000E+00 -0.21723466506E+04  0.21723466506E+04  0.00000000000E+00 0. -1.
    9000010    2    1    2  502    0  0.65910686888E+03  0.44261919175E+03 -0.78784131031E+03  0.15186855810E+04  0.10273160908E+04 0.  0.
   -9000010    2    1    2    0  501 -0.65910686888E+03 -0.44261919175E+03 -0.51364981650E+03  0.15245165934E+04  0.11958181701E+04 0.  0.
        -13    1    3    3    0    0  0.41322591612E+03  0.53758480727E+03 -0.98056111944E+03  0.11921632451E+04  0.10566000000E+00 0.  1.
          4    1    3    3  502    0  0.24588095276E+03 -0.94965615523E+02  0.19271980913E+03  0.32652233598E+03  0.00000000000E+00 0.  1.
         13    1    4    4    0    0  0.23077422497E+03 -0.28574678492E+03  0.15678234199E+03  0.39936034096E+03  0.10566000000E+00 0. -1.
         -4    1    4    4    0  501 -0.88988109385E+03 -0.15687240683E+03 -0.67043215850E+03  0.11251562524E+04  0.00000000000E+00 0. -1.
<mgrwt>
<rscale>  2 0.13651464E+04</rscale>
<asrwt>0</asrwt>
<pdfrwt beam="1">  1        4 0.13397777E+00 0.13651464E+04</pdfrwt>
<pdfrwt beam="2">  1       -4 0.33420718E+00 0.13651464E+04</pdfrwt>
<totfact> 0.14238867E-01</totfact>
</mgrwt>
</event>
<event>
 8    1  0.7046235E-006  0.1480387E+04  0.7818608E-02  0.8420877E-01
         -2   -1    0    0    0  501 -0.00000000000E+00  0.00000000000E+00  0.16745424238E+04  0.16745424238E+04  0.00000000000E+00 0.  1.
          2   -1    0    0  502    0  0.00000000000E+00 -0.00000000000E+00 -0.38609891529E+04  0.38609891529E+04  0.00000000000E+00 0. -1.
    9000010    2    1    2  502    0 -0.54546496777E+03  0.97075053567E+03  0.11527161843E+04  0.18897148068E+04  0.10011887014E+04 0.  0.
   -9000010    2    1    2    0  501  0.54546496777E+03 -0.97075053567E+03 -0.33391629134E+04  0.36458167699E+04  0.94978014502E+03 0.  0.
        -13    1    3    3    0    0  0.17465555852E+03  0.70910085026E+03  0.52899612806E+03  0.90175689331E+03  0.10566000000E+00 0.  1.
          4    1    3    3  502    0 -0.72012052629E+03  0.26164968540E+03  0.62372005619E+03  0.98795791345E+03  0.00000000000E+00 0.  1.
         13    1    4    4    0    0  0.15787161176E+02 -0.92180372141E+03 -0.23132294087E+04  0.24901810464E+04  0.10566000000E+00 0. -1.
         -4    1    4    4    0  501  0.52967780659E+03 -0.48946814253E+02 -0.10259335047E+04  0.11556357235E+04  0.00000000000E+00 0. -1.
<mgrwt>
<rscale>  2 0.14803869E+04</rscale>
<asrwt>0</asrwt>
<pdfrwt beam="2">  1        2 0.59399832E+00 0.14803869E+04</pdfrwt>
<pdfrwt beam="1">  1       -2 0.25762192E+00 0.14803869E+04</pdfrwt>
<totfact> 0.22613229E-02</totfact>
</mgrwt>
</event>
<event>
 8    1  0.7046235E-006  0.1413254E+04  0.7818608E-02  0.8461239E-01
          2   -1    0    0  502    0  0.00000000000E+00  0.00000000000E+00  0.28845278493E+04  0.28845278493E+04  0.00000000000E+00 0.  1.
         -2   -1    0    0    0  501 -0.00000000000E+00 -0.00000000000E+00 -0.13508544960E+04  0.13508544960E+04  0.00000000000E+00 0. -1.
    9000010    2    1    2  502    0  0.25890425723E+03  0.89793626799E+03 -0.72573683721E+03  0.15388171452E+04  0.98384109166E+03 0.  0.
   -9000010    2    1    2    0  501 -0.25890425723E+03 -0.89793626799E+03  0.22594101906E+04  0.26965652001E+04  0.11371932613E+04 0.  0.
        -13    1    3    3    0    0  0.23694706001E+03  0.60018334240E+03 -0.96180543088E+03  0.11582027680E+04  0.10566000000E+00 0.  1.
          4    1    3    3  502    0  0.21957197220E+02  0.29775292559E+03  0.23606859367E+03  0.38061437719E+03  0.00000000000E+00 0.  1.
         13    1    4    4    0    0 -0.68126812225E+03 -0.70354772032E+03  0.12734977728E+04  0.16065186702E+04  0.10566000000E+00 0. -1.
         -4    1    4    4    0  501  0.42236386502E+03 -0.19438854767E+03  0.98591241776E+03  0.10900465299E+04  0.00000000000E+00 0. -1.
<mgrwt>
<rscale>  2 0.14132539E+04</rscale>
<asrwt>0</asrwt>
<pdfrwt beam="1">  1        2 0.44377351E+00 0.14132539E+04</pdfrwt>
<pdfrwt beam="2">  1       -2 0.20782377E+00 0.14132539E+04</pdfrwt>
<totfact> 0.28177575E-01</totfact>
</mgrwt>
</event>
<event>
 8    1  0.7046235E-006  0.1713239E+04  0.7818608E-02  0.8296343E-01
         -2   -1    0    0    0  501 -0.00000000000E+00  0.00000000000E+00  0.95642094735E+03  0.95642094735E+03  0.00000000000E+00 0. -1.
          2   -1    0    0  502    0  0.00000000000E+00 -0.00000000000E+00 -0.33655136161E+04  0.33655136161E+04  0.00000000000E+00 0.  1.
    9000010    2    1    2  502    0 -0.13774224136E+04 -0.10451234544E+03 -0.56811367355E+03  0.18123878578E+04  0.10265384870E+04 0.  0.
   -9000010    2    1    2    0  501  0.13774224136E+04  0.10451234544E+03 -0.18409789952E+04  0.25095467056E+04  0.10002028151E+04 0.  0.
        -13    1    3    3    0    0 -0.50325902607E+03 -0.53936028836E+03 -0.16389357876E+03  0.75567207458E+03  0.10566000000E+00 0.  1.
          4    1    3    3  502    0 -0.87416338749E+03  0.43484794292E+03 -0.40422009479E+03  0.10567157832E+04  0.00000000000E+00 0.  1.
         13    1    4    4    0    0  0.12412260168E+04  0.20499357452E+03 -0.19409348502E+04  0.23129834617E+04  0.10566000000E+00 0. -1.
         -4    1    4    4    0  501  0.13619639673E+03 -0.10048122908E+03  0.99955855036E+02  0.19656324385E+03  0.00000000000E+00 0. -1.
<mgrwt>
<rscale>  2 0.17132389E+04</rscale>
<asrwt>0</asrwt>
<pdfrwt beam="2">  1        2 0.51777133E+00 0.17132389E+04</pdfrwt>
<pdfrwt beam="1">  1       -2 0.14714168E+00 0.17132389E+04</pdfrwt>
<totfact> 0.43503460E-01</totfact>
</mgrwt>
</event>
<event>
 8    1  0.7046235E-006  0.1593793E+04  0.7818608E-02  0.8357476E-01
         -2   -1    0    0    0  501 -0.00000000000E+00  0.00000000000E+00  0.11181757090E+04  0.11181757090E+04  0.00000000000E+00 0. -1.
          2   -1    0    0  502    0  0.00000000000E+00 -0.00000000000E+00 -0.30913270142E+04  0.30913270142E+04  0.00000000000E+00 0.  1.
    9000010    2    1    2  502    0  0.97730124002E+03  0.76438932384E+03  0.96592807880E+02  0.15980105027E+04  0.10024463298E+04 0.  0.
   -9000010    2    1    2    0  501 -0.97730124002E+03 -0.76438932384E+03 -0.20697441131E+04  0.26114922204E+04  0.99831967394E+03 0.  0.
        -13    1    3    3    0    0  0.57326658261E+03 -0.50133011336E+01  0.37549681241E+03  0.68531567560E+03  0.10566000000E+00 0.  1.
          4    1    3    3  502    0  0.40403465741E+03  0.76940262498E+03 -0.27890400453E+03  0.91269482712E+03  0.00000000000E+00 0.  1.
         13    1    4    4    0    0 -0.12680658924E+03 -0.32381847314E+03 -0.14004677555E+04  0.14429997436E+04  0.10566000000E+00 0. -1.
         -4    1    4    4    0  501 -0.85049465078E+03 -0.44057085070E+03 -0.66927635754E+03  0.11684924768E+04  0.00000000000E+00 0. -1.
<mgrwt>
<rscale>  2 0.15937929E+04</rscale>
<asrwt>0</asrwt>
<pdfrwt beam="2">  1        2 0.47558877E+00 0.15937929E+04</pdfrwt>
<pdfrwt beam="1">  1       -2 0.17202703E+00 0.15937929E+04</pdfrwt>
<totfact> 0.40716164E-01</totfact>
</mgrwt>
</event>
<event>
 8    1  0.7046235E-006  0.1410452E+04  0.7818608E-02  0.8462974E-01
         -2   -1    0    0    0  501 -0.00000000000E+00  0.00000000000E+00  0.80908091535E+03  0.80908091535E+03  0.00000000000E+00 0. -1.
          2   -1    0    0  502    0  0.00000000000E+00 -0.00000000000E+00 -0.26322547213E+04  0.26322547213E+04  0.00000000000E+00 0.  1.
    9000010    2    1    2  502    0 -0.84380962986E+03  0.53883318845E+03 -0.46795380615E+03  0.14829738164E+04  0.98887546188E+03 0.  0.
   -9000010    2    1    2    0  501  0.84380962986E+03 -0.53883318845E+03 -0.13552199998E+04  0.19583618202E+04  0.99810013258E+03 0.  0.
        -13    1    3    3    0    0 -0.31993218227E+03  0.44647325160E+03  0.23835124909E+03  0.59875395176E+03  0.10566000000E+00 0.  1.
          4    1    3    3  502    0 -0.52387744759E+03  0.92359936848E+02 -0.70630505524E+03  0.88421986467E+03  0.00000000000E+00 0.  1.
         13    1    4    4    0    0  0.90656783136E+03 -0.48322201291E+02 -0.75577727860E+03  0.11812703222E+04  0.10566000000E+00 0. -1.
         -4    1    4    4    0  501 -0.62758201497E+02 -0.49051098715E+03 -0.59944272122E+03  0.77709149808E+03  0.00000000000E+00 0. -1.
<mgrwt>
<rscale>  2 0.14104517E+04</rscale>
<asrwt>0</asrwt>
<pdfrwt beam="2">  1        2 0.40496227E+00 0.14104517E+04</pdfrwt>
<pdfrwt beam="1">  1       -2 0.12447398E+00 0.14104517E+04</pdfrwt>
<totfact> 0.20909960E+00</totfact>
</mgrwt>
</event>
<event>
 8    1  0.7046235E-006  0.1741275E+04  0.7818608E-02  0.8282737E-01
          2   -1    0    0  502    0  0.00000000000E+00  0.00000000000E+00  0.17843638328E+04  0.17843638328E+04  0.00000000000E+00 0.  1.
         -2   -1    0    0    0  501 -0.00000000000E+00 -0.00000000000E+00 -0.17078865896E+04  0.17078865896E+04  0.00000000000E+00 0. -1.
    9000010    2    1    2  502    0 -0.11880384246E+04  0.83964979432E+03 -0.85700176846E+02  0.17305302062E+04  0.93324337604E+03 0.  0.
   -9000010    2    1    2    0  501  0.11880384246E+04 -0.83964979432E+03  0.16217742001E+03  0.17617202163E+04  0.98025992954E+03 0.  0.
        -13    1    3    3    0    0 -0.62153086615E+03  0.15114431263E+03 -0.43434705459E+03  0.77317694987E+03  0.10566000000E+00 0.  1.
          4    1    3    3  502    0 -0.56650755842E+03  0.68850548168E+03  0.34864687774E+03  0.95735325634E+03  0.00000000000E+00 0.  1.
         13    1    4    4    0    0 -0.14966962666E+02 -0.85529717215E+02  0.32146251329E+03  0.33298273395E+03  0.10566000000E+00 0. -1.
         -4    1    4    4    0  501  0.12030053872E+04 -0.75412007710E+03 -0.15928509327E+03  0.14287374823E+04  0.00000000000E+00 0. -1.
<mgrwt>
<rscale>  2 0.17412753E+04</rscale>
<asrwt>0</asrwt>
<pdfrwt beam="1">  1        2 0.27451751E+00 0.17412753E+04</pdfrwt>
<pdfrwt beam="2">  1       -2 0.26275178E+00 0.17412753E+04</pdfrwt>
<totfact> 0.41551504E-01</totfact>
</mgrwt>
</event>
<event>
 8    1  0.7046235E-006  0.1286160E+04  0.7818608E-02  0.8544360E-01
          2   -1    0    0  502    0  0.00000000000E+00  0.00000000000E+00  0.25389341267E+04  0.25389341267E+04  0.00000000000E+00 0.  1.
         -2   -1    0    0    0  501 -0.00000000000E+00 -0.00000000000E+00 -0.97736249679E+03  0.97736249679E+03  0.00000000000E+00 0. -1.
    9000010    2    1    2  502    0 -0.76464394037E+03 -0.27907042929E+03  0.17936219484E+04  0.22038485565E+04  0.98858894683E+03 0.  0.
   -9000010    2    1    2    0  501  0.76464394037E+03  0.27907042929E+03 -0.23205031855E+03  0.13124480670E+04  0.10030513039E+04 0.  0.
        -13    1    3    3    0    0 -0.85659397656E+03 -0.51942686963E+03  0.15728450221E+04  0.18647785360E+04  0.10566000000E+00 0.  1.
          4    1    3    3  502    0  0.91950036194E+02  0.24035644034E+03  0.22077692630E+03  0.33907002043E+03  0.00000000000E+00 0.  1.
         13    1    4    4    0    0  0.59458250837E+02  0.19701842625E+03 -0.51006030323E+03  0.55001187985E+03  0.10566000000E+00 0. -1.
         -4    1    4    4    0  501  0.70518568953E+03  0.82052003041E+02  0.27800998469E+03  0.76243618717E+03  0.00000000000E+00 0. -1.
<mgrwt>
<rscale>  2 0.12861602E+04</rscale>
<asrwt>0</asrwt>
<pdfrwt beam="1">  1        2 0.39060525E+00 0.12861602E+04</pdfrwt>
<pdfrwt beam="2">  1       -2 0.15036346E+00 0.12861602E+04</pdfrwt>
<totfact> 0.13933544E+00</totfact>
</mgrwt>
</event>
<event>
 8    1  0.7046235E-006  0.1030904E+04  0.7818608E-02  0.8746084E-01
          1   -1    0    0  502    0  0.00000000000E+00  0.00000000000E+00  0.20561798917E+04  0.20561798917E+04  0.00000000000E+00 0. -1.
         -1   -1    0    0    0  501 -0.00000000000E+00 -0.00000000000E+00 -0.63186842499E+03  0.63186842499E+03  0.00000000000E+00 0.  1.
    9000010    2    1    2  502    0  0.16144616211E+03  0.20822793673E+03  0.12849728082E+04  0.16467612691E+04  0.99561228536E+03 0.  0.
   -9000010    2    1    2    0  501 -0.16144616211E+03 -0.20822793673E+03  0.13933865848E+03  0.10412870475E+04  0.99771725290E+03 0.  0.
        -13    1    3    3    0    0 -0.19227992713E+03 -0.25489803914E+03  0.11442527019E+03  0.33917213087E+03  0.10566000000E+00 0.  1.
          4    1    3    3  502    0  0.35372608924E+03  0.46312597587E+03  0.11705475380E+04  0.13075891383E+04  0.00000000000E+00 0.  1.
         13    1    4    4    0    0  0.41544936817E+02  0.38763419526E+03 -0.25140450500E+02  0.39066392785E+03  0.10566000000E+00 0. -1.
         -4    1    4    4    0  501 -0.20299109893E+03 -0.59586213199E+03  0.16447910898E+03  0.65062311969E+03  0.00000000000E+00 0. -1.
<mgrwt>
<rscale>  2 0.10309042E+04</rscale>
<asrwt>0</asrwt>
<pdfrwt beam="1">  1        1 0.31633536E+00 0.10309042E+04</pdfrwt>
<pdfrwt beam="2">  1       -1 0.97210528E-01 0.10309042E+04</pdfrwt>
<totfact> 0.37214261E+00</totfact>
</mgrwt>
</event>
<event>
 8    1  0.7046235E-006  0.1272971E+04  0.7818608E-02  0.8553550E-01
          2   -1    0    0  502    0  0.00000000000E+00  0.00000000000E+00  0.39371026039E+04  0.39371026039E+04  0.00000000000E+00 0.  1.
         -2   -1    0    0    0  501 -0.00000000000E+00 -0.00000000000E+00 -0.45176441810E+03  0.45176441810E+03  0.00000000000E+00 0. -1.
    9000010    2    1    2  502    0  0.60009786720E+03  0.25331102505E+03  0.24860363532E+04  0.28335803772E+04  0.11935313481E+04 0.  0.
   -9000010    2    1    2    0  501 -0.60009786720E+03 -0.25331102505E+03  0.99930183258E+03  0.15552866448E+04  0.99801225908E+03 0.  0.
        -13    1    3    3    0    0  0.51001863147E+03 -0.15041849201E+03  0.23325107802E+04  0.23923526659E+04  0.10566000000E+00 0.  1.
          4    1    3    3  502    0  0.90079235721E+02  0.40372951706E+03  0.15352557304E+03  0.44122771131E+03  0.00000000000E+00 0.  1.
         13    1    4    4    0    0  0.21939910909E+03 -0.22788590525E+03  0.85712939621E+02  0.32774177955E+03  0.10566000000E+00 0. -1.
         -4    1    4    4    0  501 -0.81949697629E+03 -0.25425119797E+02  0.91358889296E+03  0.12275448653E+04  0.00000000000E+00 0. -1.
<mgrwt>
<rscale>  2 0.12729710E+04</rscale>
<asrwt>0</asrwt>
<pdfrwt beam="1">  1        2 0.60570807E+00 0.12729710E+04</pdfrwt>
<pdfrwt beam="2">  1       -2 0.69502221E-01 0.12729710E+04</pdfrwt>
<totfact> 0.10391392E+00</totfact>
</mgrwt>
</event>
<event>
 8    1  0.7046235E-006  0.1232395E+04  0.7818608E-02  0.8582560E-01
          2   -1    0    0  502    0  0.00000000000E+00  0.00000000000E+00  0.16226763172E+04  0.16226763172E+04  0.00000000000E+00 0. -1.
         -2   -1    0    0    0  501 -0.00000000000E+00 -0.00000000000E+00 -0.96110850982E+03  0.96110850982E+03  0.00000000000E+00 0.  1.
    9000010    2    1    2  502    0  0.53834782140E+03 -0.49274948189E+03  0.11920871732E+03  0.12265819288E+04  0.97860721488E+03 0.  0.
   -9000010    2    1    2    0  501 -0.53834782140E+03  0.49274948189E+03  0.54235909010E+03  0.13572028983E+04  0.10075841879E+04 0.  0.
        -13    1    3    3    0    0  0.64204131863E+03 -0.33023130061E+03  0.44493769642E+03  0.84807979082E+03  0.10566000000E+00 0.  1.
          4    1    3    3  502    0 -0.10369349723E+03 -0.16251818127E+03 -0.32572897910E+03  0.37850213796E+03  0.00000000000E+00 0.  1.
         13    1    4    4    0    0 -0.57920880366E+03  0.33812435770E+02 -0.76974484504E+02  0.58527873828E+03  0.10566000000E+00 0. -1.
         -4    1    4    4    0  501  0.40860982263E+02  0.45893704612E+03  0.61933357460E+03  0.77192416001E+03  0.00000000000E+00 0. -1.
<mgrwt>
<rscale>  2 0.12323948E+04</rscale>
<asrwt>0</asrwt>
<pdfrwt beam="1">  1        2 0.24964251E+00 0.12323948E+04</pdfrwt>
<pdfrwt beam="2">  1       -2 0.14786285E+00 0.12323948E+04</pdfrwt>
<totfact> 0.46949953E+00</totfact>
</mgrwt>
</event>
<event>
 8    1  0.7046235E-006  0.1152675E+04  0.7818608E-02  0.8643077E-01
         -1   -1    0    0    0  501 -0.00000000000E+00  0.00000000000E+00  0.13206858872E+04  0.13206858872E+04  0.00000000000E+00 0. -1.
          1   -1    0    0  502    0  0.00000000000E+00 -0.00000000000E+00 -0.11147461621E+04  0.11147461621E+04  0.00000000000E+00 0.  1.
    9000010    2    1    2  502    0  0.83019125117E+02 -0.56668924184E+03 -0.27774769698E+03  0.11795603723E+04  0.99307100291E+03 0.  0.
   -9000010    2    1    2    0  501 -0.83019125117E+02  0.56668924184E+03  0.48368742213E+03  0.12558716770E+04  0.10075868571E+04 0.  0.
        -13    1    3    3    0    0  0.26115412791E+03 -0.77502866730E+03 -0.35971241044E+03  0.89345617859E+03  0.10566000000E+00 0.  1.
          4    1    3    3  502    0 -0.17813500279E+03  0.20833942546E+03  0.81964713459E+02  0.28610419374E+03  0.00000000000E+00 0.  1.
         13    1    4    4    0    0 -0.51134177565E+03  0.41420159215E+03  0.10964057182E+03  0.66712400393E+03  0.10566000000E+00 0. -1.
         -4    1    4    4    0  501  0.42832265053E+03  0.15248764969E+03  0.37404685031E+03  0.58874767303E+03  0.00000000000E+00 0. -1.
<mgrwt>
<rscale>  2 0.11526752E+04</rscale>
<asrwt>0</asrwt>
<pdfrwt beam="2">  1        1 0.17149941E+00 0.11526752E+04</pdfrwt>
<pdfrwt beam="1">  1       -1 0.20318244E+00 0.11526752E+04</pdfrwt>
<totfact> 0.21706100E+00</totfact>
</mgrwt>
</event>
<event>
 8    1  0.7046235E-006  0.1086819E+04  0.7818608E-02  0.8697041E-01
          2   -1    0    0  502    0  0.00000000000E+00  0.00000000000E+00  0.19022031416E+04  0.19022031416E+04  0.00000000000E+00 0.  1.
         -2   -1    0    0    0  501 -0.00000000000E+00 -0.00000000000E+00 -0.69970403441E+03  0.69970403441E+03  0.00000000000E+00 0. -1.
    9000010    2    1    2  502    0 -0.31736274254E+03 -0.30961593248E+03  0.10412882319E+04  0.15105810758E+04  0.10004963112E+04 0.  0.
   -9000010    2    1    2    0  501  0.31736274254E+03  0.30961593248E+03  0.16121087531E+03  0.10913261002E+04  0.98408463794E+03 0.  0.
        -13    1    3    3    0    0 -0.59945962599E+03 -0.47374239207E+03  0.66965700998E+03  0.10159843598E+04  0.10566000000E+00 0.  1.
          4    1    3    3  502    0  0.28209688345E+03  0.16412645959E+03  0.37163122191E+03  0.49459671601E+03  0.00000000000E+00 0.  1.
         13    1    4    4    0    0 -0.28901121179E+03 -0.10697613921E+03 -0.77696596851E+02  0.31781778935E+03  0.10566000000E+00 0. -1.
         -4    1    4    4    0  501  0.60637395433E+03  0.41659207169E+03  0.23890747216E+03  0.77350831084E+03  0.00000000000E+00 0. -1.
<mgrwt>
<rscale>  2 0.10868195E+04</rscale>
<asrwt>0</asrwt>
<pdfrwt beam="1">  1        2 0.29264663E+00 0.10868195E+04</pdfrwt>
<pdfrwt beam="2">  1       -2 0.10764678E+00 0.10868195E+04</pdfrwt>
<totfact> 0.79957635E+00</totfact>
</mgrwt>
</event>
<event>
 8    1  0.7046235E-006  0.1210094E+04  0.7818608E-02  0.8599000E-01
          2   -1    0    0  502    0  0.00000000000E+00  0.00000000000E+00  0.18257924221E+04  0.18257924221E+04  0.00000000000E+00 0. -1.
         -2   -1    0    0    0  501 -0.00000000000E+00 -0.00000000000E+00 -0.80269263278E+03  0.80269263278E+03  0.00000000000E+00 0.  1.
    9000010    2    1    2  502    0  0.45337164381E+03 -0.51759496970E+03  0.47404666593E+03  0.13006257358E+04  0.99672296201E+03 0.  0.
   -9000010    2    1    2    0  501 -0.45337164381E+03  0.51759496970E+03  0.54905312344E+03  0.13278593191E+04  0.99413310931E+03 0.  0.
        -13    1    3    3    0    0  0.40792557284E+03  0.12597893890E+03 -0.98369759319E+02  0.43812165746E+03  0.10566000000E+00 0.  1.
          4    1    3    3  502    0  0.45446070967E+02 -0.64357390861E+03  0.57241642525E+03  0.86250407831E+03  0.00000000000E+00 0.  1.
         13    1    4    4    0    0 -0.50763763865E+03 -0.15648804872E+03  0.27504929759E+03  0.59819445738E+03  0.10566000000E+00 0. -1.
         -4    1    4    4    0  501  0.54265994840E+02  0.67408301842E+03  0.27400382584E+03  0.72966486177E+03  0.00000000000E+00 0. -1.
<mgrwt>
<rscale>  2 0.12100937E+04</rscale>
<asrwt>0</asrwt>
<pdfrwt beam="1">  1        2 0.28089114E+00 0.12100937E+04</pdfrwt>
<pdfrwt beam="2">  1       -2 0.12349117E+00 0.12100937E+04</pdfrwt>
<totfact> 0.60926408E+00</totfact>
</mgrwt>
</event>
<event>
 8    1  0.7046235E-006  0.1787784E+04  0.7818608E-02  0.8260737E-01
          1   -1    0    0  502    0  0.00000000000E+00  0.00000000000E+00  0.26136725270E+04  0.26136725270E+04  0.00000000000E+00 0. -1.
         -1   -1    0    0    0  501 -0.00000000000E+00 -0.00000000000E+00 -0.13292318924E+04  0.13292318924E+04  0.00000000000E+00 0.  1.
    9000010    2    1    2  502    0 -0.14636695012E+04 -0.29216202747E+03  0.12030080844E+04  0.21629371923E+04  0.10016894666E+04 0.  0.
   -9000010    2    1    2    0  501  0.14636695012E+04  0.29216202747E+03  0.81432550207E+02  0.17799672271E+04  0.96641865167E+03 0.  0.
        -13    1    3    3    0    0 -0.74170696686E+03  0.28715760085E+03  0.87108917307E+03  0.11795698670E+04  0.10566000000E+00 0.  1.
          4    1    3    3  502    0 -0.72196253437E+03 -0.57931962833E+03  0.33191891133E+03  0.98336732531E+03  0.00000000000E+00 0.  1.
         13    1    4    4    0    0  0.24849573630E+03 -0.32200635201E+03  0.97692264841E+02  0.41830851231E+03  0.10566000000E+00 0. -1.
         -4    1    4    4    0  501  0.12151737649E+04  0.61416837949E+03 -0.16259714634E+02  0.13616587148E+04  0.00000000000E+00 0. -1.
<mgrwt>
<rscale>  2 0.17877841E+04</rscale>
<asrwt>0</asrwt>
<pdfrwt beam="1">  1        1 0.40210346E+00 0.17877841E+04</pdfrwt>
<pdfrwt beam="2">  1       -1 0.20449722E+00 0.17877841E+04</pdfrwt>
<totfact> 0.12628016E-01</totfact>
</mgrwt>
</event>
<event>
 8    1  0.7046235E-006  0.1452282E+04  0.7818608E-02  0.8437502E-01
          1   -1    0    0  502    0  0.00000000000E+00  0.00000000000E+00  0.12169541574E+04  0.12169541574E+04  0.00000000000E+00 0. -1.
         -1   -1    0    0    0  501 -0.00000000000E+00 -0.00000000000E+00 -0.20668549220E+04  0.20668549220E+04  0.00000000000E+00 0.  1.
    9000010    2    1    2  502    0 -0.16900214410E+03 -0.10427130004E+04 -0.10857974753E+04  0.18168738120E+04  0.10031261963E+04 0.  0.
   -9000010    2    1    2    0  501  0.16900214410E+03  0.10427130004E+04  0.23589671068E+03  0.14669352673E+04  0.99017154808E+03 0.  0.
        -13    1    3    3    0    0  0.19428868133E+03 -0.96485537594E+03 -0.45390721679E+03  0.10838476649E+04  0.10566000000E+00 0.  1.
          4    1    3    3  502    0 -0.36329082544E+03 -0.77857624410E+02 -0.63189025849E+03  0.73302614708E+03  0.00000000000E+00 0.  1.
         13    1    4    4    0    0 -0.17344766462E+03  0.10845799977E+04  0.12988006074E+03  0.11060138811E+04  0.10566000000E+00 0. -1.
         -4    1    4    4    0  501  0.34244980872E+03 -0.41866997395E+02  0.10601664994E+03  0.36092138622E+03  0.00000000000E+00 0. -1.
<mgrwt>
<rscale>  2 0.14522822E+04</rscale>
<asrwt>0</asrwt>
<pdfrwt beam="1">  1        1 0.18722372E+00 0.14522822E+04</pdfrwt>
<pdfrwt beam="2">  1       -1 0.31797768E+00 0.14522822E+04</pdfrwt>
<totfact> 0.15757482E-01</totfact>
</mgrwt>
</event>
<event>
 8    1  0.7046235E-006  0.1195276E+04  0.7818608E-02  0.8610128E-01
         -1   -1    0    0    0  501 -0.00000000000E+00  0.00000000000E+00  0.14377993568E+04  0.14377993568E+04  0.00000000000E+00 0.  1.
          1   -1    0    0  502    0  0.00000000000E+00 -0.00000000000E+00 -0.13370737865E+04  0.13370737865E+04  0.00000000000E+00 0. -1.
    9000010    2    1    2  502    0  0.61677990489E+03  0.22524255886E+03  0.75361350291E+03  0.14162600765E+04  0.10033482103E+04 0.  0.
   -9000010    2    1    2    0  501 -0.61677990489E+03 -0.22524255886E+03 -0.65288793260E+03  0.13586130669E+04  0.99419070184E+03 0.  0.
        -13    1    3    3    0    0 -0.78339387740E+02  0.44653963382E+03  0.40428319738E+03  0.60743692602E+03  0.10566000000E+00 0.  1.
          4    1    3    3  502    0  0.69511929263E+03 -0.22129707496E+03  0.34933030553E+03  0.80882315046E+03  0.00000000000E+00 0.  1.
         13    1    4    4    0    0 -0.44415065588E+03 -0.53154939258E+03 -0.72170764400E+03  0.10003381910E+04  0.10566000000E+00 0. -1.
         -4    1    4    4    0  501 -0.17262924900E+03  0.30630683373E+03  0.68819711398E+02  0.35827487586E+03  0.00000000000E+00 0. -1.
<mgrwt>
<rscale>  2 0.11952756E+04</rscale>
<asrwt>0</asrwt>
<pdfrwt beam="2">  1        1 0.20570366E+00 0.11952756E+04</pdfrwt>
<pdfrwt beam="1">  1       -1 0.22119990E+00 0.11952756E+04</pdfrwt>
<totfact> 0.99746683E-01</totfact>
</mgrwt>
</event>
<event>
 8    1  0.7046235E-006  0.1203797E+04  0.7818608E-02  0.8603709E-01
          1   -1    0    0  502    0  0.00000000000E+00  0.00000000000E+00  0.14689476074E+04  0.14689476074E+04  0.00000000000E+00 0.  1.
         -1   -1    0    0    0  501 -0.00000000000E+00 -0.00000000000E+00 -0.98890738111E+03  0.98890738111E+03  0.00000000000E+00 0. -1.
    9000010    2    1    2  502    0 -0.59889462024E+03 -0.37365581579E+02  0.30058384356E+03  0.12625433720E+04  0.10693896233E+04 0.  0.
   -9000010    2    1    2    0  501  0.59889462024E+03  0.37365581579E+02  0.17945638273E+03  0.11953116165E+04  0.10180836480E+04 0.  0.
        -13    1    3    3    0    0 -0.30781832230E+03 -0.53043535840E+03  0.31569924885E+03  0.68976794349E+03  0.10566000000E+00 0.  1.
          4    1    3    3  502    0 -0.29107629794E+03  0.49306977682E+03 -0.15115405292E+02  0.57277542851E+03  0.00000000000E+00 0.  1.
         13    1    4    4    0    0  0.21516402567E+03  0.33594627269E+03  0.47966649051E+03  0.62388733707E+03  0.10566000000E+00 0. -1.
         -4    1    4    4    0  501  0.38373059457E+03 -0.29858069112E+03 -0.30021010778E+03  0.57142427943E+03  0.00000000000E+00 0. -1.
<mgrwt>
<rscale>  2 0.12037965E+04</rscale>
<asrwt>0</asrwt>
<pdfrwt beam="1">  1        1 0.22599194E+00 0.12037965E+04</pdfrwt>
<pdfrwt beam="2">  1       -1 0.15213960E+00 0.12037965E+04</pdfrwt>
<totfact> 0.32471573E+00</totfact>
</mgrwt>
</event>
<event>
 8    1  0.7046235E-006  0.1264964E+04  0.7818608E-02  0.8559185E-01
          1   -1    0    0  502    0  0.00000000000E+00  0.00000000000E+00  0.18612094632E+04  0.18612094632E+04  0.00000000000E+00 0. -1.
         -1   -1    0    0    0  501 -0.00000000000E+00 -0.00000000000E+00 -0.87132475288E+03  0.87132475288E+03  0.00000000000E+00 0.  1.
    9000010    2    1    2  502    0  0.76432774029E+03 -0.19755133510E+03  0.65586065441E+03  0.14332498162E+04  0.10004141208E+04 0.  0.
   -9000010    2    1    2    0  501 -0.76432774029E+03  0.19755133510E+03  0.33402405589E+03  0.12992843998E+04  0.97639359746E+03 0.  0.
        -13    1    3    3    0    0  0.30646440497E+03 -0.59149876115E+03  0.40188182392E+03  0.77801042893E+03  0.10566000000E+00 0.  1.
          4    1    3    3  502    0  0.45786333533E+03  0.39394742606E+03  0.25397883049E+03  0.65523938730E+03  0.00000000000E+00 0.  1.
         13    1    4    4    0    0 -0.85539222940E+03  0.15297674344E+03 -0.80365303935E+02  0.87267195635E+03  0.10566000000E+00 0. -1.
         -4    1    4    4    0  501  0.91064489110E+02  0.44574591655E+02  0.41438935983E+03  0.42661244349E+03  0.00000000000E+00 0. -1.
<mgrwt>
<rscale>  2 0.12649639E+04</rscale>
<asrwt>0</asrwt>
<pdfrwt beam="1">  1        1 0.28633992E+00 0.12649639E+04</pdfrwt>
<pdfrwt beam="2">  1       -1 0.13404996E+00 0.12649639E+04</pdfrwt>
<totfact> 0.23593506E+00</totfact>
</mgrwt>
</event>
<event>
 8    1  0.7046235E-006  0.1093792E+04  0.7818608E-02  0.8691141E-01
         -2   -1    0    0    0  501 -0.00000000000E+00  0.00000000000E+00  0.70650745916E+03  0.70650745916E+03  0.00000000000E+00 0.  1.
          2   -1    0    0  502    0  0.00000000000E+00 -0.00000000000E+00 -0.18453015223E+04  0.18453015223E+04  0.00000000000E+00 0. -1.
    9000010    2    1    2  502    0  0.40767228531E+03  0.16289984335E+03 -0.93961371825E+03  0.14487692602E+04  0.10115954619E+04 0.  0.
   -9000010    2    1    2    0  501 -0.40767228531E+03 -0.16289984335E+03 -0.19918034485E+03  0.11030397212E+04  0.99211429063E+03 0.  0.
        -13    1    3    3    0    0  0.31691768958E+03 -0.31004048753E+03 -0.61938767369E+02  0.44765874050E+03  0.10566000000E+00 0.  1.
          4    1    3    3  502    0  0.90754595734E+02  0.47294033088E+03 -0.87767495088E+03  0.10011105197E+04  0.00000000000E+00 0.  1.
         13    1    4    4    0    0 -0.37789009519E+03  0.34795844157E+03  0.80364930437E+02  0.51993704841E+03  0.10566000000E+00 0. -1.
         -4    1    4    4    0  501 -0.29782190118E+02 -0.51085828492E+03 -0.27954527528E+03  0.58310267282E+03  0.00000000000E+00 0. -1.
<mgrwt>
<rscale>  2 0.10937925E+04</rscale>
<asrwt>0</asrwt>
<pdfrwt beam="2">  1        2 0.28389254E+00 0.10937925E+04</pdfrwt>
<pdfrwt beam="1">  1       -2 0.10869346E+00 0.10937925E+04</pdfrwt>
<totfact> 0.83746038E+00</totfact>
</mgrwt>
</event>
<event>
 8    1  0.7046235E-006  0.1029776E+04  0.7818608E-02  0.8747107E-01
          1   -1    0    0  502    0  0.00000000000E+00  0.00000000000E+00  0.25742752922E+04  0.25742752922E+04  0.00000000000E+00 0. -1.
         -1   -1    0    0    0  501 -0.00000000000E+00 -0.00000000000E+00 -0.52003641029E+03  0.52003641029E+03  0.00000000000E+00 0.  1.
    9000010    2    1    2  502    0 -0.10358133239E+02  0.31435302564E+03  0.31395395612E+03  0.10670229413E+04  0.97007512854E+03 0.  0.
   -9000010    2    1    2    0  501  0.10358133239E+02 -0.31435302564E+03  0.17402849258E+04  0.20272887612E+04  0.99115235090E+03 0.  0.
        -13    1    3    3    0    0  0.30830315662E+03 -0.16660913636E+03 -0.91094085688E+02  0.36208781299E+03  0.10566000000E+00 0.  1.
          4    1    3    3  502    0 -0.31866128986E+03  0.48096216201E+03  0.40504804181E+03  0.70493512830E+03  0.00000000000E+00 0.  1.
         13    1    4    4    0    0  0.45278262867E+03 -0.35465670304E+03  0.77903526764E+03  0.96834366070E+03  0.10566000000E+00 0. -1.
         -4    1    4    4    0  501 -0.44242449543E+03  0.40303677393E+02  0.96124965813E+03  0.10589451005E+04  0.00000000000E+00 0. -1.
<mgrwt>
<rscale>  2 0.10297757E+04</rscale>
<asrwt>0</asrwt>
<pdfrwt beam="1">  1        1 0.39604235E+00 0.10297757E+04</pdfrwt>
<pdfrwt beam="2">  1       -1 0.80005603E-01 0.10297757E+04</pdfrwt>
<totfact> 0.20270068E+00</totfact>
</mgrwt>
</event>
<event>
 8    1  0.7046235E-006  0.1217187E+04  0.7818608E-02  0.8593731E-01
          2   -1    0    0  502    0  0.00000000000E+00  0.00000000000E+00  0.25968835615E+04  0.25968835615E+04  0.00000000000E+00 0.  1.
         -2   -1    0    0    0  501 -0.00000000000E+00 -0.00000000000E+00 -0.57280092990E+03  0.57280092990E+03  0.00000000000E+00 0. -1.
    9000010    2    1    2  502    0  0.68944988744E+03  0.19694586587E+01  0.90916269163E+03  0.15166396896E+04  0.99913668843E+03 0.  0.
   -9000010    2    1    2    0  501 -0.68944988744E+03 -0.19694586587E+01  0.11149199399E+04  0.16530448018E+04  0.10070579021E+04 0.  0.
        -13    1    3    3    0    0  0.59238997187E+03  0.30855755534E+03  0.98131435546E+03  0.11870600318E+04  0.10566000000E+00 0.  1.
          4    1    3    3  502    0  0.97059915565E+02 -0.30658809668E+03 -0.72151663830E+02  0.32957965779E+03  0.00000000000E+00 0.  1.
         13    1    4    4    0    0 -0.95280134717E+02  0.73662302369E+02 -0.18558496557E+03  0.22123794763E+03  0.10566000000E+00 0. -1.
         -4    1    4    4    0  501 -0.59416975272E+03 -0.75631761028E+02  0.13005049055E+04  0.14318068541E+04  0.00000000000E+00 0. -1.
<mgrwt>
<rscale>  2 0.12171868E+04</rscale>
<asrwt>0</asrwt>
<pdfrwt beam="1">  1        2 0.39952054E+00 0.12171868E+04</pdfrwt>
<pdfrwt beam="2">  1       -2 0.88123221E-01 0.12171868E+04</pdfrwt>
<totfact> 0.52583021E+00</totfact>
</mgrwt>
</event>
<event>
 8    1  0.7046235E-006  0.2071052E+04  0.7818608E-02  0.8140061E-01
          4   -1    0    0  502    0  0.00000000000E+00  0.00000000000E+00  0.19690064150E+04  0.19690064150E+04  0.00000000000E+00 0.  1.
         -4   -1    0    0    0  501 -0.00000000000E+00 -0.00000000000E+00 -0.22898513984E+04  0.22898513984E+04  0.00000000000E+00 0. -1.
    9000010    2    1    2  502    0  0.16339631037E+04  0.73309987865E+03  0.30660386826E+03  0.21203851391E+04  0.10930491068E+04 0.  0.
   -9000010    2    1    2    0  501 -0.16339631037E+04 -0.73309987865E+03 -0.62744885173E+03  0.21384726743E+04  0.98595256520E+03 0.  0.
        -13    1    3    3    0    0 -0.64077361431E+02 -0.91407458726E+02  0.20085791800E+03  0.22979370345E+03  0.10566000000E+00 0.  1.
          4    1    3    3  502    0  0.16980404651E+04  0.82450733738E+03  0.10574595027E+03  0.18905914356E+04  0.00000000000E+00 0.  1.
         13    1    4    4    0    0 -0.32432686180E+03 -0.15603756024E+03  0.26937663774E+03  0.44955468812E+03  0.10566000000E+00 0. -1.
         -4    1    4    4    0  501 -0.13096362419E+04 -0.57706231842E+03 -0.89682548947E+03  0.16889179862E+04  0.00000000000E+00 0. -1.
<mgrwt>
<rscale>  2 0.20710519E+04</rscale>
<asrwt>0</asrwt>
<pdfrwt beam="1">  1        4 0.30292407E+00 0.20710519E+04</pdfrwt>
<pdfrwt beam="2">  1       -4 0.35228483E+00 0.20710519E+04</pdfrwt>
<totfact> 0.36106338E-02</totfact>
</mgrwt>
</event>
<event>
 8    1  0.7046235E-006  0.1182891E+04  0.7818608E-02  0.8619558E-01
          2   -1    0    0  502    0  0.00000000000E+00  0.00000000000E+00  0.30178049619E+04  0.30178049619E+04  0.00000000000E+00 0. -1.
         -2   -1    0    0    0  501 -0.00000000000E+00 -0.00000000000E+00 -0.66813466081E+03  0.66813466081E+03  0.00000000000E+00 0.  1.
    9000010    2    1    2  502    0  0.55362865646E+03 -0.32594310242E+03  0.21909762286E+04  0.24875798323E+04  0.98738695178E+03 0.  0.
   -9000010    2    1    2    0  501 -0.55362865646E+03  0.32594310242E+03  0.15869407251E+03  0.11983597904E+04  0.99906895826E+03 0.  0.
        -13    1    3    3    0    0  0.55146706683E+03  0.24617895546E+03  0.11965202506E+04  0.13402912837E+04  0.10566000000E+00 0.  1.
          4    1    3    3  502    0  0.21615896289E+01 -0.57212205788E+03  0.99445597797E+03  0.11472885486E+04  0.00000000000E+00 0.  1.
         13    1    4    4    0    0 -0.73841119494E+03  0.53264805914E+03  0.11600986955E+03  0.91783623197E+03  0.10566000000E+00 0. -1.
         -4    1    4    4    0  501  0.18478253848E+03 -0.20670495672E+03  0.42684202963E+02  0.28052355845E+03  0.00000000000E+00 0. -1.
<mgrwt>
<rscale>  2 0.11828911E+04</rscale>
<asrwt>0</asrwt>
<pdfrwt beam="1">  1        2 0.46427768E+00 0.11828911E+04</pdfrwt>
<pdfrwt beam="2">  1       -2 0.10278995E+00 0.11828911E+04</pdfrwt>
<totfact> 0.20615154E+00</totfact>
</mgrwt>
</event>
<event>
 8    1  0.7046235E-006  0.1233181E+04  0.7818608E-02  0.8581986E-01
         -1   -1    0    0    0  501 -0.00000000000E+00  0.00000000000E+00  0.16927683918E+04  0.16927683918E+04  0.00000000000E+00 0. -1.
          1   -1    0    0  502    0  0.00000000000E+00 -0.00000000000E+00 -0.91145206832E+03  0.91145206832E+03  0.00000000000E+00 0.  1.
    9000010    2    1    2  502    0 -0.36980724318E+03 -0.60311989211E+03  0.54274189357E+03  0.13372410949E+04  0.99656107769E+03 0.  0.
   -9000010    2    1    2    0  501  0.36980724318E+03  0.60311989211E+03  0.23857442990E+03  0.12669793652E+04  0.10236249078E+04 0.  0.
        -13    1    3    3    0    0 -0.36630620695E+03  0.19817639353E+03  0.23981847368E+03  0.48059029504E+03  0.10566000000E+00 0.  1.
          4    1    3    3  502    0 -0.35010362343E+01 -0.80129628564E+03  0.30292341989E+03  0.85665079989E+03  0.00000000000E+00 0.  1.
         13    1    4    4    0    0 -0.30319673716E+03  0.46779012843E+03  0.12258291497E+03  0.57077355220E+03  0.10566000000E+00 0. -1.
         -4    1    4    4    0  501  0.67300398034E+03  0.13532976368E+03  0.11599151494E+03  0.69620581298E+03  0.00000000000E+00 0. -1.
<mgrwt>
<rscale>  2 0.12331814E+04</rscale>
<asrwt>0</asrwt>
<pdfrwt beam="2">  1        1 0.14022340E+00 0.12331814E+04</pdfrwt>
<pdfrwt beam="1">  1       -1 0.26042591E+00 0.12331814E+04</pdfrwt>
<totfact> 0.90346630E-01</totfact>
</mgrwt>
</event>
<event>
 8    1  0.7046235E-006  0.1965829E+04  0.7818608E-02  0.8182448E-01
         -2   -1    0    0    0  501 -0.00000000000E+00  0.00000000000E+00  0.25046792639E+04  0.25046792639E+04  0.00000000000E+00 0.  1.
          2   -1    0    0  502    0  0.00000000000E+00 -0.00000000000E+00 -0.16818268868E+04  0.16818268868E+04  0.00000000000E+00 0. -1.
    9000010    2    1    2  502    0  0.16342127007E+04 -0.43681705144E+03 -0.18975128843E+03  0.19771905975E+04  0.10058910577E+04 0.  0.
   -9000010    2    1    2    0  501 -0.16342127007E+04  0.43681705144E+03  0.10126036655E+04  0.22093155532E+04  0.99712022493E+03 0.  0.
        -13    1    3    3    0    0  0.52034053531E+03 -0.38907720782E+03  0.35057005924E+03  0.73826467065E+03  0.10566000000E+00 0.  1.
          4    1    3    3  502    0  0.11138721654E+04 -0.47739843612E+02 -0.54032134767E+03  0.12389259268E+04  0.00000000000E+00 0.  1.
         13    1    4    4    0    0 -0.30686345852E+03  0.20741016307E+03 -0.17854531606E+03  0.41117222544E+03  0.10566000000E+00 0. -1.
         -4    1    4    4    0  501 -0.13273492422E+04  0.22940688836E+03  0.11911489815E+04  0.17981433278E+04  0.00000000000E+00 0. -1.
<mgrwt>
<rscale>  2 0.19658289E+04</rscale>
<asrwt>0</asrwt>
<pdfrwt beam="2">  1        2 0.25874260E+00 0.19658289E+04</pdfrwt>
<pdfrwt beam="1">  1       -2 0.38533527E+00 0.19658289E+04</pdfrwt>
<totfact> 0.62714624E-02</totfact>
</mgrwt>
</event>
<event>
 8    1  0.7046235E-006  0.1234078E+04  0.7818608E-02  0.8581333E-01
         -2   -1    0    0    0  501 -0.00000000000E+00  0.00000000000E+00  0.13396299624E+04  0.13396299624E+04  0.00000000000E+00 0. -1.
          2   -1    0    0  502    0  0.00000000000E+00 -0.00000000000E+00 -0.11495004209E+04  0.11495004209E+04  0.00000000000E+00 0.  1.
    9000010    2    1    2  502    0  0.33817496856E+03 -0.66175401619E+03 -0.35899368173E+02  0.12237808619E+04  0.97163272177E+03 0.  0.
   -9000010    2    1    2    0  501 -0.33817496856E+03  0.66175401619E+03  0.22602890976E+03  0.12653495214E+04  0.99886918862E+03 0.  0.
        -13    1    3    3    0    0 -0.10308052699E+03 -0.14515866289E+03 -0.41086562151E+03  0.44778030613E+03  0.10566000000E+00 0.  1.
          4    1    3    3  502    0  0.44125549555E+03 -0.51659535330E+03  0.37496625334E+03  0.77600055577E+03  0.00000000000E+00 0.  1.
         13    1    4    4    0    0 -0.54007504770E+03  0.10212195442E+03 -0.13952695707E+03  0.56707824296E+03  0.10566000000E+00 0. -1.
         -4    1    4    4    0  501  0.20190007915E+03  0.55963206177E+03  0.36555586683E+03  0.69827127845E+03  0.00000000000E+00 0. -1.
<mgrwt>
<rscale>  2 0.12340783E+04</rscale>
<asrwt>0</asrwt>
<pdfrwt beam="2">  1        2 0.17684622E+00 0.12340783E+04</pdfrwt>
<pdfrwt beam="1">  1       -2 0.20609692E+00 0.12340783E+04</pdfrwt>
<totfact> 0.27737646E+00</totfact>
</mgrwt>
</event>
<event>
 8    1  0.7046235E-006  0.1396883E+04  0.7818608E-02  0.8471432E-01
         -2   -1    0    0    0  501 -0.00000000000E+00  0.00000000000E+00  0.91191444418E+03  0.91191444418E+03  0.00000000000E+00 0.  1.
          2   -1    0    0  502    0  0.00000000000E+00 -0.00000000000E+00 -0.22638317103E+04  0.22638317103E+04  0.00000000000E+00 0. -1.
    9000010    2    1    2  502    0  0.87247055134E+03  0.23981469276E+03 -0.28462119085E+03  0.13738241464E+04  0.99381467746E+03 0.  0.
   -9000010    2    1    2    0  501 -0.87247055134E+03 -0.23981469276E+03 -0.10672960753E+04  0.18019220081E+04  0.11353792587E+04 0.  0.
        -13    1    3    3    0    0  0.26770554547E+03  0.52017712637E+03 -0.38410826805E+03  0.69984975146E+03  0.10566000000E+00 0.  1.
          4    1    3    3  502    0  0.60476500587E+03 -0.28036243361E+03  0.99487077199E+02  0.67397439494E+03  0.00000000000E+00 0.  1.
         13    1    4    4    0    0  0.13021769551E+03  0.15232972917E+02  0.15337581242E+03  0.20177423692E+03  0.10566000000E+00 0. -1.
         -4    1    4    4    0  501 -0.10026882468E+04 -0.25504766567E+03 -0.12206718877E+04  0.16001477711E+04  0.00000000000E+00 0. -1.
<mgrwt>
<rscale>  2 0.13968827E+04</rscale>
<asrwt>0</asrwt>
<pdfrwt beam="2">  1        2 0.34828180E+00 0.13968827E+04</pdfrwt>
<pdfrwt beam="1">  1       -2 0.14029453E+00 0.13968827E+04</pdfrwt>
<totfact> 0.24055185E+00</totfact>
</mgrwt>
</event>
<event>
 8    1  0.7046235E-006  0.1247746E+04  0.7818608E-02  0.8571451E-01
         -2   -1    0    0    0  501 -0.00000000000E+00  0.00000000000E+00  0.58142480128E+03  0.58142480128E+03  0.00000000000E+00 0. -1.
          2   -1    0    0  502    0  0.00000000000E+00 -0.00000000000E+00 -0.27797258849E+04  0.27797258849E+04  0.00000000000E+00 0.  1.
    9000010    2    1    2  502    0 -0.67243164644E+03 -0.33609804367E+03 -0.14154881547E+04  0.18826208126E+04  0.98768830803E+03 0.  0.
   -9000010    2    1    2    0  501  0.67243164644E+03  0.33609804367E+03 -0.78281292889E+03  0.14785298736E+04  0.10040559204E+04 0.  0.
        -13    1    3    3    0    0 -0.47920056122E+03 -0.15021147195E+03 -0.65713924380E+02  0.50647309425E+03  0.10566000000E+00 0.  1.
          4    1    3    3  502    0 -0.19323108521E+03 -0.18588657172E+03 -0.13497742303E+04  0.13761477184E+04  0.00000000000E+00 0.  1.
         13    1    4    4    0    0  0.61479194943E+03  0.50727347256E+03 -0.13801859122E+03  0.80891573092E+03  0.10566000000E+00 0. -1.
         -4    1    4    4    0  501  0.57639697009E+02 -0.17117542889E+03 -0.64479433767E+03  0.66961414264E+03  0.00000000000E+00 0. -1.
<mgrwt>
<rscale>  2 0.12477456E+04</rscale>
<asrwt>0</asrwt>
<pdfrwt beam="2">  1        2 0.42765014E+00 0.12477456E+04</pdfrwt>
<pdfrwt beam="1">  1       -2 0.89449969E-01 0.12477456E+04</pdfrwt>
<totfact> 0.39650328E+00</totfact>
</mgrwt>
</event>
<event>
 8    1  0.7046235E-006  0.1060782E+04  0.7818608E-02  0.8719487E-01
         -2   -1    0    0    0  501 -0.00000000000E+00  0.00000000000E+00  0.20114059700E+04  0.20114059700E+04  0.00000000000E+00 0. -1.
          2   -1    0    0  502    0  0.00000000000E+00 -0.00000000000E+00 -0.59055147318E+03  0.59055147318E+03  0.00000000000E+00 0.  1.
    9000010    2    1    2  502    0 -0.19958312127E+03  0.33933780743E+03  0.41077094613E+03  0.11359962779E+04  0.98324524067E+03 0.  0.
   -9000010    2    1    2    0  501  0.19958312127E+03 -0.33933780743E+03  0.10100835507E+04  0.14659611653E+04  0.98680787845E+03 0.  0.
        -13    1    3    3    0    0 -0.24413096730E+03  0.17311144055E+03 -0.28860123634E+03  0.41576217340E+03  0.10566000000E+00 0.  1.
          4    1    3    3  502    0  0.44547846034E+02  0.16622636687E+03  0.69937218247E+03  0.72023410447E+03  0.00000000000E+00 0.  1.
         13    1    4    4    0    0  0.41707370682E+03 -0.41016773029E+03  0.19072640325E+03  0.61527604858E+03  0.10566000000E+00 0. -1.
         -4    1    4    4    0  501 -0.21749058555E+03  0.70829922867E+02  0.81935714741E+03  0.85068511671E+03  0.00000000000E+00 0. -1.
<mgrwt>
<rscale>  2 0.10607821E+04</rscale>
<asrwt>0</asrwt>
<pdfrwt beam="2">  1        2 0.90854074E-01 0.10607821E+04</pdfrwt>
<pdfrwt beam="1">  1       -2 0.30944707E+00 0.10607821E+04</pdfrwt>
<totfact> 0.11154272E+00</totfact>
</mgrwt>
</event>
<event>
 8    1  0.7046235E-006  0.1248741E+04  0.7818608E-02  0.8570736E-01
          1   -1    0    0  502    0  0.00000000000E+00  0.00000000000E+00  0.18169621293E+04  0.18169621293E+04  0.00000000000E+00 0. -1.
         -1   -1    0    0    0  501 -0.00000000000E+00 -0.00000000000E+00 -0.85873031762E+03  0.85873031762E+03  0.00000000000E+00 0.  1.
    9000010    2    1    2  502    0 -0.54484393760E+03 -0.50632615601E+03  0.51346480577E+03  0.13562145592E+04  0.10111630587E+04 0.  0.
   -9000010    2    1    2    0  501  0.54484393760E+03  0.50632615601E+03  0.44476700590E+03  0.13194778877E+04  0.99497895151E+03 0.  0.
        -13    1    3    3    0    0 -0.69853145760E+03 -0.66420663790E+03  0.58136663192E+03  0.11256570645E+04  0.10566000000E+00 0.  1.
          4    1    3    3  502    0  0.15368752000E+03  0.15788048189E+03 -0.67901826151E+02  0.23055749470E+03  0.00000000000E+00 0.  1.
         13    1    4    4    0    0  0.69940477320E+03  0.70252127344E+03  0.33193394062E+03  0.10454106028E+04  0.10566000000E+00 0. -1.
         -4    1    4    4    0  501 -0.15456083560E+03 -0.19619511743E+03  0.11283306528E+03  0.27406728485E+03  0.00000000000E+00 0. -1.
<mgrwt>
<rscale>  2 0.12487408E+04</rscale>
<asrwt>0</asrwt>
<pdfrwt beam="1">  1        1 0.27953263E+00 0.12487408E+04</pdfrwt>
<pdfrwt beam="2">  1       -1 0.13211236E+00 0.12487408E+04</pdfrwt>
<totfact> 0.26541515E+00</totfact>
</mgrwt>
</event>
<event>
 8    1  0.7046235E-006  0.1209565E+04  0.7818608E-02  0.8599394E-01
          1   -1    0    0  502    0  0.00000000000E+00  0.00000000000E+00  0.21515224711E+04  0.21515224711E+04  0.00000000000E+00 0. -1.
         -1   -1    0    0    0  501 -0.00000000000E+00 -0.00000000000E+00 -0.68626022163E+03  0.68626022163E+03  0.00000000000E+00 0.  1.
    9000010    2    1    2  502    0 -0.52826615992E+03 -0.28643831552E+03  0.58063226831E+03  0.13000189712E+04  0.99589329257E+03 0.  0.
   -9000010    2    1    2    0  501  0.52826615992E+03  0.28643831552E+03  0.88462998118E+03  0.15377637215E+04  0.11050045318E+04 0.  0.
        -13    1    3    3    0    0 -0.82339406047E+03 -0.22057048815E+03  0.49505990620E+03  0.98575526423E+03  0.10566000000E+00 0.  1.
          4    1    3    3  502    0  0.29512790055E+03 -0.65867827372E+02  0.85572362110E+02  0.31426370698E+03  0.00000000000E+00 0.  1.
         13    1    4    4    0    0 -0.20570750419E+03  0.93977518533E+02 -0.13757218114E+03  0.26471393514E+03  0.10566000000E+00 0. -1.
         -4    1    4    4    0  501  0.73397366411E+03  0.19246079699E+03  0.10222021623E+04  0.12730497864E+04  0.00000000000E+00 0. -1.
<mgrwt>
<rscale>  2 0.12095655E+04</rscale>
<asrwt>0</asrwt>
<pdfrwt beam="1">  1        1 0.33100346E+00 0.12095655E+04</pdfrwt>
<pdfrwt beam="2">  1       -1 0.10557850E+00 0.12095655E+04</pdfrwt>
<totfact> 0.25587256E+00</totfact>
</mgrwt>
</event>
<event>
 8    1  0.7046235E-006  0.1109004E+04  0.7818608E-02  0.8678427E-01
          2   -1    0    0  502    0  0.00000000000E+00  0.00000000000E+00  0.69570315680E+03  0.69570315680E+03  0.00000000000E+00 0.  1.
         -2   -1    0    0    0  501 -0.00000000000E+00 -0.00000000000E+00 -0.17705919641E+04  0.17705919641E+04  0.00000000000E+00 0. -1.
    9000010    2    1    2  502    0  0.48138632467E+03  0.24211615943E+03 -0.48487186688E+03  0.11899015920E+04  0.94361647039E+03 0.  0.
   -9000010    2    1    2    0  501 -0.48138632467E+03 -0.24211615943E+03 -0.59001694047E+03  0.12763935289E+04  0.99534286674E+03 0.  0.
        -13    1    3    3    0    0  0.66217334584E+03  0.40526263221E+03 -0.17505466099E+03  0.79583634405E+03  0.10566000000E+00 0.  1.
          4    1    3    3  502    0 -0.18078702118E+03 -0.16314647277E+03 -0.30981720589E+03  0.39406524799E+03  0.00000000000E+00 0.  1.
         13    1    4    4    0    0 -0.58219314205E+03 -0.44417522414E+03 -0.71061401818E+03  0.10203983430E+04  0.10566000000E+00 0. -1.
         -4    1    4    4    0  501  0.10080681739E+03  0.20205906471E+03  0.12059707771E+03  0.25599518592E+03  0.00000000000E+00 0. -1.
<mgrwt>
<rscale>  2 0.11090044E+04</rscale>
<asrwt>0</asrwt>
<pdfrwt beam="1">  1        2 0.10703126E+00 0.11090044E+04</pdfrwt>
<pdfrwt beam="2">  1       -2 0.27239876E+00 0.11090044E+04</pdfrwt>
<totfact> 0.16504260E+00</totfact>
</mgrwt>
</event>
<event>
 8    1  0.7046235E-006  0.1404166E+04  0.7818608E-02  0.8466880E-01
         -1   -1    0    0    0  501 -0.00000000000E+00  0.00000000000E+00  0.10177863506E+04  0.10177863506E+04  0.00000000000E+00 0.  1.
          1   -1    0    0  502    0  0.00000000000E+00 -0.00000000000E+00 -0.21612188871E+04  0.21612188871E+04  0.00000000000E+00 0. -1.
    9000010    2    1    2  502    0 -0.75636513935E+03 -0.63163532722E+03 -0.58401129921E+02  0.14009405789E+04  0.99406861086E+03 0.  0.
   -9000010    2    1    2    0  501  0.75636513935E+03  0.63163532722E+03 -0.10850314066E+04  0.17780646588E+04  0.10065631461E+04 0.  0.
        -13    1    3    3    0    0 -0.38646014417E+03  0.19343728666E+03 -0.21595046059E+03  0.48311907383E+03  0.10566000000E+00 0.  1.
          4    1    3    3  502    0 -0.36990499518E+03 -0.82507261388E+03  0.15754933067E+03  0.91782150510E+03  0.00000000000E+00 0.  1.
         13    1    4    4    0    0  0.62898177270E+03  0.37307233292E+03 -0.12483430452E+04  0.14467762113E+04  0.10566000000E+00 0. -1.
         -4    1    4    4    0  501  0.12738336665E+03  0.25856299430E+03  0.16331163863E+03  0.33128844748E+03  0.00000000000E+00 0. -1.
<mgrwt>
<rscale>  2 0.14041662E+04</rscale>
<asrwt>0</asrwt>
<pdfrwt beam="2">  1        1 0.33249521E+00 0.14041662E+04</pdfrwt>
<pdfrwt beam="1">  1       -1 0.15658252E+00 0.14041662E+04</pdfrwt>
<totfact> 0.86877212E-01</totfact>
</mgrwt>
</event>
<event>
 8    1  0.7046235E-006  0.1346987E+04  0.7818608E-02  0.8503402E-01
         -2   -1    0    0    0  501 -0.00000000000E+00  0.00000000000E+00  0.61550727388E+03  0.61550727388E+03  0.00000000000E+00 0. -1.
          2   -1    0    0  502    0  0.00000000000E+00 -0.00000000000E+00 -0.31265485636E+04  0.31265485636E+04  0.00000000000E+00 0.  1.
    9000010    2    1    2  502    0 -0.55870920466E+03 -0.73081251266E+03 -0.16909180270E+04  0.21536615691E+04  0.96582165859E+03 0.  0.
   -9000010    2    1    2    0  501  0.55870920466E+03  0.73081251266E+03 -0.82012326268E+03  0.15883942683E+04  0.10020734911E+04 0.  0.
        -13    1    3    3    0    0  0.17658990212E+03  0.84217787540E+02 -0.48494288445E+03  0.52292087510E+03  0.10566000000E+00 0.  1.
          4    1    3    3  502    0 -0.73529910677E+03 -0.81503030020E+03 -0.12059751426E+04  0.16307406940E+04  0.00000000000E+00 0.  1.
         13    1    4    4    0    0  0.46561253484E+03  0.25724188104E+03  0.10752325350E+03  0.54270588643E+03  0.10566000000E+00 0. -1.
         -4    1    4    4    0  501  0.93096669820E+02  0.47357063162E+03 -0.92764651618E+03  0.10456883819E+04  0.00000000000E+00 0. -1.
<mgrwt>
<rscale>  2 0.13469869E+04</rscale>
<asrwt>0</asrwt>
<pdfrwt beam="2">  1        2 0.48100748E+00 0.13469869E+04</pdfrwt>
<pdfrwt beam="1">  1       -2 0.94693425E-01 0.13469869E+04</pdfrwt>
<totfact> 0.21007074E+00</totfact>
</mgrwt>
</event>
<event>
 8    1  0.7046235E-006  0.1442515E+04  0.7818608E-02  0.8443370E-01
          1   -1    0    0  502    0  0.00000000000E+00  0.00000000000E+00  0.26460886341E+04  0.26460886341E+04  0.00000000000E+00 0.  1.
         -1   -1    0    0    0  501 -0.00000000000E+00 -0.00000000000E+00 -0.11074212110E+04  0.11074212110E+04  0.00000000000E+00 0. -1.
    9000010    2    1    2  502    0 -0.86391287480E+03  0.57396015170E+03  0.17816310149E+04  0.22954542799E+04  0.10095174920E+04 0.  0.
   -9000010    2    1    2    0  501  0.86391287480E+03 -0.57396015170E+03 -0.24296359186E+03  0.14580555652E+04  0.99554960357E+03 0.  0.
        -13    1    3    3    0    0 -0.10277301824E+04  0.69192046062E+03  0.16023753784E+04  0.20254851557E+04  0.10566000000E+00 0.  1.
          4    1    3    3  502    0  0.16381730764E+03 -0.11796030892E+03  0.17925563655E+03  0.26996912416E+03  0.00000000000E+00 0.  1.
         13    1    4    4    0    0  0.71445327922E+03 -0.76180544612E+03  0.89220912777E+02  0.10482134365E+04  0.10566000000E+00 0. -1.
         -4    1    4    4    0  501  0.14945959558E+03  0.18784529442E+03 -0.33218450463E+03  0.40984212871E+03  0.00000000000E+00 0. -1.
<mgrwt>
<rscale>  2 0.14425155E+04</rscale>
<asrwt>0</asrwt>
<pdfrwt beam="1">  1        1 0.40709056E+00 0.14425155E+04</pdfrwt>
<pdfrwt beam="2">  1       -1 0.17037249E+00 0.14425155E+04</pdfrwt>
<totfact> 0.24685605E-01</totfact>
</mgrwt>
</event>
<event>
 8    1  0.7046235E-006  0.1337694E+04  0.7818608E-02  0.8509514E-01
          2   -1    0    0  502    0  0.00000000000E+00  0.00000000000E+00  0.33784762611E+04  0.33784762611E+04  0.00000000000E+00 0.  1.
         -2   -1    0    0    0  501 -0.00000000000E+00 -0.00000000000E+00 -0.69314259278E+03  0.69314259278E+03  0.00000000000E+00 0. -1.
    9000010    2    1    2  502    0  0.10648563353E+02  0.86659783568E+03  0.23473399354E+04  0.27125284720E+04  0.10472348059E+04 0.  0.
   -9000010    2    1    2    0  501 -0.10648563353E+02 -0.86659783568E+03  0.33799373299E+03  0.13590903819E+04  0.99084898038E+03 0.  0.
        -13    1    3    3    0    0 -0.18324406048E+03  0.94017537802E+03  0.11468000862E+04  0.14942083443E+04  0.10566000000E+00 0.  1.
          4    1    3    3  502    0  0.19389262383E+03 -0.73577542349E+02  0.12005398491E+04  0.12183201278E+04  0.00000000000E+00 0.  1.
         13    1    4    4    0    0  0.74694591617E+02  0.19811546420E+03  0.18284663280E+03  0.27975332252E+03  0.10566000000E+00 0. -1.
         -4    1    4    4    0  501 -0.85343154970E+02 -0.10647132999E+04  0.15514710019E+03  0.10793370594E+04  0.00000000000E+00 0. -1.
<mgrwt>
<rscale>  2 0.13376936E+04</rscale>
<asrwt>0</asrwt>
<pdfrwt beam="1">  1        2 0.51976557E+00 0.13376936E+04</pdfrwt>
<pdfrwt beam="2">  1       -2 0.10663732E+00 0.13376936E+04</pdfrwt>
<totfact> 0.10735808E+00</totfact>
</mgrwt>
</event>
<event>
 8    1  0.7046235E-006  0.1484300E+04  0.7818608E-02  0.8418592E-01
         -1   -1    0    0    0  501 -0.00000000000E+00  0.00000000000E+00  0.74454460746E+03  0.74454460746E+03  0.00000000000E+00 0.  1.
          1   -1    0    0  502    0  0.00000000000E+00 -0.00000000000E+00 -0.30218831708E+04  0.30218831708E+04  0.00000000000E+00 0. -1.
    9000010    2    1    2  502    0 -0.56861894713E+03 -0.95635382613E+03 -0.87335765807E+03  0.17291348584E+04  0.99459218365E+03 0.  0.
   -9000010    2    1    2    0  501  0.56861894713E+03  0.95635382613E+03 -0.14039809053E+04  0.20372929199E+04  0.97028857113E+03 0.  0.
        -13    1    3    3    0    0 -0.52774317642E+03 -0.66913117345E+03 -0.10779548854E+04  0.13741310468E+04  0.10566000000E+00 0.  1.
          4    1    3    3  502    0 -0.40875770712E+02 -0.28722265268E+03  0.20459722732E+03  0.35500381163E+03  0.00000000000E+00 0.  1.
         13    1    4    4    0    0 -0.22542268748E+03  0.52757812330E+03 -0.53175130755E+03  0.78224901947E+03  0.10566000000E+00 0. -1.
         -4    1    4    4    0  501  0.79404163461E+03  0.42877570283E+03 -0.87222959777E+03  0.12550439005E+04  0.00000000000E+00 0. -1.
<mgrwt>
<rscale>  2 0.14843004E+04</rscale>
<asrwt>0</asrwt>
<pdfrwt beam="2">  1        1 0.46490512E+00 0.14843004E+04</pdfrwt>
<pdfrwt beam="1">  1       -1 0.11454532E+00 0.14843004E+04</pdfrwt>
<totfact> 0.31479059E-01</totfact>
</mgrwt>
</event>
<event>
 8    1  0.7046235E-006  0.1146064E+04  0.7818608E-02  0.8648323E-01
          2   -1    0    0  502    0  0.00000000000E+00  0.00000000000E+00  0.26985318960E+04  0.26985318960E+04  0.00000000000E+00 0. -1.
         -2   -1    0    0    0  501 -0.00000000000E+00 -0.00000000000E+00 -0.50560468922E+03  0.50560468922E+03  0.00000000000E+00 0.  1.
    9000010    2    1    2  502    0 -0.17236752200E+03 -0.56544581427E+03  0.13908109193E+04  0.17923367370E+04  0.96367859469E+03 0.  0.
   -9000010    2    1    2    0  501  0.17236752200E+03  0.56544581427E+03  0.80211628750E+03  0.14117998483E+04  0.10001743555E+04 0.  0.
        -13    1    3    3    0    0 -0.16146939978E+03 -0.53473916502E+03  0.18842622613E+03  0.58951064073E+03  0.10566000000E+00 0.  1.
          4    1    3    3  502    0 -0.10898122214E+02 -0.30706649246E+02  0.12023846932E+04  0.12028260962E+04  0.00000000000E+00 0.  1.
         13    1    4    4    0    0  0.10592177270E+03  0.76492588006E+03  0.89486533392E+03  0.11819961933E+04  0.10566000000E+00 0. -1.
         -4    1    4    4    0  501  0.66445749295E+02 -0.19948006579E+03 -0.92749046421E+02  0.22980365502E+03  0.00000000000E+00 0. -1.
<mgrwt>
<rscale>  2 0.11460643E+04</rscale>
<asrwt>0</asrwt>
<pdfrwt beam="1">  1        2 0.41515874E+00 0.11460643E+04</pdfrwt>
<pdfrwt beam="2">  1       -2 0.77785338E-01 0.11460643E+04</pdfrwt>
<totfact> 0.61144813E+00</totfact>
</mgrwt>
</event>
<event>
 8    1  0.7046235E-006  0.1512661E+04  0.7818608E-02  0.8402249E-01
         -2   -1    0    0    0  501 -0.00000000000E+00  0.00000000000E+00  0.14882709622E+04  0.14882709622E+04  0.00000000000E+00 0. -1.
          2   -1    0    0  502    0  0.00000000000E+00 -0.00000000000E+00 -0.18327168458E+04  0.18327168458E+04  0.00000000000E+00 0.  1.
    9000010    2    1    2  502    0  0.10701388098E+04 -0.36581368617E+03 -0.83822844501E+03  0.17251184986E+04  0.99719114657E+03 0.  0.
   -9000010    2    1    2    0  501 -0.10701388098E+04  0.36581368617E+03  0.49378256136E+03  0.15958693094E+04  0.10119095362E+04 0.  0.
        -13    1    3    3    0    0  0.22730307487E+03  0.22721248376E+03 -0.57937682923E+03  0.66254790169E+03  0.10566000000E+00 0.  1.
          4    1    3    3  502    0  0.84283573498E+03 -0.59302616993E+03 -0.25885161578E+03  0.10625705969E+04  0.00000000000E+00 0.  1.
         13    1    4    4    0    0 -0.69907139431E+03 -0.19101159086E+03 -0.60164591544E+02  0.72719050559E+03  0.10566000000E+00 0. -1.
         -4    1    4    4    0  501 -0.37106741554E+03  0.55682527703E+03  0.55394715290E+03  0.86867880383E+03  0.00000000000E+00 0. -1.
<mgrwt>
<rscale>  2 0.15126614E+04</rscale>
<asrwt>0</asrwt>
<pdfrwt beam="2">  1        2 0.28195644E+00 0.15126614E+04</pdfrwt>
<pdfrwt beam="1">  1       -2 0.22896476E+00 0.15126614E+04</pdfrwt>
<totfact> 0.73344563E-01</totfact>
</mgrwt>
</event>
<event>
 8    1  0.7046235E-006  0.1085648E+04  0.7818608E-02  0.8698037E-01
         -2   -1    0    0    0  501 -0.00000000000E+00  0.00000000000E+00  0.70887378686E+03  0.70887378686E+03  0.00000000000E+00 0.  1.
          2   -1    0    0  502    0  0.00000000000E+00 -0.00000000000E+00 -0.16923631681E+04  0.16923631681E+04  0.00000000000E+00 0. -1.
    9000010    2    1    2  502    0 -0.96708094933E+02 -0.33631631467E+03 -0.62203983166E+03  0.12124852993E+04  0.98016627653E+03 0.  0.
   -9000010    2    1    2    0  501  0.96708094933E+02  0.33631631467E+03 -0.36144954959E+03  0.11887516557E+04  0.10770439187E+04 0.  0.
        -13    1    3    3    0    0  0.39724658065E+03  0.18490565861E+02 -0.97744391211E+02  0.40951278862E+03  0.10566000000E+00 0.  1.
          4    1    3    3  502    0 -0.49395467558E+03 -0.35480688053E+03 -0.52429544045E+03  0.80297251066E+03  0.00000000000E+00 0.  1.
         13    1    4    4    0    0 -0.11054309188E+03  0.43495787148E+03  0.26527111144E+03  0.52132226008E+03  0.10566000000E+00 0. -1.
         -4    1    4    4    0  501  0.20725118681E+03 -0.98641556816E+02 -0.62672066103E+03  0.66742939561E+03  0.00000000000E+00 0. -1.
<mgrwt>
<rscale>  2 0.10856477E+04</rscale>
<asrwt>0</asrwt>
<pdfrwt beam="2">  1        2 0.26036356E+00 0.10856477E+04</pdfrwt>
<pdfrwt beam="1">  1       -2 0.10905751E+00 0.10856477E+04</pdfrwt>
<totfact> 0.10061879E+01</totfact>
</mgrwt>
</event>
<event>
 8    1  0.7046235E-006  0.1036387E+04  0.7818608E-02  0.8741134E-01
         -1   -1    0    0    0  501 -0.00000000000E+00  0.00000000000E+00  0.56639213540E+03  0.56639213540E+03  0.00000000000E+00 0. -1.
          1   -1    0    0  502    0  0.00000000000E+00 -0.00000000000E+00 -0.21710647937E+04  0.21710647937E+04  0.00000000000E+00 0.  1.
    9000010    2    1    2  502    0 -0.12754535570E+03 -0.30879468470E+03 -0.13036181292E+04  0.16797543274E+04  0.10052524054E+04 0.  0.
   -9000010    2    1    2    0  501  0.12754535570E+03  0.30879468470E+03 -0.30105452911E+03  0.10577026017E+04  0.95732909132E+03 0.  0.
        -13    1    3    3    0    0  0.36199678031E+03 -0.15075199845E+03 -0.15583130188E+03  0.42196118282E+03  0.10566000000E+00 0.  1.
          4    1    3    3  502    0 -0.48954213602E+03 -0.15804268624E+03 -0.11477868273E+04  0.12577931446E+04  0.00000000000E+00 0.  1.
         13    1    4    4    0    0  0.37286239642E+03 -0.60086234000E+01  0.19517109629E+03  0.42089694488E+03  0.10566000000E+00 0. -1.
         -4    1    4    4    0  501 -0.24531704072E+03  0.31480330810E+03 -0.49622562540E+03  0.63680565682E+03  0.00000000000E+00 0. -1.
<mgrwt>
<rscale>  2 0.10363873E+04</rscale>
<asrwt>0</asrwt>
<pdfrwt beam="2">  1        1 0.33400996E+00 0.10363873E+04</pdfrwt>
<pdfrwt beam="1">  1       -1 0.87137253E-01 0.10363873E+04</pdfrwt>
<totfact> 0.37957104E+00</totfact>
</mgrwt>
</event>
<event>
 8    1  0.7046235E-006  0.1231684E+04  0.7818608E-02  0.8583078E-01
          2   -1    0    0  502    0  0.00000000000E+00  0.00000000000E+00  0.17196621552E+04  0.17196621552E+04  0.00000000000E+00 0. -1.
         -2   -1    0    0    0  501 -0.00000000000E+00 -0.00000000000E+00 -0.88360836064E+03  0.88360836064E+03  0.00000000000E+00 0.  1.
    9000010    2    1    2  502    0 -0.27046405787E+03  0.65221338349E+03  0.46456580479E+03  0.13048651068E+04  0.99414207020E+03 0.  0.
   -9000010    2    1    2    0  501  0.27046405787E+03 -0.65221338349E+03  0.37148798975E+03  0.12984054090E+04  0.10243633025E+04 0.  0.
        -13    1    3    3    0    0  0.17361163652E+03  0.25515339401E+03  0.61707947971E+03  0.68995025201E+03  0.10566000000E+00 0.  1.
          4    1    3    3  502    0 -0.44407569439E+03  0.39705998948E+03 -0.15251367492E+03  0.61491485478E+03  0.00000000000E+00 0.  1.
         13    1    4    4    0    0  0.48831938705E+03 -0.18264498587E+03  0.54330538783E+03  0.75299121525E+03  0.10566000000E+00 0. -1.
         -4    1    4    4    0  501 -0.21785532918E+03 -0.46956839762E+03 -0.17181739808E+03  0.54541419378E+03  0.00000000000E+00 0. -1.
<mgrwt>
<rscale>  2 0.12316841E+04</rscale>
<asrwt>0</asrwt>
<pdfrwt beam="1">  1        2 0.26456341E+00 0.12316841E+04</pdfrwt>
<pdfrwt beam="2">  1       -2 0.13593975E+00 0.12316841E+04</pdfrwt>
<totfact> 0.53174773E+00</totfact>
</mgrwt>
</event>
<event>
 8    1  0.7046235E-006  0.1123442E+04  0.7818608E-02  0.8666556E-01
         -1   -1    0    0    0  501 -0.00000000000E+00  0.00000000000E+00  0.84349428672E+03  0.84349428672E+03  0.00000000000E+00 0.  1.
          1   -1    0    0  502    0  0.00000000000E+00 -0.00000000000E+00 -0.15536849634E+04  0.15536849634E+04  0.00000000000E+00 0. -1.
    9000010    2    1    2  502    0  0.88528776700E+02 -0.52855703625E+03 -0.58728384961E+03  0.12733537951E+04  0.99464450057E+03 0.  0.
   -9000010    2    1    2    0  501 -0.88528776700E+02  0.52855703625E+03 -0.12290682708E+03  0.11238254551E+04  0.98013656214E+03 0.  0.
        -13    1    3    3    0    0  0.56167322905E+02 -0.62977172218E+03 -0.80942761367E+03  0.10271028494E+04  0.10566000000E+00 0.  1.
          4    1    3    3  502    0  0.32361453795E+02  0.10121468594E+03  0.22214376407E+03  0.24625094569E+03  0.00000000000E+00 0.  1.
         13    1    4    4    0    0  0.11163250474E+02 -0.36157381175E+02 -0.45805988908E+03  0.45962032975E+03  0.10566000000E+00 0. -1.
         -4    1    4    4    0  501 -0.99692027174E+02  0.56471441742E+03  0.33515306200E+03  0.66420512531E+03  0.00000000000E+00 0. -1.
<mgrwt>
<rscale>  2 0.11234417E+04</rscale>
<asrwt>0</asrwt>
<pdfrwt beam="2">  1        1 0.23902845E+00 0.11234417E+04</pdfrwt>
<pdfrwt beam="1">  1       -1 0.12976835E+00 0.11234417E+04</pdfrwt>
<totfact> 0.44415477E+00</totfact>
</mgrwt>
</event>
<event>
 8    1  0.7046235E-006  0.1694337E+04  0.7818608E-02  0.8305669E-01
         -2   -1    0    0    0  501 -0.00000000000E+00  0.00000000000E+00  0.12305603410E+04  0.12305603410E+04  0.00000000000E+00 0.  1.
          2   -1    0    0  502    0  0.00000000000E+00 -0.00000000000E+00 -0.23653253992E+04  0.23653253992E+04  0.00000000000E+00 0. -1.
    9000010    2    1    2  502    0  0.13444994121E+04  0.21165179827E+03 -0.35518609825E+03  0.17259281716E+04  0.10000978634E+04 0.  0.
   -9000010    2    1    2    0  501 -0.13444994121E+04 -0.21165179827E+03 -0.77957895988E+03  0.18699575686E+04  0.10180976381E+04 0.  0.
        -13    1    3    3    0    0  0.35834996264E+03 -0.37332099449E+03 -0.24945803823E+03  0.57446721808E+03  0.10566000000E+00 0.  1.
          4    1    3    3  502    0  0.98614944943E+03  0.58497279276E+03 -0.10572806002E+03  0.11514609535E+04  0.00000000000E+00 0.  1.
         13    1    4    4    0    0 -0.81797748195E+02 -0.39660632329E+03 -0.73810496590E+02  0.41162537319E+03  0.10566000000E+00 0. -1.
         -4    1    4    4    0  501 -0.12627016639E+04  0.18495452502E+03 -0.70576846329E+03  0.14583321954E+04  0.00000000000E+00 0. -1.
<mgrwt>
<rscale>  2 0.16943367E+04</rscale>
<asrwt>0</asrwt>
<pdfrwt beam="2">  1        2 0.36389622E+00 0.16943367E+04</pdfrwt>
<pdfrwt beam="1">  1       -2 0.18931698E+00 0.16943367E+04</pdfrwt>
<totfact> 0.77679086E-01</totfact>
</mgrwt>
</event>
<event>
 8    1  0.7046235E-006  0.1120330E+04  0.7818608E-02  0.8669099E-01
         -2   -1    0    0    0  501 -0.00000000000E+00  0.00000000000E+00  0.13338898368E+04  0.13338898368E+04  0.00000000000E+00 0. -1.
          2   -1    0    0  502    0  0.00000000000E+00 -0.00000000000E+00 -0.13166459473E+04  0.13166459473E+04  0.00000000000E+00 0.  1.
    9000010    2    1    2  502    0  0.37161856570E+03  0.34802090633E+03 -0.69929863352E+03  0.13192856460E+04  0.99613107931E+03 0.  0.
   -9000010    2    1    2    0  501 -0.37161856570E+03 -0.34802090633E+03  0.71654252304E+03  0.13312501381E+04  0.99978739404E+03 0.  0.
        -13    1    3    3    0    0  0.49115243531E+03 -0.17834162972E+03 -0.13773642144E+03  0.54037744638E+03  0.10566000000E+00 0.  1.
          4    1    3    3  502    0 -0.11953386961E+03  0.52636253604E+03 -0.56156221208E+03  0.77890819958E+03  0.00000000000E+00 0.  1.
         13    1    4    4    0    0  0.21943336578E+02 -0.60731516549E+02 -0.24496054159E+03  0.25332884799E+03  0.10566000000E+00 0. -1.
         -4    1    4    4    0  501 -0.39356190228E+03 -0.28728938978E+03  0.96150306463E+03  0.10779212901E+04  0.00000000000E+00 0. -1.
<mgrwt>
<rscale>  2 0.11203301E+04</rscale>
<asrwt>0</asrwt>
<pdfrwt beam="2">  1        2 0.20256091E+00 0.11203301E+04</pdfrwt>
<pdfrwt beam="1">  1       -2 0.20521382E+00 0.11203301E+04</pdfrwt>
<totfact> 0.22958471E+00</totfact>
</mgrwt>
</event>
<event>
 8    1  0.7046235E-006  0.1165471E+04  0.7818608E-02  0.8633027E-01
          2   -1    0    0  502    0  0.00000000000E+00  0.00000000000E+00  0.26031299117E+04  0.26031299117E+04  0.00000000000E+00 0. -1.
         -2   -1    0    0    0  501 -0.00000000000E+00 -0.00000000000E+00 -0.58982658435E+03  0.58982658435E+03  0.00000000000E+00 0.  1.
    9000010    2    1    2  502    0  0.57541233769E+03  0.14078229914E+03  0.46577317343E+03  0.12566509287E+04  0.10056380529E+04 0.  0.
   -9000010    2    1    2    0  501 -0.57541233769E+03 -0.14078229914E+03  0.15475301539E+04  0.19363055673E+04  0.10017537914E+04 0.  0.
        -13    1    3    3    0    0 -0.69975402119E+00  0.35518668401E+03  0.53061890053E+03  0.63852525316E+03  0.10566000000E+00 0.  1.
          4    1    3    3  502    0  0.57611209172E+03 -0.21440438487E+03 -0.64845727094E+02  0.61812567557E+03  0.00000000000E+00 0.  1.
         13    1    4    4    0    0 -0.47369634711E+03 -0.52105362818E+03  0.65886051049E+03  0.96435589704E+03  0.10566000000E+00 0. -1.
         -4    1    4    4    0  501 -0.10171599058E+03  0.38027132904E+03  0.88866964342E+03  0.97194967029E+03  0.00000000000E+00 0. -1.
<mgrwt>
<rscale>  2 0.11654710E+04</rscale>
<asrwt>0</asrwt>
<pdfrwt beam="1">  1        2 0.40048152E+00 0.11654710E+04</pdfrwt>
<pdfrwt beam="2">  1       -2 0.90742553E-01 0.11654710E+04</pdfrwt>
<totfact> 0.49035586E+00</totfact>
</mgrwt>
</event>
<event>
 8    1  0.7046235E-006  0.1193817E+04  0.7818608E-02  0.8611233E-01
          4   -1    0    0  502    0  0.00000000000E+00  0.00000000000E+00  0.17538961130E+04  0.17538961130E+04  0.00000000000E+00 0.  1.
         -4   -1    0    0    0  501 -0.00000000000E+00 -0.00000000000E+00 -0.15204248447E+04  0.15204248447E+04  0.00000000000E+00 0. -1.
    9000010    2    1    2  502    0  0.92750624780E+02  0.73393665392E+03  0.12306994413E+04  0.16877887338E+04  0.88698591010E+03 0.  0.
   -9000010    2    1    2    0  501 -0.92750624780E+02 -0.73393665392E+03 -0.99722817305E+03  0.15865322239E+04  0.98760051544E+03 0.  0.
        -13    1    3    3    0    0  0.37268059857E+03  0.49633227411E+03  0.30425423244E+03  0.69123599732E+03  0.10566000000E+00 0.  1.
          4    1    3    3  502    0 -0.27992997379E+03  0.23760437981E+03  0.92644520886E+03  0.99655273646E+03  0.00000000000E+00 0.  1.
         13    1    4    4    0    0  0.41252940176E+03 -0.56819082429E+03 -0.57194304570E+03  0.90561591131E+03  0.10566000000E+00 0. -1.
         -4    1    4    4    0  501 -0.50528002654E+03 -0.16574582962E+03 -0.42528512735E+03  0.68091631263E+03  0.00000000000E+00 0. -1.
<mgrwt>
<rscale>  2 0.11938167E+04</rscale>
<asrwt>0</asrwt>
<pdfrwt beam="1">  1        4 0.26983017E+00 0.11938167E+04</pdfrwt>
<pdfrwt beam="2">  1       -4 0.23391152E+00 0.11938167E+04</pdfrwt>
<totfact> 0.99261370E-02</totfact>
</mgrwt>
</event>
<event>
 8    1  0.7046235E-006  0.1118788E+04  0.7818608E-02  0.8670362E-01
          2   -1    0    0  502    0  0.00000000000E+00  0.00000000000E+00  0.13133661799E+04  0.13133661799E+04  0.00000000000E+00 0.  1.
         -2   -1    0    0    0  501 -0.00000000000E+00 -0.00000000000E+00 -0.97271068972E+03  0.97271068972E+03  0.00000000000E+00 0. -1.
    9000010    2    1    2  502    0  0.31906108447E+03 -0.44260440413E+03  0.32596688456E+03  0.11382071105E+04  0.94422581108E+03 0.  0.
   -9000010    2    1    2    0  501 -0.31906108447E+03  0.44260440413E+03  0.14688605668E+02  0.11478697592E+04  0.10097973038E+04 0.  0.
        -13    1    3    3    0    0  0.11573854344E+03 -0.61330510617E+03  0.51756568448E+03  0.81080997318E+03  0.10566000000E+00 0.  1.
          4    1    3    3  502    0  0.20332254104E+03  0.17070070204E+03 -0.19159879992E+03  0.32739713729E+03  0.00000000000E+00 0.  1.
         13    1    4    4    0    0  0.15359404236E+03  0.15966815296E+03 -0.40074672999E+03  0.45791156535E+03  0.10566000000E+00 0. -1.
         -4    1    4    4    0  501 -0.47265512684E+03  0.28293625117E+03  0.41543533566E+03  0.68995819385E+03  0.00000000000E+00 0. -1.
<mgrwt>
<rscale>  2 0.11187881E+04</rscale>
<asrwt>0</asrwt>
<pdfrwt beam="1">  1        2 0.20205634E+00 0.11187881E+04</pdfrwt>
<pdfrwt beam="2">  1       -2 0.14964780E+00 0.11187881E+04</pdfrwt>
<totfact> 0.67765403E+00</totfact>
</mgrwt>
</event>
<event>
 8    1  0.7046235E-006  0.1262586E+04  0.7818608E-02  0.8560867E-01
         -1   -1    0    0    0  501 -0.00000000000E+00  0.00000000000E+00  0.89100865679E+03  0.89100865679E+03  0.00000000000E+00 0.  1.
          1   -1    0    0  502    0  0.00000000000E+00 -0.00000000000E+00 -0.19015630094E+04  0.19015630094E+04  0.00000000000E+00 0. -1.
    9000010    2    1    2  502    0 -0.24775335148E+03 -0.71624901318E+03 -0.16493888384E+03  0.12711702439E+04  0.10071120005E+04 0.  0.
   -9000010    2    1    2    0  501  0.24775335148E+03  0.71624901318E+03 -0.84561546880E+03  0.15214014223E+04  0.10125227872E+04 0.  0.
        -13    1    3    3    0    0 -0.60502650716E+03 -0.63967507955E+03 -0.20369736431E+03  0.90373331750E+03  0.10566000000E+00 0.  1.
          4    1    3    3  502    0  0.35727315569E+03 -0.76573933630E+02  0.38758480470E+02  0.36743692642E+03  0.00000000000E+00 0.  1.
         13    1    4    4    0    0  0.20846926821E+03  0.88355096339E+03 -0.95504853276E+03  0.13176643927E+04  0.10566000000E+00 0. -1.
         -4    1    4    4    0  501  0.39284083264E+02 -0.16730195021E+03  0.10943306396E+03  0.20373702960E+03  0.00000000000E+00 0. -1.
<mgrwt>
<rscale>  2 0.12625860E+04</rscale>
<asrwt>0</asrwt>
<pdfrwt beam="2">  1        1 0.29254815E+00 0.12625860E+04</pdfrwt>
<pdfrwt beam="1">  1       -1 0.13707826E+00 0.12625860E+04</pdfrwt>
<totfact> 0.20698274E+00</totfact>
</mgrwt>
</event>
<event>
 8    1  0.7046235E-006  0.1703595E+04  0.7818608E-02  0.8301086E-01
          4   -1    0    0  502    0  0.00000000000E+00  0.00000000000E+00  0.21121888305E+04  0.21121888305E+04  0.00000000000E+00 0. -1.
         -4   -1    0    0    0  501 -0.00000000000E+00 -0.00000000000E+00 -0.15307529055E+04  0.15307529055E+04  0.00000000000E+00 0.  1.
    9000010    2    1    2  502    0  0.11418895620E+04 -0.58106504204E+03 -0.29795702160E+03  0.16418789570E+04  0.98256794556E+03 0.  0.
   -9000010    2    1    2    0  501 -0.11418895620E+04  0.58106504204E+03  0.87939294662E+03  0.20010627791E+04  0.12607029532E+04 0.  0.
        -13    1    3    3    0    0  0.69971565298E+03 -0.23401614895E+03 -0.64607930953E+03  0.98070588779E+03  0.10566000000E+00 0.  1.
          4    1    3    3  502    0  0.44217390904E+03 -0.34704889310E+03  0.34812228793E+03  0.66117306916E+03  0.00000000000E+00 0.  1.
         13    1    4    4    0    0 -0.21422937490E+03  0.20672497932E+02 -0.31929899763E+03  0.38506290174E+03  0.10566000000E+00 0. -1.
         -4    1    4    4    0  501 -0.92766018712E+03  0.56039254411E+03  0.11986919443E+04  0.16159998773E+04  0.00000000000E+00 0. -1.
<mgrwt>
<rscale>  2 0.17035949E+04</rscale>
<asrwt>0</asrwt>
<pdfrwt beam="1">  1        4 0.32495213E+00 0.17035949E+04</pdfrwt>
<pdfrwt beam="2">  1       -4 0.23550045E+00 0.17035949E+04</pdfrwt>
<totfact> 0.67273490E-02</totfact>
</mgrwt>
</event>
<event>
 8    1  0.7046235E-006  0.1210699E+04  0.7818608E-02  0.8598549E-01
         -2   -1    0    0    0  501 -0.00000000000E+00  0.00000000000E+00  0.59281279731E+03  0.59281279731E+03  0.00000000000E+00 0.  1.
          2   -1    0    0  502    0  0.00000000000E+00 -0.00000000000E+00 -0.26706311629E+04  0.26706311629E+04  0.00000000000E+00 0. -1.
    9000010    2    1    2  502    0  0.33787424796E+03 -0.57872709257E+03 -0.14781487192E+04  0.19067107167E+04  0.10007687375E+04 0.  0.
   -9000010    2    1    2    0  501 -0.33787424796E+03  0.57872709257E+03 -0.59966964638E+03  0.13567332435E+04  0.10158923930E+04 0.  0.
        -13    1    3    3    0    0  0.43597702504E+03 -0.79186680015E+03 -0.13857946390E+04  0.16545560698E+04  0.10566000000E+00 0.  1.
          4    1    3    3  502    0 -0.98102777083E+02  0.21313970758E+03 -0.92354080208E+02  0.25215464689E+03  0.00000000000E+00 0.  1.
         13    1    4    4    0    0 -0.75854399069E+02 -0.27588053338E+03 -0.29851812548E+03  0.41349370124E+03  0.10566000000E+00 0. -1.
         -4    1    4    4    0  501 -0.26201984889E+03  0.85460762595E+03 -0.30115152089E+03  0.94323954226E+03  0.00000000000E+00 0. -1.
<mgrwt>
<rscale>  2 0.12106992E+04</rscale>
<asrwt>0</asrwt>
<pdfrwt beam="2">  1        2 0.41086633E+00 0.12106992E+04</pdfrwt>
<pdfrwt beam="1">  1       -2 0.91201969E-01 0.12106992E+04</pdfrwt>
<totfact> 0.44083414E+00</totfact>
</mgrwt>
</event>
<event>
 8    1  0.7046235E-006  0.1295774E+04  0.7818608E-02  0.8537733E-01
          1   -1    0    0  502    0  0.00000000000E+00  0.00000000000E+00  0.13833672520E+04  0.13833672520E+04  0.00000000000E+00 0.  1.
         -1   -1    0    0    0  501 -0.00000000000E+00 -0.00000000000E+00 -0.12874010175E+04  0.12874010175E+04  0.00000000000E+00 0. -1.
    9000010    2    1    2  502    0 -0.87324614652E+03 -0.48878514348E+02  0.36666497773E+03  0.13802915136E+04  0.10029025452E+04 0.  0.
   -9000010    2    1    2    0  501  0.87324614652E+03  0.48878514348E+02 -0.27069874327E+03  0.12904767559E+04  0.90945286094E+03 0.  0.
        -13    1    3    3    0    0 -0.33480345989E+02 -0.38951161955E+03 -0.27808998065E+02  0.39193569226E+03  0.10566000000E+00 0.  1.
          4    1    3    3  502    0 -0.83976580053E+03  0.34063310520E+03  0.39447397580E+03  0.98835582139E+03  0.00000000000E+00 0.  1.
         13    1    4    4    0    0  0.53870814505E+03 -0.42184647252E+03 -0.15253057398E+03  0.70101818742E+03  0.10566000000E+00 0. -1.
         -4    1    4    4    0  501  0.33453800147E+03  0.47072498687E+03 -0.11816816930E+03  0.58945856846E+03  0.00000000000E+00 0. -1.
<mgrwt>
<rscale>  2 0.12957743E+04</rscale>
<asrwt>0</asrwt>
<pdfrwt beam="1">  1        1 0.21282573E+00 0.12957743E+04</pdfrwt>
<pdfrwt beam="2">  1       -1 0.19806170E+00 0.12957743E+04</pdfrwt>
<totfact> 0.14772048E+00</totfact>
</mgrwt>
</event>
<event>
 8    1  0.7046235E-006  0.1375292E+04  0.7818608E-02  0.8485094E-01
          2   -1    0    0  502    0  0.00000000000E+00  0.00000000000E+00  0.26733460274E+04  0.26733460274E+04  0.00000000000E+00 0. -1.
         -2   -1    0    0    0  501 -0.00000000000E+00 -0.00000000000E+00 -0.79940343487E+03  0.79940343487E+03  0.00000000000E+00 0.  1.
    9000010    2    1    2  502    0 -0.68388315154E+03 -0.56124841706E+03  0.37056738697E+03  0.14579509108E+04  0.10980003277E+04 0.  0.
   -9000010    2    1    2    0  501  0.68388315154E+03  0.56124841706E+03  0.15033752055E+04  0.20147985514E+04  0.10082560407E+04 0.  0.
        -13    1    3    3    0    0 -0.90819533657E+03 -0.47862824079E+03  0.11587247183E+02  0.10266635465E+04  0.10566000000E+00 0.  1.
          4    1    3    3  502    0  0.22431218503E+03 -0.82620176269E+02  0.35898013978E+03  0.43128736434E+03  0.00000000000E+00 0.  1.
         13    1    4    4    0    0  0.68629026549E+03  0.69088313672E+03  0.69572457698E+03  0.11968068078E+04  0.10566000000E+00 0. -1.
         -4    1    4    4    0  501 -0.24071139545E+01 -0.12963471966E+03  0.80765062855E+03  0.81799174356E+03  0.00000000000E+00 0. -1.
<mgrwt>
<rscale>  2 0.13752922E+04</rscale>
<asrwt>0</asrwt>
<pdfrwt beam="1">  1        2 0.41128400E+00 0.13752922E+04</pdfrwt>
<pdfrwt beam="2">  1       -2 0.12298515E+00 0.13752922E+04</pdfrwt>
<totfact> 0.20527845E+00</totfact>
</mgrwt>
</event>
<event>
 8    1  0.7046235E-006  0.1136043E+04  0.7818608E-02  0.8656345E-01
         -2   -1    0    0    0  501 -0.00000000000E+00  0.00000000000E+00  0.10963308612E+04  0.10963308612E+04  0.00000000000E+00 0. -1.
          2   -1    0    0  502    0  0.00000000000E+00 -0.00000000000E+00 -0.14117865747E+04  0.14117865747E+04  0.00000000000E+00 0.  1.
    9000010    2    1    2  502    0 -0.48296999254E+03 -0.61954326637E+02  0.35577581492E+03  0.11646335802E+04  0.99634160470E+03 0.  0.
   -9000010    2    1    2    0  501  0.48296999254E+03  0.61954326637E+02 -0.67123152837E+03  0.13434838558E+04  0.10570235351E+04 0.  0.
        -13    1    3    3    0    0 -0.77140914649E+03 -0.44787264990E+02  0.10077075634E+03  0.77925138877E+03  0.10566000000E+00 0.  1.
          4    1    3    3  502    0  0.28843915395E+03 -0.17167061647E+02  0.25500505859E+03  0.38538219139E+03  0.00000000000E+00 0.  1.
         13    1    4    4    0    0  0.58655109103E+03 -0.35108916913E+03 -0.60433319797E+03  0.91242775736E+03  0.10566000000E+00 0. -1.
         -4    1    4    4    0  501 -0.10358109848E+03  0.41304349577E+03 -0.66898330400E+02  0.43105609840E+03  0.00000000000E+00 0. -1.
<mgrwt>
<rscale>  2 0.11360428E+04</rscale>
<asrwt>0</asrwt>
<pdfrwt beam="2">  1        2 0.21719793E+00 0.11360428E+04</pdfrwt>
<pdfrwt beam="1">  1       -2 0.16866629E+00 0.11360428E+04</pdfrwt>
<totfact> 0.40836350E+00</totfact>
</mgrwt>
</event>
<event>
 8    1  0.7046235E-006  0.1053683E+04  0.7818608E-02  0.8725723E-01
         -1   -1    0    0    0  501 -0.00000000000E+00  0.00000000000E+00  0.80222561819E+03  0.80222561819E+03  0.00000000000E+00 0.  1.
          1   -1    0    0  502    0  0.00000000000E+00 -0.00000000000E+00 -0.13913793387E+04  0.13913793387E+04  0.00000000000E+00 0. -1.
    9000010    2    1    2  502    0 -0.21682076334E+03  0.26298041419E+03 -0.37314316768E+03  0.11132081321E+04  0.99188032551E+03 0.  0.
   -9000010    2    1    2    0  501  0.21682076334E+03 -0.26298041419E+03 -0.21601055286E+03  0.10803968248E+04  0.10022109551E+04 0.  0.
        -13    1    3    3    0    0 -0.41234409354E+02 -0.28208830070E+03 -0.45276996038E+03  0.53504647844E+03  0.10566000000E+00 0.  1.
          4    1    3    3  502    0 -0.17558635399E+03  0.54506871489E+03  0.79626792699E+02  0.57816165367E+03  0.00000000000E+00 0.  1.
         13    1    4    4    0    0 -0.10988800020E+02  0.26803574858E+03 -0.39322325697E+03  0.47601308514E+03  0.10566000000E+00 0. -1.
         -4    1    4    4    0  501  0.22780956336E+03 -0.53101616277E+03  0.17721270411E+03  0.60438373967E+03  0.00000000000E+00 0. -1.
<mgrwt>
<rscale>  2 0.10536835E+04</rscale>
<asrwt>0</asrwt>
<pdfrwt beam="2">  1        1 0.21405836E+00 0.10536835E+04</pdfrwt>
<pdfrwt beam="1">  1       -1 0.12341933E+00 0.10536835E+04</pdfrwt>
<totfact> 0.67295486E+00</totfact>
</mgrwt>
</event>
<event>
 8    1  0.7046235E-006  0.1110613E+04  0.7818608E-02  0.8677095E-01
          2   -1    0    0  502    0  0.00000000000E+00  0.00000000000E+00  0.10889663255E+04  0.10889663255E+04  0.00000000000E+00 0. -1.
         -2   -1    0    0    0  501 -0.00000000000E+00 -0.00000000000E+00 -0.14236376622E+04  0.14236376622E+04  0.00000000000E+00 0.  1.
    9000010    2    1    2  502    0  0.34327649002E+03  0.25144159929E+03 -0.73502767904E+03  0.13301210200E+04  0.10236672372E+04 0.  0.
   -9000010    2    1    2    0  501 -0.34327649002E+03 -0.25144159929E+03  0.40035634239E+03  0.11824829677E+04  0.10280657282E+04 0.  0.
        -13    1    3    3    0    0  0.53057672614E+03  0.29822960131E+03 -0.41317889172E+02  0.61004896242E+03  0.10566000000E+00 0.  1.
          4    1    3    3  502    0 -0.18730023612E+03 -0.46788002013E+02 -0.69370978987E+03  0.72007205761E+03  0.00000000000E+00 0.  1.
         13    1    4    4    0    0 -0.38217926476E+03 -0.52381895993E+03  0.56653522116E+03  0.86105136965E+03  0.10566000000E+00 0. -1.
         -4    1    4    4    0  501  0.38902774741E+02  0.27237736063E+03 -0.16617887877E+03  0.32143159804E+03  0.00000000000E+00 0. -1.
<mgrwt>
<rscale>  2 0.11106126E+04</rscale>
<asrwt>0</asrwt>
<pdfrwt beam="1">  1        2 0.16753328E+00 0.11106126E+04</pdfrwt>
<pdfrwt beam="2">  1       -2 0.21902118E+00 0.11106126E+04</pdfrwt>
<totfact> 0.23885201E+00</totfact>
</mgrwt>
</event>
<event>
 8    1  0.7046235E-006  0.1188624E+04  0.7818608E-02  0.8615179E-01
         -1   -1    0    0    0  501 -0.00000000000E+00  0.00000000000E+00  0.11249072148E+04  0.11249072148E+04  0.00000000000E+00 0.  1.
          1   -1    0    0  502    0  0.00000000000E+00 -0.00000000000E+00 -0.12741877076E+04  0.12741877076E+04  0.00000000000E+00 0. -1.
    9000010    2    1    2  502    0 -0.64743896557E+03 -0.38452685229E+03  0.49150910724E+02  0.12561391163E+04  0.10042069275E+04 0.  0.
   -9000010    2    1    2    0  501  0.64743896557E+03  0.38452685229E+03 -0.19843140348E+03  0.11429558061E+04  0.83662108421E+03 0.  0.
        -13    1    3    3    0    0 -0.83671860899E+03 -0.25062420502E+02 -0.47870267251E+02  0.83846152517E+03  0.10566000000E+00 0.  1.
          4    1    3    3  502    0  0.18927964342E+03 -0.35946443178E+03  0.97021177975E+02  0.41767759110E+03  0.00000000000E+00 0.  1.
         13    1    4    4    0    0  0.32538171291E+03  0.46185178372E+03  0.22262606175E+03  0.60724188241E+03  0.10566000000E+00 0. -1.
         -4    1    4    4    0  501  0.32205725266E+03 -0.77324931430E+02 -0.42105746523E+03  0.53571392369E+03  0.00000000000E+00 0. -1.
<mgrwt>
<rscale>  2 0.11886236E+04</rscale>
<asrwt>0</asrwt>
<pdfrwt beam="2">  1        1 0.19602888E+00 0.11886236E+04</pdfrwt>
<pdfrwt beam="1">  1       -1 0.17306265E+00 0.11886236E+04</pdfrwt>
<totfact> 0.29986505E+00</totfact>
</mgrwt>
</event>
<event>
 8    1  0.7046235E-006  0.1352037E+04  0.7818608E-02  0.8500102E-01
         -2   -1    0    0    0  501 -0.00000000000E+00  0.00000000000E+00  0.11553660651E+04  0.11553660651E+04  0.00000000000E+00 0. -1.
          2   -1    0    0  502    0  0.00000000000E+00 -0.00000000000E+00 -0.29346079770E+04  0.29346079770E+04  0.00000000000E+00 0.  1.
    9000010    2    1    2  502    0  0.90900044658E+03 -0.14218343795E+03  0.50584025463E+03  0.14239722021E+04  0.96193790192E+03 0.  0.
   -9000010    2    1    2    0  501 -0.90900044658E+03  0.14218343795E+03 -0.22850821665E+04  0.26660018400E+04  0.10195427217E+04 0.  0.
        -13    1    3    3    0    0  0.28722933102E+03 -0.49987238562E+03  0.39326882831E+03  0.69787783529E+03  0.10566000000E+00 0.  1.
          4    1    3    3  502    0  0.62177111557E+03  0.35768894768E+03  0.11257142632E+03  0.72609436678E+03  0.00000000000E+00 0.  1.
         13    1    4    4    0    0  0.80652669803E+02  0.34187287141E+03 -0.75694541568E+03  0.83447485692E+03  0.10566000000E+00 0. -1.
         -4    1    4    4    0  501 -0.98965311639E+03 -0.19968943346E+03 -0.15281367508E+04  0.18315269831E+04  0.00000000000E+00 0. -1.
<mgrwt>
<rscale>  2 0.13520367E+04</rscale>
<asrwt>0</asrwt>
<pdfrwt beam="2">  1        2 0.45147815E+00 0.13520367E+04</pdfrwt>
<pdfrwt beam="1">  1       -2 0.17774862E+00 0.13520367E+04</pdfrwt>
<totfact> 0.47054559E-01</totfact>
</mgrwt>
</event>
<event>
 8    1  0.7046235E-006  0.1156496E+04  0.7818608E-02  0.8640062E-01
          2   -1    0    0  502    0  0.00000000000E+00  0.00000000000E+00  0.17544211741E+04  0.17544211741E+04  0.00000000000E+00 0. -1.
         -2   -1    0    0    0  501 -0.00000000000E+00 -0.00000000000E+00 -0.85874904158E+03  0.85874904158E+03  0.00000000000E+00 0.  1.
    9000010    2    1    2  502    0 -0.53441812761E+03 -0.61013871702E+03  0.89810399373E+03  0.15005475799E+04  0.88723179997E+03 0.  0.
   -9000010    2    1    2    0  501  0.53441812761E+03  0.61013871702E+03 -0.24318612034E+01  0.11126226358E+04  0.76161094174E+03 0.  0.
        -13    1    3    3    0    0 -0.71567000248E+03 -0.20522644116E+03  0.44976120076E+03  0.86981986266E+03  0.10566000000E+00 0.  1.
          4    1    3    3  502    0  0.18125187488E+03 -0.40491227586E+03  0.44834279297E+03  0.63072771724E+03  0.00000000000E+00 0.  1.
         13    1    4    4    0    0  0.61765233893E+03  0.14281164127E+03 -0.47980875431E+02  0.63576076652E+03  0.10566000000E+00 0. -1.
         -4    1    4    4    0  501 -0.83234211327E+02  0.46732707574E+03  0.45549014227E+02  0.47686186926E+03  0.00000000000E+00 0. -1.
<mgrwt>
<rscale>  2 0.11564965E+04</rscale>
<asrwt>0</asrwt>
<pdfrwt beam="1">  1        2 0.26991095E+00 0.11564965E+04</pdfrwt>
<pdfrwt beam="2">  1       -2 0.13211524E+00 0.11564965E+04</pdfrwt>
<totfact> 0.55627715E+00</totfact>
</mgrwt>
</event>
<event>
 8    1  0.7046235E-006  0.1131468E+04  0.7818608E-02  0.8660037E-01
         -1   -1    0    0    0  501 -0.00000000000E+00  0.00000000000E+00  0.82314266859E+03  0.82314266859E+03  0.00000000000E+00 0.  1.
          1   -1    0    0  502    0  0.00000000000E+00 -0.00000000000E+00 -0.19037500521E+04  0.19037500521E+04  0.00000000000E+00 0. -1.
    9000010    2    1    2  502    0  0.57543616040E+02 -0.51189457877E+03 -0.11300980778E+04  0.16117039284E+04  0.10271906152E+04 0.  0.
   -9000010    2    1    2    0  501 -0.57543616040E+02  0.51189457877E+03  0.49490694306E+02  0.11151887922E+04  0.98785089259E+03 0.  0.
        -13    1    3    3    0    0  0.43142124555E+03 -0.62396337341E+03 -0.76091623274E+03  0.10744524684E+04  0.10566000000E+00 0.  1.
          4    1    3    3  502    0 -0.37387762951E+03  0.11206879463E+03 -0.36918184504E+03  0.53725146001E+03  0.00000000000E+00 0.  1.
         13    1    4    4    0    0  0.38434950836E+03  0.33940472835E+03 -0.23285683447E+03  0.56315400267E+03  0.10566000000E+00 0. -1.
         -4    1    4    4    0  501 -0.44189312440E+03  0.17248985042E+03  0.28234752877E+03  0.55203478957E+03  0.00000000000E+00 0. -1.
<mgrwt>
<rscale>  2 0.11314676E+04</rscale>
<asrwt>0</asrwt>
<pdfrwt beam="2">  1        1 0.29288462E+00 0.11314676E+04</pdfrwt>
<pdfrwt beam="1">  1       -1 0.12663734E+00 0.11314676E+04</pdfrwt>
<totfact> 0.25920154E+00</totfact>
</mgrwt>
</event>
<event>
 8    1  0.7046235E-006  0.1151710E+04  0.7818608E-02  0.8643841E-01
         -2   -1    0    0    0  501 -0.00000000000E+00  0.00000000000E+00  0.71822532056E+03  0.71822532056E+03  0.00000000000E+00 0. -1.
          2   -1    0    0  502    0  0.00000000000E+00 -0.00000000000E+00 -0.18617290522E+04  0.18617290522E+04  0.00000000000E+00 0.  1.
    9000010    2    1    2  502    0 -0.54244796902E+03 -0.24682022742E+03 -0.45579027710E+03  0.12375926410E+04  0.98423612242E+03 0.  0.
   -9000010    2    1    2    0  501  0.54244796902E+03  0.24682022742E+03 -0.68771345459E+03  0.13423617318E+04  0.98682075351E+03 0.  0.
        -13    1    3    3    0    0 -0.70255160462E+03 -0.48965111282E+03 -0.29821480899E+03  0.90679052316E+03  0.10566000000E+00 0.  1.
          4    1    3    3  502    0  0.16010363560E+03  0.24283088540E+03 -0.15757546811E+03  0.33080211787E+03  0.00000000000E+00 0.  1.
         13    1    4    4    0    0 -0.28042593998E+03  0.59560187372E+02 -0.29566422029E+03  0.41182941378E+03  0.10566000000E+00 0. -1.
         -4    1    4    4    0  501  0.82287390900E+03  0.18726004005E+03 -0.39204923430E+03  0.93053231799E+03  0.00000000000E+00 0. -1.
<mgrwt>
<rscale>  2 0.11517098E+04</rscale>
<asrwt>0</asrwt>
<pdfrwt beam="2">  1        2 0.28641986E+00 0.11517098E+04</pdfrwt>
<pdfrwt beam="1">  1       -2 0.11049620E+00 0.11517098E+04</pdfrwt>
<totfact> 0.78235801E+00</totfact>
</mgrwt>
</event>
<event>
 8    1  0.7046235E-006  0.1196507E+04  0.7818608E-02  0.8609197E-01
          1   -1    0    0  502    0  0.00000000000E+00  0.00000000000E+00  0.38435501803E+04  0.38435501803E+04  0.00000000000E+00 0.  1.
         -1   -1    0    0    0  501 -0.00000000000E+00 -0.00000000000E+00 -0.44864325498E+03  0.44864325498E+03  0.00000000000E+00 0. -1.
    9000010    2    1    2  502    0  0.67712730973E+02  0.67829230543E+03  0.25940082001E+04  0.28611365227E+04  0.99627214853E+03 0.  0.
   -9000010    2    1    2    0  501 -0.67712730973E+02 -0.67829230543E+03  0.80089872523E+03  0.14310569126E+04  0.97047393236E+03 0.  0.
        -13    1    3    3    0    0  0.48772720184E+03  0.58188188684E+03  0.14148114675E+04  0.16056636800E+04  0.10566000000E+00 0.  1.
          4    1    3    3  502    0 -0.42001447087E+03  0.96410418596E+02  0.11791967326E+04  0.12554728427E+04  0.00000000000E+00 0.  1.
         13    1    4    4    0    0  0.23936145427E+03 -0.63648537723E+03  0.87912807107E+03  0.11114286831E+04  0.10566000000E+00 0. -1.
         -4    1    4    4    0  501 -0.30707418525E+03 -0.41806928205E+02 -0.78229345845E+02  0.31962822942E+03  0.00000000000E+00 0. -1.
<mgrwt>
<rscale>  2 0.11965073E+04</rscale>
<asrwt>0</asrwt>
<pdfrwt beam="1">  1        1 0.59131539E+00 0.11965073E+04</pdfrwt>
<pdfrwt beam="2">  1       -1 0.69022042E-01 0.11965073E+04</pdfrwt>
<totfact> 0.15183700E-01</totfact>
</mgrwt>
</event>
<event>
 8    1  0.7046235E-006  0.1114197E+04  0.7818608E-02  0.8674136E-01
          1   -1    0    0  502    0  0.00000000000E+00  0.00000000000E+00  0.19292795966E+04  0.19292795966E+04  0.00000000000E+00 0.  1.
         -1   -1    0    0    0  501 -0.00000000000E+00 -0.00000000000E+00 -0.65247336118E+03  0.65247336118E+03  0.00000000000E+00 0. -1.
    9000010    2    1    2  502    0  0.31852291977E+02  0.53899411064E+03  0.80162168923E+03  0.13938091678E+04  0.10042795646E+04 0.  0.
   -9000010    2    1    2    0  501 -0.31852291977E+02 -0.53899411064E+03  0.47518454623E+03  0.11879437900E+04  0.94545273571E+03 0.  0.
        -13    1    3    3    0    0  0.65889151202E+02  0.18850683545E+02 -0.22890981750E+03  0.23894862257E+03  0.10566000000E+00 0.  1.
          4    1    3    3  502    0 -0.34036859226E+02  0.52014342710E+03  0.10305315067E+04  0.11548605452E+04  0.00000000000E+00 0.  1.
         13    1    4    4    0    0  0.12805384947E+03 -0.28605156811E+03 -0.25163887132E+03  0.40192713358E+03  0.10566000000E+00 0. -1.
         -4    1    4    4    0  501 -0.15990614145E+03 -0.25294254253E+03  0.72682341755E+03  0.78601665644E+03  0.00000000000E+00 0. -1.
<mgrwt>
<rscale>  2 0.11141968E+04</rscale>
<asrwt>0</asrwt>
<pdfrwt beam="1">  1        1 0.29681224E+00 0.11141968E+04</pdfrwt>
<pdfrwt beam="2">  1       -1 0.10038052E+00 0.11141968E+04</pdfrwt>
<totfact> 0.42881882E+00</totfact>
</mgrwt>
</event>
<event>
 8    1  0.7046235E-006  0.1255215E+04  0.7818608E-02  0.8566105E-01
          2   -1    0    0  502    0  0.00000000000E+00  0.00000000000E+00  0.11075195977E+04  0.11075195977E+04  0.00000000000E+00 0. -1.
         -2   -1    0    0    0  501 -0.00000000000E+00 -0.00000000000E+00 -0.14235466067E+04  0.14235466067E+04  0.00000000000E+00 0.  1.
    9000010    2    1    2  502    0 -0.62146422348E+03 -0.44082337348E+03 -0.12524707656E+03  0.12578260632E+04  0.99292323341E+03 0.  0.
   -9000010    2    1    2    0  501  0.62146422348E+03  0.44082337348E+03 -0.19077993243E+03  0.12732401412E+04  0.10020980225E+04 0.  0.
        -13    1    3    3    0    0 -0.50122966323E+03 -0.55437404359E+03 -0.46481859312E+03  0.88012390672E+03  0.10566000000E+00 0.  1.
          4    1    3    3  502    0 -0.12023456026E+03  0.11355067011E+03  0.33957151656E+03  0.37770215650E+03  0.00000000000E+00 0.  1.
         13    1    4    4    0    0  0.50752980186E+03  0.70508147453E+03 -0.35888995801E+03  0.93996191339E+03  0.10566000000E+00 0. -1.
         -4    1    4    4    0  501  0.11393442163E+03 -0.26425810106E+03  0.16811002558E+03  0.33327822777E+03  0.00000000000E+00 0. -1.
<mgrwt>
<rscale>  2 0.12552151E+04</rscale>
<asrwt>0</asrwt>
<pdfrwt beam="1">  1        2 0.17038763E+00 0.12552151E+04</pdfrwt>
<pdfrwt beam="2">  1       -2 0.21900717E+00 0.12552151E+04</pdfrwt>
<totfact> 0.22941741E+00</totfact>
</mgrwt>
</event>
<event>
 8    1  0.7046235E-006  0.1540975E+04  0.7818608E-02  0.8386300E-01
          4   -1    0    0  502    0  0.00000000000E+00  0.00000000000E+00  0.33316882389E+04  0.33316882389E+04  0.00000000000E+00 0.  1.
         -4   -1    0    0    0  501 -0.00000000000E+00 -0.00000000000E+00 -0.74033308212E+03  0.74033308212E+03  0.00000000000E+00 0. -1.
    9000010    2    1    2  502    0 -0.11624270046E+04  0.15434959053E+03  0.16869875236E+04  0.22833552030E+04  0.99635522819E+03 0.  0.
   -9000010    2    1    2    0  501  0.11624270046E+04 -0.15434959053E+03  0.90436763314E+03  0.17886661181E+04  0.10031875841E+04 0.  0.
        -13    1    3    3    0    0 -0.13267821285E+04  0.24608058201E+03  0.15082497595E+04  0.20237894697E+04  0.10566000000E+00 0.  1.
          4    1    3    3  502    0  0.16435512390E+03 -0.91730991485E+02  0.17873776415E+03  0.25956573327E+03  0.00000000000E+00 0.  1.
         13    1    4    4    0    0  0.49897049307E+03 -0.37479628597E+03 -0.26359762302E+02  0.62461080455E+03  0.10566000000E+00 0. -1.
         -4    1    4    4    0  501  0.66345651157E+03  0.22044669544E+03  0.93072739544E+03  0.11640553135E+04  0.00000000000E+00 0. -1.
<mgrwt>
<rscale>  2 0.15409754E+04</rscale>
<asrwt>0</asrwt>
<pdfrwt beam="1">  1        4 0.51256741E+00 0.15409754E+04</pdfrwt>
<pdfrwt beam="2">  1       -4 0.11389740E+00 0.15409754E+04</pdfrwt>
<totfact> 0.32929458E-02</totfact>
</mgrwt>
</event>
<event>
 8    1  0.7046235E-006  0.1211234E+04  0.7818608E-02  0.8598151E-01
         -1   -1    0    0    0  501 -0.00000000000E+00  0.00000000000E+00  0.12297611370E+04  0.12297611370E+04  0.00000000000E+00 0. -1.
          1   -1    0    0  502    0  0.00000000000E+00 -0.00000000000E+00 -0.12001490111E+04  0.12001490111E+04  0.00000000000E+00 0.  1.
    9000010    2    1    2  502    0  0.64865113211E+03  0.14579303125E+03  0.10741732489E+03  0.12019533319E+04  0.99556488049E+03 0.  0.
   -9000010    2    1    2    0  501 -0.64865113211E+03 -0.14579303125E+03 -0.77805198946E+02  0.12279568162E+04  0.10294757862E+04 0.  0.
        -13    1    3    3    0    0  0.80037358393E+03 -0.42738228766E+02 -0.18479760384E+03  0.82254154643E+03  0.10566000000E+00 0.  1.
          4    1    3    3  502    0 -0.15172245183E+03  0.18853126002E+03  0.29221492872E+03  0.37941178548E+03  0.00000000000E+00 0.  1.
         13    1    4    4    0    0 -0.48893298260E+03  0.38805684820E+03 -0.20383452410E+03  0.65665219355E+03  0.10566000000E+00 0. -1.
         -4    1    4    4    0  501 -0.15971814950E+03 -0.53384987945E+03  0.12602932515E+03  0.57130462265E+03  0.00000000000E+00 0. -1.
<mgrwt>
<rscale>  2 0.12112337E+04</rscale>
<asrwt>0</asrwt>
<pdfrwt beam="2">  1        1 0.18463831E+00 0.12112337E+04</pdfrwt>
<pdfrwt beam="1">  1       -1 0.18919402E+00 0.12112337E+04</pdfrwt>
<totfact> 0.24635002E+00</totfact>
</mgrwt>
</event>
<event>
 8    1  0.7046235E-006  0.1166512E+04  0.7818608E-02  0.8632215E-01
         -2   -1    0    0    0  501 -0.00000000000E+00  0.00000000000E+00  0.93482002226E+03  0.93482002226E+03  0.00000000000E+00 0. -1.
          2   -1    0    0  502    0  0.00000000000E+00 -0.00000000000E+00 -0.16075042914E+04  0.16075042914E+04  0.00000000000E+00 0.  1.
    9000010    2    1    2  502    0 -0.25433176371E+03  0.55441911994E+03  0.54824460290E+02  0.11660913419E+04  0.99231955018E+03 0.  0.
   -9000010    2    1    2    0  501  0.25433176371E+03 -0.55441911994E+03 -0.72750872946E+03  0.13762329718E+04  0.99633480043E+03 0.  0.
        -13    1    3    3    0    0 -0.30471687108E+03  0.26571211112E+03 -0.43589077156E+03  0.59452171820E+03  0.10566000000E+00 0.  1.
          4    1    3    3  502    0  0.50385107370E+02  0.28870700882E+03  0.49071523185E+03  0.57156962372E+03  0.00000000000E+00 0.  1.
         13    1    4    4    0    0  0.30039151280E+03 -0.54184040199E+03  0.27086360901E+02  0.62012882879E+03  0.10566000000E+00 0. -1.
         -4    1    4    4    0  501 -0.46059749087E+02 -0.12578717956E+02 -0.75459509036E+03  0.75610414297E+03  0.00000000000E+00 0. -1.
<mgrwt>
<rscale>  2 0.11665119E+04</rscale>
<asrwt>0</asrwt>
<pdfrwt beam="2">  1        2 0.24730835E+00 0.11665119E+04</pdfrwt>
<pdfrwt beam="1">  1       -2 0.14381847E+00 0.11665119E+04</pdfrwt>
<totfact> 0.52340341E+00</totfact>
</mgrwt>
</event>
<event>
 8    1  0.7046235E-006  0.1186480E+04  0.7818608E-02  0.8616813E-01
          4   -1    0    0  502    0  0.00000000000E+00  0.00000000000E+00  0.53169909225E+03  0.53169909225E+03  0.00000000000E+00 0.  1.
         -4   -1    0    0    0  501 -0.00000000000E+00 -0.00000000000E+00 -0.26567582432E+04  0.26567582432E+04  0.00000000000E+00 0. -1.
    9000010    2    1    2  502    0  0.61428595073E+03 -0.27512888583E+02 -0.11432217421E+04  0.16386079397E+04  0.99998791991E+03 0.  0.
   -9000010    2    1    2    0  501 -0.61428595073E+03  0.27512888583E+02 -0.98183740879E+03  0.15498493957E+04  0.10295262327E+04 0.  0.
        -13    1    3    3    0    0  0.71919471601E+03  0.24109058358E+03 -0.43611739382E+03  0.87496520010E+03  0.10566000000E+00 0.  1.
          4    1    3    3  502    0 -0.10490876529E+03 -0.26860347216E+03 -0.70710434832E+03  0.76364273958E+03  0.00000000000E+00 0.  1.
         13    1    4    4    0    0 -0.52954639301E+03  0.43796587233E+03 -0.88362497805E+03  0.11193867074E+04  0.10566000000E+00 0. -1.
         -4    1    4    4    0  501 -0.84739557712E+02 -0.41045298375E+03 -0.98212430732E+02  0.43046268835E+03  0.00000000000E+00 0. -1.
<mgrwt>
<rscale>  2 0.11864802E+04</rscale>
<asrwt>0</asrwt>
<pdfrwt beam="1">  1        4 0.81799860E-01 0.11864802E+04</pdfrwt>
<pdfrwt beam="2">  1       -4 0.40873204E+00 0.11864802E+04</pdfrwt>
<totfact> 0.19166788E-01</totfact>
</mgrwt>
</event>
<event>
 8    1  0.7046235E-006  0.1115487E+04  0.7818608E-02  0.8673073E-01
         -2   -1    0    0    0  501 -0.00000000000E+00  0.00000000000E+00  0.11057586307E+04  0.11057586307E+04  0.00000000000E+00 0.  1.
          2   -1    0    0  502    0  0.00000000000E+00 -0.00000000000E+00 -0.12770341409E+04  0.12770341409E+04  0.00000000000E+00 0. -1.
    9000010    2    1    2  502    0 -0.47752164257E+03 -0.86105686228E+02  0.32445087386E+03  0.11689312347E+04  0.10127639180E+04 0.  0.
   -9000010    2    1    2    0  501  0.47752164257E+03  0.86105686228E+02 -0.49572638406E+03  0.12138615369E+04  0.99612954706E+03 0.  0.
        -13    1    3    3    0    0 -0.46037269580E+03 -0.30606005403E+03  0.60005890133E+03  0.81589611590E+03  0.10566000000E+00 0.  1.
          4    1    3    3  502    0 -0.17148946767E+02  0.21995436780E+03 -0.27560802747E+03  0.35303511879E+03  0.00000000000E+00 0.  1.
         13    1    4    4    0    0  0.65424421140E+03 -0.49159763812E+02  0.15525263891E+02  0.65627221144E+03  0.10566000000E+00 0. -1.
         -4    1    4    4    0  501 -0.17672256883E+03  0.13526545004E+03 -0.51125164795E+03  0.55758932543E+03  0.00000000000E+00 0. -1.
<mgrwt>
<rscale>  2 0.11154870E+04</rscale>
<asrwt>0</asrwt>
<pdfrwt beam="2">  1        2 0.19646679E+00 0.11154870E+04</pdfrwt>
<pdfrwt beam="1">  1       -2 0.17011671E+00 0.11154870E+04</pdfrwt>
<totfact> 0.47287960E+00</totfact>
</mgrwt>
</event>
<event>
 8    1  0.7046235E-006  0.1329823E+04  0.7818608E-02  0.8514730E-01
         -4   -1    0    0    0  501 -0.00000000000E+00  0.00000000000E+00  0.29373696869E+04  0.29373696869E+04  0.00000000000E+00 0. -1.
          4   -1    0    0  502    0  0.00000000000E+00 -0.00000000000E+00 -0.68686017662E+03  0.68686017662E+03  0.00000000000E+00 0.  1.
    9000010    2    1    2  502    0  0.32232887159E+03  0.83359840602E+03  0.49266372916E+03  0.14233970282E+04  0.99224963892E+03 0.  0.
   -9000010    2    1    2    0  501 -0.32232887159E+03 -0.83359840602E+03  0.17578457811E+04  0.22008328353E+04  0.97716998252E+03 0.  0.
        -13    1    3    3    0    0  0.35094549819E+03 -0.12480562365E+03  0.18863284884E+03  0.41751832202E+03  0.10566000000E+00 0.  1.
          4    1    3    3  502    0 -0.28616626599E+02  0.95840402967E+03  0.30403088032E+03  0.10058787062E+04  0.00000000000E+00 0.  1.
         13    1    4    4    0    0 -0.14382702275E+03 -0.52569175255E+02 -0.96371319794E+02  0.18093416787E+03  0.10566000000E+00 0. -1.
         -4    1    4    4    0  501 -0.17850184884E+03 -0.78102923076E+03  0.18542171009E+04  0.20198986674E+04  0.00000000000E+00 0. -1.
<mgrwt>
<rscale>  2 0.13298233E+04</rscale>
<asrwt>0</asrwt>
<pdfrwt beam="2">  1        4 0.10567080E+00 0.13298233E+04</pdfrwt>
<pdfrwt beam="1">  1       -4 0.45190302E+00 0.13298233E+04</pdfrwt>
<totfact> 0.73982351E-02</totfact>
</mgrwt>
</event>
<event>
 8    1  0.7046235E-006  0.1116817E+04  0.7818608E-02  0.8671980E-01
         -2   -1    0    0    0  501 -0.00000000000E+00  0.00000000000E+00  0.68590663343E+03  0.68590663343E+03  0.00000000000E+00 0.  1.
          2   -1    0    0  502    0  0.00000000000E+00 -0.00000000000E+00 -0.18605354945E+04  0.18605354945E+04  0.00000000000E+00 0. -1.
    9000010    2    1    2  502    0 -0.90075083968E+02 -0.49602532457E+03 -0.39543279414E+03  0.11840761459E+04  0.99574825190E+03 0.  0.
   -9000010    2    1    2    0  501  0.90075083968E+02  0.49602532457E+03 -0.77919606691E+03  0.13623659820E+04  0.99736648978E+03 0.  0.
        -13    1    3    3    0    0  0.13419707211E+03 -0.43126326608E+03 -0.67980165733E+03  0.81616613708E+03  0.10566000000E+00 0.  1.
          4    1    3    3  502    0 -0.22427215608E+03 -0.64762058489E+02  0.28436886319E+03  0.36791000879E+03  0.00000000000E+00 0.  1.
         13    1    4    4    0    0  0.38275395599E+02  0.50720546677E+02  0.24035098068E+03  0.24860849713E+03  0.10566000000E+00 0. -1.
         -4    1    4    4    0  501  0.51799688369E+02  0.44530477789E+03 -0.10195470476E+04  0.11137574849E+04  0.00000000000E+00 0. -1.
<mgrwt>
<rscale>  2 0.11168173E+04</rscale>
<asrwt>0</asrwt>
<pdfrwt beam="2">  1        2 0.28623623E+00 0.11168173E+04</pdfrwt>
<pdfrwt beam="1">  1       -2 0.10552410E+00 0.11168173E+04</pdfrwt>
<totfact> 0.88193833E+00</totfact>
</mgrwt>
</event>
<event>
 8    1  0.7046235E-006  0.1163110E+04  0.7818608E-02  0.8634872E-01
          2   -1    0    0  502    0  0.00000000000E+00  0.00000000000E+00  0.15370231221E+04  0.15370231221E+04  0.00000000000E+00 0.  1.
         -2   -1    0    0    0  501 -0.00000000000E+00 -0.00000000000E+00 -0.99193455697E+03  0.99193455697E+03  0.00000000000E+00 0. -1.
    9000010    2    1    2  502    0 -0.17230079458E+03 -0.58173540533E+03 -0.15196112842E+03  0.11728131632E+04  0.99211636700E+03 0.  0.
   -9000010    2    1    2    0  501  0.17230079458E+03  0.58173540533E+03  0.69704969353E+03  0.13561445158E+04  0.99254522663E+03 0.  0.
        -13    1    3    3    0    0  0.28548402378E+03 -0.63984683918E+03 -0.70023072056E+02  0.70413659700E+03  0.10566000000E+00 0.  1.
          4    1    3    3  502    0 -0.45778481835E+03  0.58111433853E+02 -0.81938056362E+02  0.46867656624E+03  0.00000000000E+00 0.  1.
         13    1    4    4    0    0 -0.27396553645E+03 -0.93825516208E+02  0.28012824495E+01  0.28960007079E+03  0.10566000000E+00 0. -1.
         -4    1    4    4    0  501  0.44626633103E+03  0.67556092154E+03  0.69424841108E+03  0.10665444450E+04  0.00000000000E+00 0. -1.
<mgrwt>
<rscale>  2 0.11631096E+04</rscale>
<asrwt>0</asrwt>
<pdfrwt beam="1">  1        2 0.23646510E+00 0.11631096E+04</pdfrwt>
<pdfrwt beam="2">  1       -2 0.15260532E+00 0.11631096E+04</pdfrwt>
<totfact> 0.47813013E+00</totfact>
</mgrwt>
</event>
<event>
 8    1  0.7046235E-006  0.1258070E+04  0.7818608E-02  0.8564072E-01
         -2   -1    0    0    0  501 -0.00000000000E+00  0.00000000000E+00  0.18586684115E+04  0.18586684115E+04  0.00000000000E+00 0. -1.
          2   -1    0    0  502    0  0.00000000000E+00 -0.00000000000E+00 -0.85402947705E+03  0.85402947705E+03  0.00000000000E+00 0.  1.
    9000010    2    1    2  502    0 -0.38180455640E+03  0.66238315430E+03  0.43685609881E+03  0.13458837009E+04  0.10178573195E+04 0.  0.
   -9000010    2    1    2    0  501  0.38180455640E+03 -0.66238315430E+03  0.56778283562E+03  0.13668141876E+04  0.98044760836E+03 0.  0.
        -13    1    3    3    0    0  0.19187029945E+03  0.95160747826E+02  0.49266715743E+03  0.53720640252E+03  0.10566000000E+00 0.  1.
          4    1    3    3  502    0 -0.57367485586E+03  0.56722240647E+03 -0.55811058614E+02  0.80867729838E+03  0.00000000000E+00 0.  1.
         13    1    4    4    0    0  0.71031247955E+03 -0.36520769939E+03  0.39847754478E+03  0.89258324383E+03  0.10566000000E+00 0. -1.
         -4    1    4    4    0  501 -0.32850792315E+03 -0.29717545491E+03  0.16930529084E+03  0.47423094382E+03  0.00000000000E+00 0. -1.
<mgrwt>
<rscale>  2 0.12580701E+04</rscale>
<asrwt>0</asrwt>
<pdfrwt beam="2">  1        2 0.13138915E+00 0.12580701E+04</pdfrwt>
<pdfrwt beam="1">  1       -2 0.28594899E+00 0.12580701E+04</pdfrwt>
<totfact> 0.99699846E-01</totfact>
</mgrwt>
</event>
<event>
 8    1  0.7046235E-006  0.9870200E+03  0.7818608E-02  0.8786883E-01
         -1   -1    0    0    0  501 -0.00000000000E+00  0.00000000000E+00  0.10916702123E+04  0.10916702123E+04  0.00000000000E+00 0.  1.
          1   -1    0    0  502    0  0.00000000000E+00 -0.00000000000E+00 -0.10680996950E+04  0.10680996950E+04  0.00000000000E+00 0. -1.
    9000010    2    1    2  502    0 -0.21771071377E+03  0.26771463348E+03 -0.41798457732E+03  0.99979662033E+03  0.84012683284E+03 0.  0.
   -9000010    2    1    2    0  501  0.21771071377E+03 -0.26771463348E+03  0.44155509464E+03  0.11599732870E+04  0.10156269222E+04 0.  0.
        -13    1    3    3    0    0 -0.29012912233E+02 -0.10159329596E+03  0.21701288806E+03  0.24136601170E+03  0.10566000000E+00 0.  1.
          4    1    3    3  502    0 -0.18869780154E+03  0.36930792944E+03 -0.63499746538E+03  0.75843060862E+03  0.00000000000E+00 0.  1.
         13    1    4    4    0    0  0.15312895038E+03 -0.54267707639E+03  0.61033902733E+03  0.83093960318E+03  0.10566000000E+00 0. -1.
         -4    1    4    4    0  501  0.64581763388E+02  0.27496244290E+03 -0.16878393269E+03  0.32903368385E+03  0.00000000000E+00 0. -1.
<mgrwt>
<rscale>  2 0.98702004E+03</rscale>
<asrwt>0</asrwt>
<pdfrwt beam="2">  1        1 0.16432303E+00 0.98702004E+03</pdfrwt>
<pdfrwt beam="1">  1       -1 0.16794926E+00 0.98702004E+03</pdfrwt>
<totfact> 0.49242242E+00</totfact>
</mgrwt>
</event>
<event>
 8    1  0.7046235E-006  0.1002915E+04  0.7818608E-02  0.8771857E-01
          1   -1    0    0  502    0  0.00000000000E+00  0.00000000000E+00  0.19049022227E+04  0.19049022227E+04  0.00000000000E+00 0. -1.
         -1   -1    0    0    0  501 -0.00000000000E+00 -0.00000000000E+00 -0.70580056108E+03  0.70580056108E+03  0.00000000000E+00 0.  1.
    9000010    2    1    2  502    0  0.14265873214E+03  0.10393921933E+03 -0.61561567294E+02  0.99100269256E+03  0.97321201951E+03 0.  0.
   -9000010    2    1    2    0  501 -0.14265873214E+03 -0.10393921933E+03  0.12606632289E+04  0.16197000912E+04  0.10014997422E+04 0.  0.
        -13    1    3    3    0    0  0.41797477818E+03 -0.82680057256E+02 -0.34949801861E+03  0.55107874504E+03  0.10566000000E+00 0.  1.
          4    1    3    3  502    0 -0.27531604604E+03  0.18661927659E+03  0.28793645132E+03  0.43992394751E+03  0.00000000000E+00 0.  1.
         13    1    4    4    0    0  0.36124696327E+03 -0.24219334335E+02  0.96352579103E+03  0.10293045739E+04  0.10566000000E+00 0. -1.
         -4    1    4    4    0  501 -0.50390569541E+03 -0.79719884996E+02  0.29713743788E+03  0.59039551736E+03  0.00000000000E+00 0. -1.
<mgrwt>
<rscale>  2 0.10029152E+04</rscale>
<asrwt>0</asrwt>
<pdfrwt beam="1">  1        1 0.29306188E+00 0.10029152E+04</pdfrwt>
<pdfrwt beam="2">  1       -1 0.10858470E+00 0.10029152E+04</pdfrwt>
<totfact> 0.38149979E+00</totfact>
</mgrwt>
</event>
<event>
 8    1  0.7046235E-006  0.1003273E+04  0.7818608E-02  0.8771522E-01
          2   -1    0    0  502    0  0.00000000000E+00  0.00000000000E+00  0.72427233271E+03  0.72427233271E+03  0.00000000000E+00 0. -1.
         -2   -1    0    0    0  501 -0.00000000000E+00 -0.00000000000E+00 -0.14184840167E+04  0.14184840167E+04  0.00000000000E+00 0.  1.
    9000010    2    1    2  502    0 -0.20649234203E+03  0.21622251148E+03 -0.22276948314E+03  0.10799346215E+04  0.10135291226E+04 0.  0.
   -9000010    2    1    2    0  501  0.20649234203E+03 -0.21622251148E+03 -0.47144220087E+03  0.10628217279E+04  0.90440091486E+03 0.  0.
        -13    1    3    3    0    0 -0.30716428978E+02 -0.40716156978E+03 -0.10527989748E+03  0.42167275332E+03  0.10566000000E+00 0.  1.
          4    1    3    3  502    0 -0.17577591305E+03  0.62338408126E+03 -0.11748958566E+03  0.65826186819E+03  0.00000000000E+00 0.  1.
         13    1    4    4    0    0 -0.68564348477E+02 -0.23344564876E+03 -0.67675048195E+03  0.71915865203E+03  0.10566000000E+00 0. -1.
         -4    1    4    4    0  501  0.27505669051E+03  0.17223137286E+02  0.20530828108E+03  0.34366307589E+03  0.00000000000E+00 0. -1.
<mgrwt>
<rscale>  2 0.10032731E+04</rscale>
<asrwt>0</asrwt>
<pdfrwt beam="1">  1        2 0.11142651E+00 0.10032731E+04</pdfrwt>
<pdfrwt beam="2">  1       -2 0.21822831E+00 0.10032731E+04</pdfrwt>
<totfact> 0.42199700E+00</totfact>
</mgrwt>
</event>
<event>
 8    1  0.7046235E-006  0.1218391E+04  0.7818608E-02  0.8592840E-01
         -1   -1    0    0    0  501 -0.00000000000E+00  0.00000000000E+00  0.12659460974E+04  0.12659460974E+04  0.00000000000E+00 0.  1.
          1   -1    0    0  502    0  0.00000000000E+00 -0.00000000000E+00 -0.12474636783E+04  0.12474636783E+04  0.00000000000E+00 0. -1.
    9000010    2    1    2  502    0 -0.67792257619E+03  0.96399745109E+02  0.31703521371E+03  0.12570993811E+04  0.10054429855E+04 0.  0.
   -9000010    2    1    2    0  501  0.67792257619E+03 -0.96399745109E+02 -0.29855279469E+03  0.12563103946E+04  0.10101040076E+04 0.  0.
        -13    1    3    3    0    0  0.44496969721E+02  0.38884065828E+03  0.27164672932E+03  0.47641263056E+03  0.10566000000E+00 0.  1.
          4    1    3    3  502    0 -0.72241954592E+03 -0.29244091317E+03  0.45388484391E+02  0.78068675058E+03  0.00000000000E+00 0.  1.
         13    1    4    4    0    0  0.21129646366E+03 -0.53735614690E+03 -0.16546494497E+03  0.60064672092E+03  0.10566000000E+00 0. -1.
         -4    1    4    4    0  501  0.46662611254E+03  0.44095640179E+03 -0.13308784972E+03  0.65566367364E+03  0.00000000000E+00 0. -1.
<mgrwt>
<rscale>  2 0.12183913E+04</rscale>
<asrwt>0</asrwt>
<pdfrwt beam="2">  1        1 0.19191749E+00 0.12183913E+04</pdfrwt>
<pdfrwt beam="1">  1       -1 0.19476094E+00 0.12183913E+04</pdfrwt>
<totfact> 0.20219159E+00</totfact>
</mgrwt>
</event>
<event>
 8    1  0.7046235E-006  0.1211604E+04  0.7818608E-02  0.8597875E-01
          2   -1    0    0  502    0  0.00000000000E+00  0.00000000000E+00  0.21254853862E+04  0.21254853862E+04  0.00000000000E+00 0.  1.
         -2   -1    0    0    0  501 -0.00000000000E+00 -0.00000000000E+00 -0.95849124708E+03  0.95849124708E+03  0.00000000000E+00 0. -1.
    9000010    2    1    2  502    0  0.95714457052E+02 -0.68087856412E+03  0.13976169125E+04  0.18478174754E+04  0.99415266029E+03 0.  0.
   -9000010    2    1    2    0  501 -0.95714457052E+02  0.68087856412E+03 -0.23062277340E+03  0.12361591578E+04  0.10010722869E+04 0.  0.
        -13    1    3    3    0    0 -0.90219622248E+01 -0.93378030193E+03  0.11145597095E+04  0.14540530957E+04  0.10566000000E+00 0.  1.
          4    1    3    3  502    0  0.10473641928E+03  0.25290173781E+03  0.28305720303E+03  0.39376437967E+03  0.00000000000E+00 0.  1.
         13    1    4    4    0    0  0.29173092357E+03  0.19020627323E+03  0.26558755853E+03  0.43797502275E+03  0.10566000000E+00 0. -1.
         -4    1    4    4    0  501 -0.38744538062E+03  0.49067229088E+03 -0.49621033193E+03  0.79818413510E+03  0.00000000000E+00 0. -1.
<mgrwt>
<rscale>  2 0.12116036E+04</rscale>
<asrwt>0</asrwt>
<pdfrwt beam="1">  1        2 0.32699775E+00 0.12116036E+04</pdfrwt>
<pdfrwt beam="2">  1       -2 0.14746019E+00 0.12116036E+04</pdfrwt>
<totfact> 0.25244330E+00</totfact>
</mgrwt>
</event>
<event>
 8    1  0.7046235E-006  0.1276470E+04  0.7818608E-02  0.8551101E-01
          1   -1    0    0  502    0  0.00000000000E+00  0.00000000000E+00  0.32984977919E+03  0.32984977919E+03  0.00000000000E+00 0.  1.
         -1   -1    0    0    0  501 -0.00000000000E+00 -0.00000000000E+00 -0.50097988348E+04  0.50097988348E+04  0.00000000000E+00 0. -1.
    9000010    2    1    2  502    0 -0.80743275679E+03 -0.62216291155E+02 -0.26541986222E+04  0.29448395819E+04  0.98564258903E+03 0.  0.
   -9000010    2    1    2    0  501  0.80743275679E+03  0.62216291155E+02 -0.20257504334E+04  0.23948090321E+04  0.98773830450E+03 0.  0.
        -13    1    3    3    0    0 -0.38314575424E+03 -0.47514615281E+03 -0.18366965780E+04  0.19354634758E+04  0.10566000000E+00 0.  1.
          4    1    3    3  502    0 -0.42428700255E+03  0.41292986165E+03 -0.81750204425E+03  0.10093761061E+04  0.00000000000E+00 0.  1.
         13    1    4    4    0    0 -0.10240029610E+03  0.12803330586E+03  0.97653465851E+01  0.16423678397E+03  0.10566000000E+00 0. -1.
         -4    1    4    4    0  501  0.90983305288E+03 -0.65817014705E+02 -0.20355157800E+04  0.22305722482E+04  0.00000000000E+00 0. -1.
<mgrwt>
<rscale>  2 0.12764703E+04</rscale>
<asrwt>0</asrwt>
<pdfrwt beam="1">  1        1 0.50746123E-01 0.12764703E+04</pdfrwt>
<pdfrwt beam="2">  1       -1 0.77073824E+00 0.12764703E+04</pdfrwt>
<totfact> 0.43940894E-02</totfact>
</mgrwt>
</event>
<event>
 8    1  0.7046235E-006  0.1220520E+04  0.7818608E-02  0.8591269E-01
         -2   -1    0    0    0  501 -0.00000000000E+00  0.00000000000E+00  0.89872122649E+03  0.89872122649E+03  0.00000000000E+00 0. -1.
          2   -1    0    0  502    0  0.00000000000E+00 -0.00000000000E+00 -0.21220204207E+04  0.21220204207E+04  0.00000000000E+00 0.  1.
    9000010    2    1    2  502    0  0.38468466234E+03  0.57200345678E+03 -0.13176978039E+04  0.17951031649E+04  0.10054340486E+04 0.  0.
   -9000010    2    1    2    0  501 -0.38468466234E+03 -0.57200345678E+03  0.94398609675E+02  0.12256384824E+04  0.10090135519E+04 0.  0.
        -13    1    3    3    0    0  0.29153933543E+03  0.78776722596E+03 -0.13146305456E+04  0.15600723922E+04  0.10566000000E+00 0.  1.
          4    1    3    3  502    0  0.93145326904E+02 -0.21576376918E+03 -0.30672583166E+01  0.23503077264E+03  0.00000000000E+00 0.  1.
         13    1    4    4    0    0 -0.53401968299E+02  0.28292312085E+03  0.11111957492E+03  0.30861761717E+03  0.10566000000E+00 0. -1.
         -4    1    4    4    0  501 -0.33128269404E+03 -0.85492657763E+03 -0.16720965249E+02  0.91702086518E+03  0.00000000000E+00 0. -1.
<mgrwt>
<rscale>  2 0.12205199E+04</rscale>
<asrwt>0</asrwt>
<pdfrwt beam="2">  1        2 0.32646468E+00 0.12205199E+04</pdfrwt>
<pdfrwt beam="1">  1       -2 0.13826481E+00 0.12205199E+04</pdfrwt>
<totfact> 0.30607559E+00</totfact>
</mgrwt>
</event>
<event>
 8    1  0.7046235E-006  0.1402122E+04  0.7818608E-02  0.8468154E-01
          2   -1    0    0  502    0  0.00000000000E+00  0.00000000000E+00  0.13615471159E+04  0.13615471159E+04  0.00000000000E+00 0.  1.
         -2   -1    0    0    0  501 -0.00000000000E+00 -0.00000000000E+00 -0.16392474719E+04  0.16392474719E+04  0.00000000000E+00 0. -1.
    9000010    2    1    2  502    0 -0.41338045420E+03 -0.89642588191E+03  0.38017836384E+03  0.14379563312E+04  0.97402261801E+03 0.  0.
   -9000010    2    1    2    0  501  0.41338045420E+03  0.89642588191E+03 -0.65787871988E+03  0.15628382566E+04  0.10174459418E+04 0.  0.
        -13    1    3    3    0    0  0.94742338409E+02 -0.55794084652E+03  0.56536792718E+03  0.79994687520E+03  0.10566000000E+00 0.  1.
          4    1    3    3  502    0 -0.50812279261E+03 -0.33848503539E+03 -0.18518956334E+03  0.63800945598E+03  0.00000000000E+00 0.  1.
         13    1    4    4    0    0  0.56493018207E+03  0.37732121013E+03  0.39333036899E+02  0.68048843133E+03  0.10566000000E+00 0. -1.
         -4    1    4    4    0  501 -0.15154972787E+03  0.51910467179E+03 -0.69721175678E+03  0.88234982523E+03  0.00000000000E+00 0. -1.
<mgrwt>
<rscale>  2 0.14021218E+04</rscale>
<asrwt>0</asrwt>
<pdfrwt beam="1">  1        2 0.20946879E+00 0.14021218E+04</pdfrwt>
<pdfrwt beam="2">  1       -2 0.25219192E+00 0.14021218E+04</pdfrwt>
<totfact> 0.88483863E-01</totfact>
</mgrwt>
</event>
<event>
 8    1  0.7046235E-006  0.1114574E+04  0.7818608E-02  0.8673826E-01
         -1   -1    0    0    0  501 -0.00000000000E+00  0.00000000000E+00  0.63047743926E+03  0.63047743926E+03  0.00000000000E+00 0. -1.
          1   -1    0    0  502    0  0.00000000000E+00 -0.00000000000E+00 -0.20838994066E+04  0.20838994066E+04  0.00000000000E+00 0.  1.
    9000010    2    1    2  502    0  0.47268879877E+03  0.58770283910E+01 -0.10416689868E+04  0.15234360174E+04  0.10061380526E+04 0.  0.
   -9000010    2    1    2    0  501 -0.47268879877E+03 -0.58770283910E+01 -0.41175298048E+03  0.11909408285E+04  0.10125859470E+04 0.  0.
        -13    1    3    3    0    0 -0.25987083114E+03 -0.20304273704E+03 -0.18923055779E+03  0.38022022185E+03  0.10566000000E+00 0.  1.
          4    1    3    3  502    0  0.73255962991E+03  0.20891976543E+03 -0.85243842906E+03  0.11432157955E+04  0.00000000000E+00 0.  1.
         13    1    4    4    0    0  0.79769229328E+02 -0.10554910654E+03 -0.58787962857E+03  0.60258295088E+03  0.10566000000E+00 0. -1.
         -4    1    4    4    0  501 -0.55245802810E+03  0.99672078146E+02  0.17612664809E+03  0.58835787761E+03  0.00000000000E+00 0. -1.
<mgrwt>
<rscale>  2 0.11145736E+04</rscale>
<asrwt>0</asrwt>
<pdfrwt beam="2">  1        1 0.32059990E+00 0.11145736E+04</pdfrwt>
<pdfrwt beam="1">  1       -1 0.96996530E-01 0.11145736E+04</pdfrwt>
<totfact> 0.35184600E+00</totfact>
</mgrwt>
</event>
<event>
 8    1  0.7046235E-006  0.1233384E+04  0.7818608E-02  0.8581838E-01
          2   -1    0    0  502    0  0.00000000000E+00  0.00000000000E+00  0.39096398903E+04  0.39096398903E+04  0.00000000000E+00 0.  1.
         -2   -1    0    0    0  501 -0.00000000000E+00 -0.00000000000E+00 -0.40242767359E+03  0.40242767359E+03  0.00000000000E+00 0. -1.
    9000010    2    1    2  502    0  0.44232241865E+03  0.58201934848E+03  0.13583195117E+04  0.18333103056E+04  0.99075685048E+03 0.  0.
   -9000010    2    1    2    0  501 -0.44232241865E+03 -0.58201934848E+03  0.21488927050E+04  0.24787572583E+04  0.99604319373E+03 0.  0.
        -13    1    3    3    0    0  0.22989027748E+02  0.75149319683E+03  0.65514806242E+03  0.99724095139E+03  0.10566000000E+00 0.  1.
          4    1    3    3  502    0  0.41933339090E+03 -0.16947384834E+03  0.70317144929E+03  0.83606935424E+03  0.00000000000E+00 0.  1.
         13    1    4    4    0    0 -0.65441996557E+03 -0.16128688424E+03  0.16968419541E+04  0.18258016264E+04  0.10566000000E+00 0. -1.
         -4    1    4    4    0  501  0.21209754693E+03 -0.42073246425E+03  0.45205075090E+03  0.65295563193E+03  0.00000000000E+00 0. -1.
<mgrwt>
<rscale>  2 0.12333844E+04</rscale>
<asrwt>0</asrwt>
<pdfrwt beam="1">  1        2 0.60148303E+00 0.12333844E+04</pdfrwt>
<pdfrwt beam="2">  1       -2 0.61911953E-01 0.12333844E+04</pdfrwt>
<totfact> 0.14001541E+00</totfact>
</mgrwt>
</event>
<event>
 8    1  0.7046235E-006  0.1479417E+04  0.7818608E-02  0.8421444E-01
          1   -1    0    0  502    0  0.00000000000E+00  0.00000000000E+00  0.84144002049E+03  0.84144002049E+03  0.00000000000E+00 0.  1.
         -1   -1    0    0    0  501 -0.00000000000E+00 -0.00000000000E+00 -0.39171104556E+04  0.39171104556E+04  0.00000000000E+00 0. -1.
    9000010    2    1    2  502    0 -0.42310377413E+03 -0.10653003589E+04 -0.29437965212E+04  0.33134807389E+04  0.99966743973E+03 0.  0.
   -9000010    2    1    2    0  501  0.42310377413E+03  0.10653003589E+04 -0.13187391389E+03  0.14450697372E+04  0.87003112468E+03 0.  0.
        -13    1    3    3    0    0 -0.36695747405E+03 -0.12172338046E+04 -0.21045711537E+04  0.24587671047E+04  0.10566000000E+00 0.  1.
          4    1    3    3  502    0 -0.56146300078E+02  0.15193344574E+03 -0.83922536751E+03  0.85471363416E+03  0.00000000000E+00 0.  1.
         13    1    4    4    0    0  0.90961799289E+01  0.56041779956E+03  0.32525400432E+03  0.64802857117E+03  0.10566000000E+00 0. -1.
         -4    1    4    4    0  501  0.41400759420E+03  0.50488255934E+03 -0.45712791821E+03  0.79704116606E+03  0.00000000000E+00 0. -1.
<mgrwt>
<rscale>  2 0.14794166E+04</rscale>
<asrwt>0</asrwt>
<pdfrwt beam="1">  1        1 0.12945231E+00 0.14794166E+04</pdfrwt>
<pdfrwt beam="2">  1       -1 0.60263238E+00 0.14794166E+04</pdfrwt>
<totfact> 0.65639021E-02</totfact>
</mgrwt>
</event>
<event>
 8    1  0.7046235E-006  0.1152736E+04  0.7818608E-02  0.8643029E-01
          2   -1    0    0  502    0  0.00000000000E+00  0.00000000000E+00  0.63677505960E+03  0.63677505960E+03  0.00000000000E+00 0.  1.
         -2   -1    0    0    0  501 -0.00000000000E+00 -0.00000000000E+00 -0.25591700733E+04  0.25591700733E+04  0.00000000000E+00 0. -1.
    9000010    2    1    2  502    0  0.11945982503E+03 -0.57127520766E+03 -0.27343430095E+03  0.11829906642E+04  0.99200533359E+03 0.  0.
   -9000010    2    1    2    0  501 -0.11945982503E+03  0.57127520766E+03 -0.16489607127E+04  0.20129544687E+04  0.99613666148E+03 0.  0.
        -13    1    3    3    0    0 -0.17983236229E+03  0.19868437343E+03 -0.23432478131E+03  0.35598212465E+03  0.10566000000E+00 0.  1.
          4    1    3    3  502    0  0.29929218732E+03 -0.76995958108E+03 -0.39109519642E+02  0.82700853951E+03  0.00000000000E+00 0.  1.
         13    1    4    4    0    0 -0.30906651906E+03  0.55559105670E+03 -0.40340812334E+03  0.75295528462E+03  0.10566000000E+00 0. -1.
         -4    1    4    4    0  501  0.18960669403E+03  0.15684150953E+02 -0.12455525894E+04  0.12599991841E+04  0.00000000000E+00 0. -1.
<mgrwt>
<rscale>  2 0.11527363E+04</rscale>
<asrwt>0</asrwt>
<pdfrwt beam="1">  1        2 0.97965395E-01 0.11527363E+04</pdfrwt>
<pdfrwt beam="2">  1       -2 0.39371847E+00 0.11527363E+04</pdfrwt>
<totfact> 0.26126173E-01</totfact>
</mgrwt>
</event>
<event>
 8    1  0.7046235E-006  0.1304253E+04  0.7818608E-02  0.8531937E-01
         -1   -1    0    0    0  501 -0.00000000000E+00  0.00000000000E+00  0.82120718373E+03  0.82120718373E+03  0.00000000000E+00 0.  1.
          1   -1    0    0  502    0  0.00000000000E+00 -0.00000000000E+00 -0.20933589423E+04  0.20933589423E+04  0.00000000000E+00 0. -1.
    9000010    2    1    2  502    0 -0.31102291460E+03 -0.55774919404E+03 -0.75632932830E+03  0.16197667949E+04  0.12821041300E+04 0.  0.
   -9000010    2    1    2    0  501  0.31102291460E+03  0.55774919404E+03 -0.51582243029E+03  0.12947993311E+04  0.10013057033E+04 0.  0.
        -13    1    3    3    0    0 -0.54069434299E+03 -0.68282170114E+03 -0.95411980509E+03  0.12918747856E+04  0.10566000000E+00 0.  1.
          4    1    3    3  502    0  0.22967142838E+03  0.12507250709E+03  0.19779047680E+03  0.32789200929E+03  0.00000000000E+00 0.  1.
         13    1    4    4    0    0  0.61743152650E+03  0.47812823919E+03 -0.12341422351E+03  0.79060697236E+03  0.10566000000E+00 0. -1.
         -4    1    4    4    0  501 -0.30640861189E+03  0.79620954849E+02 -0.39240820678E+03  0.50419235877E+03  0.00000000000E+00 0. -1.
<mgrwt>
<rscale>  2 0.13042529E+04</rscale>
<asrwt>0</asrwt>
<pdfrwt beam="2">  1        1 0.32205522E+00 0.13042529E+04</pdfrwt>
<pdfrwt beam="1">  1       -1 0.12633957E+00 0.13042529E+04</pdfrwt>
<totfact> 0.18271159E+00</totfact>
</mgrwt>
</event>
<event>
 8    1  0.7046235E-006  0.1425359E+04  0.7818608E-02  0.8453794E-01
          1   -1    0    0  502    0  0.00000000000E+00  0.00000000000E+00  0.38419871094E+04  0.38419871094E+04  0.00000000000E+00 0. -1.
         -1   -1    0    0    0  501 -0.00000000000E+00 -0.00000000000E+00 -0.52887803355E+03  0.52887803355E+03  0.00000000000E+00 0.  1.
    9000010    2    1    2  502    0 -0.91208355855E+03 -0.42382429335E+03  0.16251276440E+04  0.21579385510E+04  0.10020656072E+04 0.  0.
   -9000010    2    1    2    0  501  0.91208355855E+03  0.42382429335E+03  0.16879814319E+04  0.22129265920E+04  0.10179584165E+04 0.  0.
        -13    1    3    3    0    0 -0.89818579946E+03 -0.65027370486E+03  0.10009922508E+04  0.14938470868E+04  0.10566000000E+00 0.  1.
          4    1    3    3  502    0 -0.13897759094E+02  0.22644941151E+03  0.62413539321E+03  0.66409146413E+03  0.00000000000E+00 0.  1.
         13    1    4    4    0    0  0.91097720832E+03  0.41279808598E+03  0.18219988925E+04  0.20784517578E+04  0.10566000000E+00 0. -1.
         -4    1    4    4    0  501  0.11063502329E+01  0.11026207376E+02 -0.13401746068E+03  0.13447483418E+03  0.00000000000E+00 0. -1.
<mgrwt>
<rscale>  2 0.14253587E+04</rscale>
<asrwt>0</asrwt>
<pdfrwt beam="1">  1        1 0.59107492E+00 0.14253587E+04</pdfrwt>
<pdfrwt beam="2">  1       -1 0.81365854E-01 0.14253587E+04</pdfrwt>
<totfact> 0.10800157E-01</totfact>
</mgrwt>
</event>
<event>
 8    1  0.7046235E-006  0.1480674E+04  0.7818608E-02  0.8420709E-01
         -1   -1    0    0    0  501 -0.00000000000E+00  0.00000000000E+00  0.32381399585E+04  0.32381399585E+04  0.00000000000E+00 0. -1.
          1   -1    0    0  502    0  0.00000000000E+00 -0.00000000000E+00 -0.75268302746E+03  0.75268302746E+03  0.00000000000E+00 0.  1.
    9000010    2    1    2  502    0 -0.80954757416E+03 -0.73117850936E+03  0.60832684890E+03  0.15984461627E+04  0.99748648738E+03 0.  0.
   -9000010    2    1    2    0  501  0.80954757416E+03  0.73117850936E+03  0.18771300821E+04  0.23923768233E+04  0.10049180225E+04 0.  0.
        -13    1    3    3    0    0  0.14519738416E+03 -0.28920772433E+02 -0.13423061566E+03  0.19984133904E+03  0.10566000000E+00 0.  1.
          4    1    3    3  502    0 -0.95474495832E+03 -0.70225773692E+03  0.74255746456E+03  0.13986048236E+04  0.00000000000E+00 0.  1.
         13    1    4    4    0    0  0.10090423837E+04  0.57699571694E+03  0.12037935011E+04  0.16733826203E+04  0.10566000000E+00 0. -1.
         -4    1    4    4    0  501 -0.19949480958E+03  0.15418279242E+03  0.67333658105E+03  0.71899420297E+03  0.00000000000E+00 0. -1.
<mgrwt>
<rscale>  2 0.14806743E+04</rscale>
<asrwt>0</asrwt>
<pdfrwt beam="2">  1        1 0.11579739E+00 0.14806743E+04</pdfrwt>
<pdfrwt beam="1">  1       -1 0.49817537E+00 0.14806743E+04</pdfrwt>
<totfact> 0.30600608E-01</totfact>
</mgrwt>
</event>
<event>
 8    1  0.7046235E-006  0.1011864E+04  0.7818608E-02  0.8763524E-01
          2   -1    0    0  502    0  0.00000000000E+00  0.00000000000E+00  0.13942531318E+04  0.13942531318E+04  0.00000000000E+00 0. -1.
         -2   -1    0    0    0  501 -0.00000000000E+00 -0.00000000000E+00 -0.74301696642E+03  0.74301696642E+03  0.00000000000E+00 0.  1.
    9000010    2    1    2  502    0  0.17887095943E+02 -0.28598815165E+03  0.22878233772E+03  0.10741927148E+04  0.10096729467E+04 0.  0.
   -9000010    2    1    2    0  501 -0.17887095943E+02  0.28598815165E+03  0.42245382768E+03  0.10630773835E+04  0.93250046414E+03 0.  0.
        -13    1    3    3    0    0 -0.40664277671E+01 -0.35142144225E+03  0.60068365184E+03  0.69594139599E+03  0.10566000000E+00 0.  1.
          4    1    3    3  502    0  0.21953523710E+02  0.65433290606E+02 -0.37190131412E+03  0.37825131879E+03  0.00000000000E+00 0.  1.
         13    1    4    4    0    0  0.43729569139E+03  0.20007018014E+03  0.34872919769E+03  0.59402665190E+03  0.10566000000E+00 0. -1.
         -4    1    4    4    0  501 -0.45518278733E+03  0.85917971502E+02  0.73724629990E+02  0.46905073156E+03  0.00000000000E+00 0. -1.
<mgrwt>
<rscale>  2 0.10118639E+04</rscale>
<asrwt>0</asrwt>
<pdfrwt beam="1">  1        2 0.21450048E+00 0.10118639E+04</pdfrwt>
<pdfrwt beam="2">  1       -2 0.11431030E+00 0.10118639E+04</pdfrwt>
<totfact> 0.13086371E+01</totfact>
</mgrwt>
</event>
<event>
 8    1  0.7046235E-006  0.1392132E+04  0.7818608E-02  0.8474416E-01
          2   -1    0    0  502    0  0.00000000000E+00  0.00000000000E+00  0.29091812812E+04  0.29091812812E+04  0.00000000000E+00 0. -1.
         -2   -1    0    0    0  501 -0.00000000000E+00 -0.00000000000E+00 -0.66776748237E+03  0.66776748237E+03  0.00000000000E+00 0.  1.
    9000010    2    1    2  502    0  0.95026271617E+03  0.27053379571E+02  0.10196245360E+04  0.17060196105E+04  0.98343154410E+03 0.  0.
   -9000010    2    1    2    0  501 -0.95026271617E+03 -0.27053379571E+02  0.12217892628E+04  0.18709291531E+04  0.10506549281E+04 0.  0.
        -13    1    3    3    0    0  0.11331595140E+04  0.13459464846E+03  0.76145756608E+03  0.13718541612E+04  0.10566000000E+00 0.  1.
          4    1    3    3  502    0 -0.18289679779E+03 -0.10754126889E+03  0.25816696991E+03  0.33416544931E+03  0.00000000000E+00 0.  1.
         13    1    4    4    0    0 -0.10957450093E+04 -0.26133997707E+03  0.10811442035E+04  0.15613547031E+04  0.10566000000E+00 0. -1.
         -4    1    4    4    0  501  0.14548229308E+03  0.23428659750E+03  0.14064505938E+03  0.30957445001E+03  0.00000000000E+00 0. -1.
<mgrwt>
<rscale>  2 0.13921323E+04</rscale>
<asrwt>0</asrwt>
<pdfrwt beam="1">  1        2 0.44756634E+00 0.13921323E+04</pdfrwt>
<pdfrwt beam="2">  1       -2 0.10273346E+00 0.13921323E+04</pdfrwt>
<totfact> 0.23480686E+00</totfact>
</mgrwt>
</event>
<event>
 8    1  0.7046235E-006  0.1504894E+04  0.7818608E-02  0.8406688E-01
          2   -1    0    0  502    0  0.00000000000E+00  0.00000000000E+00  0.25584475488E+04  0.25584475488E+04  0.00000000000E+00 0. -1.
         -2   -1    0    0    0  501 -0.00000000000E+00 -0.00000000000E+00 -0.89385584286E+03  0.89385584286E+03  0.00000000000E+00 0.  1.
    9000010    2    1    2  502    0  0.97061297369E+03  0.48339940329E+03  0.98381486463E+03  0.17747212027E+04  0.10029851105E+04 0.  0.
   -9000010    2    1    2    0  501 -0.97061297369E+03 -0.48339940329E+03  0.68077684130E+03  0.16775821889E+04  0.10840020134E+04 0.  0.
        -13    1    3    3    0    0  0.89944793012E+03  0.65894363682E+03  0.43967159129E+03  0.11985509646E+04  0.10566000000E+00 0.  1.
          4    1    3    3  502    0  0.71165043565E+02 -0.17554423352E+03  0.54414327334E+03  0.57617023810E+03  0.00000000000E+00 0.  1.
         13    1    4    4    0    0 -0.62469391566E+02  0.10608512237E+03 -0.23123204054E+03  0.26196325278E+03  0.10566000000E+00 0. -1.
         -4    1    4    4    0  501 -0.90814358212E+03 -0.58948452566E+03  0.91200888184E+03  0.14156189361E+04  0.00000000000E+00 0. -1.
<mgrwt>
<rscale>  2 0.15048943E+04</rscale>
<asrwt>0</asrwt>
<pdfrwt beam="1">  1        2 0.39360731E+00 0.15048943E+04</pdfrwt>
<pdfrwt beam="2">  1       -2 0.13751628E+00 0.15048943E+04</pdfrwt>
<totfact> 0.17267532E+00</totfact>
</mgrwt>
</event>
<event>
 8    1  0.7046235E-006  0.1179949E+04  0.7818608E-02  0.8621816E-01
         -1   -1    0    0    0  501 -0.00000000000E+00  0.00000000000E+00  0.23577784134E+04  0.23577784134E+04  0.00000000000E+00 0. -1.
          1   -1    0    0  502    0  0.00000000000E+00 -0.00000000000E+00 -0.62356615294E+03  0.62356615294E+03  0.00000000000E+00 0.  1.
    9000010    2    1    2  502    0 -0.29055802505E+02  0.66101325366E+03  0.12226011905E+04  0.17123261918E+04  0.99976224934E+03 0.  0.
   -9000010    2    1    2    0  501  0.29055802505E+02 -0.66101325366E+03  0.51161106997E+03  0.12690183745E+04  0.95439980439E+03 0.  0.
        -13    1    3    3    0    0 -0.23968354272E+03  0.13618564922E+03 -0.84337470152E+02  0.28828380416E+03  0.10566000000E+00 0.  1.
          4    1    3    3  502    0  0.21062774022E+03  0.52482760444E+03  0.13069386606E+04  0.14240423877E+04  0.00000000000E+00 0.  1.
         13    1    4    4    0    0 -0.34685174876E+03 -0.50649145276E+03  0.59412683821E+03  0.85429879924E+03  0.10566000000E+00 0. -1.
         -4    1    4    4    0  501  0.37590755127E+03 -0.15452180090E+03 -0.82515768242E+02  0.41471957521E+03  0.00000000000E+00 0. -1.
<mgrwt>
<rscale>  2 0.11799488E+04</rscale>
<asrwt>0</asrwt>
<pdfrwt beam="2">  1        1 0.95933256E-01 0.11799488E+04</pdfrwt>
<pdfrwt beam="1">  1       -1 0.36273514E+00 0.11799488E+04</pdfrwt>
<totfact> 0.43684639E-01</totfact>
</mgrwt>
</event>
<event>
 8    1  0.7046235E-006  0.1575653E+04  0.7818608E-02  0.8367244E-01
         -1   -1    0    0    0  501 -0.00000000000E+00  0.00000000000E+00  0.11881228459E+04  0.11881228459E+04  0.00000000000E+00 0. -1.
          1   -1    0    0  502    0  0.00000000000E+00 -0.00000000000E+00 -0.20899745874E+04  0.20899745874E+04  0.00000000000E+00 0.  1.
    9000010    2    1    2  502    0 -0.91749926495E+02 -0.11977585170E+04 -0.43964780587E+03  0.16507777376E+04  0.10434238985E+04 0.  0.
   -9000010    2    1    2    0  501  0.91749926495E+02  0.11977585170E+04 -0.46220393564E+03  0.16273196956E+04  0.99573761586E+03 0.  0.
        -13    1    3    3    0    0 -0.41164752593E+03 -0.90376895405E+03  0.52254244010E+02  0.99447600529E+03  0.10566000000E+00 0.  1.
          4    1    3    3  502    0  0.31989759944E+03 -0.29398956291E+03 -0.49190204988E+03  0.65630173236E+03  0.00000000000E+00 0.  1.
         13    1    4    4    0    0 -0.41532423427E+02  0.14566853369E+03 -0.54301546869E+03  0.56374646279E+03  0.10566000000E+00 0. -1.
         -4    1    4    4    0  501  0.13328234992E+03  0.10520899833E+04  0.80811533054E+02  0.10635732328E+04  0.00000000000E+00 0. -1.
<mgrwt>
<rscale>  2 0.15756525E+04</rscale>
<asrwt>0</asrwt>
<pdfrwt beam="2">  1        1 0.32153455E+00 0.15756525E+04</pdfrwt>
<pdfrwt beam="1">  1       -1 0.18278813E+00 0.15756525E+04</pdfrwt>
<totfact> 0.57142210E-01</totfact>
</mgrwt>
</event>
<event>
 8    1  0.7046235E-006  0.1322079E+04  0.7818608E-02  0.8519899E-01
         -2   -1    0    0    0  501 -0.00000000000E+00  0.00000000000E+00  0.18397191876E+04  0.18397191876E+04  0.00000000000E+00 0. -1.
          2   -1    0    0  502    0  0.00000000000E+00 -0.00000000000E+00 -0.97407962041E+03  0.97407962041E+03  0.00000000000E+00 0.  1.
    9000010    2    1    2  502    0  0.38353559482E+03  0.73205327123E+03  0.22113486564E+03  0.13642702287E+04  0.10626999029E+04 0.  0.
   -9000010    2    1    2    0  501 -0.38353559482E+03 -0.73205327123E+03  0.64450470153E+03  0.14495285793E+04  0.10013716830E+04 0.  0.
        -13    1    3    3    0    0  0.58458634557E+03  0.15016180684E+03 -0.17956566080E+03  0.62970914028E+03  0.10566000000E+00 0.  1.
          4    1    3    3  502    0 -0.20105075075E+03  0.58189146440E+03  0.40070052644E+03  0.73456108841E+03  0.00000000000E+00 0.  1.
         13    1    4    4    0    0 -0.65700837638E+03 -0.59391161375E+03  0.71132183871E+03  0.11359444445E+04  0.10566000000E+00 0. -1.
         -4    1    4    4    0  501  0.27347278156E+03 -0.13814165749E+03 -0.66817137174E+02  0.31358413481E+03  0.00000000000E+00 0. -1.
<mgrwt>
<rscale>  2 0.13220795E+04</rscale>
<asrwt>0</asrwt>
<pdfrwt beam="2">  1        2 0.14985840E+00 0.13220795E+04</pdfrwt>
<pdfrwt beam="1">  1       -2 0.28303372E+00 0.13220795E+04</pdfrwt>
<totfact> 0.87215028E-01</totfact>
</mgrwt>
</event>
<event>
 8    1  0.7046235E-006  0.1433967E+04  0.7818608E-02  0.8448545E-01
          2   -1    0    0  502    0  0.00000000000E+00  0.00000000000E+00  0.84447162310E+03  0.84447162310E+03  0.00000000000E+00 0.  1.
         -2   -1    0    0    0  501 -0.00000000000E+00 -0.00000000000E+00 -0.24374613796E+04  0.24374613796E+04  0.00000000000E+00 0. -1.
    9000010    2    1    2  502    0 -0.70544580735E+03 -0.76849989552E+03 -0.83500130014E+03  0.16441074033E+04  0.95792280779E+03 0.  0.
   -9000010    2    1    2    0  501  0.70544580735E+03  0.76849989552E+03 -0.75798845631E+03  0.16378255994E+04  0.10097922151E+04 0.  0.
        -13    1    3    3    0    0 -0.53581935288E+03 -0.38962556370E+03 -0.99821706595E+03  0.11980600071E+04  0.10566000000E+00 0.  1.
          4    1    3    3  502    0 -0.16962645446E+03 -0.37887433182E+03  0.16321576581E+03  0.44604739610E+03  0.00000000000E+00 0.  1.
         13    1    4    4    0    0  0.74729069356E+03  0.96768631438E+03 -0.53107502123E+03  0.13330044535E+04  0.10566000000E+00 0. -1.
         -4    1    4    4    0  501 -0.41844886212E+02 -0.19918641887E+03 -0.22691343509E+03  0.30482114589E+03  0.00000000000E+00 0. -1.
<mgrwt>
<rscale>  2 0.14339669E+04</rscale>
<asrwt>0</asrwt>
<pdfrwt beam="1">  1        2 0.12991871E+00 0.14339669E+04</pdfrwt>
<pdfrwt beam="2">  1       -2 0.37499405E+00 0.14339669E+04</pdfrwt>
<totfact> 0.23150954E-01</totfact>
</mgrwt>
</event>
<event>
 8    1  0.7046235E-006  0.1225293E+04  0.7818608E-02  0.8587755E-01
         -2   -1    0    0    0  501 -0.00000000000E+00  0.00000000000E+00  0.53392924603E+03  0.53392924603E+03  0.00000000000E+00 0. -1.
          2   -1    0    0  502    0  0.00000000000E+00 -0.00000000000E+00 -0.28212476407E+04  0.28212476407E+04  0.00000000000E+00 0.  1.
    9000010    2    1    2  502    0  0.22385543829E+03 -0.66834320639E+03 -0.10401613457E+04  0.16011891181E+04  0.99251048752E+03 0.  0.
   -9000010    2    1    2    0  501 -0.22385543829E+03  0.66834320639E+03 -0.12471570489E+04  0.17539877686E+04  0.10120664450E+04 0.  0.
        -13    1    3    3    0    0  0.44150871938E+03 -0.80966725218E+03 -0.63373481067E+03  0.11189775824E+04  0.10566000000E+00 0.  1.
          4    1    3    3  502    0 -0.21765328110E+03  0.14132404579E+03 -0.40642653507E+03  0.48221153563E+03  0.00000000000E+00 0.  1.
         13    1    4    4    0    0 -0.61644001137E+03  0.30460068258E+03 -0.58646749608E+03  0.90372783434E+03  0.10566000000E+00 0. -1.
         -4    1    4    4    0  501  0.39258457308E+03  0.36374252382E+03 -0.66068955283E+03  0.85025993430E+03  0.00000000000E+00 0. -1.
<mgrwt>
<rscale>  2 0.12252933E+04</rscale>
<asrwt>0</asrwt>
<pdfrwt beam="2">  1        2 0.43403809E+00 0.12252933E+04</pdfrwt>
<pdfrwt beam="1">  1       -2 0.82142963E-01 0.12252933E+04</pdfrwt>
<totfact> 0.45548968E+00</totfact>
</mgrwt>
</event>
<event>
 8    1  0.7046235E-006  0.1502124E+04  0.7818608E-02  0.8408277E-01
         -1   -1    0    0    0  501 -0.00000000000E+00  0.00000000000E+00  0.14432486069E+04  0.14432486069E+04  0.00000000000E+00 0.  1.
          1   -1    0    0  502    0  0.00000000000E+00 -0.00000000000E+00 -0.17557921271E+04  0.17557921271E+04  0.00000000000E+00 0. -1.
    9000010    2    1    2  502    0  0.20353706896E+03  0.11021273710E+04 -0.68553886780E+03  0.16491836300E+04  0.99686058498E+03 0.  0.
   -9000010    2    1    2    0  501 -0.20353706896E+03 -0.11021273710E+04  0.37299534752E+03  0.15498571040E+04  0.10034039232E+04 0.  0.
        -13    1    3    3    0    0 -0.24547283244E+03  0.92169822508E+03 -0.22250784609E+03  0.97943569586E+03  0.10566000000E+00 0.  1.
          4    1    3    3  502    0  0.44900990139E+03  0.18042914594E+03 -0.46303102170E+03  0.66974793416E+03  0.00000000000E+00 0.  1.
         13    1    4    4    0    0  0.32091804279E+03 -0.39201059765E+03  0.43102127783E+03  0.66516167355E+03  0.10566000000E+00 0. -1.
         -4    1    4    4    0  501 -0.52445511174E+03 -0.71011677337E+03 -0.58025930309E+02  0.88469543044E+03  0.00000000000E+00 0. -1.
<mgrwt>
<rscale>  2 0.15021244E+04</rscale>
<asrwt>0</asrwt>
<pdfrwt beam="2">  1        1 0.27012187E+00 0.15021244E+04</pdfrwt>
<pdfrwt beam="1">  1       -1 0.22203825E+00 0.15021244E+04</pdfrwt>
<totfact> 0.45782931E-01</totfact>
</mgrwt>
</event>
<event>
 8    1  0.7046235E-006  0.1094660E+04  0.7818608E-02  0.8690410E-01
          2   -1    0    0  502    0  0.00000000000E+00  0.00000000000E+00  0.29789640570E+04  0.29789640570E+04  0.00000000000E+00 0. -1.
         -2   -1    0    0    0  501 -0.00000000000E+00 -0.00000000000E+00 -0.41761303256E+03  0.41761303256E+03  0.00000000000E+00 0.  1.
    9000010    2    1    2  502    0  0.34943825647E+03 -0.68982175417E+02  0.95944560767E+03  0.14586092717E+04  0.10392975982E+04 0.  0.
   -9000010    2    1    2    0  501 -0.34943825647E+03  0.68982175417E+02  0.16019054168E+04  0.19379678179E+04  0.10308989588E+04 0.  0.
        -13    1    3    3    0    0  0.24013335185E+03 -0.32514374517E+03 -0.53812482897E+02  0.40777233376E+03  0.10566000000E+00 0.  1.
          4    1    3    3  502    0  0.10930490461E+03  0.25616156976E+03  0.10132580906E+04  0.10508369379E+04  0.00000000000E+00 0.  1.
         13    1    4    4    0    0 -0.41597760228E+03  0.14788938426E+03  0.17231101789E+04  0.17787684884E+04  0.10566000000E+00 0. -1.
         -4    1    4    4    0  501  0.66539345815E+02 -0.78907208840E+02 -0.12120476212E+03  0.15919932949E+03  0.00000000000E+00 0. -1.
<mgrwt>
<rscale>  2 0.10946598E+04</rscale>
<asrwt>0</asrwt>
<pdfrwt beam="1">  1        2 0.45830215E+00 0.10946598E+04</pdfrwt>
<pdfrwt beam="2">  1       -2 0.64248161E-01 0.10946598E+04</pdfrwt>
<totfact> 0.62520637E+00</totfact>
</mgrwt>
</event>
<event>
 8    1  0.7046235E-006  0.1471030E+04  0.7818608E-02  0.8426369E-01
          1   -1    0    0  502    0  0.00000000000E+00  0.00000000000E+00  0.19240408436E+04  0.19240408436E+04  0.00000000000E+00 0.  1.
         -1   -1    0    0    0  501 -0.00000000000E+00 -0.00000000000E+00 -0.11538377394E+04  0.11538377394E+04  0.00000000000E+00 0. -1.
    9000010    2    1    2  502    0 -0.10546192361E+04 -0.25419143655E+03  0.63038489944E+03  0.16027835974E+04  0.99734403253E+03 0.  0.
   -9000010    2    1    2    0  501  0.10546192361E+04  0.25419143655E+03  0.13981820471E+03  0.14750949856E+04  0.98970756620E+03 0.  0.
        -13    1    3    3    0    0 -0.82911773948E+03 -0.18537061308E+03  0.90469366948E+03  0.12410757982E+04  0.10566000000E+00 0.  1.
          4    1    3    3  502    0 -0.22550149661E+03 -0.68820823464E+02 -0.27430877003E+03  0.36170779924E+03  0.00000000000E+00 0.  1.
         13    1    4    4    0    0  0.20613746877E+03 -0.35557609088E+03  0.12690250911E+03  0.43015261294E+03  0.10566000000E+00 0. -1.
         -4    1    4    4    0  501  0.84848176732E+03  0.60976752742E+03  0.12915695601E+02  0.10449423727E+04  0.00000000000E+00 0. -1.
<mgrwt>
<rscale>  2 0.14710302E+04</rscale>
<asrwt>0</asrwt>
<pdfrwt beam="1">  1        1 0.29600628E+00 0.14710302E+04</pdfrwt>
<pdfrwt beam="2">  1       -1 0.17751350E+00 0.14710302E+04</pdfrwt>
<totfact> 0.86293526E-01</totfact>
</mgrwt>
</event>
<event>
 8    1  0.7046235E-006  0.1748595E+04  0.7818608E-02  0.8279228E-01
         -4   -1    0    0    0  501 -0.00000000000E+00  0.00000000000E+00  0.14636382392E+04  0.14636382392E+04  0.00000000000E+00 0. -1.
          4   -1    0    0  502    0  0.00000000000E+00 -0.00000000000E+00 -0.22123778651E+04  0.22123778651E+04  0.00000000000E+00 0.  1.
    9000010    2    1    2  502    0  0.18820843867E+03  0.14259296335E+04 -0.80835728239E+03  0.19263768109E+04  0.99437839154E+03 0.  0.
   -9000010    2    1    2    0  501 -0.18820843867E+03 -0.14259296335E+04  0.59617656538E+02  0.17496392934E+04  0.99447757936E+03 0.  0.
        -13    1    3    3    0    0 -0.38836673825E+03  0.80735670066E+03 -0.50205627161E+03  0.10269927344E+04  0.10566000000E+00 0.  1.
          4    1    3    3  502    0  0.57657517693E+03  0.61857293285E+03 -0.30630101077E+03  0.89938407652E+03  0.00000000000E+00 0.  1.
         13    1    4    4    0    0 -0.21065158990E+03 -0.15383164997E+04  0.20321534327E+03  0.15659145036E+04  0.10566000000E+00 0. -1.
         -4    1    4    4    0  501  0.22443151226E+02  0.11238686623E+03 -0.14359768674E+03  0.18372478977E+03  0.00000000000E+00 0. -1.
<mgrwt>
<rscale>  2 0.17485951E+04</rscale>
<asrwt>0</asrwt>
<pdfrwt beam="2">  1        4 0.34036582E+00 0.17485951E+04</pdfrwt>
<pdfrwt beam="1">  1       -4 0.22517512E+00 0.17485951E+04</pdfrwt>
<totfact> 0.64170963E-02</totfact>
</mgrwt>
</event>
<event>
 8    1  0.7046235E-006  0.1047073E+04  0.7818608E-02  0.8731577E-01
          2   -1    0    0  502    0  0.00000000000E+00  0.00000000000E+00  0.12289435979E+04  0.12289435979E+04  0.00000000000E+00 0. -1.
         -2   -1    0    0    0  501 -0.00000000000E+00 -0.00000000000E+00 -0.94438269985E+03  0.94438269985E+03  0.00000000000E+00 0.  1.
    9000010    2    1    2  502    0  0.25897672748E+03 -0.17917917808E+03  0.39778093938E+03  0.11190968046E+04  0.99748376378E+03 0.  0.
   -9000010    2    1    2    0  501 -0.25897672748E+03  0.17917917808E+03 -0.11322004136E+03  0.10542294932E+04  0.99970341765E+03 0.  0.
        -13    1    3    3    0    0  0.26062526425E+03  0.39398739281E+03  0.16327329465E+03  0.49980973777E+03  0.10566000000E+00 0.  1.
          4    1    3    3  502    0 -0.16485367667E+01 -0.57316657089E+03  0.23450764473E+03  0.61928706679E+03  0.00000000000E+00 0.  1.
         13    1    4    4    0    0 -0.61699037169E+03  0.23801140263E+03 -0.17989519434E+03  0.68533848473E+03  0.10566000000E+00 0. -1.
         -4    1    4    4    0  501  0.35801364420E+03 -0.58832224554E+02  0.66675152980E+02  0.36889100844E+03  0.00000000000E+00 0. -1.
<mgrwt>
<rscale>  2 0.10470732E+04</rscale>
<asrwt>0</asrwt>
<pdfrwt beam="1">  1        2 0.18906825E+00 0.10470732E+04</pdfrwt>
<pdfrwt beam="2">  1       -2 0.14528965E+00 0.10470732E+04</pdfrwt>
<totfact> 0.83238076E+00</totfact>
</mgrwt>
</event>
<event>
 8    1  0.7046235E-006  0.1449060E+04  0.7818608E-02  0.8439433E-01
         -2   -1    0    0    0  501 -0.00000000000E+00  0.00000000000E+00  0.88439079574E+03  0.88439079574E+03  0.00000000000E+00 0. -1.
          2   -1    0    0  502    0  0.00000000000E+00 -0.00000000000E+00 -0.23798240247E+04  0.23798240247E+04  0.00000000000E+00 0.  1.
    9000010    2    1    2  502    0  0.10565810991E+04 -0.79044736624E+02 -0.83055817501E+03  0.16779331651E+04  0.10015094283E+04 0.  0.
   -9000010    2    1    2    0  501 -0.10565810991E+04  0.79044736624E+02 -0.66487505399E+03  0.15862816554E+04  0.97550959171E+03 0.  0.
        -13    1    3    3    0    0  0.69960904634E+03  0.25274300429E+02 -0.10380576964E+04  0.12520604619E+04  0.10566000000E+00 0.  1.
          4    1    3    3  502    0  0.35697205275E+03 -0.10431903705E+03  0.20749952140E+03  0.42587270318E+03  0.00000000000E+00 0.  1.
         13    1    4    4    0    0  0.13953217129E+03  0.10257685626E+03 -0.28059428378E+03  0.32973383435E+03  0.10566000000E+00 0. -1.
         -4    1    4    4    0  501 -0.11961132704E+04 -0.23532119636E+02 -0.38428077021E+03  0.12565478211E+04  0.00000000000E+00 0. -1.
<mgrwt>
<rscale>  2 0.14490599E+04</rscale>
<asrwt>0</asrwt>
<pdfrwt beam="2">  1        2 0.36612678E+00 0.14490599E+04</pdfrwt>
<pdfrwt beam="1">  1       -2 0.13606012E+00 0.14490599E+04</pdfrwt>
<totfact> 0.22564855E+00</totfact>
</mgrwt>
</event>
<event>
 8    1  0.7046235E-006  0.1017747E+04  0.7818608E-02  0.8758093E-01
          1   -1    0    0  502    0  0.00000000000E+00  0.00000000000E+00  0.10028234931E+04  0.10028234931E+04  0.00000000000E+00 0.  1.
         -1   -1    0    0    0  501 -0.00000000000E+00 -0.00000000000E+00 -0.17914139967E+04  0.17914139967E+04  0.00000000000E+00 0. -1.
    9000010    2    1    2  502    0 -0.84722975608E+02 -0.16951514610E+03  0.51808949229E+03  0.11282946095E+04  0.98423505145E+03 0.  0.
   -9000010    2    1    2    0  501  0.84722975608E+02  0.16951514610E+03 -0.13066799959E+04  0.16659428803E+04  0.10158935482E+04 0.  0.
        -13    1    3    3    0    0  0.15571446520E+03  0.24225183532E+03  0.57991002942E+03  0.64747864812E+03  0.10566000000E+00 0.  1.
          4    1    3    3  502    0 -0.24043744081E+03 -0.41176698142E+03 -0.61820537129E+02  0.48081596140E+03  0.00000000000E+00 0.  1.
         13    1    4    4    0    0  0.51255066797E+03 -0.41938519033E+02 -0.91050034396E+03  0.10456949432E+04  0.10566000000E+00 0. -1.
         -4    1    4    4    0  501 -0.42782769237E+03  0.21145366513E+03 -0.39617965196E+03  0.62024793711E+03  0.00000000000E+00 0. -1.
<mgrwt>
<rscale>  2 0.10177469E+04</rscale>
<asrwt>0</asrwt>
<pdfrwt beam="1">  1        1 0.15428054E+00 0.10177469E+04</pdfrwt>
<pdfrwt beam="2">  1       -1 0.27560215E+00 0.10177469E+04</pdfrwt>
<totfact> 0.55188279E-01</totfact>
</mgrwt>
</event>
<event>
 8    1  0.7046235E-006  0.1389644E+04  0.7818608E-02  0.8475984E-01
          2   -1    0    0  502    0  0.00000000000E+00  0.00000000000E+00  0.11467841629E+04  0.11467841629E+04  0.00000000000E+00 0.  1.
         -2   -1    0    0    0  501 -0.00000000000E+00 -0.00000000000E+00 -0.17691475991E+04  0.17691475991E+04  0.00000000000E+00 0. -1.
    9000010    2    1    2  502    0 -0.94670827144E+03 -0.32915701321E+03  0.42124866732E+01  0.14084627793E+04  0.98951946173E+03 0.  0.
   -9000010    2    1    2    0  501  0.94670827144E+03  0.32915701321E+03 -0.62657592283E+03  0.15074689827E+04  0.93555569372E+03 0.  0.
        -13    1    3    3    0    0 -0.94942696676E+03 -0.56159632316E+03  0.17914373870E+03  0.11175394784E+04  0.10566000000E+00 0.  1.
          4    1    3    3  502    0  0.27186953165E+01  0.23243930995E+03 -0.17493125203E+03  0.29092330098E+03  0.00000000000E+00 0.  1.
         13    1    4    4    0    0  0.67892737481E+02  0.33509377272E+03  0.11170091039E+03  0.35968648135E+03  0.10566000000E+00 0. -1.
         -4    1    4    4    0  501  0.87881553396E+03 -0.59367595127E+01 -0.73827683322E+03  0.11477825013E+04  0.00000000000E+00 0. -1.
<mgrwt>
<rscale>  2 0.13896435E+04</rscale>
<asrwt>0</asrwt>
<pdfrwt beam="1">  1        2 0.17642833E+00 0.13896435E+04</pdfrwt>
<pdfrwt beam="2">  1       -2 0.27217655E+00 0.13896435E+04</pdfrwt>
<totfact> 0.82259164E-01</totfact>
</mgrwt>
</event>
<event>
 8    1  0.7046235E-006  0.1633927E+04  0.7818608E-02  0.8336336E-01
         -2   -1    0    0    0  501 -0.00000000000E+00  0.00000000000E+00  0.14757174591E+04  0.14757174591E+04  0.00000000000E+00 0. -1.
          2   -1    0    0  502    0  0.00000000000E+00 -0.00000000000E+00 -0.20762303512E+04  0.20762303512E+04  0.00000000000E+00 0.  1.
    9000010    2    1    2  502    0 -0.68814220920E+03  0.10921051004E+04  0.33703991029E+03  0.16667030162E+04  0.99903443014E+03 0.  0.
   -9000010    2    1    2    0  501  0.68814220920E+03 -0.10921051004E+04 -0.93755280243E+03  0.18852447941E+04  0.10044448347E+04 0.  0.
        -13    1    3    3    0    0 -0.13162571716E+03  0.60282538505E+03 -0.30312039574E+03  0.68746327884E+03  0.10566000000E+00 0.  1.
          4    1    3    3  502    0 -0.55651649205E+03  0.48927971537E+03  0.64016030603E+03  0.97923973735E+03  0.00000000000E+00 0.  1.
         13    1    4    4    0    0  0.14173347683E+03  0.11267353594E+03  0.97408874523E+02  0.20560205289E+03  0.10566000000E+00 0. -1.
         -4    1    4    4    0  501  0.54640873238E+03 -0.12047786364E+04 -0.10349616769E+04  0.16796427412E+04  0.00000000000E+00 0. -1.
<mgrwt>
<rscale>  2 0.16339270E+04</rscale>
<asrwt>0</asrwt>
<pdfrwt beam="2">  1        2 0.31942005E+00 0.16339270E+04</pdfrwt>
<pdfrwt beam="1">  1       -2 0.22703346E+00 0.16339270E+04</pdfrwt>
<totfact> 0.55196543E-01</totfact>
</mgrwt>
</event>
<event>
 8    1  0.7046235E-006  0.1380821E+04  0.7818608E-02  0.8481571E-01
          1   -1    0    0  502    0  0.00000000000E+00  0.00000000000E+00  0.13859213034E+04  0.13859213034E+04  0.00000000000E+00 0.  1.
         -1   -1    0    0    0  501 -0.00000000000E+00 -0.00000000000E+00 -0.13784573861E+04  0.13784573861E+04  0.00000000000E+00 0. -1.
    9000010    2    1    2  502    0  0.94978634535E+03  0.92484087173E+02  0.63024741874E+02  0.13983558169E+04  0.10201859950E+04 0.  0.
   -9000010    2    1    2    0  501 -0.94978634535E+03 -0.92484087173E+02 -0.55560824632E+02  0.13660228726E+04  0.97585043681E+03 0.  0.
        -13    1    3    3    0    0  0.35604425980E+03 -0.26508499420E+03 -0.37275728605E+03  0.57964262659E+03  0.10566000000E+00 0.  1.
          4    1    3    3  502    0  0.59374208555E+03  0.35756908137E+03  0.43578202793E+03  0.81871319030E+03  0.00000000000E+00 0.  1.
         13    1    4    4    0    0 -0.21351062344E+03  0.41498978006E+03  0.30377246796E+02  0.46768161410E+03  0.10566000000E+00 0. -1.
         -4    1    4    4    0  501 -0.73627572191E+03 -0.50747386723E+03 -0.85938071428E+02  0.89834125850E+03  0.00000000000E+00 0. -1.
<mgrwt>
<rscale>  2 0.13808207E+04</rscale>
<asrwt>0</asrwt>
<pdfrwt beam="1">  1        1 0.21321866E+00 0.13808207E+04</pdfrwt>
<pdfrwt beam="2">  1       -1 0.21207037E+00 0.13808207E+04</pdfrwt>
<totfact> 0.10862594E+00</totfact>
</mgrwt>
</event>
<event>
 8    1  0.7046235E-006  0.1242316E+04  0.7818608E-02  0.8575361E-01
          2   -1    0    0  502    0  0.00000000000E+00  0.00000000000E+00  0.16601281983E+04  0.16601281983E+04  0.00000000000E+00 0.  1.
         -2   -1    0    0    0  501 -0.00000000000E+00 -0.00000000000E+00 -0.97303344170E+03  0.97303344170E+03  0.00000000000E+00 0. -1.
    9000010    2    1    2  502    0  0.36553999178E+03 -0.65345119203E+03  0.64670656147E+02  0.12405109158E+04  0.98694837380E+03 0.  0.
   -9000010    2    1    2    0  501 -0.36553999178E+03  0.65345119203E+03  0.62242410048E+03  0.13926507242E+04  0.99571398143E+03 0.  0.
        -13    1    3    3    0    0  0.57614857421E+03 -0.37004313089E+03 -0.28672933535E+03  0.74235626299E+03  0.10566000000E+00 0.  1.
          4    1    3    3  502    0 -0.21060858243E+03 -0.28340806114E+03  0.35139999150E+03  0.49815465283E+03  0.00000000000E+00 0.  1.
         13    1    4    4    0    0 -0.40103832484E+03  0.87539685279E+03  0.65639000818E+03  0.11653322453E+04  0.10566000000E+00 0. -1.
         -4    1    4    4    0  501  0.35498333060E+02 -0.22194566076E+03 -0.33965907697E+02  0.22731847894E+03  0.00000000000E+00 0. -1.
<mgrwt>
<rscale>  2 0.12423165E+04</rscale>
<asrwt>0</asrwt>
<pdfrwt beam="1">  1        2 0.25540434E+00 0.12423165E+04</pdfrwt>
<pdfrwt beam="2">  1       -2 0.14969745E+00 0.12423165E+04</pdfrwt>
<totfact> 0.43109318E+00</totfact>
</mgrwt>
</event>
<event>
 8    1  0.7046235E-006  0.1440096E+04  0.7818608E-02  0.8444831E-01
         -2   -1    0    0    0  501 -0.00000000000E+00  0.00000000000E+00  0.97274087048E+03  0.97274087048E+03  0.00000000000E+00 0.  1.
          2   -1    0    0  502    0  0.00000000000E+00 -0.00000000000E+00 -0.21516385999E+04  0.21516385999E+04  0.00000000000E+00 0. -1.
    9000010    2    1    2  502    0 -0.44335608680E+03 -0.94939285758E+03 -0.74010450408E+03  0.16222837377E+04  0.99304502962E+03 0.  0.
   -9000010    2    1    2    0  501  0.44335608680E+03  0.94939285758E+03 -0.43879322535E+03  0.15020957327E+04  0.98277193585E+03 0.  0.
        -13    1    3    3    0    0 -0.28542170028E+03  0.11245041124E+03 -0.38344965913E+03  0.49106445018E+03  0.10566000000E+00 0.  1.
          4    1    3    3  502    0 -0.15793438652E+03 -0.10618432688E+04 -0.35665484495E+03  0.11312192875E+04  0.00000000000E+00 0.  1.
         13    1    4    4    0    0 -0.88342533188E+02  0.42191665082E+03  0.23821156905E+03  0.49250667630E+03  0.10566000000E+00 0. -1.
         -4    1    4    4    0  501  0.53169861999E+03  0.52747620676E+03 -0.67700479439E+03  0.10095890564E+04  0.00000000000E+00 0. -1.
<mgrwt>
<rscale>  2 0.14400959E+04</rscale>
<asrwt>0</asrwt>
<pdfrwt beam="2">  1        2 0.33102132E+00 0.14400959E+04</pdfrwt>
<pdfrwt beam="1">  1       -2 0.14965244E+00 0.14400959E+04</pdfrwt>
<totfact> 0.22774409E+00</totfact>
</mgrwt>
</event>
<event>
 8    1  0.7046235E-006  0.1241874E+04  0.7818608E-02  0.8575680E-01
         -2   -1    0    0    0  501 -0.00000000000E+00  0.00000000000E+00  0.90917978795E+03  0.90917978795E+03  0.00000000000E+00 0.  1.
          2   -1    0    0  502    0  0.00000000000E+00 -0.00000000000E+00 -0.17011150455E+04  0.17011150455E+04  0.00000000000E+00 0. -1.
    9000010    2    1    2  502    0 -0.24063153213E+03  0.73106601245E+03 -0.45552674688E+03  0.13039159204E+04  0.94885776678E+03 0.  0.
   -9000010    2    1    2    0  501  0.24063153213E+03 -0.73106601245E+03 -0.33640851069E+03  0.13063789131E+04  0.10005469152E+04 0.  0.
        -13    1    3    3    0    0  0.94221090355E+02  0.47832794717E+03 -0.67327262628E+03  0.83124682218E+03  0.10566000000E+00 0.  1.
          4    1    3    3  502    0 -0.33485262249E+03  0.25273806528E+03  0.21774587941E+03  0.47266909824E+03  0.00000000000E+00 0.  1.
         13    1    4    4    0    0  0.17861362609E+03 -0.51541944368E+03  0.30631602321E+03  0.62561133908E+03  0.10566000000E+00 0. -1.
         -4    1    4    4    0  501  0.62017906050E+02 -0.21564656877E+03 -0.64272453390E+03  0.68076757398E+03  0.00000000000E+00 0. -1.
<mgrwt>
<rscale>  2 0.12418740E+04</rscale>
<asrwt>0</asrwt>
<pdfrwt beam="2">  1        2 0.26171000E+00 0.12418740E+04</pdfrwt>
<pdfrwt beam="1">  1       -2 0.13987381E+00 0.12418740E+04</pdfrwt>
<totfact> 0.50091145E+00</totfact>
</mgrwt>
</event>
<event>
 8    1  0.7046235E-006  0.2908582E+04  0.7818608E-02  0.7874452E-01
         -2   -1    0    0    0  501 -0.00000000000E+00  0.00000000000E+00  0.22819449966E+04  0.22819449966E+04  0.00000000000E+00 0.  1.
          2   -1    0    0  502    0  0.00000000000E+00 -0.00000000000E+00 -0.39284661462E+04  0.39284661462E+04  0.00000000000E+00 0. -1.
    9000010    2    1    2  502    0 -0.12785527586E+04 -0.24126885376E+04 -0.15601348161E+04  0.33008864190E+04  0.10030290978E+04 0.  0.
   -9000010    2    1    2    0  501  0.12785527586E+04  0.24126885376E+04 -0.86386333567E+02  0.29095247238E+04  0.10010536368E+04 0.  0.
        -13    1    3    3    0    0 -0.12513892176E+03 -0.11272785127E+04 -0.91507110351E+03  0.14573166198E+04  0.10566000000E+00 0.  1.
          4    1    3    3  502    0 -0.11534138368E+04 -0.12854100249E+04 -0.64506371256E+03  0.18435697992E+04  0.00000000000E+00 0.  1.
         13    1    4    4    0    0  0.68807009801E+03  0.12857059680E+04  0.45390151419E+03  0.15272546911E+04  0.10566000000E+00 0. -1.
         -4    1    4    4    0  501  0.59048266057E+03  0.11269825696E+04 -0.54028784776E+03  0.13822700326E+04  0.00000000000E+00 0. -1.
<mgrwt>
<rscale>  2 0.29085823E+04</rscale>
<asrwt>0</asrwt>
<pdfrwt beam="2">  1        2 0.60437941E+00 0.29085823E+04</pdfrwt>
<pdfrwt beam="1">  1       -2 0.35106846E+00 0.29085823E+04</pdfrwt>
<totfact> 0.38210420E-03</totfact>
</mgrwt>
</event>
<event>
 8    1  0.7046235E-006  0.1557792E+04  0.7818608E-02  0.8376995E-01
         -1   -1    0    0    0  501 -0.00000000000E+00  0.00000000000E+00  0.81595089658E+03  0.81595089658E+03  0.00000000000E+00 0.  1.
          1   -1    0    0  502    0  0.00000000000E+00 -0.00000000000E+00 -0.31833387896E+04  0.31833387896E+04  0.00000000000E+00 0. -1.
    9000010    2    1    2  502    0  0.11003905615E+04 -0.46069178995E+03 -0.66691024904E+03  0.16891566382E+04  0.99266537923E+03 0.  0.
   -9000010    2    1    2    0  501 -0.11003905615E+04  0.46069178995E+03 -0.17004776439E+04  0.23101330479E+04  0.10109372722E+04 0.  0.
        -13    1    3    3    0    0 -0.47226537952E+02 -0.30709154533E+03  0.67613481876E+02  0.31797351650E+03  0.10566000000E+00 0.  1.
          4    1    3    3  502    0  0.11476170994E+04 -0.15360024462E+03 -0.73452373092E+03  0.13711831217E+04  0.00000000000E+00 0.  1.
         13    1    4    4    0    0 -0.10762121018E+04  0.29668283938E+03 -0.17990422709E+04  0.21172638708E+04  0.10566000000E+00 0. -1.
         -4    1    4    4    0  501 -0.24178459695E+02  0.16400895057E+03  0.98564626930E+02  0.19286917707E+03  0.00000000000E+00 0. -1.
<mgrwt>
<rscale>  2 0.15577922E+04</rscale>
<asrwt>0</asrwt>
<pdfrwt beam="2">  1        1 0.48974444E+00 0.15577922E+04</pdfrwt>
<pdfrwt beam="1">  1       -1 0.12553091E+00 0.15577922E+04</pdfrwt>
<totfact> 0.16112263E-01</totfact>
</mgrwt>
</event>
<event>
 8    1  0.7046235E-006  0.1032818E+04  0.7818608E-02  0.8744353E-01
         -2   -1    0    0    0  501 -0.00000000000E+00  0.00000000000E+00  0.23145202984E+04  0.23145202984E+04  0.00000000000E+00 0. -1.
          2   -1    0    0  502    0  0.00000000000E+00 -0.00000000000E+00 -0.46191239603E+03  0.46191239603E+03  0.00000000000E+00 0.  1.
    9000010    2    1    2  502    0 -0.33673046196E+03  0.94511647268E+01  0.84845612770E+03  0.13212931772E+04  0.95522831354E+03 0.  0.
   -9000010    2    1    2    0  501  0.33673046196E+03 -0.94511647268E+01  0.10041517747E+04  0.14551395173E+04  0.99781436124E+03 0.  0.
        -13    1    3    3    0    0 -0.38598682395E+03  0.43667467818E+03  0.49227070794E+03  0.76288994219E+03  0.10566000000E+00 0.  1.
          4    1    3    3  502    0  0.49256361985E+02 -0.42722351345E+03  0.35618541976E+03  0.55840323503E+03  0.00000000000E+00 0.  1.
         13    1    4    4    0    0 -0.44802081693E+02 -0.20492308836E+03  0.10047855363E+04  0.10264476040E+04  0.10566000000E+00 0. -1.
         -4    1    4    4    0  501  0.38153254366E+03  0.19547192363E+03 -0.63376162149E+00  0.42869191321E+03  0.00000000000E+00 0. -1.
<mgrwt>
<rscale>  2 0.10328183E+04</rscale>
<asrwt>0</asrwt>
<pdfrwt beam="2">  1        2 0.71063447E-01 0.10328183E+04</pdfrwt>
<pdfrwt beam="1">  1       -2 0.35608004E+00 0.10328183E+04</pdfrwt>
<totfact> 0.73044186E-01</totfact>
</mgrwt>
</event>
<event>
 8    1  0.7046235E-006  0.1369531E+04  0.7818608E-02  0.8488784E-01
          1   -1    0    0  502    0  0.00000000000E+00  0.00000000000E+00  0.13646051880E+04  0.13646051880E+04  0.00000000000E+00 0.  1.
         -1   -1    0    0    0  501 -0.00000000000E+00 -0.00000000000E+00 -0.14256454742E+04  0.14256454742E+04  0.00000000000E+00 0. -1.
    9000010    2    1    2  502    0  0.31509312338E+03 -0.88376123177E+03 -0.29489311843E+03  0.14062238881E+04  0.10050801366E+04 0.  0.
   -9000010    2    1    2    0  501 -0.31509312338E+03  0.88376123177E+03  0.23385283224E+03  0.13840267741E+04  0.99021481164E+03 0.  0.
        -13    1    3    3    0    0 -0.17786912079E+03 -0.67567255920E+03 -0.47132643976E+03  0.84280451789E+03  0.10566000000E+00 0.  1.
          4    1    3    3  502    0  0.49296224417E+03 -0.20808867256E+03  0.17643332133E+03  0.56341937019E+03  0.00000000000E+00 0.  1.
         13    1    4    4    0    0  0.60162320943E+02 -0.20095419635E+03  0.86161140901E+02  0.22677267749E+03  0.10566000000E+00 0. -1.
         -4    1    4    4    0  501 -0.37525544432E+03  0.10847154281E+04  0.14769169134E+03  0.11572540966E+04  0.00000000000E+00 0. -1.
<mgrwt>
<rscale>  2 0.13695308E+04</rscale>
<asrwt>0</asrwt>
<pdfrwt beam="1">  1        1 0.20993926E+00 0.13695308E+04</pdfrwt>
<pdfrwt beam="2">  1       -1 0.21933007E+00 0.13695308E+04</pdfrwt>
<totfact> 0.96767501E-01</totfact>
</mgrwt>
</event>
<event>
 8    1  0.7046235E-006  0.1137400E+04  0.7818608E-02  0.8655254E-01
          1   -1    0    0  502    0  0.00000000000E+00  0.00000000000E+00  0.22168789148E+04  0.22168789148E+04  0.00000000000E+00 0.  1.
         -1   -1    0    0    0  501 -0.00000000000E+00 -0.00000000000E+00 -0.68001289611E+03  0.68001289611E+03  0.00000000000E+00 0. -1.
    9000010    2    1    2  502    0  0.16784187757E+03  0.62871790052E+03  0.12798276786E+04  0.16788844194E+04  0.87019360632E+03 0.  0.
   -9000010    2    1    2    0  501 -0.16784187757E+03 -0.62871790052E+03  0.25703834006E+03  0.12180073915E+04  0.99700361241E+03 0.  0.
        -13    1    3    3    0    0  0.82367240515E+02 -0.19174292466E+02 -0.11254498572E+03  0.14077784192E+03  0.10566000000E+00 0.  1.
          4    1    3    3  502    0  0.85474637060E+02  0.64789219298E+03  0.13923726643E+04  0.15381065775E+04  0.00000000000E+00 0.  1.
         13    1    4    4    0    0 -0.34814837035E+03 -0.69420103839E+03 -0.12870136805E+03  0.78720164048E+03  0.10566000000E+00 0. -1.
         -4    1    4    4    0  501  0.18030649277E+03  0.65483137875E+02  0.38573970812E+03  0.43080575100E+03  0.00000000000E+00 0. -1.
<mgrwt>
<rscale>  2 0.11373996E+04</rscale>
<asrwt>0</asrwt>
<pdfrwt beam="1">  1        1 0.34105829E+00 0.11373996E+04</pdfrwt>
<pdfrwt beam="2">  1       -1 0.10461737E+00 0.11373996E+04</pdfrwt>
<totfact> 0.23348319E+00</totfact>
</mgrwt>
</event>
<event>
 8    1  0.7046235E-006  0.1657078E+04  0.7818608E-02  0.8324424E-01
          2   -1    0    0  502    0  0.00000000000E+00  0.00000000000E+00  0.18621611128E+04  0.18621611128E+04  0.00000000000E+00 0.  1.
         -2   -1    0    0    0  501 -0.00000000000E+00 -0.00000000000E+00 -0.15159731333E+04  0.15159731333E+04  0.00000000000E+00 0. -1.
    9000010    2    1    2  502    0  0.71484031618E+03  0.11031753777E+04  0.45184030378E+03  0.17144014634E+04  0.10035039242E+04 0.  0.
   -9000010    2    1    2    0  501 -0.71484031618E+03 -0.11031753777E+04 -0.10565232433E+03  0.16637327827E+04  0.10143233049E+04 0.  0.
        -13    1    3    3    0    0  0.50120247156E+03  0.15795372958E+03 -0.18237544489E+03  0.55625004472E+03  0.10566000000E+00 0.  1.
          4    1    3    3  502    0  0.21363784463E+03  0.94522164814E+03  0.63421574867E+03  0.11581514187E+04  0.00000000000E+00 0.  1.
         13    1    4    4    0    0 -0.20759196563E+02  0.16515552352E+03  0.11339317742E+03  0.20140832913E+03  0.10566000000E+00 0. -1.
         -4    1    4    4    0  501 -0.69408111962E+03 -0.12683309012E+04 -0.21904550175E+03  0.14623244536E+04  0.00000000000E+00 0. -1.
<mgrwt>
<rscale>  2 0.16570778E+04</rscale>
<asrwt>0</asrwt>
<pdfrwt beam="1">  1        2 0.28648632E+00 0.16570778E+04</pdfrwt>
<pdfrwt beam="2">  1       -2 0.23322664E+00 0.16570778E+04</pdfrwt>
<totfact> 0.64438352E-01</totfact>
</mgrwt>
</event>
<event>
 8    1  0.7046235E-006  0.1204453E+04  0.7818608E-02  0.8603217E-01
          1   -1    0    0  502    0  0.00000000000E+00  0.00000000000E+00  0.20887845499E+04  0.20887845499E+04  0.00000000000E+00 0. -1.
         -1   -1    0    0    0  501 -0.00000000000E+00 -0.00000000000E+00 -0.95941726487E+03  0.95941726487E+03  0.00000000000E+00 0.  1.
    9000010    2    1    2  502    0 -0.67184151975E+03 -0.14617461985E+03 -0.23585008457E+03  0.12282184960E+04  0.99002897147E+03 0.  0.
   -9000010    2    1    2    0  501  0.67184151975E+03  0.14617461985E+03  0.13652173696E+04  0.18199833188E+04  0.98781717299E+03 0.  0.
        -13    1    3    3    0    0 -0.23597546375E+03 -0.14357637266E+03  0.38242315669E+03  0.47174789476E+03  0.10566000000E+00 0.  1.
          4    1    3    3  502    0 -0.43586605600E+03 -0.25982471888E+01 -0.61827324126E+03  0.75647060122E+03  0.00000000000E+00 0.  1.
         13    1    4    4    0    0 -0.23928996318E+03  0.14017144958E+03  0.20558543239E+03  0.34521457521E+03  0.10566000000E+00 0. -1.
         -4    1    4    4    0  501  0.91113148293E+03  0.60031702664E+01  0.11596319372E+04  0.14747687436E+04  0.00000000000E+00 0. -1.
<mgrwt>
<rscale>  2 0.12044528E+04</rscale>
<asrwt>0</asrwt>
<pdfrwt beam="1">  1        1 0.32135147E+00 0.12044528E+04</pdfrwt>
<pdfrwt beam="2">  1       -1 0.14760266E+00 0.12044528E+04</pdfrwt>
<totfact> 0.12160511E+00</totfact>
</mgrwt>
</event>
<event>
 8    1  0.7046235E-006  0.1188692E+04  0.7818608E-02  0.8615127E-01
         -1   -1    0    0    0  501 -0.00000000000E+00  0.00000000000E+00  0.72406330650E+03  0.72406330650E+03  0.00000000000E+00 0. -1.
          1   -1    0    0  502    0  0.00000000000E+00 -0.00000000000E+00 -0.20364971659E+04  0.20364971659E+04  0.00000000000E+00 0.  1.
    9000010    2    1    2  502    0 -0.57787354987E+03 -0.25042472652E+03 -0.36951483517E+03  0.12360505629E+04  0.99731108358E+03 0.  0.
   -9000010    2    1    2    0  501  0.57787354987E+03  0.25042472652E+03 -0.94291902421E+03  0.15245099094E+04  0.10190111847E+04 0.  0.
        -13    1    3    3    0    0 -0.34249349563E+03 -0.22238512194E+03 -0.71125477695E+03  0.82014651491E+03  0.10566000000E+00 0.  1.
          4    1    3    3  502    0 -0.23538005424E+03 -0.28039604580E+02  0.34173994178E+03  0.41590404803E+03  0.00000000000E+00 0.  1.
         13    1    4    4    0    0 -0.27044873489E+03  0.14302162670E+03 -0.42882905668E+03  0.52677516544E+03  0.10566000000E+00 0. -1.
         -4    1    4    4    0  501  0.84832228476E+03  0.10740309982E+03 -0.51408996753E+03  0.99773474401E+03  0.00000000000E+00 0. -1.
<mgrwt>
<rscale>  2 0.11886916E+04</rscale>
<asrwt>0</asrwt>
<pdfrwt beam="2">  1        1 0.31330726E+00 0.11886916E+04</pdfrwt>
<pdfrwt beam="1">  1       -1 0.11139435E+00 0.11886916E+04</pdfrwt>
<totfact> 0.27881789E+00</totfact>
</mgrwt>
</event>
<event>
 8    1  0.7046235E-006  0.1219386E+04  0.7818608E-02  0.8592105E-01
          1   -1    0    0  502    0  0.00000000000E+00  0.00000000000E+00  0.26091983661E+04  0.26091983661E+04  0.00000000000E+00 0.  1.
         -1   -1    0    0    0  501 -0.00000000000E+00 -0.00000000000E+00 -0.58104699412E+03  0.58104699412E+03  0.00000000000E+00 0. -1.
    9000010    2    1    2  502    0 -0.32422115349E+03 -0.59722639322E+03  0.78619878763E+03  0.14437675206E+04  0.10022761091E+04 0.  0.
   -9000010    2    1    2    0  501  0.32422115349E+03  0.59722639322E+03  0.12419525843E+04  0.17464778395E+04  0.10227120324E+04 0.  0.
        -13    1    3    3    0    0 -0.32975128804E+01  0.26146889295E+03  0.32635426228E+03  0.41819130938E+03  0.10566000000E+00 0.  1.
          4    1    3    3  502    0 -0.32092364061E+03 -0.85869528617E+03  0.45984452535E+03  0.10255762112E+04  0.00000000000E+00 0.  1.
         13    1    4    4    0    0  0.28123335550E+03 -0.89781261399E+02  0.95696112671E+03  0.10014626725E+04  0.10566000000E+00 0. -1.
         -4    1    4    4    0  501  0.42987797992E+02  0.68700765462E+03  0.28499145759E+03  0.74501516708E+03  0.00000000000E+00 0. -1.
<mgrwt>
<rscale>  2 0.12193865E+04</rscale>
<asrwt>0</asrwt>
<pdfrwt beam="1">  1        1 0.40141513E+00 0.12193865E+04</pdfrwt>
<pdfrwt beam="2">  1       -1 0.89391846E-01 0.12193865E+04</pdfrwt>
<totfact> 0.14663763E+00</totfact>
</mgrwt>
</event>
<event>
 8    1  0.7046235E-006  0.1356627E+04  0.7818608E-02  0.8497116E-01
          2   -1    0    0  502    0  0.00000000000E+00  0.00000000000E+00  0.14131066601E+04  0.14131066601E+04  0.00000000000E+00 0.  1.
         -2   -1    0    0    0  501 -0.00000000000E+00 -0.00000000000E+00 -0.13077079819E+04  0.13077079819E+04  0.00000000000E+00 0. -1.
    9000010    2    1    2  502    0  0.60805569517E+03 -0.68399814119E+03  0.13913567186E+03  0.13602895627E+04  0.99671649616E+03 0.  0.
   -9000010    2    1    2    0  501 -0.60805569517E+03  0.68399814119E+03 -0.33736993607E+02  0.13605250792E+04  0.10061337490E+04 0.  0.
        -13    1    3    3    0    0  0.59145407613E+03  0.72692054164E+02  0.77265825515E+02  0.60089273407E+03  0.10566000000E+00 0.  1.
          4    1    3    3  502    0  0.16601619045E+02 -0.75669019535E+03  0.61869846341E+02  0.75939682866E+03  0.00000000000E+00 0.  1.
         13    1    4    4    0    0 -0.91132828058E+02  0.79915792872E+03 -0.15028599221E+03  0.81825697553E+03  0.10566000000E+00 0. -1.
         -4    1    4    4    0  501 -0.51692286711E+03 -0.11515978753E+03  0.11654899860E+03  0.54226810369E+03  0.00000000000E+00 0. -1.
<mgrwt>
<rscale>  2 0.13566265E+04</rscale>
<asrwt>0</asrwt>
<pdfrwt beam="1">  1        2 0.21740102E+00 0.13566265E+04</pdfrwt>
<pdfrwt beam="2">  1       -2 0.20118584E+00 0.13566265E+04</pdfrwt>
<totfact> 0.21347879E+00</totfact>
</mgrwt>
</event>
<event>
 8    1  0.7046235E-006  0.1416921E+04  0.7818608E-02  0.8458976E-01
         -1   -1    0    0    0  501 -0.00000000000E+00  0.00000000000E+00  0.35050801163E+04  0.35050801163E+04  0.00000000000E+00 0. -1.
          1   -1    0    0  502    0  0.00000000000E+00 -0.00000000000E+00 -0.58202926756E+03  0.58202926756E+03  0.00000000000E+00 0.  1.
    9000010    2    1    2  502    0 -0.70644551622E+03 -0.71756710855E+03  0.17236067057E+04  0.22341741353E+04  0.10033674144E+04 0.  0.
   -9000010    2    1    2    0  501  0.70644551622E+03  0.71756710855E+03  0.11994441430E+04  0.18529352485E+04  0.99032063511E+03 0.  0.
        -13    1    3    3    0    0 -0.25617036109E+03 -0.82235516146E+03  0.69608748170E+03  0.11074425759E+04  0.10566000000E+00 0.  1.
          4    1    3    3  502    0 -0.45027515513E+03  0.10478805291E+03  0.10275192240E+04  0.11267315595E+04  0.00000000000E+00 0.  1.
         13    1    4    4    0    0  0.66766082702E+03  0.79376139246E+03  0.50568214585E+03  0.11539248554E+04  0.10566000000E+00 0. -1.
         -4    1    4    4    0  501  0.38784689205E+02 -0.76194283904E+02  0.69376199711E+03  0.69901039309E+03  0.00000000000E+00 0. -1.
<mgrwt>
<rscale>  2 0.14169214E+04</rscale>
<asrwt>0</asrwt>
<pdfrwt beam="2">  1        1 0.89542966E-01 0.14169214E+04</pdfrwt>
<pdfrwt beam="1">  1       -1 0.53924308E+00 0.14169214E+04</pdfrwt>
<totfact> 0.32223605E-01</totfact>
</mgrwt>
</event>
<event>
 8    1  0.7046235E-006  0.1216391E+04  0.7818608E-02  0.8594321E-01
         -1   -1    0    0    0  501 -0.00000000000E+00  0.00000000000E+00  0.15836425574E+04  0.15836425574E+04  0.00000000000E+00 0. -1.
          1   -1    0    0  502    0  0.00000000000E+00 -0.00000000000E+00 -0.13260452409E+04  0.13260452409E+04  0.00000000000E+00 0.  1.
    9000010    2    1    2  502    0  0.67967592073E+03 -0.66307617822E+02 -0.66248143104E+03  0.13782067760E+04  0.99710391315E+03 0.  0.
   -9000010    2    1    2    0  501 -0.67967592073E+03  0.66307617822E+02  0.92007874753E+03  0.15314810222E+04  0.10161363897E+04 0.  0.
        -13    1    3    3    0    0  0.54823876013E+03 -0.39537124118E+03 -0.59149191861E+02  0.67851513949E+03  0.10566000000E+00 0.  1.
          4    1    3    3  502    0  0.13143716060E+03  0.32906362336E+03 -0.60333223918E+03  0.69969163654E+03  0.00000000000E+00 0.  1.
         13    1    4    4    0    0  0.11157089387E+03  0.12935140752E+02 -0.15755528838E+03  0.19349176284E+03  0.10566000000E+00 0. -1.
         -4    1    4    4    0  501 -0.79124681460E+03  0.53372477069E+02  0.10776340359E+04  0.13379892594E+04  0.00000000000E+00 0. -1.
<mgrwt>
<rscale>  2 0.12163909E+04</rscale>
<asrwt>0</asrwt>
<pdfrwt beam="2">  1        1 0.20400696E+00 0.12163909E+04</pdfrwt>
<pdfrwt beam="1">  1       -1 0.24363732E+00 0.12163909E+04</pdfrwt>
<totfact> 0.62214623E-01</totfact>
</mgrwt>
</event>
<event>
 8    1  0.7046235E-006  0.1265456E+04  0.7818608E-02  0.8558838E-01
          1   -1    0    0  502    0  0.00000000000E+00  0.00000000000E+00  0.15129640726E+04  0.15129640726E+04  0.00000000000E+00 0.  1.
         -1   -1    0    0    0  501 -0.00000000000E+00 -0.00000000000E+00 -0.10754765665E+04  0.10754765665E+04  0.00000000000E+00 0. -1.
    9000010    2    1    2  502    0 -0.70994950495E+03 -0.41050144248E+03  0.58288620506E+02  0.12786027006E+04  0.97922804737E+03 0.  0.
   -9000010    2    1    2    0  501  0.70994950495E+03  0.41050144248E+03  0.37919888562E+03  0.13098379385E+04  0.94833743808E+03 0.  0.
        -13    1    3    3    0    0  0.91438706517E+02 -0.23279537282E+03 -0.29343881762E+03  0.38556591331E+03  0.10566000000E+00 0.  1.
          4    1    3    3  502    0 -0.80138821147E+03 -0.17770606966E+03  0.35172743812E+03  0.89303678726E+03  0.00000000000E+00 0.  1.
         13    1    4    4    0    0  0.25948077408E+03 -0.30384208705E+03  0.19872258268E+03  0.44625212830E+03  0.10566000000E+00 0. -1.
         -4    1    4    4    0  501  0.45046873087E+03  0.71434352953E+03  0.18047630294E+03  0.86358581021E+03  0.00000000000E+00 0. -1.
<mgrwt>
<rscale>  2 0.12654559E+04</rscale>
<asrwt>0</asrwt>
<pdfrwt beam="1">  1        1 0.23276370E+00 0.12654559E+04</pdfrwt>
<pdfrwt beam="2">  1       -1 0.16545793E+00 0.12654559E+04</pdfrwt>
<totfact> 0.22919010E+00</totfact>
</mgrwt>
</event>
<event>
 8    1  0.7046235E-006  0.1100882E+04  0.7818608E-02  0.8685189E-01
          2   -1    0    0  502    0  0.00000000000E+00  0.00000000000E+00  0.24294860223E+04  0.24294860223E+04  0.00000000000E+00 0.  1.
         -2   -1    0    0    0  501 -0.00000000000E+00 -0.00000000000E+00 -0.51776627228E+03  0.51776627228E+03  0.00000000000E+00 0. -1.
    9000010    2    1    2  502    0  0.16246665845E+03  0.16596167967E+03  0.12814368768E+04  0.17396254598E+04  0.11533765980E+04 0.  0.
   -9000010    2    1    2    0  501 -0.16246665845E+03 -0.16596167967E+03  0.63028287322E+03  0.12076268348E+04  0.10035772903E+04 0.  0.
        -13    1    3    3    0    0  0.19050171526E+03  0.29420733730E+03  0.14692521645E+04  0.15104803193E+04  0.10566000000E+00 0.  1.
          4    1    3    3  502    0 -0.28035056812E+02 -0.12824565763E+03 -0.18781528771E+03  0.22914514049E+03  0.00000000000E+00 0.  1.
         13    1    4    4    0    0 -0.47236715112E+03 -0.18197280850E+03  0.12407983494E+01  0.50620784193E+03  0.10566000000E+00 0. -1.
         -4    1    4    4    0  501  0.30990049267E+03  0.16011128830E+02  0.62904207487E+03  0.70141899287E+03  0.00000000000E+00 0. -1.
<mgrwt>
<rscale>  2 0.11008818E+04</rscale>
<asrwt>0</asrwt>
<pdfrwt beam="1">  1        2 0.37376707E+00 0.11008818E+04</pdfrwt>
<pdfrwt beam="2">  1       -2 0.79656351E-01 0.11008818E+04</pdfrwt>
<totfact> 0.82975896E+00</totfact>
</mgrwt>
</event>
<event>
 8    1  0.7046235E-006  0.2305625E+04  0.7818608E-02  0.8054207E-01
          1   -1    0    0  502    0  0.00000000000E+00  0.00000000000E+00  0.24191607518E+04  0.24191607518E+04  0.00000000000E+00 0.  1.
         -1   -1    0    0    0  501 -0.00000000000E+00 -0.00000000000E+00 -0.22064484769E+04  0.22064484769E+04  0.00000000000E+00 0. -1.
    9000010    2    1    2  502    0 -0.17442275498E+04 -0.11205661360E+04 -0.41705602197E+02  0.23035432614E+04  0.10032816102E+04 0.  0.
   -9000010    2    1    2    0  501  0.17442275498E+04  0.11205661360E+04  0.25441787707E+03  0.23220659673E+04  0.10145263376E+04 0.  0.
        -13    1    3    3    0    0 -0.80089326972E+03  0.46806414008E+02 -0.19810066170E+02  0.80250440482E+03  0.10566000000E+00 0.  1.
          4    1    3    3  502    0 -0.94333428006E+03 -0.11673725500E+04 -0.21895536028E+02  0.15010388566E+04  0.00000000000E+00 0.  1.
         13    1    4    4    0    0  0.13001186564E+03 -0.18325280571E+03 -0.33541525982E+02  0.22717773028E+03  0.10566000000E+00 0. -1.
         -4    1    4    4    0  501  0.16142156841E+04  0.13038189417E+04  0.28795940305E+03  0.20948882370E+04  0.00000000000E+00 0. -1.
<mgrwt>
<rscale>  2 0.23056246E+04</rscale>
<asrwt>0</asrwt>
<pdfrwt beam="1">  1        1 0.37217858E+00 0.23056246E+04</pdfrwt>
<pdfrwt beam="2">  1       -1 0.33945361E+00 0.23056246E+04</pdfrwt>
<totfact> 0.14450669E-02</totfact>
</mgrwt>
</event>
<event>
 8    1  0.7046235E-006  0.1273321E+04  0.7818608E-02  0.8553305E-01
          2   -1    0    0  502    0  0.00000000000E+00  0.00000000000E+00  0.18238869182E+04  0.18238869182E+04  0.00000000000E+00 0. -1.
         -2   -1    0    0    0  501 -0.00000000000E+00 -0.00000000000E+00 -0.91544220553E+03  0.91544220553E+03  0.00000000000E+00 0.  1.
    9000010    2    1    2  502    0 -0.61168978560E+03  0.56007058055E+03  0.69016731783E+03  0.14563757036E+04  0.97819007066E+03 0.  0.
   -9000010    2    1    2    0  501  0.61168978560E+03 -0.56007058055E+03  0.21827739483E+03  0.12829534202E+04  0.95419128490E+03 0.  0.
        -13    1    3    3    0    0 -0.19480885958E+03  0.33809500403E+03 -0.20757317409E+03  0.44197891045E+03  0.10566000000E+00 0.  1.
          4    1    3    3  502    0 -0.41688092602E+03  0.22197557652E+03  0.89774049191E+03  0.10143967931E+04  0.00000000000E+00 0.  1.
         13    1    4    4    0    0  0.40038689489E+03  0.38641472691E+02  0.45321363650E+03  0.60597478535E+03  0.10566000000E+00 0. -1.
         -4    1    4    4    0  501  0.21130289072E+03 -0.59871205324E+03 -0.23493624167E+03  0.67697863480E+03  0.00000000000E+00 0. -1.
<mgrwt>
<rscale>  2 0.12733209E+04</rscale>
<asrwt>0</asrwt>
<pdfrwt beam="1">  1        2 0.28059799E+00 0.12733209E+04</pdfrwt>
<pdfrwt beam="2">  1       -2 0.14083726E+00 0.12733209E+04</pdfrwt>
<totfact> 0.41957722E+00</totfact>
</mgrwt>
</event>
<event>
 8    1  0.7234849E-006  0.1751809E+04  0.7818608E-02  0.8277693E-01
          4   -1    0    0  502    0  0.00000000000E+00  0.00000000000E+00  0.17484582310E+04  0.17484582310E+04  0.00000000000E+00 0.  1.
         -4   -1    0    0    0  501 -0.00000000000E+00 -0.00000000000E+00 -0.36519312138E+04  0.36519312138E+04  0.00000000000E+00 0. -1.
    9000010    2    1    2  502    0 -0.12008854430E+04  0.79720702755E+03  0.99549177108E+03  0.20107543065E+04  0.98714949375E+03 0.  0.
   -9000010    2    1    2    0  501  0.12008854430E+04 -0.79720702755E+03 -0.28989647539E+04  0.33896351382E+04  0.10039745187E+04 0.  0.
        -13    1    3    3    0    0 -0.12005259346E+04  0.97389670737E+03  0.98651873603E+03  0.18338365642E+04  0.10566000000E+00 0.  1.
          4    1    3    3  502    0 -0.35950830778E+00 -0.17668967982E+03  0.89730350537E+01  0.17691774235E+03  0.00000000000E+00 0.  1.
         13    1    4    4    0    0 -0.77271975406E+02 -0.32655416769E+03 -0.98425325863E+03  0.10398860855E+04  0.10566000000E+00 0. -1.
         -4    1    4    4    0  501  0.12781574184E+04 -0.47065285986E+03 -0.19147114952E+04  0.23497490527E+04  0.00000000000E+00 0. -1.
<mgrwt>
<rscale>  2 0.17518087E+04</rscale>
<asrwt>0</asrwt>
<pdfrwt beam="1">  1        4 0.26899358E+00 0.17518087E+04</pdfrwt>
<pdfrwt beam="2">  1       -4 0.56183557E+00 0.17518087E+04</pdfrwt>
<totfact> 0.52364686E-03</totfact>
</mgrwt>
</event>
<event>
 8    1  0.7046235E-006  0.1229979E+04  0.7818608E-02  0.8584323E-01
          2   -1    0    0  502    0  0.00000000000E+00  0.00000000000E+00  0.21612897173E+04  0.21612897173E+04  0.00000000000E+00 0.  1.
         -2   -1    0    0    0  501 -0.00000000000E+00 -0.00000000000E+00 -0.71411600968E+03  0.71411600968E+03  0.00000000000E+00 0. -1.
    9000010    2    1    2  502    0  0.65294377280E+03  0.34646509682E+03  0.92225758021E+03  0.15324675412E+04  0.97546096124E+03 0.  0.
   -9000010    2    1    2    0  501 -0.65294377280E+03 -0.34646509682E+03  0.52491612740E+03  0.13429381857E+04  0.99074335536E+03 0.  0.
        -13    1    3    3    0    0  0.35926964374E+03  0.72476957678E+02 -0.14345586503E+03  0.39358249793E+03  0.10566000000E+00 0.  1.
          4    1    3    3  502    0  0.29367412906E+03  0.27398813914E+03  0.10657134452E+04  0.11388850433E+04  0.00000000000E+00 0.  1.
         13    1    4    4    0    0 -0.21329245252E+03 -0.21224916254E+03  0.76663838076E+03  0.82357622314E+03  0.10566000000E+00 0. -1.
         -4    1    4    4    0  501 -0.43965132028E+03 -0.13421593428E+03 -0.24172225336E+03  0.51936196261E+03  0.00000000000E+00 0. -1.
<mgrwt>
<rscale>  2 0.12299786E+04</rscale>
<asrwt>0</asrwt>
<pdfrwt beam="1">  1        2 0.33250611E+00 0.12299786E+04</pdfrwt>
<pdfrwt beam="2">  1       -2 0.10986400E+00 0.12299786E+04</pdfrwt>
<totfact> 0.54024598E+00</totfact>
</mgrwt>
</event>
<event>
 8    1  0.7046235E-006  0.1218487E+04  0.7818608E-02  0.8592770E-01
          2   -1    0    0  502    0  0.00000000000E+00  0.00000000000E+00  0.35036159330E+04  0.35036159330E+04  0.00000000000E+00 0. -1.
         -2   -1    0    0    0  501 -0.00000000000E+00 -0.00000000000E+00 -0.47531101187E+03  0.47531101187E+03  0.00000000000E+00 0.  1.
    9000010    2    1    2  502    0 -0.72016209486E+03 -0.15619254433E+01  0.21475142026E+04  0.24598595909E+04  0.95940402027E+03 0.  0.
   -9000010    2    1    2    0  501  0.72016209486E+03  0.15619254433E+01  0.88079071862E+03  0.15190673540E+04  0.10065472933E+04 0.  0.
        -13    1    3    3    0    0 -0.77626028629E+02 -0.40690382340E+03  0.52878960315E+03  0.67172537348E+03  0.10566000000E+00 0.  1.
          4    1    3    3  502    0 -0.64253606623E+03  0.40534189796E+03  0.16187245994E+04  0.17881342174E+04  0.00000000000E+00 0.  1.
         13    1    4    4    0    0  0.15791788390E+03 -0.45894411138E+03  0.50679936755E+03  0.70172171517E+03  0.10566000000E+00 0. -1.
         -4    1    4    4    0  501  0.56224421097E+03  0.46050603682E+03  0.37399135107E+03  0.81734563887E+03  0.00000000000E+00 0. -1.
<mgrwt>
<rscale>  2 0.12184866E+04</rscale>
<asrwt>0</asrwt>
<pdfrwt beam="1">  1        2 0.53901782E+00 0.12184866E+04</pdfrwt>
<pdfrwt beam="2">  1       -2 0.73124773E-01 0.12184866E+04</pdfrwt>
<totfact> 0.21081588E+00</totfact>
</mgrwt>
</event>
<event>
 8    1  0.7046235E-006  0.1537986E+04  0.7818608E-02  0.8387968E-01
         -1   -1    0    0    0  501 -0.00000000000E+00  0.00000000000E+00  0.10099041681E+04  0.10099041681E+04  0.00000000000E+00 0.  1.
          1   -1    0    0  502    0  0.00000000000E+00 -0.00000000000E+00 -0.26524245371E+04  0.26524245371E+04  0.00000000000E+00 0. -1.
    9000010    2    1    2  502    0 -0.46127139822E+02  0.11520548128E+04 -0.20791076665E+03  0.15777269689E+04  0.10567106968E+04 0.  0.
   -9000010    2    1    2    0  501  0.46127139822E+02 -0.11520548128E+04 -0.14346096024E+04  0.20846017363E+04  0.97882668696E+03 0.  0.
        -13    1    3    3    0    0  0.11691490489E+03  0.12649519918E+04 -0.36831787451E+03  0.13226604645E+04  0.10566000000E+00 0.  1.
          4    1    3    3  502    0 -0.16304204472E+03 -0.11289717905E+03  0.16040710786E+03  0.25506650434E+03  0.00000000000E+00 0.  1.
         13    1    4    4    0    0 -0.13554012612E+03 -0.58961455875E+02 -0.78781023526E+03  0.80155633427E+03  0.10566000000E+00 0. -1.
         -4    1    4    4    0  501  0.18166726594E+03 -0.10930933569E+04 -0.64679936714E+03  0.12830454020E+04  0.00000000000E+00 0. -1.
<mgrwt>
<rscale>  2 0.15379856E+04</rscale>
<asrwt>0</asrwt>
<pdfrwt beam="2">  1        1 0.40806532E+00 0.15379856E+04</pdfrwt>
<pdfrwt beam="1">  1       -1 0.15536987E+00 0.15379856E+04</pdfrwt>
<totfact> 0.32478542E-01</totfact>
</mgrwt>
</event>
<event>
 8    1  0.7046235E-006  0.1403222E+04  0.7818608E-02  0.8467468E-01
          2   -1    0    0  502    0  0.00000000000E+00  0.00000000000E+00  0.71782492475E+03  0.71782492475E+03  0.00000000000E+00 0.  1.
         -2   -1    0    0    0  501 -0.00000000000E+00 -0.00000000000E+00 -0.37680458633E+04  0.37680458633E+04  0.00000000000E+00 0. -1.
    9000010    2    1    2  502    0 -0.41756989211E+03  0.90664005251E+03 -0.26860257632E+04  0.30253706772E+04  0.97044965577E+03 0.  0.
   -9000010    2    1    2    0  501  0.41756989211E+03 -0.90664005251E+03 -0.36419517541E+03  0.14605001109E+04  0.10020287663E+04 0.  0.
        -13    1    3    3    0    0 -0.29479257401E+03  0.25368567022E+03 -0.17239539571E+03  0.42541657771E+03  0.10566000000E+00 0.  1.
          4    1    3    3  502    0 -0.12277731810E+03  0.65295438229E+03 -0.25136303675E+04  0.25999540995E+04  0.00000000000E+00 0.  1.
         13    1    4    4    0    0 -0.27343879209E+02 -0.72144467919E+03  0.16932167440E+03  0.74155239427E+03  0.10566000000E+00 0. -1.
         -4    1    4    4    0  501  0.44491377132E+03 -0.18519537332E+03 -0.53351684982E+03  0.71894771663E+03  0.00000000000E+00 0. -1.
<mgrwt>
<rscale>  2 0.14032219E+04</rscale>
<asrwt>0</asrwt>
<pdfrwt beam="1">  1        2 0.11043460E+00 0.14032219E+04</pdfrwt>
<pdfrwt beam="2">  1       -2 0.57969937E+00 0.14032219E+04</pdfrwt>
<totfact> 0.27413660E-01</totfact>
</mgrwt>
</event>
<event>
 8    1  0.7046235E-006  0.1083576E+04  0.7818608E-02  0.8699801E-01
          1   -1    0    0  502    0  0.00000000000E+00  0.00000000000E+00  0.16101375651E+04  0.16101375651E+04  0.00000000000E+00 0.  1.
         -1   -1    0    0    0  501 -0.00000000000E+00 -0.00000000000E+00 -0.73055810959E+03  0.73055810959E+03  0.00000000000E+00 0. -1.
    9000010    2    1    2  502    0 -0.37665520580E+02 -0.41187416123E+03  0.48915744162E+03  0.11871410991E+04  0.99948485248E+03 0.  0.
   -9000010    2    1    2    0  501  0.37665520580E+02  0.41187416123E+03  0.39042201385E+03  0.11535545756E+04  0.10035934405E+04 0.  0.
        -13    1    3    3    0    0 -0.85297959514E+02  0.58668216144E+02  0.67211329957E+03  0.68003970480E+03  0.10566000000E+00 0.  1.
          4    1    3    3  502    0  0.47632438935E+02 -0.47054237737E+03 -0.18295585795E+03  0.50710139430E+03  0.00000000000E+00 0.  1.
         13    1    4    4    0    0  0.95845110288E+01 -0.11570424092E+03 -0.27816298182E+03  0.30141995594E+03  0.10566000000E+00 0. -1.
         -4    1    4    4    0  501  0.28081009551E+02  0.52757840215E+03  0.66858499567E+03  0.85213461961E+03  0.00000000000E+00 0. -1.
<mgrwt>
<rscale>  2 0.10835759E+04</rscale>
<asrwt>0</asrwt>
<pdfrwt beam="1">  1        1 0.24771347E+00 0.10835759E+04</pdfrwt>
<pdfrwt beam="2">  1       -1 0.11239356E+00 0.10835759E+04</pdfrwt>
<totfact> 0.57793953E+00</totfact>
</mgrwt>
</event>
<event>
 8    1  0.7046235E-006  0.1732612E+04  0.7818608E-02  0.8286913E-01
          2   -1    0    0  502    0  0.00000000000E+00  0.00000000000E+00  0.33008748627E+04  0.33008748627E+04  0.00000000000E+00 0. -1.
         -2   -1    0    0    0  501 -0.00000000000E+00 -0.00000000000E+00 -0.90975622479E+03  0.90975622479E+03  0.00000000000E+00 0.  1.
    9000010    2    1    2  502    0  0.13950444841E+04 -0.18046029486E+03  0.12247880821E+04  0.21127354123E+04  0.99238603658E+03 0.  0.
   -9000010    2    1    2    0  501 -0.13950444841E+04  0.18046029486E+03  0.11663305558E+04  0.20978956752E+04  0.10305941335E+04 0.  0.
        -13    1    3    3    0    0  0.87627569970E+03 -0.52952646954E+02  0.13047359496E+04  0.15725771822E+04  0.10566000000E+00 0.  1.
          4    1    3    3  502    0  0.51876878441E+03 -0.12750764791E+03 -0.79947867531E+02  0.54015823003E+03  0.00000000000E+00 0.  1.
         13    1    4    4    0    0 -0.97807820967E+03 -0.33015975280E+03  0.45520457443E+03  0.11282081645E+04  0.10566000000E+00 0. -1.
         -4    1    4    4    0  501 -0.41696627444E+03  0.51062004766E+03  0.71112598136E+03  0.96968751073E+03  0.00000000000E+00 0. -1.
<mgrwt>
<rscale>  2 0.17326117E+04</rscale>
<asrwt>0</asrwt>
<pdfrwt beam="1">  1        2 0.50782690E+00 0.17326117E+04</pdfrwt>
<pdfrwt beam="2">  1       -2 0.13996250E+00 0.17326117E+04</pdfrwt>
<totfact> 0.55821263E-01</totfact>
</mgrwt>
</event>
<event>
 8    1  0.7046235E-006  0.1211350E+04  0.7818608E-02  0.8598064E-01
         -1   -1    0    0    0  501 -0.00000000000E+00  0.00000000000E+00  0.77400215162E+03  0.77400215162E+03  0.00000000000E+00 0. -1.
          1   -1    0    0  502    0  0.00000000000E+00 -0.00000000000E+00 -0.22265906563E+04  0.22265906563E+04  0.00000000000E+00 0.  1.
    9000010    2    1    2  502    0  0.61475899497E+03 -0.30906937936E+03 -0.12954671202E+04  0.17620656065E+04  0.97631328938E+03 0.  0.
   -9000010    2    1    2    0  501 -0.61475899497E+03  0.30906937936E+03 -0.15712138447E+03  0.12385272014E+04  0.10177475109E+04 0.  0.
        -13    1    3    3    0    0  0.67222146103E+03  0.61735533746E+02 -0.11968416205E+04  0.13740898241E+04  0.10566000000E+00 0.  1.
          4    1    3    3  502    0 -0.57462466052E+02 -0.37080491310E+03 -0.98625499650E+02  0.38797578245E+03  0.00000000000E+00 0.  1.
         13    1    4    4    0    0 -0.71155658247E+03  0.13496939844E+03 -0.47304635302E+03  0.86504472245E+03  0.10566000000E+00 0. -1.
         -4    1    4    4    0  501  0.96797587498E+02  0.17409998092E+03  0.31592496856E+03  0.37348247892E+03  0.00000000000E+00 0. -1.
<mgrwt>
<rscale>  2 0.12113505E+04</rscale>
<asrwt>0</asrwt>
<pdfrwt beam="2">  1        1 0.34255241E+00 0.12113505E+04</pdfrwt>
<pdfrwt beam="1">  1       -1 0.11907725E+00 0.12113505E+04</pdfrwt>
<totfact> 0.16792060E+00</totfact>
</mgrwt>
</event>
<event>
 8    1  0.7046235E-006  0.1482445E+04  0.7818608E-02  0.8419674E-01
          2   -1    0    0  502    0  0.00000000000E+00  0.00000000000E+00  0.32667342307E+04  0.32667342307E+04  0.00000000000E+00 0.  1.
         -2   -1    0    0    0  501 -0.00000000000E+00 -0.00000000000E+00 -0.68583398583E+03  0.68583398583E+03  0.00000000000E+00 0. -1.
    9000010    2    1    2  502    0 -0.10993963939E+04 -0.81031669111E+02  0.10108967008E+04  0.17879297806E+04  0.97956224841E+03 0.  0.
   -9000010    2    1    2    0  501  0.10993963939E+04  0.81031669111E+02  0.15700035441E+04  0.21646384359E+04  0.10027511493E+04 0.  0.
        -13    1    3    3    0    0 -0.39685343211E+03  0.40904380172E+03  0.18802910552E+03  0.60013701268E+03  0.10566000000E+00 0.  1.
          4    1    3    3  502    0 -0.70254296179E+03 -0.49007547083E+03  0.82286759526E+03  0.11877927680E+04  0.00000000000E+00 0.  1.
         13    1    4    4    0    0  0.11244053034E+04  0.22529985528E+03  0.16409465466E+04  0.20019372844E+04  0.10566000000E+00 0. -1.
         -4    1    4    4    0  501 -0.25008909471E+02 -0.14426818617E+03 -0.70943002452E+02  0.16270115147E+03  0.00000000000E+00 0. -1.
<mgrwt>
<rscale>  2 0.14824454E+04</rscale>
<asrwt>0</asrwt>
<pdfrwt beam="1">  1        2 0.50257449E+00 0.14824454E+04</pdfrwt>
<pdfrwt beam="2">  1       -2 0.10551292E+00 0.14824454E+04</pdfrwt>
<totfact> 0.12916900E+00</totfact>
</mgrwt>
</event>
<event>
 8    1  0.7046235E-006  0.1319537E+04  0.7818608E-02  0.8521604E-01
          2   -1    0    0  502    0  0.00000000000E+00  0.00000000000E+00  0.37367245374E+04  0.37367245374E+04  0.00000000000E+00 0. -1.
         -2   -1    0    0    0  501 -0.00000000000E+00 -0.00000000000E+00 -0.51571575700E+03  0.51571575700E+03  0.00000000000E+00 0.  1.
    9000010    2    1    2  502    0 -0.69204470915E+03  0.50635695408E+03  0.94490886796E+03  0.16191169869E+04  0.99667637889E+03 0.  0.
   -9000010    2    1    2    0  501  0.69204470915E+03 -0.50635695408E+03  0.22760999124E+04  0.26333233074E+04  0.10091766871E+04 0.  0.
        -13    1    3    3    0    0  0.23170505560E+03  0.23135124219E+01  0.48459576340E+02  0.23672964925E+03  0.10566000000E+00 0.  1.
          4    1    3    3  502    0 -0.92374976475E+03  0.50404344166E+03  0.89644929162E+03  0.13823873377E+04  0.00000000000E+00 0.  1.
         13    1    4    4    0    0  0.53854180997E+03 -0.57897191515E+03  0.23256772194E+04  0.24564222560E+04  0.10566000000E+00 0. -1.
         -4    1    4    4    0  501  0.15350289918E+03  0.72614961063E+02 -0.49577307017E+02  0.17690105143E+03  0.00000000000E+00 0. -1.
<mgrwt>
<rscale>  2 0.13195373E+04</rscale>
<asrwt>0</asrwt>
<pdfrwt beam="1">  1        2 0.57488068E+00 0.13195373E+04</pdfrwt>
<pdfrwt beam="2">  1       -2 0.79340888E-01 0.13195373E+04</pdfrwt>
<totfact> 0.11401807E+00</totfact>
</mgrwt>
</event>
<event>
 8    1  0.7046235E-006  0.1296666E+04  0.7818608E-02  0.8537121E-01
          4   -1    0    0  502    0  0.00000000000E+00  0.00000000000E+00  0.11065683509E+04  0.11065683509E+04  0.00000000000E+00 0.  1.
         -4   -1    0    0    0  501 -0.00000000000E+00 -0.00000000000E+00 -0.20128246204E+04  0.20128246204E+04  0.00000000000E+00 0. -1.
    9000010    2    1    2  502    0 -0.81838211505E+03 -0.10192369731E+03  0.32067808095E+03  0.13297679858E+04  0.99262819733E+03 0.  0.
   -9000010    2    1    2    0  501  0.81838211505E+03  0.10192369731E+03 -0.12269343505E+04  0.17896249855E+04  0.10085890947E+04 0.  0.
        -13    1    3    3    0    0 -0.36513274235E+03 -0.19441198635E+03 -0.33155955014E+03  0.53014119481E+03  0.10566000000E+00 0.  1.
          4    1    3    3  502    0 -0.45324937269E+03  0.92488289039E+02  0.65223763109E+03  0.79962679098E+03  0.00000000000E+00 0.  1.
         13    1    4    4    0    0  0.44843976979E+03  0.50597112321E+03 -0.97541778971E+03  0.11868213346E+04  0.10566000000E+00 0. -1.
         -4    1    4    4    0  501  0.36994234526E+03 -0.40404742590E+03 -0.25151656082E+03  0.60280365092E+03  0.00000000000E+00 0. -1.
<mgrwt>
<rscale>  2 0.12966662E+04</rscale>
<asrwt>0</asrwt>
<pdfrwt beam="1">  1        4 0.17024129E+00 0.12966662E+04</pdfrwt>
<pdfrwt beam="2">  1       -4 0.30966532E+00 0.12966662E+04</pdfrwt>
<totfact> 0.11802005E-01</totfact>
</mgrwt>
</event>
<event>
 8    1  0.7046235E-006  0.1213675E+04  0.7818608E-02  0.8596336E-01
         -2   -1    0    0    0  501 -0.00000000000E+00  0.00000000000E+00  0.68257492761E+03  0.68257492761E+03  0.00000000000E+00 0.  1.
          2   -1    0    0  502    0  0.00000000000E+00 -0.00000000000E+00 -0.22110006933E+04  0.22110006933E+04  0.00000000000E+00 0. -1.
    9000010    2    1    2  502    0 -0.53462935492E+03  0.44547234361E+03 -0.98233487962E+03  0.15543747806E+04  0.98327259021E+03 0.  0.
   -9000010    2    1    2    0  501  0.53462935492E+03 -0.44547234361E+03 -0.54609088604E+03  0.13392008403E+04  0.10054697802E+04 0.  0.
        -13    1    3    3    0    0 -0.44741139772E+03 -0.77656244882E+02 -0.91276231458E+03  0.10194814884E+04  0.10566000000E+00 0.  1.
          4    1    3    3  502    0 -0.87217957196E+02  0.52312858849E+03 -0.69572565048E+02  0.53489329213E+03  0.00000000000E+00 0.  1.
         13    1    4    4    0    0 -0.34444038021E+02 -0.60585441839E+03 -0.41042283876E+03  0.73259326081E+03  0.10566000000E+00 0. -1.
         -4    1    4    4    0  501  0.56907339294E+03  0.16038207478E+03 -0.13566804728E+03  0.60660757951E+03  0.00000000000E+00 0. -1.
<mgrwt>
<rscale>  2 0.12136746E+04</rscale>
<asrwt>0</asrwt>
<pdfrwt beam="2">  1        2 0.34015395E+00 0.12136746E+04</pdfrwt>
<pdfrwt beam="1">  1       -2 0.10501153E+00 0.12136746E+04</pdfrwt>
<totfact> 0.56876102E+00</totfact>
</mgrwt>
</event>
<event>
 8    1  0.7046235E-006  0.1337939E+04  0.7818608E-02  0.8509352E-01
          4   -1    0    0  502    0  0.00000000000E+00  0.00000000000E+00  0.15546318390E+04  0.15546318390E+04  0.00000000000E+00 0.  1.
         -4   -1    0    0    0  501 -0.00000000000E+00 -0.00000000000E+00 -0.12954775953E+04  0.12954775953E+04  0.00000000000E+00 0. -1.
    9000010    2    1    2  502    0  0.40531241369E+03 -0.80259452425E+03  0.60512049805E+03  0.14727753572E+04  0.99722630953E+03 0.  0.
   -9000010    2    1    2    0  501 -0.40531241369E+03  0.80259452425E+03 -0.34596625439E+03  0.13773340772E+04  0.98433753759E+03 0.  0.
        -13    1    3    3    0    0  0.31565232449E+03  0.12750313234E+03  0.38280723964E+03  0.51228393748E+03  0.10566000000E+00 0.  1.
          4    1    3    3  502    0  0.89660089195E+02 -0.93009765660E+03  0.22231325841E+03  0.96049141967E+03  0.00000000000E+00 0.  1.
         13    1    4    4    0    0  0.28030569899E+03  0.21384039097E+03  0.10429217175E+03  0.36766270677E+03  0.10566000000E+00 0. -1.
         -4    1    4    4    0  501 -0.68561811268E+03  0.58875413329E+03 -0.45025842614E+03  0.10096713704E+04  0.00000000000E+00 0. -1.
<mgrwt>
<rscale>  2 0.13379391E+04</rscale>
<asrwt>0</asrwt>
<pdfrwt beam="1">  1        4 0.23917413E+00 0.13379391E+04</pdfrwt>
<pdfrwt beam="2">  1       -4 0.19930424E+00 0.13379391E+04</pdfrwt>
<totfact> 0.14336262E-01</totfact>
</mgrwt>
</event>
<event>
 8    1  0.7046235E-006  0.1281384E+04  0.7818608E-02  0.8547675E-01
          2   -1    0    0  502    0  0.00000000000E+00  0.00000000000E+00  0.34014177966E+04  0.34014177966E+04  0.00000000000E+00 0. -1.
         -2   -1    0    0    0  501 -0.00000000000E+00 -0.00000000000E+00 -0.48390611494E+03  0.48390611494E+03  0.00000000000E+00 0.  1.
    9000010    2    1    2  502    0 -0.69319448447E+03 -0.40138427088E+03  0.15490530185E+04  0.20072937466E+04  0.99399949944E+03 0.  0.
   -9000010    2    1    2    0  501  0.69319448447E+03  0.40138427088E+03  0.13684586632E+04  0.18780301650E+04  0.10063251271E+04 0.  0.
        -13    1    3    3    0    0 -0.62125629047E+03 -0.19662218355E+03  0.26241934970E+03  0.70248387011E+03  0.10566000000E+00 0.  1.
          4    1    3    3  502    0 -0.71938194008E+02 -0.20476208733E+03  0.12866336688E+04  0.13048098765E+04  0.00000000000E+00 0.  1.
         13    1    4    4    0    0  0.86306493955E+03  0.56567211880E+03  0.12244330154E+04  0.16012814419E+04  0.10566000000E+00 0. -1.
         -4    1    4    4    0  501 -0.16987045508E+03 -0.16428784792E+03  0.14402564785E+03  0.27674872307E+03  0.00000000000E+00 0. -1.
<mgrwt>
<rscale>  2 0.12813837E+04</rscale>
<asrwt>0</asrwt>
<pdfrwt beam="1">  1        2 0.52329503E+00 0.12813837E+04</pdfrwt>
<pdfrwt beam="2">  1       -2 0.74447097E-01 0.12813837E+04</pdfrwt>
<totfact> 0.23819310E+00</totfact>
</mgrwt>
</event>
<event>
 8    1  0.7046235E-006  0.1278895E+04  0.7818608E-02  0.8549408E-01
         -1   -1    0    0    0  501 -0.00000000000E+00  0.00000000000E+00  0.16062230724E+04  0.16062230724E+04  0.00000000000E+00 0.  1.
          1   -1    0    0  502    0  0.00000000000E+00 -0.00000000000E+00 -0.12600318283E+04  0.12600318283E+04  0.00000000000E+00 0. -1.
    9000010    2    1    2  502    0  0.52310794828E+03  0.58139001450E+03  0.80030019233E+03  0.15046239384E+04  0.10058610856E+04 0.  0.
   -9000010    2    1    2    0  501 -0.52310794828E+03 -0.58139001450E+03 -0.45410894820E+03  0.13616309624E+04  0.10179232124E+04 0.  0.
        -13    1    3    3    0    0  0.64162465675E+02 -0.27633654558E+03  0.81763951587E+02  0.29523560654E+03  0.10566000000E+00 0.  1.
          4    1    3    3  502    0  0.45894548260E+03  0.85772656008E+03  0.71853624074E+03  0.12093883318E+04  0.00000000000E+00 0.  1.
         13    1    4    4    0    0 -0.69831388024E+03 -0.74961423149E+03 -0.27774812712E+03  0.10614649333E+04  0.10566000000E+00 0. -1.
         -4    1    4    4    0  501  0.17520593196E+03  0.16822421699E+03 -0.17636082108E+03  0.30016602904E+03  0.00000000000E+00 0. -1.
<mgrwt>
<rscale>  2 0.12788952E+04</rscale>
<asrwt>0</asrwt>
<pdfrwt beam="2">  1        1 0.19385105E+00 0.12788952E+04</pdfrwt>
<pdfrwt beam="1">  1       -1 0.24711124E+00 0.12788952E+04</pdfrwt>
<totfact> 0.64061861E-01</totfact>
</mgrwt>
</event>
<event>
 8    1  0.7046235E-006  0.1351851E+04  0.7818608E-02  0.8500223E-01
         -2   -1    0    0    0  501 -0.00000000000E+00  0.00000000000E+00  0.10061172527E+04  0.10061172527E+04  0.00000000000E+00 0.  1.
          2   -1    0    0  502    0  0.00000000000E+00 -0.00000000000E+00 -0.19820270556E+04  0.19820270556E+04  0.00000000000E+00 0. -1.
    9000010    2    1    2  502    0 -0.47573081027E+03 -0.75566160587E+03 -0.51713474093E+02  0.13390108427E+04  0.99645947590E+03 0.  0.
   -9000010    2    1    2    0  501  0.47573081027E+03  0.75566160587E+03 -0.92419632878E+03  0.16491334656E+04  0.10335173278E+04 0.  0.
        -13    1    3    3    0    0  0.28991446454E+03 -0.17712680820E+03  0.12731061919E+03  0.36281166996E+03  0.10566000000E+00 0.  1.
          4    1    3    3  502    0 -0.76564527481E+03 -0.57853479766E+03 -0.17902409328E+03  0.97619917278E+03  0.00000000000E+00 0.  1.
         13    1    4    4    0    0  0.53136926101E+03  0.33818170638E+03  0.39810414886E+01  0.62986984206E+03  0.10566000000E+00 0. -1.
         -4    1    4    4    0  501 -0.55638450740E+02  0.41747989948E+03 -0.92817737027E+03  0.10192636236E+04  0.00000000000E+00 0. -1.
<mgrwt>
<rscale>  2 0.13518513E+04</rscale>
<asrwt>0</asrwt>
<pdfrwt beam="2">  1        2 0.30492724E+00 0.13518513E+04</pdfrwt>
<pdfrwt beam="1">  1       -2 0.15478727E+00 0.13518513E+04</pdfrwt>
<totfact> 0.25641576E+00</totfact>
</mgrwt>
</event>
<event>
 8    1  0.7046235E-006  0.1365699E+04  0.7818608E-02  0.8491248E-01
         -2   -1    0    0    0  501 -0.00000000000E+00  0.00000000000E+00  0.14454840196E+04  0.14454840196E+04  0.00000000000E+00 0. -1.
          2   -1    0    0  502    0  0.00000000000E+00 -0.00000000000E+00 -0.13767700486E+04  0.13767700486E+04  0.00000000000E+00 0.  1.
    9000010    2    1    2  502    0 -0.73095737653E+03  0.56712190944E+03  0.38805216366E+03  0.14253011594E+04  0.10124094857E+04 0.  0.
   -9000010    2    1    2    0  501  0.73095737653E+03 -0.56712190944E+03 -0.31933819269E+03  0.13969529088E+04  0.99678212351E+03 0.  0.
        -13    1    3    3    0    0 -0.24695983252E+03  0.73562137715E+03  0.46865332639E+03  0.90651195298E+03  0.10566000000E+00 0.  1.
          4    1    3    3  502    0 -0.48399754401E+03 -0.16849946772E+03 -0.80601162733E+02  0.51878920639E+03  0.00000000000E+00 0.  1.
         13    1    4    4    0    0  0.61393336156E+03 -0.78567851980E+03 -0.47475191528E+03  0.11043524352E+04  0.10566000000E+00 0. -1.
         -4    1    4    4    0  501  0.11702401497E+03  0.21855661036E+03  0.15541372258E+03  0.29260047365E+03  0.00000000000E+00 0. -1.
<mgrwt>
<rscale>  2 0.13656990E+04</rscale>
<asrwt>0</asrwt>
<pdfrwt beam="2">  1        2 0.21181078E+00 0.13656990E+04</pdfrwt>
<pdfrwt beam="1">  1       -2 0.22238216E+00 0.13656990E+04</pdfrwt>
<totfact> 0.14968062E+00</totfact>
</mgrwt>
</event>
<event>
 8    1  0.7046235E-006  0.1201679E+04  0.7818608E-02  0.8605299E-01
          2   -1    0    0  502    0  0.00000000000E+00  0.00000000000E+00  0.15794671753E+04  0.15794671753E+04  0.00000000000E+00 0.  1.
         -2   -1    0    0    0  501 -0.00000000000E+00 -0.00000000000E+00 -0.92762819512E+03  0.92762819512E+03  0.00000000000E+00 0. -1.
    9000010    2    1    2  502    0  0.43819159136E+03 -0.48919044211E+03  0.47603532705E+03  0.12911285744E+04  0.10045318331E+04 0.  0.
   -9000010    2    1    2    0  501 -0.43819159136E+03  0.48919044211E+03  0.17580365317E+03  0.12159667960E+04  0.10081414411E+04 0.  0.
        -13    1    3    3    0    0 -0.78746005574E+02  0.15275376302E+02 -0.25267560491E+03  0.26510232552E+03  0.10566000000E+00 0.  1.
          4    1    3    3  502    0  0.51693759694E+03 -0.50446581842E+03  0.72871093197E+03  0.10260262489E+04  0.00000000000E+00 0.  1.
         13    1    4    4    0    0 -0.29222877177E+03  0.15580599651E+03 -0.40955473720E+03  0.52669560234E+03  0.10566000000E+00 0. -1.
         -4    1    4    4    0  501 -0.14596281959E+03  0.33338444561E+03  0.58535839037E+03  0.68927119369E+03  0.00000000000E+00 0. -1.
<mgrwt>
<rscale>  2 0.12016785E+04</rscale>
<asrwt>0</asrwt>
<pdfrwt beam="1">  1        2 0.24299495E+00 0.12016785E+04</pdfrwt>
<pdfrwt beam="2">  1       -2 0.14271203E+00 0.12016785E+04</pdfrwt>
<totfact> 0.55252618E+00</totfact>
</mgrwt>
</event>
<event>
 8    1  0.7046235E-006  0.1327491E+04  0.7818608E-02  0.8516283E-01
          2   -1    0    0  502    0  0.00000000000E+00  0.00000000000E+00  0.26058626677E+04  0.26058626677E+04  0.00000000000E+00 0.  1.
         -2   -1    0    0    0  501 -0.00000000000E+00 -0.00000000000E+00 -0.67853479784E+03  0.67853479784E+03  0.00000000000E+00 0. -1.
    9000010    2    1    2  502    0 -0.82462254987E+03 -0.81777120033E+02  0.87851603760E+03  0.16020730854E+04  0.10526907882E+04 0.  0.
   -9000010    2    1    2    0  501  0.82462254987E+03  0.81777120033E+02  0.10488118323E+04  0.16823243801E+04  0.10215278818E+04 0.  0.
        -13    1    3    3    0    0 -0.10374953093E+04  0.59634143481E+02  0.52069023197E+03  0.11623558305E+04  0.10566000000E+00 0.  1.
          4    1    3    3  502    0  0.21287275939E+03 -0.14141126351E+03  0.35782580563E+03  0.43971725496E+03  0.00000000000E+00 0.  1.
         13    1    4    4    0    0  0.75002887292E+03 -0.28535794804E+03  0.10320337197E+04  0.13073125404E+04  0.10566000000E+00 0. -1.
         -4    1    4    4    0  501  0.74593676943E+02  0.36713506807E+03  0.16778112638E+02  0.37501183970E+03  0.00000000000E+00 0. -1.
<mgrwt>
<rscale>  2 0.13274909E+04</rscale>
<asrwt>0</asrwt>
<pdfrwt beam="1">  1        2 0.40090194E+00 0.13274909E+04</pdfrwt>
<pdfrwt beam="2">  1       -2 0.10438997E+00 0.13274909E+04</pdfrwt>
<totfact> 0.34358308E+00</totfact>
</mgrwt>
</event>
<event>
 8    1  0.7046235E-006  0.1529212E+04  0.7818608E-02  0.8392883E-01
         -2   -1    0    0    0  501 -0.00000000000E+00  0.00000000000E+00  0.13091436207E+04  0.13091436207E+04  0.00000000000E+00 0.  1.
          2   -1    0    0  502    0  0.00000000000E+00 -0.00000000000E+00 -0.17923709890E+04  0.17923709890E+04  0.00000000000E+00 0. -1.
    9000010    2    1    2  502    0 -0.13102895342E+03 -0.11618196177E+04 -0.32808199064E+03  0.15484563254E+04  0.96077353643E+03 0.  0.
   -9000010    2    1    2    0  501  0.13102895342E+03  0.11618196177E+04 -0.15514537763E+03  0.15530582843E+04  0.10104090930E+04 0.  0.
        -13    1    3    3    0    0  0.17016435827E+03 -0.20645345030E+02  0.19314104283E+03  0.25823557595E+03  0.10566000000E+00 0.  1.
          4    1    3    3  502    0 -0.30119331169E+03 -0.11411742727E+04 -0.52122303347E+03  0.12902207495E+04  0.00000000000E+00 0.  1.
         13    1    4    4    0    0 -0.33712624756E+03  0.62321424302E+03 -0.38106259028E+03  0.80452396383E+03  0.10566000000E+00 0. -1.
         -4    1    4    4    0  501  0.46815520098E+03  0.53860537472E+03  0.22591721266E+03  0.74853432043E+03  0.00000000000E+00 0. -1.
<mgrwt>
<rscale>  2 0.15292115E+04</rscale>
<asrwt>0</asrwt>
<pdfrwt beam="2">  1        2 0.27574938E+00 0.15292115E+04</pdfrwt>
<pdfrwt beam="1">  1       -2 0.20140671E+00 0.15292115E+04</pdfrwt>
<totfact> 0.12937589E+00</totfact>
</mgrwt>
</event>
<event>
 8    1  0.7046235E-006  0.1342367E+04  0.7818608E-02  0.8506434E-01
         -2   -1    0    0    0  501 -0.00000000000E+00  0.00000000000E+00  0.82009297071E+03  0.82009297071E+03  0.00000000000E+00 0.  1.
          2   -1    0    0  502    0  0.00000000000E+00 -0.00000000000E+00 -0.22093569153E+04  0.22093569153E+04  0.00000000000E+00 0. -1.
    9000010    2    1    2  502    0 -0.88742280321E+03 -0.15233746157E+03 -0.58492205923E+03  0.14683886506E+04  0.10016513764E+04 0.  0.
   -9000010    2    1    2    0  501  0.88742280321E+03  0.15233746157E+03 -0.80434188531E+03  0.15610612354E+04  0.98955564694E+03 0.  0.
        -13    1    3    3    0    0 -0.52509137166E+03 -0.17297338423E+03  0.21248760686E+03  0.59227673809E+03  0.10566000000E+00 0.  1.
          4    1    3    3  502    0 -0.36233143155E+03  0.20635922660E+02 -0.79740966609E+03  0.87611191247E+03  0.00000000000E+00 0.  1.
         13    1    4    4    0    0 -0.77724807956E+02 -0.27143454982E+03 -0.20023127233E+03  0.34613643869E+03  0.10566000000E+00 0. -1.
         -4    1    4    4    0  501  0.96514761116E+03  0.42377201139E+03 -0.60411061298E+03  0.12149247967E+04  0.00000000000E+00 0. -1.
<mgrwt>
<rscale>  2 0.13423668E+04</rscale>
<asrwt>0</asrwt>
<pdfrwt beam="2">  1        2 0.33990106E+00 0.13423668E+04</pdfrwt>
<pdfrwt beam="1">  1       -2 0.12616815E+00 0.13423668E+04</pdfrwt>
<totfact> 0.34991662E+00</totfact>
</mgrwt>
</event>
<event>
 8    1  0.7046235E-006  0.1431430E+04  0.7818608E-02  0.8450088E-01
          4   -1    0    0  502    0  0.00000000000E+00  0.00000000000E+00  0.42842517949E+04  0.42842517949E+04  0.00000000000E+00 0.  1.
         -4   -1    0    0    0  501 -0.00000000000E+00 -0.00000000000E+00 -0.63467791023E+03  0.63467791023E+03  0.00000000000E+00 0. -1.
    9000010    2    1    2  502    0  0.16143393057E+03 -0.10199364117E+04  0.30596132942E+04  0.33841808830E+04  0.10124798964E+04 0.  0.
   -9000010    2    1    2    0  501 -0.16143393057E+03  0.10199364117E+04  0.58996059041E+03  0.15347488221E+04  0.97008723881E+03 0.  0.
        -13    1    3    3    0    0  0.39728258798E+03 -0.57451493141E+03  0.26323252263E+04  0.27234237587E+04  0.10566000000E+00 0.  1.
          4    1    3    3  502    0 -0.23584865741E+03 -0.44542148030E+03  0.42728806791E+03  0.66075712429E+03  0.00000000000E+00 0.  1.
         13    1    4    4    0    0  0.79701922481E+02  0.65622058317E+03 -0.14800616893E+03  0.67740954188E+03  0.10566000000E+00 0. -1.
         -4    1    4    4    0  501 -0.24113585306E+03  0.36371582854E+03  0.73796675934E+03  0.85733928024E+03  0.00000000000E+00 0. -1.
<mgrwt>
<rscale>  2 0.14314303E+04</rscale>
<asrwt>0</asrwt>
<pdfrwt beam="1">  1        4 0.65911564E+00 0.14314303E+04</pdfrwt>
<pdfrwt beam="2">  1       -4 0.97642758E-01 0.14314303E+04</pdfrwt>
<totfact> 0.74865579E-03</totfact>
</mgrwt>
</event>
<event>
 8    1  0.7046235E-006  0.1174160E+04  0.7818608E-02  0.8626279E-01
         -2   -1    0    0    0  501 -0.00000000000E+00  0.00000000000E+00  0.71852927843E+03  0.71852927843E+03  0.00000000000E+00 0.  1.
          2   -1    0    0  502    0  0.00000000000E+00 -0.00000000000E+00 -0.22222082920E+04  0.22222082920E+04  0.00000000000E+00 0. -1.
    9000010    2    1    2  502    0  0.55774638031E+03 -0.29535086290E+03 -0.13031187484E+04  0.17640997278E+04  0.10077778625E+04 0.  0.
   -9000010    2    1    2    0  501 -0.55774638031E+03  0.29535086290E+03 -0.20056026518E+03  0.11766378426E+04  0.97259397273E+03 0.  0.
        -13    1    3    3    0    0 -0.25347421142E+03  0.64554731670E+02 -0.51314051291E+03  0.57595979581E+03  0.10566000000E+00 0.  1.
          4    1    3    3  502    0  0.81122059172E+03 -0.35990559457E+03 -0.78997823548E+03  0.11881399320E+04  0.00000000000E+00 0.  1.
         13    1    4    4    0    0 -0.14532809034E+03 -0.27255552973E+03  0.20052217814E+03  0.36826067631E+03  0.10566000000E+00 0. -1.
         -4    1    4    4    0  501 -0.41241828997E+03  0.56790639264E+03 -0.40108244332E+03  0.80837716632E+03  0.00000000000E+00 0. -1.
<mgrwt>
<rscale>  2 0.11741596E+04</rscale>
<asrwt>0</asrwt>
<pdfrwt beam="2">  1        2 0.34187820E+00 0.11741596E+04</pdfrwt>
<pdfrwt beam="1">  1       -2 0.11054296E+00 0.11741596E+04</pdfrwt>
<totfact> 0.49572155E+00</totfact>
</mgrwt>
</event>
<event>
 8    1  0.7046235E-006  0.1453422E+04  0.7818608E-02  0.8436820E-01
          2   -1    0    0  502    0  0.00000000000E+00  0.00000000000E+00  0.15813342954E+04  0.15813342954E+04  0.00000000000E+00 0. -1.
         -2   -1    0    0    0  501 -0.00000000000E+00 -0.00000000000E+00 -0.13430765512E+04  0.13430765512E+04  0.00000000000E+00 0.  1.
    9000010    2    1    2  502    0  0.24304865684E+02  0.10429829958E+04  0.22664472666E+03  0.14764074069E+04  0.10198072087E+04 0.  0.
   -9000010    2    1    2    0  501 -0.24304865684E+02 -0.10429829958E+04  0.11613017575E+02  0.14480034397E+04  0.10040791021E+04 0.  0.
        -13    1    3    3    0    0  0.34129552124E+03  0.42111746662E+03 -0.28363507300E+03  0.61177726283E+03  0.10566000000E+00 0.  1.
          4    1    3    3  502    0 -0.31699065556E+03  0.62186552914E+03  0.51027979966E+03  0.86463014404E+03  0.00000000000E+00 0.  1.
         13    1    4    4    0    0  0.48788757516E+02 -0.72323543531E+03  0.48494422161E+03  0.87213573885E+03  0.10566000000E+00 0. -1.
         -4    1    4    4    0  501 -0.73093623200E+02 -0.31974756045E+03 -0.47333120404E+03  0.57586770085E+03  0.00000000000E+00 0. -1.
<mgrwt>
<rscale>  2 0.14534219E+04</rscale>
<asrwt>0</asrwt>
<pdfrwt beam="1">  1        2 0.24328220E+00 0.14534219E+04</pdfrwt>
<pdfrwt beam="2">  1       -2 0.20662716E+00 0.14534219E+04</pdfrwt>
<totfact> 0.15404289E+00</totfact>
</mgrwt>
</event>
<event>
 8    1  0.7046235E-006  0.1778301E+04  0.7818608E-02  0.8265166E-01
          4   -1    0    0  502    0  0.00000000000E+00  0.00000000000E+00  0.23770846930E+04  0.23770846930E+04  0.00000000000E+00 0.  1.
         -4   -1    0    0    0  501 -0.00000000000E+00 -0.00000000000E+00 -0.14135038429E+04  0.14135038429E+04  0.00000000000E+00 0. -1.
    9000010    2    1    2  502    0  0.12578372218E+04  0.78900430598E+03  0.94417899720E+03  0.20233108032E+04  0.99881447533E+03 0.  0.
   -9000010    2    1    2    0  501 -0.12578372218E+04 -0.78900430598E+03  0.19401852826E+02  0.17672777327E+04  0.95823373008E+03 0.  0.
        -13    1    3    3    0    0 -0.13003254066E+03 -0.75602800884E+02  0.11868155224E+03  0.19159740900E+03  0.10566000000E+00 0.  1.
          4    1    3    3  502    0  0.13878697624E+04  0.86460710686E+03  0.82549744497E+03  0.18317133942E+04  0.00000000000E+00 0.  1.
         13    1    4    4    0    0 -0.96412736380E+03 -0.69752908951E+03 -0.39261305900E+03  0.12530895537E+04  0.10566000000E+00 0. -1.
         -4    1    4    4    0  501 -0.29370985797E+03 -0.91475216467E+02  0.41201491183E+03  0.51418817904E+03  0.00000000000E+00 0. -1.
<mgrwt>
<rscale>  2 0.17783009E+04</rscale>
<asrwt>0</asrwt>
<pdfrwt beam="1">  1        4 0.36570534E+00 0.17783009E+04</pdfrwt>
<pdfrwt beam="2">  1       -4 0.21746213E+00 0.17783009E+04</pdfrwt>
<totfact> 0.54690276E-02</totfact>
</mgrwt>
</event>
<event>
 8    1  0.7046235E-006  0.1596022E+04  0.7818608E-02  0.8356285E-01
          2   -1    0    0  502    0  0.00000000000E+00  0.00000000000E+00  0.12550718660E+04  0.12550718660E+04  0.00000000000E+00 0.  1.
         -2   -1    0    0    0  501 -0.00000000000E+00 -0.00000000000E+00 -0.23579634404E+04  0.23579634404E+04  0.00000000000E+00 0. -1.
    9000010    2    1    2  502    0  0.10848342302E+04 -0.59566482447E+03 -0.12256062802E+04  0.20123485997E+04  0.10078463388E+04 0.  0.
   -9000010    2    1    2    0  501 -0.10848342302E+04  0.59566482447E+03  0.12271470583E+03  0.16006867067E+04  0.10076989351E+04 0.  0.
        -13    1    3    3    0    0  0.62067499391E+03 -0.12250077416E+03 -0.11910318607E+04  0.13486292271E+04  0.10566000000E+00 0.  1.
          4    1    3    3  502    0  0.46415923625E+03 -0.47316405030E+03 -0.34574419460E+02  0.66371937261E+03  0.00000000000E+00 0.  1.
         13    1    4    4    0    0 -0.56347927402E+03 -0.73577772571E+02  0.41470562467E+03  0.70349367244E+03  0.10566000000E+00 0. -1.
         -4    1    4    4    0  501 -0.52135495614E+03  0.66924259704E+03 -0.29199091884E+03  0.89719303423E+03  0.00000000000E+00 0. -1.
<mgrwt>
<rscale>  2 0.15960224E+04</rscale>
<asrwt>0</asrwt>
<pdfrwt beam="1">  1        2 0.19308798E+00 0.15960224E+04</pdfrwt>
<pdfrwt beam="2">  1       -2 0.36276360E+00 0.15960224E+04</pdfrwt>
<totfact> 0.16415567E-01</totfact>
</mgrwt>
</event>
<event>
 8    1  0.7046235E-006  0.1145295E+04  0.7818608E-02  0.8648936E-01
         -2   -1    0    0    0  501 -0.00000000000E+00  0.00000000000E+00  0.96438863317E+03  0.96438863317E+03  0.00000000000E+00 0. -1.
          2   -1    0    0  502    0  0.00000000000E+00 -0.00000000000E+00 -0.15936583253E+04  0.15936583253E+04  0.00000000000E+00 0.  1.
    9000010    2    1    2  502    0 -0.31463782387E+03  0.31118256998E+03 -0.81408707329E+03  0.14585696494E+04  0.11264351322E+04 0.  0.
   -9000010    2    1    2    0  501  0.31463782387E+03 -0.31118256998E+03  0.18481738113E+03  0.10994773091E+04  0.98937421479E+03 0.  0.
        -13    1    3    3    0    0 -0.90602608339E+02  0.43687426802E+03  0.14227669791E+03  0.46830612705E+03  0.10566000000E+00 0.  1.
          4    1    3    3  502    0 -0.22403521553E+03 -0.12569169804E+03 -0.95636377120E+03  0.99026352231E+03  0.00000000000E+00 0.  1.
         13    1    4    4    0    0  0.39241107067E+03 -0.18921923491E+03 -0.34156245306E+03  0.55358403857E+03  0.10566000000E+00 0. -1.
         -4    1    4    4    0  501 -0.77773246808E+02 -0.12196333506E+03  0.52637983419E+03  0.54589327058E+03  0.00000000000E+00 0. -1.
<mgrwt>
<rscale>  2 0.11452949E+04</rscale>
<asrwt>0</asrwt>
<pdfrwt beam="2">  1        2 0.24517820E+00 0.11452949E+04</pdfrwt>
<pdfrwt beam="1">  1       -2 0.14836748E+00 0.11452949E+04</pdfrwt>
<totfact> 0.48640293E+00</totfact>
</mgrwt>
</event>
<event>
 8    1  0.7046235E-006  0.1569414E+04  0.7818608E-02  0.8370635E-01
          1   -1    0    0  502    0  0.00000000000E+00  0.00000000000E+00  0.17400712500E+04  0.17400712500E+04  0.00000000000E+00 0.  1.
         -1   -1    0    0    0  501 -0.00000000000E+00 -0.00000000000E+00 -0.14478608564E+04  0.14478608564E+04  0.00000000000E+00 0. -1.
    9000010    2    1    2  502    0  0.39726120945E+02  0.12019001096E+04 -0.91668624555E+02  0.15774478535E+04  0.10167578647E+04 0.  0.
   -9000010    2    1    2    0  501 -0.39726120945E+02 -0.12019001096E+04  0.38387901819E+03  0.16104842529E+04  0.10000771920E+04 0.  0.
        -13    1    3    3    0    0  0.44330562741E+03  0.92426081379E+03 -0.26337512943E+03  0.10583687454E+04  0.10566000000E+00 0.  1.
          4    1    3    3  502    0 -0.40357950647E+03  0.27763929585E+03  0.17170650488E+03  0.51907910809E+03  0.00000000000E+00 0.  1.
         13    1    4    4    0    0 -0.34811982381E+03 -0.10941252610E+04  0.51511253877E+03  0.12584269694E+04  0.10566000000E+00 0. -1.
         -4    1    4    4    0  501  0.30839370287E+03 -0.10777484866E+03 -0.13123352058E+03  0.35205728354E+03  0.00000000000E+00 0. -1.
<mgrwt>
<rscale>  2 0.15694139E+04</rscale>
<asrwt>0</asrwt>
<pdfrwt beam="1">  1        1 0.26770327E+00 0.15694139E+04</pdfrwt>
<pdfrwt beam="2">  1       -1 0.22274782E+00 0.15694139E+04</pdfrwt>
<totfact> 0.45975693E-01</totfact>
</mgrwt>
</event>
<event>
 8    1  0.7046235E-006  0.1126351E+04  0.7818608E-02  0.8664186E-01
         -1   -1    0    0    0  501 -0.00000000000E+00  0.00000000000E+00  0.27100927513E+04  0.27100927513E+04  0.00000000000E+00 0.  1.
          1   -1    0    0  502    0  0.00000000000E+00 -0.00000000000E+00 -0.47014575785E+03  0.47014575785E+03  0.00000000000E+00 0. -1.
    9000010    2    1    2  502    0 -0.34476403128E+03  0.38836176292E+03  0.10219226202E+04  0.15252265200E+04  0.10061326947E+04 0.  0.
   -9000010    2    1    2    0  501  0.34476403128E+03 -0.38836176292E+03  0.12180243732E+04  0.16550119892E+04  0.99287170089E+03 0.  0.
        -13    1    3    3    0    0 -0.79637588083E+02  0.67530627818E+03  0.39456750769E+03  0.78617062021E+03  0.10566000000E+00 0.  1.
          4    1    3    3  502    0 -0.26512644319E+03 -0.28694451527E+03  0.62735511254E+03  0.73905589975E+03  0.00000000000E+00 0.  1.
         13    1    4    4    0    0  0.13419040205E+03  0.23017332442E+03  0.87981587021E+03  0.91927297356E+03  0.10566000000E+00 0. -1.
         -4    1    4    4    0  501  0.21057362922E+03 -0.61853508734E+03  0.33820850298E+03  0.73573901560E+03  0.00000000000E+00 0. -1.
<mgrwt>
<rscale>  2 0.11263510E+04</rscale>
<asrwt>0</asrwt>
<pdfrwt beam="2">  1        1 0.72330118E-01 0.11263510E+04</pdfrwt>
<pdfrwt beam="1">  1       -1 0.41693734E+00 0.11263510E+04</pdfrwt>
<totfact> 0.77046664E-01</totfact>
</mgrwt>
</event>
<event>
 8    1  0.7046235E-006  0.1133400E+04  0.7818608E-02  0.8658475E-01
          2   -1    0    0  502    0  0.00000000000E+00  0.00000000000E+00  0.14563497294E+04  0.14563497294E+04  0.00000000000E+00 0. -1.
         -2   -1    0    0    0  501 -0.00000000000E+00 -0.00000000000E+00 -0.10910334963E+04  0.10910334963E+04  0.00000000000E+00 0.  1.
    9000010    2    1    2  502    0 -0.11714558550E+03 -0.50061404523E+03  0.73879026566E+03  0.13452574155E+04  0.99978445015E+03 0.  0.
   -9000010    2    1    2    0  501  0.11714558550E+03  0.50061404523E+03 -0.37347403263E+03  0.12021258102E+04  0.10204342703E+04 0.  0.
        -13    1    3    3    0    0 -0.39546643935E+03  0.13892447226E+03  0.20290664836E+03  0.46568748400E+03  0.10566000000E+00 0.  1.
          4    1    3    3  502    0  0.27832085386E+03 -0.63953851749E+03  0.53588361730E+03  0.87956993146E+03  0.00000000000E+00 0.  1.
         13    1    4    4    0    0  0.32025995630E+03  0.59246210539E+02 -0.58708868626E+03  0.67137894648E+03  0.10566000000E+00 0. -1.
         -4    1    4    4    0  501 -0.20311437080E+03  0.44136783469E+03  0.21361465364E+03  0.53074686374E+03  0.00000000000E+00 0. -1.
<mgrwt>
<rscale>  2 0.11334001E+04</rscale>
<asrwt>0</asrwt>
<pdfrwt beam="1">  1        2 0.22405380E+00 0.11334001E+04</pdfrwt>
<pdfrwt beam="2">  1       -2 0.16785131E+00 0.11334001E+04</pdfrwt>
<totfact> 0.39221092E+00</totfact>
</mgrwt>
</event>
<event>
 8    1  0.7046235E-006  0.1100729E+04  0.7818608E-02  0.8685317E-01
         -2   -1    0    0    0  501 -0.00000000000E+00  0.00000000000E+00  0.73569183569E+03  0.73569183569E+03  0.00000000000E+00 0.  1.
          2   -1    0    0  502    0  0.00000000000E+00 -0.00000000000E+00 -0.17338033163E+04  0.17338033163E+04  0.00000000000E+00 0. -1.
    9000010    2    1    2  502    0  0.24005644849E+03  0.43067265601E+03 -0.78143300471E+03  0.13621905172E+04  0.10009093012E+04 0.  0.
   -9000010    2    1    2    0  501 -0.24005644849E+03 -0.43067265601E+03 -0.21667847589E+03  0.11073046348E+04  0.96750605022E+03 0.  0.
        -13    1    3    3    0    0 -0.36152668046E+03  0.12007876294E+03 -0.50099192062E+03  0.62937537741E+03  0.10566000000E+00 0.  1.
          4    1    3    3  502    0  0.60158312895E+03  0.31059389307E+03 -0.28044108409E+03  0.73281513979E+03  0.00000000000E+00 0.  1.
         13    1    4    4    0    0 -0.50775281253E+03 -0.32915838318E+03 -0.43669547926E+03  0.74623127288E+03  0.10566000000E+00 0. -1.
         -4    1    4    4    0  501  0.26769636404E+03 -0.10151427284E+03  0.22001700336E+03  0.36107336191E+03  0.00000000000E+00 0. -1.
<mgrwt>
<rscale>  2 0.11007288E+04</rscale>
<asrwt>0</asrwt>
<pdfrwt beam="2">  1        2 0.26673897E+00 0.11007288E+04</pdfrwt>
<pdfrwt beam="1">  1       -2 0.11318336E+00 0.11007288E+04</pdfrwt>
<totfact> 0.86811481E+00</totfact>
</mgrwt>
</event>
<event>
 8    1  0.7046235E-006  0.1061598E+04  0.7818608E-02  0.8718773E-01
          2   -1    0    0  502    0  0.00000000000E+00  0.00000000000E+00  0.96882607181E+03  0.96882607181E+03  0.00000000000E+00 0.  1.
         -2   -1    0    0    0  501 -0.00000000000E+00 -0.00000000000E+00 -0.13269584254E+04  0.13269584254E+04  0.00000000000E+00 0. -1.
    9000010    2    1    2  502    0 -0.23848358895E+03 -0.38898899619E+03 -0.58517154045E+03  0.12358241303E+04  0.98825537580E+03 0.  0.
   -9000010    2    1    2    0  501  0.23848358895E+03  0.38898899619E+03  0.22703918685E+03  0.10599603670E+04  0.92939890564E+03 0.  0.
        -13    1    3    3    0    0  0.59153459727E+02  0.29817050360E+03 -0.32011299537E+03  0.44144888943E+03  0.10566000000E+00 0.  1.
          4    1    3    3  502    0 -0.29763704868E+03 -0.68715949979E+03 -0.26505854509E+03  0.79437524082E+03  0.00000000000E+00 0.  1.
         13    1    4    4    0    0  0.53492048020E+03  0.20650709341E+03 -0.10032584670E+03  0.58210856930E+03  0.10566000000E+00 0. -1.
         -4    1    4    4    0  501 -0.29643689125E+03  0.18248190278E+03  0.32736503355E+03  0.47785179767E+03  0.00000000000E+00 0. -1.
<mgrwt>
<rscale>  2 0.10615980E+04</rscale>
<asrwt>0</asrwt>
<pdfrwt beam="1">  1        2 0.14905016E+00 0.10615980E+04</pdfrwt>
<pdfrwt beam="2">  1       -2 0.20414745E+00 0.10615980E+04</pdfrwt>
<totfact> 0.37533222E+00</totfact>
</mgrwt>
</event>
<event>
 8    1  0.7046235E-006  0.1371990E+04  0.7818608E-02  0.8487207E-01
         -4   -1    0    0    0  501 -0.00000000000E+00  0.00000000000E+00  0.37100098414E+04  0.37100098414E+04  0.00000000000E+00 0. -1.
          4   -1    0    0  502    0  0.00000000000E+00 -0.00000000000E+00 -0.52314065709E+03  0.52314065709E+03  0.00000000000E+00 0.  1.
    9000010    2    1    2  502    0 -0.67493446013E+03  0.67699576659E+03  0.12144882568E+04  0.18244788231E+04  0.96947483536E+03 0.  0.
   -9000010    2    1    2    0  501  0.67493446013E+03 -0.67699576659E+03  0.19723809275E+04  0.24086716755E+04  0.99877571230E+03 0.  0.
        -13    1    3    3    0    0  0.28299453997E+02 -0.21891936783E+03  0.16333152164E+03  0.27459742503E+03  0.10566000000E+00 0.  1.
          4    1    3    3  502    0 -0.70323391412E+03  0.89591513442E+03  0.10511567352E+04  0.15498813980E+04  0.00000000000E+00 0.  1.
         13    1    4    4    0    0 -0.10816994046E+02 -0.33316492813E+03  0.14321098664E+04  0.14703926541E+04  0.10566000000E+00 0. -1.
         -4    1    4    4    0  501  0.68575145417E+03 -0.34383083846E+03  0.54027106109E+03  0.93827902131E+03  0.00000000000E+00 0. -1.
<mgrwt>
<rscale>  2 0.13719898E+04</rscale>
<asrwt>0</asrwt>
<pdfrwt beam="2">  1        4 0.80483180E-01 0.13719898E+04</pdfrwt>
<pdfrwt beam="1">  1       -4 0.57077073E+00 0.13719898E+04</pdfrwt>
<totfact> 0.33203237E-02</totfact>
</mgrwt>
</event>
<event>
 8    1  0.7046235E-006  0.1275537E+04  0.7818608E-02  0.8551753E-01
         -2   -1    0    0    0  501 -0.00000000000E+00  0.00000000000E+00  0.88713496449E+03  0.88713496449E+03  0.00000000000E+00 0. -1.
          2   -1    0    0  502    0  0.00000000000E+00 -0.00000000000E+00 -0.18397074623E+04  0.18397074623E+04  0.00000000000E+00 0.  1.
    9000010    2    1    2  502    0  0.64945886321E+03  0.42065331115E+03 -0.54537400255E+03  0.13740774979E+04  0.99594685821E+03 0.  0.
   -9000010    2    1    2    0  501 -0.64945886321E+03 -0.42065331115E+03 -0.40719849525E+03  0.13527649289E+04  0.10321900577E+04 0.  0.
        -13    1    3    3    0    0  0.23406908803E+02  0.47976668887E+03 -0.56919924906E+03  0.74478973907E+03  0.10566000000E+00 0.  1.
          4    1    3    3  502    0  0.62605195440E+03 -0.59113377720E+02  0.23825246507E+02  0.62928775883E+03  0.00000000000E+00 0.  1.
         13    1    4    4    0    0 -0.61123888094E+03  0.11256801828E+02  0.16653040410E+03  0.63361823823E+03  0.10566000000E+00 0. -1.
         -4    1    4    4    0  501 -0.38219982262E+02 -0.43191011298E+03 -0.57372889936E+03  0.71914669067E+03  0.00000000000E+00 0. -1.
<mgrwt>
<rscale>  2 0.12755368E+04</rscale>
<asrwt>0</asrwt>
<pdfrwt beam="2">  1        2 0.28303192E+00 0.12755368E+04</pdfrwt>
<pdfrwt beam="1">  1       -2 0.13648230E+00 0.12755368E+04</pdfrwt>
<totfact> 0.45033828E+00</totfact>
</mgrwt>
</event>
<event>
 8    1  0.7046235E-006  0.1316161E+04  0.7818608E-02  0.8523874E-01
         -2   -1    0    0    0  501 -0.00000000000E+00  0.00000000000E+00  0.52284080270E+03  0.52284080270E+03  0.00000000000E+00 0. -1.
          2   -1    0    0  502    0  0.00000000000E+00 -0.00000000000E+00 -0.34458871429E+04  0.34458871429E+04  0.00000000000E+00 0.  1.
    9000010    2    1    2  502    0 -0.65155718037E+03 -0.58283379980E+03 -0.10849409240E+04  0.17147116037E+04  0.99945839224E+03 0.  0.
   -9000010    2    1    2    0  501  0.65155718037E+03  0.58283379980E+03 -0.18381054162E+04  0.22540163419E+04  0.96836777670E+03 0.  0.
        -13    1    3    3    0    0 -0.48325603559E+03  0.11604705070E+03 -0.79923005283E+03  0.94115461133E+03  0.10566000000E+00 0.  1.
          4    1    3    3  502    0 -0.16830114477E+03 -0.69888085050E+03 -0.28571087114E+03  0.77355699235E+03  0.00000000000E+00 0.  1.
         13    1    4    4    0    0  0.50122975513E+03 -0.15232801266E+03 -0.52517834711E+03  0.74178662586E+03  0.10566000000E+00 0. -1.
         -4    1    4    4    0  501  0.15032742523E+03  0.73516181246E+03 -0.13129270691E+04  0.15122297161E+04  0.00000000000E+00 0. -1.
<mgrwt>
<rscale>  2 0.13161605E+04</rscale>
<asrwt>0</asrwt>
<pdfrwt beam="2">  1        2 0.53013649E+00 0.13161605E+04</pdfrwt>
<pdfrwt beam="1">  1       -2 0.80437045E-01 0.13161605E+04</pdfrwt>
<totfact> 0.18660406E+00</totfact>
</mgrwt>
</event>
<event>
 8    1  0.7046235E-006  0.1276649E+04  0.7818608E-02  0.8550976E-01
         -1   -1    0    0    0  501 -0.00000000000E+00  0.00000000000E+00  0.22487950898E+04  0.22487950898E+04  0.00000000000E+00 0.  1.
          1   -1    0    0  502    0  0.00000000000E+00 -0.00000000000E+00 -0.72603305522E+03  0.72603305522E+03  0.00000000000E+00 0. -1.
    9000010    2    1    2  502    0  0.96075934267E+02  0.79592215553E+03  0.81918599447E+03  0.15111959667E+04  0.98484764989E+03 0.  0.
   -9000010    2    1    2    0  501 -0.96075934267E+02 -0.79592215553E+03  0.70357604010E+03  0.14636321783E+04  0.10022361230E+04 0.  0.
        -13    1    3    3    0    0 -0.33750302760E+03  0.20547523800E+03  0.64791936632E+03  0.75889912603E+03  0.10566000000E+00 0.  1.
          4    1    3    3  502    0  0.43357896187E+03  0.59044691753E+03  0.17126662814E+03  0.75229684069E+03  0.00000000000E+00 0.  1.
         13    1    4    4    0    0  0.19216850030E+03 -0.11429229448E+03 -0.19699127804E+03  0.29798831499E+03  0.10566000000E+00 0. -1.
         -4    1    4    4    0  501 -0.28824443456E+03 -0.68162986105E+03  0.90056731814E+03  0.11656438633E+04  0.00000000000E+00 0. -1.
<mgrwt>
<rscale>  2 0.12766488E+04</rscale>
<asrwt>0</asrwt>
<pdfrwt beam="2">  1        1 0.11169739E+00 0.12766488E+04</pdfrwt>
<pdfrwt beam="1">  1       -1 0.34596847E+00 0.12766488E+04</pdfrwt>
<totfact> 0.33157393E-01</totfact>
</mgrwt>
</event>
<event>
 8    1  0.7046235E-006  0.1325729E+04  0.7818608E-02  0.8517458E-01
          2   -1    0    0  502    0  0.00000000000E+00  0.00000000000E+00  0.21129451224E+04  0.21129451224E+04  0.00000000000E+00 0.  1.
         -2   -1    0    0    0  501 -0.00000000000E+00 -0.00000000000E+00 -0.84929044556E+03  0.84929044556E+03  0.00000000000E+00 0. -1.
    9000010    2    1    2  502    0  0.68369554626E+03  0.52387807229E+03  0.84395344817E+03  0.15708578029E+04  0.10067020312E+04 0.  0.
   -9000010    2    1    2    0  501 -0.68369554626E+03 -0.52387807229E+03  0.41970122872E+03  0.13913777651E+04  0.10089078894E+04 0.  0.
        -13    1    3    3    0    0  0.62240564674E+03  0.62696159938E+03  0.10253227374E+04  0.13534239407E+04  0.10566000000E+00 0.  1.
          4    1    3    3  502    0  0.61289899519E+02 -0.10308352709E+03 -0.18136928925E+03  0.21743386218E+03  0.00000000000E+00 0.  1.
         13    1    4    4    0    0  0.67173022207E+02  0.84179446155E+02 -0.21145443785E+03  0.23730019915E+03  0.10566000000E+00 0. -1.
         -4    1    4    4    0  501 -0.75086856847E+03 -0.60805751844E+03  0.63115566657E+03  0.11540775660E+04  0.00000000000E+00 0. -1.
<mgrwt>
<rscale>  2 0.13257294E+04</rscale>
<asrwt>0</asrwt>
<pdfrwt beam="1">  1        2 0.32506848E+00 0.13257294E+04</pdfrwt>
<pdfrwt beam="2">  1       -2 0.13066007E+00 0.13257294E+04</pdfrwt>
<totfact> 0.35942297E+00</totfact>
</mgrwt>
</event>
<event>
 8    1  0.7046235E-006  0.1499888E+04  0.7818608E-02  0.8409563E-01
         -2   -1    0    0    0  501 -0.00000000000E+00  0.00000000000E+00  0.20861272809E+04  0.20861272809E+04  0.00000000000E+00 0. -1.
          2   -1    0    0  502    0  0.00000000000E+00 -0.00000000000E+00 -0.10801219678E+04  0.10801219678E+04  0.00000000000E+00 0.  1.
    9000010    2    1    2  502    0  0.37113335838E+03  0.10575897656E+04  0.56938578422E+03  0.16187918481E+04  0.10198288063E+04 0.  0.
   -9000010    2    1    2    0  501 -0.37113335838E+03 -0.10575897656E+04  0.43661952884E+03  0.15474574006E+04  0.97352540370E+03 0.  0.
        -13    1    3    3    0    0  0.27815881322E+03  0.33492245879E+03  0.75082342776E+03  0.86791774358E+03  0.10566000000E+00 0.  1.
          4    1    3    3  502    0  0.92974545160E+02  0.72266730679E+03 -0.18143764355E+03  0.75087410452E+03  0.00000000000E+00 0.  1.
         13    1    4    4    0    0 -0.15896545623E+03  0.16462652381E+03  0.15200227491E+03  0.27473006999E+03  0.10566000000E+00 0. -1.
         -4    1    4    4    0  501 -0.21216790215E+03 -0.12222162894E+04  0.28461725393E+03  0.12727273306E+04  0.00000000000E+00 0. -1.
<mgrwt>
<rscale>  2 0.14998880E+04</rscale>
<asrwt>0</asrwt>
<pdfrwt beam="2">  1        2 0.16617261E+00 0.14998880E+04</pdfrwt>
<pdfrwt beam="1">  1       -2 0.32094266E+00 0.14998880E+04</pdfrwt>
<totfact> 0.40925901E-01</totfact>
</mgrwt>
</event>
<event>
 8    1  0.7046235E-006  0.1129835E+04  0.7818608E-02  0.8661358E-01
         -2   -1    0    0    0  501 -0.00000000000E+00  0.00000000000E+00  0.12818654013E+04  0.12818654013E+04  0.00000000000E+00 0. -1.
          2   -1    0    0  502    0  0.00000000000E+00 -0.00000000000E+00 -0.10337865209E+04  0.10337865209E+04  0.00000000000E+00 0.  1.
    9000010    2    1    2  502    0  0.56195482991E+03 -0.19239858512E+03 -0.97868769652E+02  0.11334121437E+04  0.96033033117E+03 0.  0.
   -9000010    2    1    2    0  501 -0.56195482991E+03  0.19239858512E+03  0.34594765005E+03  0.11822397786E+04  0.96187352138E+03 0.  0.
        -13    1    3    3    0    0  0.18068443224E+03 -0.55422688406E+03 -0.15902154436E+03  0.60423684578E+03  0.10566000000E+00 0.  1.
          4    1    3    3  502    0  0.38127039768E+03  0.36182829894E+03  0.61152774713E+02  0.52917529790E+03  0.00000000000E+00 0.  1.
         13    1    4    4    0    0 -0.82825188972E+03  0.19410000702E+03  0.33928204363E+03  0.91585387581E+03  0.10566000000E+00 0. -1.
         -4    1    4    4    0  501  0.26629705981E+03 -0.17014219048E+01  0.66656064212E+01  0.26638590279E+03  0.00000000000E+00 0. -1.
<mgrwt>
<rscale>  2 0.11298350E+04</rscale>
<asrwt>0</asrwt>
<pdfrwt beam="2">  1        2 0.15904408E+00 0.11298350E+04</pdfrwt>
<pdfrwt beam="1">  1       -2 0.19721006E+00 0.11298350E+04</pdfrwt>
<totfact> 0.38819585E+00</totfact>
</mgrwt>
</event>
<event>
 8    1  0.7046235E-006  0.1052938E+04  0.7818608E-02  0.8726381E-01
         -1   -1    0    0    0  501 -0.00000000000E+00  0.00000000000E+00  0.59671870770E+03  0.59671870770E+03  0.00000000000E+00 0. -1.
          1   -1    0    0  502    0  0.00000000000E+00 -0.00000000000E+00 -0.24369194680E+04  0.24369194680E+04  0.00000000000E+00 0.  1.
    9000010    2    1    2  502    0  0.56885672592E+02  0.32913434163E+03 -0.17873750224E+03  0.10649775910E+04  0.99532144557E+03 0.  0.
   -9000010    2    1    2    0  501 -0.56885672592E+02 -0.32913434163E+03 -0.16614632581E+04  0.19686605847E+04  0.10017978565E+04 0.  0.
        -13    1    3    3    0    0  0.16968331653E+03  0.52267335266E+02  0.38662015720E+03  0.42544031234E+03  0.10566000000E+00 0.  1.
          4    1    3    3  502    0 -0.11279764394E+03  0.27686700637E+03 -0.56535765944E+03  0.63953727865E+03  0.00000000000E+00 0.  1.
         13    1    4    4    0    0  0.43267367507E+03  0.49012727673E+02 -0.74617023887E+03  0.86393216927E+03  0.10566000000E+00 0. -1.
         -4    1    4    4    0  501 -0.48955934766E+03 -0.37814706931E+03 -0.91529301922E+03  0.11047284155E+04  0.00000000000E+00 0. -1.
<mgrwt>
<rscale>  2 0.10529380E+04</rscale>
<asrwt>0</asrwt>
<pdfrwt beam="2">  1        1 0.37491069E+00 0.10529380E+04</pdfrwt>
<pdfrwt beam="1">  1       -1 0.91802879E-01 0.10529380E+04</pdfrwt>
<totfact> 0.20337608E+00</totfact>
</mgrwt>
</event>
<event>
 8    1  0.7046235E-006  0.1060736E+04  0.7818608E-02  0.8719527E-01
         -1   -1    0    0    0  501 -0.00000000000E+00  0.00000000000E+00  0.56684302567E+03  0.56684302567E+03  0.00000000000E+00 0. -1.
          1   -1    0    0  502    0  0.00000000000E+00 -0.00000000000E+00 -0.20458615174E+04  0.20458615174E+04  0.00000000000E+00 0.  1.
    9000010    2    1    2  502    0  0.82966930474E+02 -0.34134756039E+03 -0.51209751393E+03  0.11751570117E+04  0.99767152402E+03 0.  0.
   -9000010    2    1    2    0  501 -0.82966930474E+02  0.34134756039E+03 -0.96692097782E+03  0.14375475314E+04  0.10040941485E+04 0.  0.
        -13    1    3    3    0    0 -0.18363893608E+03  0.12961028277E+03  0.18607441478E+03  0.29179750383E+03  0.10566000000E+00 0.  1.
          4    1    3    3  502    0  0.26660586655E+03 -0.47095784316E+03 -0.69817192870E+03  0.88335950787E+03  0.00000000000E+00 0.  1.
         13    1    4    4    0    0  0.31847740699E+03  0.19653807351E+02 -0.85289164701E+03  0.91062522676E+03  0.10566000000E+00 0. -1.
         -4    1    4    4    0  501 -0.40144433746E+03  0.32169375304E+03 -0.11402933081E+03  0.52692230462E+03  0.00000000000E+00 0. -1.
<mgrwt>
<rscale>  2 0.10607356E+04</rscale>
<asrwt>0</asrwt>
<pdfrwt beam="2">  1        1 0.31474793E+00 0.10607356E+04</pdfrwt>
<pdfrwt beam="1">  1       -1 0.87206619E-01 0.10607356E+04</pdfrwt>
<totfact> 0.47249871E+00</totfact>
</mgrwt>
</event>
<event>
 8    1  0.7046235E-006  0.1348750E+04  0.7818608E-02  0.8502248E-01
          2   -1    0    0  502    0  0.00000000000E+00  0.00000000000E+00  0.43895979721E+04  0.43895979721E+04  0.00000000000E+00 0.  1.
         -2   -1    0    0    0  501 -0.00000000000E+00 -0.00000000000E+00 -0.53935053821E+03  0.53935053821E+03  0.00000000000E+00 0. -1.
    9000010    2    1    2  502    0  0.14491690803E+03 -0.87943953633E+03  0.74775673355E+03  0.15490991546E+04  0.10228163324E+04 0.  0.
   -9000010    2    1    2    0  501 -0.14491690803E+03  0.87943953633E+03  0.31024907004E+04  0.33798493558E+04  0.10017576122E+04 0.  0.
        -13    1    3    3    0    0  0.46298239864E+03 -0.25471391342E+03  0.59606344446E+01  0.52845758531E+03  0.10566000000E+00 0.  1.
          4    1    3    3  502    0 -0.31806549062E+03 -0.62472562291E+03  0.74179609911E+03  0.10206415693E+04  0.00000000000E+00 0.  1.
         13    1    4    4    0    0 -0.25008496385E+03  0.92715715519E+03  0.31187305955E+04  0.32632259220E+04  0.10566000000E+00 0. -1.
         -4    1    4    4    0  501  0.10516805583E+03 -0.47717618857E+02 -0.16239895121E+02  0.11662343379E+03  0.00000000000E+00 0. -1.
<mgrwt>
<rscale>  2 0.13487497E+04</rscale>
<asrwt>0</asrwt>
<pdfrwt beam="1">  1        2 0.67532274E+00 0.13487497E+04</pdfrwt>
<pdfrwt beam="2">  1       -2 0.82977009E-01 0.13487497E+04</pdfrwt>
<totfact> 0.27262712E-01</totfact>
</mgrwt>
</event>
<event>
 8    1  0.7046235E-006  0.1459407E+04  0.7818608E-02  0.8433251E-01
          2   -1    0    0  502    0  0.00000000000E+00  0.00000000000E+00  0.21781508729E+04  0.21781508729E+04  0.00000000000E+00 0.  1.
         -2   -1    0    0    0  501 -0.00000000000E+00 -0.00000000000E+00 -0.98812629412E+03  0.98812629412E+03  0.00000000000E+00 0. -1.
    9000010    2    1    2  502    0 -0.90890416494E+03  0.54782856282E+03  0.43007365484E+03  0.15127879679E+04  0.98860567053E+03 0.  0.
   -9000010    2    1    2    0  501  0.90890416494E+03 -0.54782856282E+03  0.75995092393E+03  0.16534891992E+04  0.10150262113E+04 0.  0.
        -13    1    3    3    0    0 -0.10888758185E+04  0.37342759904E+03  0.19182648643E+03  0.11670030556E+04  0.10566000000E+00 0.  1.
          4    1    3    3  502    0  0.17997165356E+03  0.17440096378E+03  0.23824716841E+03  0.34578491220E+03  0.00000000000E+00 0.  1.
         13    1    4    4    0    0  0.11116032627E+04 -0.37017098314E+03  0.48372263686E+03  0.12675472263E+04  0.10566000000E+00 0. -1.
         -4    1    4    4    0  501 -0.20269909773E+03 -0.17765757967E+03  0.27622828707E+03  0.38594197286E+03  0.00000000000E+00 0. -1.
<mgrwt>
<rscale>  2 0.14594068E+04</rscale>
<asrwt>0</asrwt>
<pdfrwt beam="1">  1        2 0.33510013E+00 0.14594068E+04</pdfrwt>
<pdfrwt beam="2">  1       -2 0.15201943E+00 0.14594068E+04</pdfrwt>
<totfact> 0.20942613E+00</totfact>
</mgrwt>
</event>
<event>
 8    1  0.7046235E-006  0.1403644E+04  0.7818608E-02  0.8467205E-01
          2   -1    0    0  502    0  0.00000000000E+00  0.00000000000E+00  0.22245236927E+04  0.22245236927E+04  0.00000000000E+00 0. -1.
         -2   -1    0    0    0  501 -0.00000000000E+00 -0.00000000000E+00 -0.88984617006E+03  0.88984617006E+03  0.00000000000E+00 0.  1.
    9000010    2    1    2  502    0  0.19356919652E+03 -0.10030501323E+04  0.55812533754E+03  0.15048791376E+04  0.95371836769E+03 0.  0.
   -9000010    2    1    2    0  501 -0.19356919652E+03  0.10030501323E+04  0.77655218512E+03  0.16094907251E+04  0.97151865468E+03 0.  0.
        -13    1    3    3    0    0  0.50775780743E+03 -0.47518162329E+03  0.55634345745E+03  0.89058049604E+03  0.10566000000E+00 0.  1.
          4    1    3    3  502    0 -0.31418861091E+03 -0.52786850897E+03  0.17818800891E+01  0.61429864161E+03  0.00000000000E+00 0.  1.
         13    1    4    4    0    0 -0.18294443459E+03 -0.15986248096E+03  0.90544304782E+02  0.25927391164E+03  0.10566000000E+00 0. -1.
         -4    1    4    4    0  501 -0.10624761928E+02  0.11629126132E+04  0.68600788034E+03  0.13502168135E+04  0.00000000000E+00 0. -1.
<mgrwt>
<rscale>  2 0.14036444E+04</rscale>
<asrwt>0</asrwt>
<pdfrwt beam="1">  1        2 0.34223441E+00 0.14036444E+04</pdfrwt>
<pdfrwt beam="2">  1       -2 0.13689941E+00 0.14036444E+04</pdfrwt>
<totfact> 0.27126018E+00</totfact>
</mgrwt>
</event>
<event>
 8    1  0.7046235E-006  0.1453598E+04  0.7818608E-02  0.8436715E-01
         -2   -1    0    0    0  501 -0.00000000000E+00  0.00000000000E+00  0.74189021009E+03  0.74189021009E+03  0.00000000000E+00 0. -1.
          2   -1    0    0  502    0  0.00000000000E+00 -0.00000000000E+00 -0.28878864352E+04  0.28878864352E+04  0.00000000000E+00 0.  1.
    9000010    2    1    2  502    0  0.10478807038E+04  0.10009682911E+03 -0.85516703782E+03  0.16807520767E+04  0.99274545385E+03 0.  0.
   -9000010    2    1    2    0  501 -0.10478807038E+04 -0.10009682911E+03 -0.12908291872E+04  0.19490245686E+04  0.10121182903E+04 0.  0.
        -13    1    3    3    0    0 -0.81608134971E+02  0.25489488356E+03 -0.21679936413E+02  0.26851688991E+03  0.10566000000E+00 0.  1.
          4    1    3    3  502    0  0.11294888388E+04 -0.15479805445E+03 -0.83348710141E+03  0.14122351868E+04  0.00000000000E+00 0.  1.
         13    1    4    4    0    0 -0.15057663598E+03 -0.32215629210E+03  0.69725100606E+01  0.35567770088E+03  0.10566000000E+00 0. -1.
         -4    1    4    4    0  501 -0.89730406781E+03  0.22205946299E+03 -0.12978016973E+04  0.15933468677E+04  0.00000000000E+00 0. -1.
<mgrwt>
<rscale>  2 0.14535982E+04</rscale>
<asrwt>0</asrwt>
<pdfrwt beam="2">  1        2 0.44429022E+00 0.14535982E+04</pdfrwt>
<pdfrwt beam="1">  1       -2 0.11413696E+00 0.14535982E+04</pdfrwt>
<totfact> 0.18464576E+00</totfact>
</mgrwt>
</event>
<event>
 8    1  0.7046235E-006  0.1125100E+04  0.7818608E-02  0.8665204E-01
          2   -1    0    0  502    0  0.00000000000E+00  0.00000000000E+00  0.19357771303E+04  0.19357771303E+04  0.00000000000E+00 0.  1.
         -2   -1    0    0    0  501 -0.00000000000E+00 -0.00000000000E+00 -0.10057407800E+04  0.10057407800E+04  0.00000000000E+00 0. -1.
    9000010    2    1    2  502    0  0.49811018340E+03  0.20035247225E+03 -0.40828863505E+03  0.11844369018E+04  0.97362020157E+03 0.  0.
   -9000010    2    1    2    0  501 -0.49811018340E+03 -0.20035247225E+03  0.13383249854E+04  0.17570810085E+04  0.10039746192E+04 0.  0.
        -13    1    3    3    0    0  0.78303185236E+03  0.13218919122E+03 -0.40507231879E+03  0.89145749125E+03  0.10566000000E+00 0.  1.
          4    1    3    3  502    0 -0.28492166896E+03  0.68163281032E+02 -0.32163162660E+01  0.29297941056E+03  0.00000000000E+00 0.  1.
         13    1    4    4    0    0 -0.16882969197E+03 -0.41258198918E+02  0.13782891613E+04  0.13892036306E+04  0.10566000000E+00 0. -1.
         -4    1    4    4    0  501 -0.32928049144E+03 -0.15909427333E+03 -0.39964175920E+02  0.36787737795E+03  0.00000000000E+00 0. -1.
<mgrwt>
<rscale>  2 0.11250999E+04</rscale>
<asrwt>0</asrwt>
<pdfrwt beam="1">  1        2 0.29781187E+00 0.11250999E+04</pdfrwt>
<pdfrwt beam="2">  1       -2 0.15472935E+00 0.11250999E+04</pdfrwt>
<totfact> 0.27925492E+00</totfact>
</mgrwt>
</event>
<event>
 8    1  0.7046235E-006  0.1360205E+04  0.7818608E-02  0.8494796E-01
         -2   -1    0    0    0  501 -0.00000000000E+00  0.00000000000E+00  0.14612657312E+04  0.14612657312E+04  0.00000000000E+00 0. -1.
          2   -1    0    0  502    0  0.00000000000E+00 -0.00000000000E+00 -0.16268721596E+04  0.16268721596E+04  0.00000000000E+00 0.  1.
    9000010    2    1    2  502    0 -0.92649883879E+03 -0.13971644256E+03  0.64464381257E+03  0.14970864000E+04  0.97354058029E+03 0.  0.
   -9000010    2    1    2    0  501  0.92649883879E+03  0.13971644256E+03 -0.81025024093E+03  0.15910514908E+04  0.99850819274E+03 0.  0.
        -13    1    3    3    0    0  0.18466325326E+03 -0.15235573970E+03  0.13075620350E+03  0.27278193569E+03  0.10566000000E+00 0.  1.
          4    1    3    3  502    0 -0.11111620920E+04  0.12639297133E+02  0.51388760907E+03  0.12243044643E+04  0.00000000000E+00 0.  1.
         13    1    4    4    0    0  0.64377977524E+03 -0.17498766061E+03 -0.93626323681E+03  0.11496355684E+04  0.10566000000E+00 0. -1.
         -4    1    4    4    0  501  0.28271906355E+03  0.31470410318E+03  0.12601299588E+03  0.44141592244E+03  0.00000000000E+00 0. -1.
<mgrwt>
<rscale>  2 0.13602047E+04</rscale>
<asrwt>0</asrwt>
<pdfrwt beam="2">  1        2 0.25028802E+00 0.13602047E+04</pdfrwt>
<pdfrwt beam="1">  1       -2 0.22481011E+00 0.13602047E+04</pdfrwt>
<totfact> 0.10426763E+00</totfact>
</mgrwt>
</event>
<event>
 8    1  0.7046235E-006  0.1084928E+04  0.7818608E-02  0.8698649E-01
         -2   -1    0    0    0  501 -0.00000000000E+00  0.00000000000E+00  0.87484994541E+03  0.87484994541E+03  0.00000000000E+00 0. -1.
          2   -1    0    0  502    0  0.00000000000E+00 -0.00000000000E+00 -0.14846897121E+04  0.14846897121E+04  0.00000000000E+00 0.  1.
    9000010    2    1    2  502    0  0.17522065970E+03  0.18021090818E+03 -0.64296098571E+03  0.12077139053E+04  0.99095701066E+03 0.  0.
   -9000010    2    1    2    0  501 -0.17522065970E+03 -0.18021090818E+03  0.33121219065E+02  0.11518257521E+04  0.11235778999E+04 0.  0.
        -13    1    3    3    0    0 -0.36464122254E+03  0.12459336457E+02 -0.50981681638E+03  0.62692236654E+03  0.10566000000E+00 0.  1.
          4    1    3    3  502    0  0.53986188224E+03  0.16775157172E+03 -0.13314416933E+03  0.58079153879E+03  0.00000000000E+00 0.  1.
         13    1    4    4    0    0  0.33351798634E+03 -0.63778987087E+00  0.38372548235E+03  0.50840919637E+03  0.10566000000E+00 0. -1.
         -4    1    4    4    0  501 -0.50873864604E+03 -0.17957311831E+03 -0.35060426328E+03  0.64341655576E+03  0.00000000000E+00 0. -1.
<mgrwt>
<rscale>  2 0.10849275E+04</rscale>
<asrwt>0</asrwt>
<pdfrwt beam="2">  1        2 0.22841380E+00 0.10849275E+04</pdfrwt>
<pdfrwt beam="1">  1       -2 0.13459230E+00 0.10849275E+04</pdfrwt>
<totfact> 0.74625694E+00</totfact>
</mgrwt>
</event>
<event>
 8    1  0.7046235E-006  0.1502540E+04  0.7818608E-02  0.8408038E-01
         -2   -1    0    0    0  501 -0.00000000000E+00  0.00000000000E+00  0.91958603986E+03  0.91958603986E+03  0.00000000000E+00 0.  1.
          2   -1    0    0  502    0  0.00000000000E+00 -0.00000000000E+00 -0.34722620688E+04  0.34722620688E+04  0.00000000000E+00 0. -1.
    9000010    2    1    2  502    0  0.83041169716E+03 -0.53873584896E+03 -0.24375254365E+04  0.28414005747E+04  0.10734090880E+04 0.  0.
   -9000010    2    1    2    0  501 -0.83041169716E+03  0.53873584896E+03 -0.11515059241E+03  0.15504475340E+04  0.11877743873E+04 0.  0.
        -13    1    3    3    0    0  0.10688317997E+04 -0.35752316254E+03 -0.16438356192E+04  0.19930930189E+04  0.10566000000E+00 0.  1.
          4    1    3    3  502    0 -0.23842010258E+03 -0.18121268642E+03 -0.79368981739E+03  0.84830755582E+03  0.00000000000E+00 0.  1.
         13    1    4    4    0    0  0.19113142009E+02  0.61517652315E+03  0.19065709262E+03  0.64432724990E+03  0.10566000000E+00 0. -1.
         -4    1    4    4    0  501 -0.84952483917E+03 -0.76440674194E+02 -0.30580768503E+03  0.90612028410E+03  0.00000000000E+00 0. -1.
<mgrwt>
<rscale>  2 0.15025404E+04</rscale>
<asrwt>0</asrwt>
<pdfrwt beam="2">  1        2 0.53419417E+00 0.15025404E+04</pdfrwt>
<pdfrwt beam="1">  1       -2 0.14147477E+00 0.15025404E+04</pdfrwt>
<totfact> 0.42100779E-01</totfact>
</mgrwt>
</event>
<event>
 8    1  0.7046235E-006  0.1017763E+04  0.7818608E-02  0.8758078E-01
          2   -1    0    0  502    0  0.00000000000E+00  0.00000000000E+00  0.22386290693E+04  0.22386290693E+04  0.00000000000E+00 0. -1.
         -2   -1    0    0    0  501 -0.00000000000E+00 -0.00000000000E+00 -0.47571825983E+03  0.47571825983E+03  0.00000000000E+00 0.  1.
    9000010    2    1    2  502    0  0.94364353593E+02 -0.22458602142E+03  0.64694173486E+03  0.11952838520E+04  0.97510325924E+03 0.  0.
   -9000010    2    1    2    0  501 -0.94364353593E+02  0.22458602142E+03  0.11159690746E+04  0.15190634771E+04  0.10014106849E+04 0.  0.
        -13    1    3    3    0    0  0.11034640865E+03 -0.50389933739E+03  0.28642884719E+02  0.51663458860E+03  0.10566000000E+00 0.  1.
          4    1    3    3  502    0 -0.15982055053E+02  0.27931331597E+03  0.61829885014E+03  0.67864926335E+03  0.00000000000E+00 0.  1.
         13    1    4    4    0    0 -0.12313298555E+03  0.50820317110E+03  0.20015309859E+03  0.55990487521E+03  0.10566000000E+00 0. -1.
         -4    1    4    4    0  501  0.28768631955E+02 -0.28361714968E+03  0.91581597598E+03  0.95915860192E+03  0.00000000000E+00 0. -1.
<mgrwt>
<rscale>  2 0.10177633E+04</rscale>
<asrwt>0</asrwt>
<pdfrwt beam="1">  1        2 0.34440447E+00 0.10177633E+04</pdfrwt>
<pdfrwt beam="2">  1       -2 0.73187426E-01 0.10177633E+04</pdfrwt>
<totfact> 0.12780494E+01</totfact>
</mgrwt>
</event>
<event>
 8    1  0.7046235E-006  0.1211505E+04  0.7818608E-02  0.8597949E-01
         -1   -1    0    0    0  501 -0.00000000000E+00  0.00000000000E+00  0.13268539414E+04  0.13268539414E+04  0.00000000000E+00 0.  1.
          1   -1    0    0  502    0  0.00000000000E+00 -0.00000000000E+00 -0.12483574384E+04  0.12483574384E+04  0.00000000000E+00 0. -1.
    9000010    2    1    2  502    0 -0.66344692440E+03 -0.30688476132E+03  0.47330329010E+03  0.13323410863E+04  0.10083534538E+04 0.  0.
   -9000010    2    1    2    0  501  0.66344692440E+03  0.30688476132E+03 -0.39480678712E+03  0.12428702934E+04  0.92439931247E+03 0.  0.
        -13    1    3    3    0    0 -0.41337129468E+03  0.35048561563E+03  0.19566274724E+03  0.57619433861E+03  0.10566000000E+00 0.  1.
          4    1    3    3  502    0 -0.25007562973E+03 -0.65737037695E+03  0.27764054286E+03  0.75614674774E+03  0.00000000000E+00 0.  1.
         13    1    4    4    0    0  0.18998100726E+03 -0.12417300426E+03  0.24758414534E+03  0.33587146097E+03  0.10566000000E+00 0. -1.
         -4    1    4    4    0  501  0.47346591714E+03  0.43105776558E+03 -0.64239093247E+03  0.90699883246E+03  0.00000000000E+00 0. -1.
<mgrwt>
<rscale>  2 0.12115052E+04</rscale>
<asrwt>0</asrwt>
<pdfrwt beam="2">  1        1 0.19205499E+00 0.12115052E+04</pdfrwt>
<pdfrwt beam="1">  1       -1 0.20413138E+00 0.12115052E+04</pdfrwt>
<totfact> 0.16650637E+00</totfact>
</mgrwt>
</event>
<event>
 8    1  0.7046235E-006  0.1246223E+04  0.7818608E-02  0.8572545E-01
         -2   -1    0    0    0  501 -0.00000000000E+00  0.00000000000E+00  0.75105370508E+03  0.75105370508E+03  0.00000000000E+00 0.  1.
          2   -1    0    0  502    0  0.00000000000E+00 -0.00000000000E+00 -0.23796718555E+04  0.23796718555E+04  0.00000000000E+00 0. -1.
    9000010    2    1    2  502    0  0.55337009993E+03  0.47360566339E+03 -0.24384941385E+03  0.12631564027E+04  0.10027865023E+04 0.  0.
   -9000010    2    1    2    0  501 -0.55337009993E+03 -0.47360566339E+03 -0.13847687365E+04  0.18675691578E+04  0.10196613721E+04 0.  0.
        -13    1    3    3    0    0  0.65743510900E+03  0.20365991374E+03 -0.52046056453E+03  0.86288903888E+03  0.10566000000E+00 0.  1.
          4    1    3    3  502    0 -0.10406500907E+03  0.26994574965E+03  0.27661115069E+03  0.40026736383E+03  0.00000000000E+00 0.  1.
         13    1    4    4    0    0 -0.37314733324E+03  0.16452772853E+03 -0.97120989283E+02  0.41921450772E+03  0.10566000000E+00 0. -1.
         -4    1    4    4    0  501 -0.18022276669E+03 -0.63813339192E+03 -0.12876477472E+04  0.14483546501E+04  0.00000000000E+00 0. -1.
<mgrwt>
<rscale>  2 0.12462231E+04</rscale>
<asrwt>0</asrwt>
<pdfrwt beam="2">  1        2 0.36610336E+00 0.12462231E+04</pdfrwt>
<pdfrwt beam="1">  1       -2 0.11554672E+00 0.12462231E+04</pdfrwt>
<totfact> 0.35989574E+00</totfact>
</mgrwt>
</event>
<event>
 8    1  0.7046235E-006  0.1201772E+04  0.7818608E-02  0.8605229E-01
         -1   -1    0    0    0  501 -0.00000000000E+00  0.00000000000E+00  0.53132968040E+03  0.53132968040E+03  0.00000000000E+00 0.  1.
          1   -1    0    0  502    0  0.00000000000E+00 -0.00000000000E+00 -0.27311745210E+04  0.27311745210E+04  0.00000000000E+00 0. -1.
    9000010    2    1    2  502    0 -0.14107971246E+03  0.64893241138E+03 -0.12144789128E+04  0.17102216494E+04  0.10044313319E+04 0.  0.
   -9000010    2    1    2    0  501  0.14107971246E+03 -0.64893241138E+03 -0.98536592783E+03  0.15522825521E+04  0.99880846507E+03 0.  0.
        -13    1    3    3    0    0  0.89472416716E+02  0.80844848912E+03 -0.53071044378E+03  0.97120948266E+03  0.10566000000E+00 0.  1.
          4    1    3    3  502    0 -0.23055212918E+03 -0.15951607774E+03 -0.68376846901E+03  0.73901216670E+03  0.00000000000E+00 0.  1.
         13    1    4    4    0    0 -0.33597616592E+03  0.11618191555E+02 -0.10379891907E+03  0.35183688437E+03  0.10566000000E+00 0. -1.
         -4    1    4    4    0  501  0.47705587838E+03 -0.66055060294E+03 -0.88156700876E+03  0.12004456677E+04  0.00000000000E+00 0. -1.
<mgrwt>
<rscale>  2 0.12017721E+04</rscale>
<asrwt>0</asrwt>
<pdfrwt beam="2">  1        1 0.42018070E+00 0.12017721E+04</pdfrwt>
<pdfrwt beam="1">  1       -1 0.81743028E-01 0.12017721E+04</pdfrwt>
<totfact> 0.13449204E+00</totfact>
</mgrwt>
</event>
<event>
 8    1  0.7046235E-006  0.1041113E+04  0.7818608E-02  0.8736893E-01
          2   -1    0    0  502    0  0.00000000000E+00  0.00000000000E+00  0.95227363402E+03  0.95227363402E+03  0.00000000000E+00 0.  1.
         -2   -1    0    0    0  501 -0.00000000000E+00 -0.00000000000E+00 -0.11389563271E+04  0.11389563271E+04  0.00000000000E+00 0. -1.
    9000010    2    1    2  502    0 -0.12218387877E+03 -0.25915143129E+03 -0.11517202453E+03  0.10350295262E+04  0.98789329402E+03 0.  0.
   -9000010    2    1    2    0  501  0.12218387877E+03  0.25915143129E+03 -0.71510668525E+02  0.10562004349E+04  0.10140794931E+04 0.  0.
        -13    1    3    3    0    0 -0.10203853589E+03 -0.48878154872E+03  0.28373945108E+03  0.57430597458E+03  0.10566000000E+00 0.  1.
          4    1    3    3  502    0 -0.20145342887E+02  0.22963011743E+03 -0.39891147561E+03  0.46072355165E+03  0.00000000000E+00 0.  1.
         13    1    4    4    0    0  0.34887233346E+02 -0.31100524305E+03 -0.30213520862E+03  0.43500238586E+03  0.10566000000E+00 0. -1.
         -4    1    4    4    0  501  0.87296645428E+02  0.57015667434E+03  0.23062454009E+03  0.62119804901E+03  0.00000000000E+00 0. -1.
<mgrwt>
<rscale>  2 0.10411132E+04</rscale>
<asrwt>0</asrwt>
<pdfrwt beam="1">  1        2 0.14650364E+00 0.10411132E+04</pdfrwt>
<pdfrwt beam="2">  1       -2 0.17522405E+00 0.10411132E+04</pdfrwt>
<totfact> 0.66874019E+00</totfact>
</mgrwt>
</event>
<event>
 8    1  0.7046235E-006  0.1024156E+04  0.7818608E-02  0.8752220E-01
          2   -1    0    0  502    0  0.00000000000E+00  0.00000000000E+00  0.18561488899E+04  0.18561488899E+04  0.00000000000E+00 0.  1.
         -2   -1    0    0    0  501 -0.00000000000E+00 -0.00000000000E+00 -0.80517997230E+03  0.80517997230E+03  0.00000000000E+00 0. -1.
    9000010    2    1    2  502    0  0.24131400291E+03  0.44762088504E+02 -0.19590175913E+03  0.10565298031E+04  0.10087822525E+04 0.  0.
   -9000010    2    1    2    0  501 -0.24131400291E+03 -0.44762088504E+02  0.12468706767E+04  0.16047990591E+04  0.98002930723E+03 0.  0.
        -13    1    3    3    0    0 -0.37750402149E+03  0.88396672434E+02  0.46508439812E+02  0.39049494756E+03  0.10566000000E+00 0.  1.
          4    1    3    3  502    0  0.61881802439E+03 -0.43634583930E+02 -0.24241019895E+03  0.66603485553E+03  0.00000000000E+00 0.  1.
         13    1    4    4    0    0  0.38129839650E+03  0.29086456038E+02  0.43959898896E+03  0.58265064263E+03  0.10566000000E+00 0. -1.
         -4    1    4    4    0  501 -0.62261239940E+03 -0.73848544542E+02  0.80727168773E+03  0.10221484164E+04  0.00000000000E+00 0. -1.
<mgrwt>
<rscale>  2 0.10241562E+04</rscale>
<asrwt>0</asrwt>
<pdfrwt beam="1">  1        2 0.28556137E+00 0.10241562E+04</pdfrwt>
<pdfrwt beam="2">  1       -2 0.12387384E+00 0.10241562E+04</pdfrwt>
<totfact> 0.59430120E+00</totfact>
</mgrwt>
</event>
<event>
 8    1  0.7046235E-006  0.1075201E+04  0.7818608E-02  0.8706975E-01
          1   -1    0    0  502    0  0.00000000000E+00  0.00000000000E+00  0.14026236233E+04  0.14026236233E+04  0.00000000000E+00 0. -1.
         -1   -1    0    0    0  501 -0.00000000000E+00 -0.00000000000E+00 -0.11897078226E+04  0.11897078226E+04  0.00000000000E+00 0.  1.
    9000010    2    1    2  502    0  0.31170389005E+03  0.22678652395E+03 -0.61267789155E+03  0.12268271806E+04  0.99052475472E+03 0.  0.
   -9000010    2    1    2    0  501 -0.31170389005E+03 -0.22678652395E+03  0.82559369222E+03  0.13655042653E+04  0.10170572803E+04 0.  0.
        -13    1    3    3    0    0  0.41352312312E+02 -0.85777907334E+02  0.25149674794E+03  0.26892097075E+03  0.10566000000E+00 0.  1.
          4    1    3    3  502    0  0.27035157774E+03  0.31256443128E+03 -0.86417463949E+03  0.95790620983E+03  0.00000000000E+00 0.  1.
         13    1    4    4    0    0 -0.53353507343E+03 -0.34477194061E+03  0.90168477032E+03  0.11029790577E+04  0.10566000000E+00 0. -1.
         -4    1    4    4    0  501  0.22183118338E+03  0.11798541666E+03 -0.76091078097E+02  0.26252520761E+03  0.00000000000E+00 0. -1.
<mgrwt>
<rscale>  2 0.10752010E+04</rscale>
<asrwt>0</asrwt>
<pdfrwt beam="1">  1        1 0.21578825E+00 0.10752010E+04</pdfrwt>
<pdfrwt beam="2">  1       -1 0.18303197E+00 0.10752010E+04</pdfrwt>
<totfact> 0.19970923E+00</totfact>
</mgrwt>
</event>
<event>
 8    1  0.7046235E-006  0.1036239E+04  0.7818608E-02  0.8741267E-01
          2   -1    0    0  502    0  0.00000000000E+00  0.00000000000E+00  0.28764384531E+04  0.28764384531E+04  0.00000000000E+00 0. -1.
         -2   -1    0    0    0  501 -0.00000000000E+00 -0.00000000000E+00 -0.44841140673E+03  0.44841140673E+03  0.00000000000E+00 0.  1.
    9000010    2    1    2  502    0 -0.29793491513E+03 -0.22331754121E+03  0.55977433183E+03  0.12005826691E+04  0.99469367385E+03 0.  0.
   -9000010    2    1    2    0  501  0.29793491513E+03  0.22331754121E+03  0.18682527145E+04  0.21242671908E+04  0.93995050642E+03 0.  0.
        -13    1    3    3    0    0  0.20856415992E+03 -0.45315079042E+03  0.33381505453E+03  0.60023091345E+03  0.10566000000E+00 0.  1.
          4    1    3    3  502    0 -0.50649907506E+03  0.22983324921E+03  0.22595927730E+03  0.60035175562E+03  0.00000000000E+00 0.  1.
         13    1    4    4    0    0 -0.34576846272E+02  0.29522554551E+03  0.85430232201E+02  0.30927660234E+03  0.10566000000E+00 0. -1.
         -4    1    4    4    0  501  0.33251176141E+03 -0.71908004293E+02  0.17828224823E+04  0.18149905884E+04  0.00000000000E+00 0. -1.
<mgrwt>
<rscale>  2 0.10362395E+04</rscale>
<asrwt>0</asrwt>
<pdfrwt beam="1">  1        2 0.44252898E+00 0.10362395E+04</pdfrwt>
<pdfrwt beam="2">  1       -2 0.68986372E-01 0.10362395E+04</pdfrwt>
<totfact> 0.62800655E+00</totfact>
</mgrwt>
</event>
<event>
 8    1  0.7046235E-006  0.1454094E+04  0.7818608E-02  0.8436419E-01
         -2   -1    0    0    0  501 -0.00000000000E+00  0.00000000000E+00  0.13072017406E+04  0.13072017406E+04  0.00000000000E+00 0. -1.
          2   -1    0    0  502    0  0.00000000000E+00 -0.00000000000E+00 -0.19805287867E+04  0.19805287867E+04  0.00000000000E+00 0.  1.
    9000010    2    1    2  502    0  0.85193494426E+03 -0.64675905718E+03  0.36626705576E+03  0.15038956055E+04  0.99169552220E+03 0.  0.
   -9000010    2    1    2    0  501 -0.85193494426E+03  0.64675905718E+03 -0.10395941018E+04  0.17838349218E+04  0.97837656568E+03 0.  0.
        -13    1    3    3    0    0  0.12489298059E+03 -0.30493814311E+03 -0.31101184000E+03  0.45311577275E+03  0.10566000000E+00 0.  1.
          4    1    3    3  502    0  0.72704196367E+03 -0.34182091406E+03  0.67727889577E+03  0.10507798327E+04  0.00000000000E+00 0.  1.
         13    1    4    4    0    0 -0.27594232948E+03  0.67662306077E+03 -0.18665203429E+03  0.75418958401E+03  0.10566000000E+00 0. -1.
         -4    1    4    4    0  501 -0.57599261478E+03 -0.29864003589E+02 -0.85294206755E+03  0.10296453378E+04  0.00000000000E+00 0. -1.
<mgrwt>
<rscale>  2 0.14540942E+04</rscale>
<asrwt>0</asrwt>
<pdfrwt beam="2">  1        2 0.30469674E+00 0.14540942E+04</pdfrwt>
<pdfrwt beam="1">  1       -2 0.20110796E+00 0.14540942E+04</pdfrwt>
<totfact> 0.10344311E+00</totfact>
</mgrwt>
</event>
<event>
 8    1  0.7046235E-006  0.1379678E+04  0.7818608E-02  0.8482298E-01
         -1   -1    0    0    0  501 -0.00000000000E+00  0.00000000000E+00  0.10404349454E+04  0.10404349454E+04  0.00000000000E+00 0.  1.
          1   -1    0    0  502    0  0.00000000000E+00 -0.00000000000E+00 -0.18908770421E+04  0.18908770421E+04  0.00000000000E+00 0. -1.
    9000010    2    1    2  502    0 -0.63444892625E+03 -0.69591474513E+03 -0.17396571414E+03  0.14250147238E+04  0.10552630577E+04 0.  0.
   -9000010    2    1    2    0  501  0.63444892625E+03  0.69591474513E+03 -0.67647638265E+03  0.15062972637E+04  0.96150318658E+03 0.  0.
        -13    1    3    3    0    0 -0.38370286939E+03 -0.81390775917E+03  0.23592699266E+03  0.93023399715E+03  0.10566000000E+00 0.  1.
          4    1    3    3  502    0 -0.25074605686E+03  0.11799301404E+03 -0.40989270680E+03  0.49478072666E+03  0.00000000000E+00 0.  1.
         13    1    4    4    0    0  0.16966066200E+03  0.40575188744E+03 -0.82822130484E+03  0.93774723425E+03  0.10566000000E+00 0. -1.
         -4    1    4    4    0  501  0.46478826425E+03  0.29016285770E+03  0.15174492218E+03  0.56855002944E+03  0.00000000000E+00 0. -1.
<mgrwt>
<rscale>  2 0.13796777E+04</rscale>
<asrwt>0</asrwt>
<pdfrwt beam="2">  1        1 0.29090416E+00 0.13796777E+04</pdfrwt>
<pdfrwt beam="1">  1       -1 0.16006692E+00 0.13796777E+04</pdfrwt>
<totfact> 0.13131262E+00</totfact>
</mgrwt>
</event>
<event>
 8    1  0.7046235E-006  0.1071133E+04  0.7818608E-02  0.8710484E-01
         -2   -1    0    0    0  501 -0.00000000000E+00  0.00000000000E+00  0.78959041673E+03  0.78959041673E+03  0.00000000000E+00 0.  1.
          2   -1    0    0  502    0  0.00000000000E+00 -0.00000000000E+00 -0.21759649824E+04  0.21759649824E+04  0.00000000000E+00 0. -1.
    9000010    2    1    2  502    0 -0.30046701885E+03 -0.27327104055E+03  0.15044098775E+03  0.11058430903E+04  0.10174964169E+04 0.  0.
   -9000010    2    1    2    0  501  0.30046701885E+03  0.27327104055E+03 -0.15368155534E+04  0.18597123088E+04  0.96528251588E+03 0.  0.
        -13    1    3    3    0    0  0.27906935562E+03 -0.16906144636E+03  0.35530390095E+03  0.48239232072E+03  0.10566000000E+00 0.  1.
          4    1    3    3  502    0 -0.57953637447E+03 -0.10420959419E+03 -0.20486291321E+03  0.62345076956E+03  0.00000000000E+00 0.  1.
         13    1    4    4    0    0 -0.39134483507E+02  0.56164226804E+03 -0.60248200201E+03  0.82459573062E+03  0.10566000000E+00 0. -1.
         -4    1    4    4    0  501  0.33960150236E+03 -0.28837122750E+03 -0.93433355136E+03  0.10351165782E+04  0.00000000000E+00 0. -1.
<mgrwt>
<rscale>  2 0.10711326E+04</rscale>
<asrwt>0</asrwt>
<pdfrwt beam="2">  1        2 0.33476384E+00 0.10711326E+04</pdfrwt>
<pdfrwt beam="1">  1       -2 0.12147545E+00 0.10711326E+04</pdfrwt>
<totfact> 0.41700323E+00</totfact>
</mgrwt>
</event>
<event>
 8    1  0.7046235E-006  0.1284191E+04  0.7818608E-02  0.8545725E-01
          2   -1    0    0  502    0  0.00000000000E+00  0.00000000000E+00  0.33183312515E+04  0.33183312515E+04  0.00000000000E+00 0.  1.
         -2   -1    0    0    0  501 -0.00000000000E+00 -0.00000000000E+00 -0.62484760138E+03  0.62484760138E+03  0.00000000000E+00 0. -1.
    9000010    2    1    2  502    0  0.64886275675E+03 -0.44447907053E+03  0.22454930722E+04  0.25909347571E+04  0.10257286469E+04 0.  0.
   -9000010    2    1    2    0  501 -0.64886275675E+03  0.44447907053E+03  0.44799057796E+03  0.13522440958E+04  0.10046312833E+04 0.  0.
        -13    1    3    3    0    0  0.44026239017E+03  0.10965645237E+03  0.26856037451E+03  0.52723827219E+03  0.10566000000E+00 0.  1.
          4    1    3    3  502    0  0.20860036658E+03 -0.55413552290E+03  0.19769326977E+04  0.20636964849E+04  0.00000000000E+00 0.  1.
         13    1    4    4    0    0 -0.55853843946E+03 -0.21910273848E+03  0.14532562390E+03  0.61732547857E+03  0.10566000000E+00 0. -1.
         -4    1    4    4    0  501 -0.90324317291E+02  0.66358180901E+03  0.30266495406E+03  0.73491861723E+03  0.00000000000E+00 0. -1.
<mgrwt>
<rscale>  2 0.12841912E+04</rscale>
<asrwt>0</asrwt>
<pdfrwt beam="1">  1        2 0.51051249E+00 0.12841912E+04</pdfrwt>
<pdfrwt beam="2">  1       -2 0.96130402E-01 0.12841912E+04</pdfrwt>
<totfact> 0.15291960E+00</totfact>
</mgrwt>
</event>
<event>
 8    1  0.7046235E-006  0.1191167E+04  0.7818608E-02  0.8613243E-01
          2   -1    0    0  502    0  0.00000000000E+00  0.00000000000E+00  0.30254755276E+04  0.30254755276E+04  0.00000000000E+00 0.  1.
         -2   -1    0    0    0  501 -0.00000000000E+00 -0.00000000000E+00 -0.47268215806E+03  0.47268215806E+03  0.00000000000E+00 0. -1.
    9000010    2    1    2  502    0 -0.62164557205E+03 -0.91789343155E+02  0.11277486565E+04  0.16444342636E+04  0.10185668924E+04 0.  0.
   -9000010    2    1    2    0  501  0.62164557205E+03  0.91789343155E+02  0.14250447131E+04  0.18537234221E+04  0.10053206407E+04 0.  0.
        -13    1    3    3    0    0 -0.85513528982E+03 -0.22875575687E+03  0.66061491208E+03  0.11045350304E+04  0.10566000000E+00 0.  1.
          4    1    3    3  502    0  0.23348971777E+03  0.13696641371E+03  0.46713374442E+03  0.53989923316E+03  0.00000000000E+00 0.  1.
         13    1    4    4    0    0  0.78611596814E+03 -0.23433443479E+03  0.98850974269E+03  0.12845397873E+04  0.10566000000E+00 0. -1.
         -4    1    4    4    0  501 -0.16447039609E+03  0.32612377794E+03  0.43653497036E+03  0.56918363476E+03  0.00000000000E+00 0. -1.
<mgrwt>
<rscale>  2 0.11911672E+04</rscale>
<asrwt>0</asrwt>
<pdfrwt beam="1">  1        2 0.46545776E+00 0.11911672E+04</pdfrwt>
<pdfrwt beam="2">  1       -2 0.72720334E-01 0.11911672E+04</pdfrwt>
<totfact> 0.44641866E+00</totfact>
</mgrwt>
</event>
<event>
 8    1  0.7046235E-006  0.1493044E+04  0.7818608E-02  0.8413513E-01
         -4   -1    0    0    0  501 -0.00000000000E+00  0.00000000000E+00  0.13749857756E+04  0.13749857756E+04  0.00000000000E+00 0. -1.
          4   -1    0    0  502    0  0.00000000000E+00 -0.00000000000E+00 -0.16847400760E+04  0.16847400760E+04  0.00000000000E+00 0.  1.
    9000010    2    1    2  502    0  0.97032647967E+03 -0.55412480492E+03 -0.45253687263E+03  0.15672717091E+04  0.10014805103E+04 0.  0.
   -9000010    2    1    2    0  501 -0.97032647967E+03  0.55412480492E+03  0.14278257224E+03  0.14924541425E+04  0.97900190403E+03 0.  0.
        -13    1    3    3    0    0 -0.31345611687E+02 -0.10775335199E+03  0.24369900177E+03  0.26829563333E+03  0.10566000000E+00 0.  1.
          4    1    3    3  502    0  0.10016720914E+04 -0.44637145293E+03 -0.69623587440E+03  0.12989760758E+04  0.00000000000E+00 0.  1.
         13    1    4    4    0    0 -0.41189539790E+03 -0.13947455919E+02  0.47543562631E+03  0.62919901166E+03  0.10566000000E+00 0. -1.
         -4    1    4    4    0  501 -0.55843108177E+03  0.56807226084E+03 -0.33265305408E+03  0.86325513089E+03  0.00000000000E+00 0. -1.
<mgrwt>
<rscale>  2 0.14930441E+04</rscale>
<asrwt>0</asrwt>
<pdfrwt beam="2">  1        4 0.25919078E+00 0.14930441E+04</pdfrwt>
<pdfrwt beam="1">  1       -4 0.21153627E+00 0.14930441E+04</pdfrwt>
<totfact> 0.11774044E-01</totfact>
</mgrwt>
</event>
<event>
 8    1  0.7046235E-006  0.1069166E+04  0.7818608E-02  0.8712187E-01
         -1   -1    0    0    0  501 -0.00000000000E+00  0.00000000000E+00  0.10288410521E+04  0.10288410521E+04  0.00000000000E+00 0.  1.
          1   -1    0    0  502    0  0.00000000000E+00 -0.00000000000E+00 -0.14945385743E+04  0.14945385743E+04  0.00000000000E+00 0. -1.
    9000010    2    1    2  502    0  0.37795138250E+03  0.13012618708E+03  0.40437902194E+03  0.11532263552E+04  0.10033088063E+04 0.  0.
   -9000010    2    1    2    0  501 -0.37795138250E+03 -0.13012618708E+03 -0.87007654413E+03  0.13701532712E+04  0.98005444846E+03 0.  0.
        -13    1    3    3    0    0  0.70601042802E+03  0.23673792787E+02  0.39249479507E+03  0.80812334966E+03  0.10566000000E+00 0.  1.
          4    1    3    3  502    0 -0.32805904552E+03  0.10645239429E+03  0.11884226876E+02  0.34510300556E+03  0.00000000000E+00 0.  1.
         13    1    4    4    0    0 -0.30994988986E+02 -0.21035675939E+03  0.16908790809E+03  0.27166410766E+03  0.10566000000E+00 0. -1.
         -4    1    4    4    0  501 -0.34695639351E+03  0.80230572313E+02 -0.10391644522E+04  0.10984891636E+04  0.00000000000E+00 0. -1.
<mgrwt>
<rscale>  2 0.10691656E+04</rscale>
<asrwt>0</asrwt>
<pdfrwt beam="2">  1        1 0.22992901E+00 0.10691656E+04</pdfrwt>
<pdfrwt beam="1">  1       -1 0.15828324E+00 0.10691656E+04</pdfrwt>
<totfact> 0.28011309E+00</totfact>
</mgrwt>
</event>
<event>
 8    1  0.7046235E-006  0.1301147E+04  0.7818608E-02  0.8534055E-01
         -1   -1    0    0    0  501 -0.00000000000E+00  0.00000000000E+00  0.79838229335E+03  0.79838229335E+03  0.00000000000E+00 0. -1.
          1   -1    0    0  502    0  0.00000000000E+00 -0.00000000000E+00 -0.21655307309E+04  0.21655307309E+04  0.00000000000E+00 0.  1.
    9000010    2    1    2  502    0  0.77465092818E+03  0.30299348394E+03 -0.90504540094E+03  0.15989128109E+04  0.10225096024E+04 0.  0.
   -9000010    2    1    2    0  501 -0.77465092818E+03 -0.30299348394E+03 -0.46210303664E+03  0.13650002134E+04  0.97867116764E+03 0.  0.
        -13    1    3    3    0    0  0.44184059573E+03 -0.19819685354E+03  0.32047027565E+02  0.48531652344E+03  0.10566000000E+00 0.  1.
          4    1    3    3  502    0  0.33281033245E+03  0.50119033748E+03 -0.93709242851E+03  0.11135962874E+04  0.00000000000E+00 0.  1.
         13    1    4    4    0    0  0.53724531007E+01 -0.77363982995E+02  0.26433656357E+03  0.27547754740E+03  0.10566000000E+00 0. -1.
         -4    1    4    4    0  501 -0.78002338128E+03 -0.22562950094E+03 -0.72643960021E+03  0.10895226660E+04  0.00000000000E+00 0. -1.
<mgrwt>
<rscale>  2 0.13011466E+04</rscale>
<asrwt>0</asrwt>
<pdfrwt beam="2">  1        1 0.33315857E+00 0.13011466E+04</pdfrwt>
<pdfrwt beam="1">  1       -1 0.12282805E+00 0.13011466E+04</pdfrwt>
<totfact> 0.17233779E+00</totfact>
</mgrwt>
</event>
