<event>
 8    1  0.7208583E-006  0.1055991E+04  0.7818608E-02  0.8723770E-01
         21   -1    0    0  503  502  0.00000000000E+00  0.00000000000E+00  0.20259556373E+04  0.20259556373E+04  0.00000000000E+00 0. -1.
         21   -1    0    0  501  503 -0.00000000000E+00 -0.00000000000E+00 -0.82597813822E+03  0.82597813822E+03  0.00000000000E+00 0. -1.
    9000010    2    1    2  501    0  0.34025148448E+03  0.92654408019E+02 -0.22399947550E+03  0.10791316675E+04  0.99498416002E+03 0.  0.
   -9000010    2    1    2    0  502 -0.34025148448E+03 -0.92654408019E+02  0.14239769746E+04  0.17728021080E+04  0.99536976956E+03 0.  0.
        -13    1    3    3    0    0  0.29590464638E+03  0.40506699808E+03 -0.46350188248E+03  0.68298816894E+03  0.10566000000E+00 0.  1.
          4    1    3    3  501    0  0.44346838098E+02 -0.31241259006E+03  0.23950240697E+03  0.39614349853E+03  0.00000000000E+00 0.  1.
         13    1    4    4    0    0 -0.13404910331E+03  0.45171585182E+03  0.70025763415E+03  0.84402437064E+03  0.10566000000E+00 0. -1.
         -4    1    4    4    0  502 -0.20620238116E+03 -0.54437025984E+03  0.72371934042E+03  0.92877773740E+03  0.00000000000E+00 0. -1.
<mgrwt>
<rscale>  2 0.10559001E+04</rscale>
<asrwt>0</asrwt>
<pdfrwt beam="1">  1       21 0.31168548E+00 0.10559910E+04</pdfrwt>
<pdfrwt beam="2">  1       21 0.12707356E+00 0.10559910E+04</pdfrwt>
<totfact> 0.45093693E+00</totfact>
</mgrwt>
</event>
<event>
 8    1  0.7208583E-006  0.1010275E+04  0.7818608E-02  0.8779279E-01
         21   -1    0    0  503  502  0.00000000000E+00  0.00000000000E+00  0.88839711261E+03  0.88839711261E+03  0.00000000000E+00 0. -1.
         21   -1    0    0  501  503 -0.00000000000E+00 -0.00000000000E+00 -0.10889627101E+04  0.10889627101E+04  0.00000000000E+00 0. -1.
    9000010    2    1    2  501    0 -0.26699309864E+02 -0.18936699302E+03 -0.17591885772E+03  0.96678402325E+03  0.93120953169E+03 0.  0.
   -9000010    2    1    2    0  502  0.26699309864E+02  0.18936699302E+03 -0.24646739816E+02  0.10105757995E+04  0.99200971446E+03 0.  0.
        -13    1    3    3    0    0  0.27373499295E+03 -0.42393067932E+03  0.75401223965E+02  0.51022879473E+03  0.10566000000E+00 0.  1.
          4    1    3    3  501    0 -0.30043430281E+03  0.23456368630E+03 -0.25132008169E+03  0.45655522852E+03  0.00000000000E+00 0.  1.
         13    1    4    4    0    0  0.30885936913E+03  0.50165758695E+03 -0.25988335085E+01  0.58911901136E+03  0.10566000000E+00 0. -1.
         -4    1    4    4    0  502 -0.28216005927E+03 -0.31229059393E+03 -0.22047906307E+02  0.42145678815E+03  0.00000000000E+00 0. -1.
<mgrwt>
<rscale>  2 0.99502557E+03</rscale>
<asrwt>0</asrwt>
<pdfrwt beam="1">  1       21 0.13667648E+00 0.10102752E+04</pdfrwt>
<pdfrwt beam="2">  1       21 0.16753272E+00 0.10102752E+04</pdfrwt>
<totfact> 0.44137602E+01</totfact>
</mgrwt>
</event>
<event>
 8    1  0.7208583E-006  0.1106032E+04  0.7818608E-02  0.8685247E-01
         21   -1    0    0  503  502  0.00000000000E+00  0.00000000000E+00  0.12423176349E+04  0.12423176349E+04  0.00000000000E+00 0. -1.
         21   -1    0    0  501  503 -0.00000000000E+00 -0.00000000000E+00 -0.13292118900E+04  0.13292118900E+04  0.00000000000E+00 0. -1.
    9000010    2    1    2  501    0  0.43475852590E+03  0.49063802657E+02 -0.71493977709E+03  0.12996225002E+04  0.99320568147E+03 0.  0.
   -9000010    2    1    2    0  502 -0.43475852590E+03 -0.49063802657E+02  0.62804552199E+03  0.12719070247E+04  0.10158169468E+04 0.  0.
        -13    1    3    3    0    0 -0.16444978822E+03 -0.51607120870E+01 -0.67707105724E+03  0.69677513842E+03  0.10566000000E+00 0.  1.
          4    1    3    3  501    0  0.59920831413E+03  0.54224514744E+02 -0.37868719844E+02  0.60284736183E+03  0.00000000000E+00 0.  1.
         13    1    4    4    0    0  0.62636904378E+02 -0.55064349189E+02  0.75414385817E+03  0.75874134876E+03  0.10566000000E+00 0. -1.
         -4    1    4    4    0  502 -0.49739543028E+03  0.60005465319E+01 -0.12609833618E+03  0.51316567598E+03  0.00000000000E+00 0. -1.
<mgrwt>
<rscale>  2 0.11008124E+04</rscale>
<asrwt>0</asrwt>
<pdfrwt beam="1">  1       21 0.19112579E+00 0.11060318E+04</pdfrwt>
<pdfrwt beam="2">  1       21 0.20449414E+00 0.11060318E+04</pdfrwt>
<totfact> 0.74212402E+00</totfact>
</mgrwt>
</event>
<event>
 8    1  0.7208583E-006  0.1045658E+04  0.7818608E-02  0.8733425E-01
         21   -1    0    0  503  502  0.00000000000E+00  0.00000000000E+00  0.14383243740E+04  0.14383243740E+04  0.00000000000E+00 0. -1.
         21   -1    0    0  501  503 -0.00000000000E+00 -0.00000000000E+00 -0.96767674723E+03  0.96767674723E+03  0.00000000000E+00 0. -1.
    9000010    2    1    2  501    0  0.26237604339E+03  0.83030133080E+02  0.79471462261E+03  0.13112773337E+04  0.10060525451E+04 0.  0.
   -9000010    2    1    2    0  502 -0.26237604339E+03 -0.83030133080E+02 -0.32406699581E+03  0.10947237875E+04  0.10087941128E+04 0.  0.
        -13    1    3    3    0    0  0.57733820932E+03  0.15608365434E+03  0.19341468456E+03  0.62856246027E+03  0.10566000000E+00 0.  1.
          4    1    3    3  501    0 -0.31496216593E+03 -0.73053521256E+02  0.60129993805E+03  0.68271487346E+03  0.00000000000E+00 0.  1.
         13    1    4    4    0    0 -0.15321847498E+02  0.41532958866E+03  0.58383736869E+02  0.41969286166E+03  0.10566000000E+00 0. -1.
         -4    1    4    4    0  502 -0.24705419589E+03 -0.49835972174E+03 -0.38245073268E+03  0.67503092588E+03  0.00000000000E+00 0. -1.
<mgrwt>
<rscale>  2 0.10449963E+04</rscale>
<asrwt>0</asrwt>
<pdfrwt beam="1">  1       21 0.22128067E+00 0.10456580E+04</pdfrwt>
<pdfrwt beam="2">  1       21 0.14887335E+00 0.10456580E+04</pdfrwt>
<totfact> 0.12701668E+01</totfact>
</mgrwt>
</event>
<event>
 8    1  0.7208583E-006  0.1064219E+04  0.7818608E-02  0.8717966E-01
         21   -1    0    0  503  502  0.00000000000E+00  0.00000000000E+00  0.15114589739E+04  0.15114589739E+04  0.00000000000E+00 0.  1.
         21   -1    0    0  501  503 -0.00000000000E+00 -0.00000000000E+00 -0.95492902703E+03  0.95492902703E+03  0.00000000000E+00 0.  1.
    9000010    2    1    2  501    0  0.31116070731E+03 -0.20807809353E+03 -0.29985671220E+03  0.11056565004E+04  0.99621522284E+03 0.  0.
   -9000010    2    1    2    0  502 -0.31116070731E+03  0.20807809353E+03  0.85638665908E+03  0.13607315005E+04  0.98897655581E+03 0.  0.
        -13    1    3    3    0    0  0.62627509329E+03 -0.35123030457E+03 -0.20832524341E+03  0.74765141445E+03  0.10566000000E+00 0.  1.
          4    1    3    3  501    0 -0.31511438598E+03  0.14315221104E+03 -0.91531468790E+02  0.35800508593E+03  0.00000000000E+00 0.  1.
         13    1    4    4    0    0  0.84095741033E+02 -0.49645729969E+02  0.88275290746E+03  0.88813822064E+03  0.10566000000E+00 0. -1.
         -4    1    4    4    0  502 -0.39525644835E+03  0.25772382350E+03 -0.26366248380E+02  0.47259327991E+03  0.00000000000E+00 0. -1.
<mgrwt>
<rscale>  2 0.10625218E+04</rscale>
<asrwt>0</asrwt>
<pdfrwt beam="1">  1       21 0.23253215E+00 0.10642191E+04</pdfrwt>
<pdfrwt beam="2">  1       21 0.14691216E+00 0.10642191E+04</pdfrwt>
<totfact> 0.10854879E+01</totfact>
</mgrwt>
</event>
<event>
 8    1  0.7208583E-006  0.9993292E+03  0.7818608E-02  0.8775648E-01
         21   -1    0    0  503  502  0.00000000000E+00  0.00000000000E+00  0.12067276894E+04  0.12067276894E+04  0.00000000000E+00 0. -1.
         21   -1    0    0  501  503 -0.00000000000E+00 -0.00000000000E+00 -0.85891281681E+03  0.85891281681E+03  0.00000000000E+00 0. -1.
    9000010    2    1    2  501    0 -0.28971137225E+02  0.44505580449E+02 -0.28181364118E+02  0.99791770032E+03  0.99610515200E+03 0.  0.
   -9000010    2    1    2    0  502  0.28971137225E+02 -0.44505580449E+02  0.37599623675E+03  0.10677228059E+04  0.99791720436E+03 0.  0.
        -13    1    3    3    0    0 -0.47769924685E+03  0.64953522474E+02  0.16415793380E+03  0.50927730061E+03  0.10566000000E+00 0.  1.
          4    1    3    3  501    0  0.44872810963E+03 -0.20447942025E+02 -0.19233929792E+03  0.48864039971E+03  0.00000000000E+00 0.  1.
         13    1    4    4    0    0  0.15514924812E+03 -0.18391242410E+03  0.67382994788E+03  0.71550113820E+03  0.10566000000E+00 0. -1.
         -4    1    4    4    0  502 -0.12617811090E+03  0.13940684365E+03 -0.29783371114E+03  0.35222166773E+03  0.00000000000E+00 0. -1.
<mgrwt>
<rscale>  2 0.99887651E+03</rscale>
<asrwt>0</asrwt>
<pdfrwt beam="1">  1       21 0.18565041E+00 0.99932919E+03</pdfrwt>
<pdfrwt beam="2">  1       21 0.13214043E+00 0.99932919E+03</pdfrwt>
<totfact> 0.34645190E+01</totfact>
</mgrwt>
</event>
<event>
 8    1  0.7208583E-006  0.1005220E+04  0.7818608E-02  0.8771842E-01
         21   -1    0    0  501  502  0.00000000000E+00  0.00000000000E+00  0.66247849134E+03  0.66247849134E+03  0.00000000000E+00 0. -1.
         21   -1    0    0  502  503 -0.00000000000E+00 -0.00000000000E+00 -0.16605402127E+04  0.16605402127E+04  0.00000000000E+00 0. -1.
    9000010    2    1    2  501    0 -0.59637321759E+02  0.94134598318E+02 -0.14895781538E+03  0.10071749568E+04  0.98984596284E+03 0.  0.
   -9000010    2    1    2    0  503  0.59637321759E+02 -0.94134598318E+02 -0.84910390598E+03  0.13158437472E+04  0.99902421952E+03 0.  0.
        -13    1    3    3    0    0 -0.42449916511E+03  0.21667126081E+03  0.17132340360E+03  0.50645601608E+03  0.10566000000E+00 0.  1.
          4    1    3    3  501    0  0.36486184335E+03 -0.12253666250E+03 -0.32028121898E+03  0.50071894074E+03  0.00000000000E+00 0.  1.
         13    1    4    4    0    0 -0.44231787589E+03  0.85408241324E+02 -0.25511383703E+03  0.51770913844E+03  0.10566000000E+00 0. -1.
         -4    1    4    4    0  503  0.50195519765E+03 -0.17954283964E+03 -0.59399006895E+03  0.79813460878E+03  0.00000000000E+00 0. -1.
<mgrwt>
<rscale>  2 0.10029319E+04</rscale>
<asrwt>0</asrwt>
<pdfrwt beam="1">  1       21 0.10191977E+00 0.10052200E+04</pdfrwt>
<pdfrwt beam="2">  1       21 0.25546772E+00 0.10052200E+04</pdfrwt>
<totfact> 0.21016521E+01</totfact>
</mgrwt>
</event>
<event>
 8    1  0.7208583E-006  0.1003462E+04  0.7818608E-02  0.8772733E-01
         21   -1    0    0  503  502  0.00000000000E+00  0.00000000000E+00  0.93815408080E+03  0.93815408080E+03  0.00000000000E+00 0. -1.
         21   -1    0    0  501  503 -0.00000000000E+00 -0.00000000000E+00 -0.10825551314E+04  0.10825551314E+04  0.00000000000E+00 0. -1.
    9000010    2    1    2  501    0 -0.11037549394E+01 -0.44741801064E+02 -0.19309656625E+03  0.10160663782E+04  0.99654480785E+03 0.  0.
   -9000010    2    1    2    0  502  0.11037549394E+01  0.44741801064E+02  0.48695515670E+02  0.10046428339E+04  0.10024634275E+04 0.  0.
        -13    1    3    3    0    0  0.13744193764E+03 -0.21007487862E+03 -0.54685800288E+03  0.60172703722E+03  0.10566000000E+00 0.  1.
          4    1    3    3  501    0 -0.13854569258E+03  0.16533307755E+03  0.35376143663E+03  0.41433934102E+03  0.00000000000E+00 0.  1.
         13    1    4    4    0    0  0.36378687277E+02  0.41606975991E+03  0.33420756359E+03  0.53491322728E+03  0.10566000000E+00 0. -1.
         -4    1    4    4    0  502 -0.35274932337E+02 -0.37132795884E+03 -0.28551204792E+03  0.46972960666E+03  0.00000000000E+00 0. -1.
<mgrwt>
<rscale>  2 0.10019805E+04</rscale>
<asrwt>0</asrwt>
<pdfrwt beam="1">  1       21 0.14433140E+00 0.10034620E+04</pdfrwt>
<pdfrwt beam="2">  1       21 0.16654694E+00 0.10034620E+04</pdfrwt>
<totfact> 0.38295774E+01</totfact>
</mgrwt>
</event>
<event>
 8    1  0.7208583E-006  0.1063684E+04  0.7818608E-02  0.8717439E-01
         21   -1    0    0  503  502  0.00000000000E+00  0.00000000000E+00  0.15867915295E+04  0.15867915295E+04  0.00000000000E+00 0. -1.
         21   -1    0    0  501  503 -0.00000000000E+00 -0.00000000000E+00 -0.89633046300E+03  0.89633046300E+03  0.00000000000E+00 0. -1.
    9000010    2    1    2  501    0 -0.44034096616E+02  0.34604823002E+03 -0.21823046950E+03  0.10858394974E+04  0.10048554608E+04 0.  0.
   -9000010    2    1    2    0  502  0.44034096616E+02 -0.34604823002E+03  0.90869153599E+03  0.13972824951E+04  0.10024917378E+04 0.  0.
        -13    1    3    3    0    0  0.78878886385E+02 -0.26423445064E+03  0.19579453204E+03  0.33819703364E+03  0.10566000000E+00 0.  1.
          4    1    3    3  501    0 -0.12291298300E+03  0.61028268066E+03 -0.41402500154E+03  0.74764246375E+03  0.00000000000E+00 0.  1.
         13    1    4    4    0    0  0.29355513675E+03 -0.37884526466E+03  0.10162506055E+04  0.11235940803E+04  0.10566000000E+00 0. -1.
         -4    1    4    4    0  502 -0.24952104013E+03  0.32797034646E+02 -0.10755906954E+03  0.27368841479E+03  0.00000000000E+00 0. -1.
<mgrwt>
<rscale>  2 0.10631250E+04</rscale>
<asrwt>0</asrwt>
<pdfrwt beam="1">  1       21 0.24412177E+00 0.10636836E+04</pdfrwt>
<pdfrwt beam="2">  1       21 0.13789699E+00 0.10636836E+04</pdfrwt>
<totfact> 0.10789968E+01</totfact>
</mgrwt>
</event>
<event>
 8    1  0.7208583E-006  0.1119767E+04  0.7818608E-02  0.8685070E-01
         21   -1    0    0  501  502  0.00000000000E+00  0.00000000000E+00  0.11338428455E+04  0.11338428455E+04  0.00000000000E+00 0. -1.
         21   -1    0    0  502  503 -0.00000000000E+00 -0.00000000000E+00 -0.10610704341E+04  0.10610704341E+04  0.00000000000E+00 0. -1.
    9000010    2    1    2  501    0 -0.23571415778E+03  0.15822713083E+03  0.20763684164E+03  0.10670536104E+04  0.10074191582E+04 0.  0.
   -9000010    2    1    2    0  503  0.23571415778E+03 -0.15822713083E+03 -0.13486443019E+03  0.11278596692E+04  0.10831814389E+04 0.  0.
        -13    1    3    3    0    0 -0.80675275323E+01  0.53501249133E+03 -0.80253526482E+02  0.54105830606E+03  0.10566000000E+00 0.  1.
          4    1    3    3  501    0 -0.22764663025E+03 -0.37678536049E+03  0.28789036812E+03  0.52599530435E+03  0.00000000000E+00 0.  1.
         13    1    4    4    0    0  0.49938200431E+03  0.73440750956E+02  0.28576128297E+03  0.58003056139E+03  0.10566000000E+00 0. -1.
         -4    1    4    4    0  503 -0.26366784653E+03 -0.23166788179E+03 -0.42062571317E+03  0.54782910777E+03  0.00000000000E+00 0. -1.
<mgrwt>
<rscale>  2 0.11010244E+04</rscale>
<asrwt>0</asrwt>
<pdfrwt beam="1">  1       21 0.17443736E+00 0.11197674E+04</pdfrwt>
<pdfrwt beam="2">  1       21 0.16324161E+00 0.11197674E+04</pdfrwt>
<totfact> 0.21845335E+01</totfact>
</mgrwt>
</event>
<event>
 8    1  0.7208583E-006  0.1040393E+04  0.7818608E-02  0.8738773E-01
         21   -1    0    0  503  502  0.00000000000E+00  0.00000000000E+00  0.12600820013E+04  0.12600820013E+04  0.00000000000E+00 0.  1.
         21   -1    0    0  501  503 -0.00000000000E+00 -0.00000000000E+00 -0.89297928339E+03  0.89297928339E+03  0.00000000000E+00 0.  1.
    9000010    2    1    2  501    0 -0.49239826939E+02  0.26836779100E+03 -0.39545803805E+02  0.10411445154E+04  0.10039781868E+04 0.  0.
   -9000010    2    1    2    0  502  0.49239826939E+02 -0.26836779100E+03  0.40664852172E+03  0.11119167693E+04  0.99827353457E+03 0.  0.
        -13    1    3    3    0    0  0.14176445348E+03 -0.17534592154E+03  0.35287373161E+03  0.41876393600E+03  0.10566000000E+00 0.  1.
          4    1    3    3  501    0 -0.19100428041E+03  0.44371371254E+03 -0.39241953542E+03  0.62238057940E+03  0.00000000000E+00 0.  1.
         13    1    4    4    0    0 -0.79251876940E+02 -0.39348050831E+03 -0.22165572933E+03  0.45851831362E+03  0.10566000000E+00 0. -1.
         -4    1    4    4    0  502  0.12849170388E+03  0.12511271731E+03  0.62830425105E+03  0.65339845568E+03  0.00000000000E+00 0. -1.
<mgrwt>
<rscale>  2 0.10390145E+04</rscale>
<asrwt>0</asrwt>
<pdfrwt beam="1">  1       21 0.19385877E+00 0.10403932E+04</pdfrwt>
<pdfrwt beam="2">  1       21 0.13738143E+00 0.10403932E+04</pdfrwt>
<totfact> 0.26339558E+01</totfact>
</mgrwt>
</event>
<event>
 8    1  0.7208583E-006  0.1146912E+04  0.7818608E-02  0.8652667E-01
         21   -1    0    0  501  502  0.00000000000E+00  0.00000000000E+00  0.32231604874E+04  0.32231604874E+04  0.00000000000E+00 0.  1.
         21   -1    0    0  502  503 -0.00000000000E+00 -0.00000000000E+00 -0.45872638708E+03  0.45872638708E+03  0.00000000000E+00 0.  1.
    9000010    2    1    2  501    0  0.47015980708E+03 -0.20227110758E+03  0.20581044738E+04  0.23560985879E+04  0.10263735605E+04 0.  0.
   -9000010    2    1    2    0  503 -0.47015980708E+03  0.20227110758E+03  0.70632962651E+03  0.13257882866E+04  0.99842335426E+03 0.  0.
        -13    1    3    3    0    0 -0.37627098822E+02 -0.33264303721E+03  0.16715423821E+04  0.17047349164E+04  0.10566000000E+00 0.  1.
          4    1    3    3  501    0  0.50778690590E+03  0.13037192962E+03  0.38656209166E+03  0.65136367150E+03  0.00000000000E+00 0.  1.
         13    1    4    4    0    0 -0.73079965574E+03  0.79916330953E+02  0.73108835999E+03  0.10367955237E+04  0.10566000000E+00 0. -1.
         -4    1    4    4    0  503  0.26063984866E+03  0.12235477663E+03 -0.24758733480E+02  0.28899276281E+03  0.00000000000E+00 0. -1.
<mgrwt>
<rscale>  2 0.11406244E+04</rscale>
<asrwt>0</asrwt>
<pdfrwt beam="1">  1       21 0.49587083E+00 0.11469117E+04</pdfrwt>
<pdfrwt beam="2">  1       21 0.70573292E-01 0.11469117E+04</pdfrwt>
<totfact> 0.10561019E+00</totfact>
</mgrwt>
</event>
<event>
 8    1  0.7208583E-006  0.1026095E+04  0.7818608E-02  0.8792045E-01
         21   -1    0    0  503  502  0.00000000000E+00  0.00000000000E+00  0.83636675601E+03  0.83636675601E+03  0.00000000000E+00 0.  1.
         21   -1    0    0  501  503 -0.00000000000E+00 -0.00000000000E+00 -0.11345579037E+04  0.11345579037E+04  0.00000000000E+00 0.  1.
    9000010    2    1    2  501    0  0.67892315599E+02 -0.37198885272E+02  0.11028503969E+03  0.86651324122E+03  0.85597271197E+03 0.  0.
   -9000010    2    1    2    0  502 -0.67892315599E+02  0.37198885272E+02 -0.40847618736E+03  0.11044114185E+04  0.10231708860E+04 0.  0.
        -13    1    3    3    0    0  0.25785054965E+03 -0.35999598739E+03 -0.74221724299E+02  0.44899097142E+03  0.10566000000E+00 0.  1.
          4    1    3    3  501    0 -0.18995823405E+03  0.32279710212E+03  0.18450676399E+03  0.41752226980E+03  0.00000000000E+00 0.  1.
         13    1    4    4    0    0 -0.30430321664E+03  0.39971088236E+02 -0.67899360661E+03  0.74513788290E+03  0.10566000000E+00 0. -1.
         -4    1    4    4    0  502  0.23641090104E+03 -0.27722029635E+01  0.27051741925E+03  0.35927353557E+03  0.00000000000E+00 0. -1.
<mgrwt>
<rscale>  2 0.98163046E+03</rscale>
<asrwt>0</asrwt>
<pdfrwt beam="1">  1       21 0.12867181E+00 0.10260954E+04</pdfrwt>
<pdfrwt beam="2">  1       21 0.17454737E+00 0.10260954E+04</pdfrwt>
<totfact> 0.45811909E+01</totfact>
</mgrwt>
</event>
<event>
 8    1  0.7208583E-006  0.1030108E+04  0.7818608E-02  0.8756890E-01
         21   -1    0    0  501  502  0.00000000000E+00  0.00000000000E+00  0.16274423222E+04  0.16274423222E+04  0.00000000000E+00 0.  1.
         21   -1    0    0  502  503 -0.00000000000E+00 -0.00000000000E+00 -0.10297739411E+04  0.10297739411E+04  0.00000000000E+00 0.  1.
    9000010    2    1    2  501    0 -0.26993995607E+03  0.22740604299E+02  0.11280139591E+04  0.14986010021E+04  0.94868580502E+03 0.  0.
   -9000010    2    1    2    0  503  0.26993995607E+03 -0.22740604299E+02 -0.53034557801E+03  0.11586152613E+04  0.99385017812E+03 0.  0.
        -13    1    3    3    0    0 -0.66078264478E+02 -0.18572636485E+03 -0.11066313372E+03  0.22606848512E+03  0.10566000000E+00 0.  1.
          4    1    3    3  501    0 -0.20386169159E+03  0.20846696915E+03  0.12386770928E+04  0.12725325170E+04  0.00000000000E+00 0.  1.
         13    1    4    4    0    0 -0.95623456124E+02  0.73905194856E+02 -0.72384008720E+03  0.73385986822E+03  0.10566000000E+00 0. -1.
         -4    1    4    4    0  503  0.36556341220E+03 -0.96645799155E+02  0.19349450919E+03  0.42475539304E+03  0.00000000000E+00 0. -1.
<mgrwt>
<rscale>  2 0.10190558E+04</rscale>
<asrwt>0</asrwt>
<pdfrwt beam="1">  1       21 0.25037574E+00 0.10301082E+04</pdfrwt>
<pdfrwt beam="2">  1       21 0.15842676E+00 0.10301082E+04</pdfrwt>
<totfact> 0.64044694E+00</totfact>
</mgrwt>
</event>
<event>
 8    1  0.7208583E-006  0.1158640E+04  0.7818608E-02  0.8641331E-01
         21   -1    0    0  501  502  0.00000000000E+00  0.00000000000E+00  0.21352617533E+04  0.21352617533E+04  0.00000000000E+00 0.  1.
         21   -1    0    0  502  503 -0.00000000000E+00 -0.00000000000E+00 -0.10044057891E+04  0.10044057891E+04  0.00000000000E+00 0.  1.
    9000010    2    1    2  501    0  0.28700158855E+03 -0.48091099747E+03  0.15335283703E+04  0.19130498071E+04  0.99719857728E+03 0.  0.
   -9000010    2    1    2    0  503 -0.28700158855E+03  0.48091099747E+03 -0.40267240603E+03  0.12266177353E+04  0.10142981330E+04 0.  0.
        -13    1    3    3    0    0  0.17034082014E+03  0.23839818955E+03  0.10837690679E+03  0.31240239576E+03  0.10566000000E+00 0.  1.
          4    1    3    3  501    0  0.11666076841E+03 -0.71930918702E+03  0.14251514635E+04  0.16006474113E+04  0.00000000000E+00 0.  1.
         13    1    4    4    0    0 -0.54868682361E+03  0.63659075875E+03 -0.37681734928E+03  0.92103004859E+03  0.10566000000E+00 0. -1.
         -4    1    4    4    0  503  0.26168523505E+03 -0.15567976128E+03 -0.25855056751E+02  0.30558768672E+03  0.00000000000E+00 0. -1.
<mgrwt>
<rscale>  2 0.11548867E+04</rscale>
<asrwt>0</asrwt>
<pdfrwt beam="1">  1       21 0.32850181E+00 0.11586397E+04</pdfrwt>
<pdfrwt beam="2">  1       21 0.15452397E+00 0.11586397E+04</pdfrwt>
<totfact> 0.18683783E+00</totfact>
</mgrwt>
</event>
<event>
 8    1  0.7208583E-006  0.1051441E+04  0.7818608E-02  0.8732851E-01
         21   -1    0    0  501  502  0.00000000000E+00  0.00000000000E+00  0.84215041679E+03  0.84215041679E+03  0.00000000000E+00 0.  1.
         21   -1    0    0  502  503 -0.00000000000E+00 -0.00000000000E+00 -0.13131469573E+04  0.13131469573E+04  0.00000000000E+00 0.  1.
    9000010    2    1    2  501    0 -0.51969976656E+02 -0.15081373191E+03 -0.72884895932E+02  0.10310100072E+04  0.10159841370E+04 0.  0.
   -9000010    2    1    2    0  503  0.51969976656E+02  0.15081373191E+03 -0.39811164463E+03  0.11242873670E+04  0.10392706778E+04 0.  0.
        -13    1    3    3    0    0  0.25037953776E+02 -0.55568981196E+03  0.13059889093E+03  0.57137916284E+03  0.10566000000E+00 0.  1.
          4    1    3    3  501    0 -0.77007930431E+02  0.40487608006E+03 -0.20348378686E+03  0.45963084434E+03  0.00000000000E+00 0.  1.
         13    1    4    4    0    0  0.33590078190E+03 -0.26036192026E+03  0.80295649372E+02  0.43251019326E+03  0.10566000000E+00 0. -1.
         -4    1    4    4    0  503 -0.28393080524E+03  0.41117565217E+03 -0.47840729400E+03  0.69177717370E+03  0.00000000000E+00 0. -1.
<mgrwt>
<rscale>  2 0.10456409E+04</rscale>
<asrwt>0</asrwt>
<pdfrwt beam="1">  1       21 0.12956160E+00 0.10514415E+04</pdfrwt>
<pdfrwt beam="2">  1       21 0.20202261E+00 0.10514415E+04</pdfrwt>
<totfact> 0.26907482E+01</totfact>
</mgrwt>
</event>
<event>
 8    1  0.7208583E-006  0.9950429E+03  0.7818608E-02  0.8779795E-01
         21   -1    0    0  501  502  0.00000000000E+00  0.00000000000E+00  0.20721558624E+04  0.20721558624E+04  0.00000000000E+00 0.  1.
         21   -1    0    0  502  503 -0.00000000000E+00 -0.00000000000E+00 -0.59065621781E+03  0.59065621781E+03  0.00000000000E+00 0.  1.
    9000010    2    1    2  501    0 -0.89999627652E+02  0.55225886412E+02  0.13261339781E+04  0.16579329414E+04  0.98942431675E+03 0.  0.
   -9000010    2    1    2    0  503  0.89999627652E+02 -0.55225886412E+02  0.15536566644E+03  0.10048791388E+04  0.98716450598E+03 0.  0.
        -13    1    3    3    0    0 -0.34591042343E+03  0.10483910466E+03  0.13486889182E+04  0.13962833051E+04  0.10566000000E+00 0.  1.
          4    1    3    3  501    0  0.25591079578E+03 -0.49613218244E+02 -0.22554940075E+02  0.26164963623E+03  0.00000000000E+00 0.  1.
         13    1    4    4    0    0 -0.34990932462E+03 -0.15934016022E+03  0.34317299328E+03  0.51535767831E+03  0.10566000000E+00 0. -1.
         -4    1    4    4    0  503  0.43990895227E+03  0.10411427381E+03 -0.18780732684E+03  0.48952146053E+03  0.00000000000E+00 0. -1.
<mgrwt>
<rscale>  2 0.99448064E+03</rscale>
<asrwt>0</asrwt>
<pdfrwt beam="1">  1       21 0.31879321E+00 0.99504287E+03</pdfrwt>
<pdfrwt beam="2">  1       21 0.90870189E-01 0.99504287E+03</pdfrwt>
<totfact> 0.10046805E+01</totfact>
</mgrwt>
</event>
<event>
 8    1  0.7208583E-006  0.1085842E+04  0.7818608E-02  0.8703875E-01
         21   -1    0    0  501  502  0.00000000000E+00  0.00000000000E+00  0.76551422161E+03  0.76551422161E+03  0.00000000000E+00 0.  1.
         21   -1    0    0  502  503 -0.00000000000E+00 -0.00000000000E+00 -0.15240434309E+04  0.15240434309E+04  0.00000000000E+00 0.  1.
    9000010    2    1    2  501    0  0.15744419617E+03 -0.15418128534E+03 -0.24320555130E+03  0.11127453398E+04  0.10632463061E+04 0.  0.
   -9000010    2    1    2    0  503 -0.15744419617E+03  0.15418128534E+03 -0.51532365795E+03  0.11768123127E+04  0.10347793017E+04 0.  0.
        -13    1    3    3    0    0  0.45685720353E+03  0.29585407878E+03 -0.14611565064E+03  0.56355827992E+03  0.10566000000E+00 0.  1.
          4    1    3    3  501    0 -0.29941300736E+03 -0.45003536412E+03 -0.97089900652E+02  0.54918705988E+03  0.00000000000E+00 0.  1.
         13    1    4    4    0    0 -0.14377563279E+03  0.25671091855E+03 -0.81144649257E+03  0.86314387547E+03  0.10566000000E+00 0. -1.
         -4    1    4    4    0  503 -0.13668563380E+02 -0.10252963321E+03  0.29612283462E+03  0.31366843720E+03  0.00000000000E+00 0. -1.
<mgrwt>
<rscale>  2 0.10788094E+04</rscale>
<asrwt>0</asrwt>
<pdfrwt beam="1">  1       21 0.11777142E+00 0.10858422E+04</pdfrwt>
<pdfrwt beam="2">  1       21 0.23446822E+00 0.10858422E+04</pdfrwt>
<totfact> 0.19878158E+01</totfact>
</mgrwt>
</event>
<event>
 8    1  0.7208583E-006  0.1037610E+04  0.7818608E-02  0.8741475E-01
         21   -1    0    0  501  502  0.00000000000E+00  0.00000000000E+00  0.57040486505E+03  0.57040486505E+03  0.00000000000E+00 0.  1.
         21   -1    0    0  502  503 -0.00000000000E+00 -0.00000000000E+00 -0.19177967594E+04  0.19177967594E+04  0.00000000000E+00 0.  1.
    9000010    2    1    2  501    0  0.18988947835E+03 -0.23733329460E+03 -0.48773865683E+03  0.11407455613E+04  0.98540668337E+03 0.  0.
   -9000010    2    1    2    0  503 -0.18988947835E+03  0.23733329460E+03 -0.85965323756E+03  0.13474560632E+04  0.99209326506E+03 0.  0.
        -13    1    3    3    0    0  0.18246459918E+03  0.96467497020E+01 -0.75498122318E+03  0.77677734792E+03  0.10566000000E+00 0.  1.
          4    1    3    3  501    0  0.74248791705E+01 -0.24698004430E+03  0.26724256634E+03  0.36396821342E+03  0.00000000000E+00 0.  1.
         13    1    4    4    0    0  0.17287814334E+03 -0.26019474405E+02 -0.88147558892E+03  0.89864514160E+03  0.10566000000E+00 0. -1.
         -4    1    4    4    0  503 -0.36276762169E+03  0.26335276900E+03  0.21822351364E+02  0.44881092155E+03  0.00000000000E+00 0. -1.
<mgrwt>
<rscale>  2 0.10360083E+04</rscale>
<asrwt>0</asrwt>
<pdfrwt beam="1">  1       21 0.87754597E-01 0.10376098E+04</pdfrwt>
<pdfrwt beam="2">  1       21 0.29504565E+00 0.10376098E+04</pdfrwt>
<totfact> 0.15999069E+01</totfact>
</mgrwt>
</event>
<event>
 8    1  0.7208583E-006  0.1128205E+04  0.7818608E-02  0.8667118E-01
         21   -1    0    0  503  502  0.00000000000E+00  0.00000000000E+00  0.17457235546E+04  0.17457235546E+04  0.00000000000E+00 0. -1.
         21   -1    0    0  501  503 -0.00000000000E+00 -0.00000000000E+00 -0.10353226032E+04  0.10353226032E+04  0.00000000000E+00 0.  1.
    9000010    2    1    2  501    0  0.54716225077E+03 -0.31972147210E+02 -0.42036452359E+03  0.11837121176E+04  0.96128003084E+03 0.  0.
   -9000010    2    1    2    0  502 -0.54716225077E+03  0.31972147210E+02  0.11307654750E+04  0.15973340403E+04  0.98612206644E+03 0.  0.
        -13    1    3    3    0    0 -0.28257193092E+02  0.30586241448E+03 -0.41514874634E+03  0.51642887052E+03  0.10566000000E+00 0.  1.
          4    1    3    3  501    0  0.57541944386E+03 -0.33783456169E+03 -0.52157772442E+01  0.66728324703E+03  0.00000000000E+00 0.  1.
         13    1    4    4    0    0 -0.34244379917E+03 -0.47212346094E+03  0.61661820703E+03  0.84875576131E+03  0.10566000000E+00 0. -1.
         -4    1    4    4    0  502 -0.20471845159E+03  0.50409560815E+03  0.51414726794E+03  0.74857827894E+03  0.00000000000E+00 0. -1.
<mgrwt>
<rscale>  2 0.11227532E+04</rscale>
<asrwt>0</asrwt>
<pdfrwt beam="1">  1       21 0.26857285E+00 0.11282045E+04</pdfrwt>
<pdfrwt beam="2">  1       21 0.15928040E+00 0.11282045E+04</pdfrwt>
<totfact> 0.45447864E+00</totfact>
</mgrwt>
</event>
<event>
 8    1  0.7208583E-006  0.1048264E+04  0.7818608E-02  0.8732309E-01
         21   -1    0    0  501  502  0.00000000000E+00  0.00000000000E+00  0.80822751409E+03  0.80822751409E+03  0.00000000000E+00 0. -1.
         21   -1    0    0  502  503 -0.00000000000E+00 -0.00000000000E+00 -0.17382624522E+04  0.17382624522E+04  0.00000000000E+00 0. -1.
    9000010    2    1    2  501    0  0.11521442385E+03 -0.27660724408E+03  0.13596926951E+03  0.10570449781E+04  0.10045250184E+04 0.  0.
   -9000010    2    1    2    0  503 -0.11521442385E+03  0.27660724408E+03 -0.10660042077E+04  0.14894449882E+04  0.99614028689E+03 0.  0.
        -13    1    3    3    0    0  0.44077263096E+02 -0.44014420695E+03 -0.33406287499E+03  0.55431736726E+03  0.10566000000E+00 0.  1.
          4    1    3    3  501    0  0.71137160751E+02  0.16353696287E+03  0.47003214451E+03  0.50272761087E+03  0.00000000000E+00 0.  1.
         13    1    4    4    0    0  0.14857967524E+02 -0.33783888626E+03 -0.13008854627E+03  0.36232432060E+03  0.10566000000E+00 0. -1.
         -4    1    4    4    0  503 -0.13007239137E+03  0.61444613033E+03 -0.93591566140E+03  0.11271206676E+04  0.00000000000E+00 0. -1.
<mgrwt>
<rscale>  2 0.10462497E+04</rscale>
<asrwt>0</asrwt>
<pdfrwt beam="1">  1       21 0.12434269E+00 0.10482635E+04</pdfrwt>
<pdfrwt beam="2">  1       21 0.26742499E+00 0.10482635E+04</pdfrwt>
<totfact> 0.99115552E+00</totfact>
</mgrwt>
</event>
<event>
 8    1  0.7208583E-006  0.1071846E+04  0.7818608E-02  0.8710235E-01
         21   -1    0    0  501  502  0.00000000000E+00  0.00000000000E+00  0.82554288467E+03  0.82554288467E+03  0.00000000000E+00 0.  1.
         21   -1    0    0  502  503 -0.00000000000E+00 -0.00000000000E+00 -0.16981975582E+04  0.16981975582E+04  0.00000000000E+00 0.  1.
    9000010    2    1    2  501    0  0.16598031815E+03  0.33535711267E+03  0.10145609461E+03  0.10766364962E+04  0.10044097505E+04 0.  0.
   -9000010    2    1    2    0  503 -0.16598031815E+03 -0.33535711267E+03 -0.97411076816E+03  0.14471039467E+04  0.10025987157E+04 0.  0.
        -13    1    3    3    0    0  0.48327626708E+03 -0.13001284631E+03  0.11388525849E+03  0.51325349857E+03  0.10566000000E+00 0.  1.
          4    1    3    3  501    0 -0.31729594892E+03  0.46536995899E+03 -0.12429163881E+02  0.56338299765E+03  0.00000000000E+00 0.  1.
         13    1    4    4    0    0 -0.41886463004E+03 -0.28962927901E+03 -0.78387767688E+02  0.51524494257E+03  0.10566000000E+00 0. -1.
         -4    1    4    4    0  503  0.25288431188E+03 -0.45727833666E+02 -0.89572300047E+03  0.93185900411E+03  0.00000000000E+00 0. -1.
<mgrwt>
<rscale>  2 0.10714210E+04</rscale>
<asrwt>0</asrwt>
<pdfrwt beam="1">  1       21 0.12700660E+00 0.10718455E+04</pdfrwt>
<pdfrwt beam="2">  1       21 0.26126116E+00 0.10718455E+04</pdfrwt>
<totfact> 0.10275041E+01</totfact>
</mgrwt>
</event>
<event>
 8    1  0.7208583E-006  0.1031716E+04  0.7818608E-02  0.8752550E-01
         21   -1    0    0  501  502  0.00000000000E+00  0.00000000000E+00  0.10110361925E+04  0.10110361925E+04  0.00000000000E+00 0.  1.
         21   -1    0    0  502  503 -0.00000000000E+00 -0.00000000000E+00 -0.13737856283E+04  0.13737856283E+04  0.00000000000E+00 0.  1.
    9000010    2    1    2  501    0  0.13855006315E+03  0.16441538953E+03 -0.78341295144E+03  0.12706428577E+04  0.97702040868E+03 0.  0.
   -9000010    2    1    2    0  503 -0.13855006315E+03 -0.16441538953E+03  0.42066351563E+03  0.11141789631E+04  0.10090631438E+04 0.  0.
        -13    1    3    3    0    0  0.55175694011E+03  0.15929832175E+03 -0.55420264981E+03  0.79809289214E+03  0.10566000000E+00 0.  1.
          4    1    3    3  501    0 -0.41320687697E+03  0.51170677831E+01 -0.22921030163E+03  0.47254996554E+03  0.00000000000E+00 0.  1.
         13    1    4    4    0    0  0.32207227748E+03  0.13007597413E+03 -0.97659441847E+02  0.36081531109E+03  0.10566000000E+00 0. -1.
         -4    1    4    4    0  503 -0.46062234063E+03 -0.29449136366E+03  0.51832295748E+03  0.75336365203E+03  0.00000000000E+00 0. -1.
<mgrwt>
<rscale>  2 0.10237956E+04</rscale>
<asrwt>0</asrwt>
<pdfrwt beam="1">  1       21 0.15554403E+00 0.10317155E+04</pdfrwt>
<pdfrwt beam="2">  1       21 0.21135163E+00 0.10317155E+04</pdfrwt>
<totfact> 0.13227920E+01</totfact>
</mgrwt>
</event>
<event>
 8    1  0.7208583E-006  0.1016256E+04  0.7818608E-02  0.8760244E-01
         21   -1    0    0  501  502  0.00000000000E+00  0.00000000000E+00  0.12219769846E+04  0.12219769846E+04  0.00000000000E+00 0. -1.
         21   -1    0    0  502  503 -0.00000000000E+00 -0.00000000000E+00 -0.89421142691E+03  0.89421142691E+03  0.00000000000E+00 0. -1.
    9000010    2    1    2  501    0 -0.38192587987E+02  0.73320795566E+02  0.41840448778E+03  0.10958979868E+04  0.10095025850E+04 0.  0.
   -9000010    2    1    2    0  503  0.38192587987E+02 -0.73320795566E+02 -0.90638930081E+02  0.10202904248E+04  0.10128882082E+04 0.  0.
        -13    1    3    3    0    0 -0.44374149780E+03 -0.19468385829E+03  0.52366853552E+02  0.48739164956E+03  0.10566000000E+00 0.  1.
          4    1    3    3  501    0  0.40554890981E+03  0.26800465386E+03  0.36603763423E+03  0.60850633720E+03  0.00000000000E+00 0.  1.
         13    1    4    4    0    0  0.31619791610E+03  0.22971467426E+03  0.26860733758E+03  0.47423608749E+03  0.10566000000E+00 0. -1.
         -4    1    4    4    0  503 -0.27800532811E+03 -0.30303546983E+03 -0.35924626766E+03  0.54605433728E+03  0.00000000000E+00 0. -1.
<mgrwt>
<rscale>  2 0.10154118E+04</rscale>
<asrwt>0</asrwt>
<pdfrwt beam="1">  1       21 0.18799646E+00 0.10162564E+04</pdfrwt>
<pdfrwt beam="2">  1       21 0.13757099E+00 0.10162564E+04</pdfrwt>
<totfact> 0.29363218E+01</totfact>
</mgrwt>
</event>
<event>
 8    1  0.7208583E-006  0.1060968E+04  0.7818608E-02  0.8723921E-01
         21   -1    0    0  503  502  0.00000000000E+00  0.00000000000E+00  0.26340787431E+04  0.26340787431E+04  0.00000000000E+00 0. -1.
         21   -1    0    0  501  503 -0.00000000000E+00 -0.00000000000E+00 -0.86536411980E+03  0.86536411980E+03  0.00000000000E+00 0. -1.
    9000010    2    1    2  501    0 -0.21814195490E+02 -0.36437356288E+03 -0.36801721313E+03  0.11229825707E+04  0.99619738636E+03 0.  0.
   -9000010    2    1    2    0  502  0.21814195490E+02  0.36437356288E+03  0.21367318365E+04  0.23764602922E+04  0.97401058870E+03 0.  0.
        -13    1    3    3    0    0  0.65878169683E+01 -0.37209866807E+02  0.34022119272E+03  0.34231337201E+03  0.10566000000E+00 0.  1.
          4    1    3    3  501    0 -0.28402012458E+02 -0.32716369608E+03 -0.70823840585E+03  0.78066919874E+03  0.00000000000E+00 0.  1.
         13    1    4    4    0    0  0.24438863818E+03  0.36269207294E+03  0.21069901505E+04  0.21519012179E+04  0.10566000000E+00 0. -1.
         -4    1    4    4    0  502 -0.22257444269E+03  0.16814899488E+01  0.29741685968E+02  0.22455907426E+03  0.00000000000E+00 0. -1.
<mgrwt>
<rscale>  2 0.10557283E+04</rscale>
<asrwt>0</asrwt>
<pdfrwt beam="1">  1       21 0.40524288E+00 0.10609680E+04</pdfrwt>
<pdfrwt beam="2">  1       21 0.13313294E+00 0.10609680E+04</pdfrwt>
<totfact> 0.87009829E-01</totfact>
</mgrwt>
</event>
<event>
 8    1  0.7208583E-006  0.1037159E+04  0.7818608E-02  0.8745697E-01
         21   -1    0    0  501  502  0.00000000000E+00  0.00000000000E+00  0.12443140685E+04  0.12443140685E+04  0.00000000000E+00 0.  1.
         21   -1    0    0  502  503 -0.00000000000E+00 -0.00000000000E+00 -0.98784525070E+03  0.98784525070E+03  0.00000000000E+00 0.  1.
    9000010    2    1    2  501    0  0.25992509695E+03  0.15065930698E+03 -0.29688990251E+03  0.10566145871E+04  0.96852025727E+03 0.  0.
   -9000010    2    1    2    0  503 -0.25992509695E+03 -0.15065930698E+03  0.55335872027E+03  0.11755447320E+04  0.99269343751E+03 0.  0.
        -13    1    3    3    0    0 -0.15461565812E+03  0.75639955190E+02 -0.54237595577E+03  0.56903347276E+03  0.10566000000E+00 0.  1.
          4    1    3    3  501    0  0.41454075507E+03  0.75019351786E+02  0.24548605326E+03  0.48758111438E+03  0.00000000000E+00 0.  1.
         13    1    4    4    0    0  0.34128477475E+03 -0.21469447092E+03  0.88273198886E+02  0.41274832783E+03  0.10566000000E+00 0. -1.
         -4    1    4    4    0  503 -0.60120987170E+03  0.64035163942E+02  0.46508552138E+03  0.76279640419E+03  0.00000000000E+00 0. -1.
<mgrwt>
<rscale>  2 0.10313323E+04</rscale>
<asrwt>0</asrwt>
<pdfrwt beam="1">  1       21 0.19143293E+00 0.10371594E+04</pdfrwt>
<pdfrwt beam="2">  1       21 0.15197619E+00 0.10371594E+04</pdfrwt>
<totfact> 0.20296023E+01</totfact>
</mgrwt>
</event>
<event>
 8    1  0.7208583E-006  0.1042731E+04  0.7818608E-02  0.8766033E-01
         21   -1    0    0  503  502  0.00000000000E+00  0.00000000000E+00  0.14312002258E+04  0.14312002258E+04  0.00000000000E+00 0. -1.
         21   -1    0    0  501  503 -0.00000000000E+00 -0.00000000000E+00 -0.82199667575E+03  0.82199667575E+03  0.00000000000E+00 0. -1.
    9000010    2    1    2  501    0 -0.20921221077E+03  0.27430932438E+03 -0.19625210711E+03  0.93560588514E+03  0.84724738311E+03 0.  0.
   -9000010    2    1    2    0  502  0.20921221077E+03 -0.27430932438E+03  0.80545565715E+03  0.13175910164E+04  0.98400808752E+03 0.  0.
        -13    1    3    3    0    0  0.73835620616E+02  0.14580841741E+03 -0.48471719800E+03  0.51152963420E+03  0.10566000000E+00 0.  1.
          4    1    3    3  501    0 -0.28304783138E+03  0.12850090698E+03  0.28846509090E+03  0.42407625094E+03  0.00000000000E+00 0.  1.
         13    1    4    4    0    0  0.29711829957E+03  0.32234564502E+03  0.30741653105E+03  0.53543527482E+03  0.10566000000E+00 0. -1.
         -4    1    4    4    0  502 -0.87906088802E+02 -0.59665496940E+03  0.49803912611E+03  0.78215574159E+03  0.00000000000E+00 0. -1.
<mgrwt>
<rscale>  2 0.10091591E+04</rscale>
<asrwt>0</asrwt>
<pdfrwt beam="1">  1       21 0.22018465E+00 0.10427307E+04</pdfrwt>
<pdfrwt beam="2">  1       21 0.12646103E+00 0.10427307E+04</pdfrwt>
<totfact> 0.20990783E+01</totfact>
</mgrwt>
</event>
<event>
 8    1  0.7208583E-006  0.1240153E+04  0.7818608E-02  0.8582069E-01
         21   -1    0    0  501  502  0.00000000000E+00  0.00000000000E+00  0.16914391511E+04  0.16914391511E+04  0.00000000000E+00 0.  1.
         21   -1    0    0  502  503 -0.00000000000E+00 -0.00000000000E+00 -0.12875814328E+04  0.12875814328E+04  0.00000000000E+00 0.  1.
    9000010    2    1    2  501    0 -0.66992157069E+03 -0.29727427791E+03  0.10324427814E+04  0.16136660306E+04  0.10004064446E+04 0.  0.
   -9000010    2    1    2    0  503  0.66992157069E+03  0.29727427791E+03 -0.62858506313E+03  0.13653545533E+04  0.96535328627E+03 0.  0.
        -13    1    3    3    0    0 -0.56523256379E+03 -0.54922034775E+03  0.10797300497E+04  0.13367676810E+04  0.10566000000E+00 0.  1.
          4    1    3    3  501    0 -0.10468900690E+03  0.25194606984E+03 -0.47287268357E+02  0.27689834962E+03  0.00000000000E+00 0.  1.
         13    1    4    4    0    0  0.57034979164E+03  0.41195858464E+03  0.15364946518E+02  0.70373635193E+03  0.10566000000E+00 0. -1.
         -4    1    4    4    0  503  0.99571779043E+02 -0.11468430673E+03 -0.64395000965E+03  0.66161820132E+03  0.00000000000E+00 0. -1.
<mgrwt>
<rscale>  2 0.12330678E+04</rscale>
<asrwt>0</asrwt>
<pdfrwt beam="1">  1       21 0.26022141E+00 0.12401532E+04</pdfrwt>
<pdfrwt beam="2">  1       21 0.19808945E+00 0.12401532E+04</pdfrwt>
<totfact> 0.24408585E+00</totfact>
</mgrwt>
</event>
<event>
 8    1  0.7208583E-006  0.9873397E+03  0.7818608E-02  0.8787237E-01
         21   -1    0    0  503  502  0.00000000000E+00  0.00000000000E+00  0.11337979704E+04  0.11337979704E+04  0.00000000000E+00 0.  1.
         21   -1    0    0  501  503 -0.00000000000E+00 -0.00000000000E+00 -0.10302763147E+04  0.10302763147E+04  0.00000000000E+00 0.  1.
    9000010    2    1    2  501    0 -0.14550899965E+03 -0.90430989842E+02  0.49493378711E+03  0.11019805415E+04  0.96956228641E+03 0.  0.
   -9000010    2    1    2    0  502  0.14550899965E+03  0.90430989842E+02 -0.39141213132E+03  0.10620937436E+04  0.97236260255E+03 0.  0.
        -13    1    3    3    0    0  0.23505124401E+03 -0.37972343982E+03  0.42929399297E+03  0.61946131568E+03  0.10566000000E+00 0.  1.
          4    1    3    3  501    0 -0.38056024366E+03  0.28929244998E+03  0.65639794143E+02  0.48251922578E+03  0.00000000000E+00 0.  1.
         13    1    4    4    0    0 -0.89328121280E+02 -0.50235862274E+02  0.30076793704E+03  0.31774914355E+03  0.10566000000E+00 0. -1.
         -4    1    4    4    0  502  0.23483712093E+03  0.14066685212E+03 -0.69218006836E+03  0.74434460009E+03  0.00000000000E+00 0. -1.
<mgrwt>
<rscale>  2 0.98664954E+03</rscale>
<asrwt>0</asrwt>
<pdfrwt beam="1">  1       21 0.17443046E+00 0.98733969E+03</pdfrwt>
<pdfrwt beam="2">  1       21 0.15850405E+00 0.98733969E+03</pdfrwt>
<totfact> 0.24724640E+01</totfact>
</mgrwt>
</event>
<event>
 8    1  0.7208583E-006  0.1004039E+04  0.7818608E-02  0.8777977E-01
         21   -1    0    0  501  502  0.00000000000E+00  0.00000000000E+00  0.16933731965E+04  0.16933731965E+04  0.00000000000E+00 0. -1.
         21   -1    0    0  502  503 -0.00000000000E+00 -0.00000000000E+00 -0.83106830787E+03  0.83106830787E+03  0.00000000000E+00 0. -1.
    9000010    2    1    2  501    0  0.70365894901E+02  0.55799655737E+02  0.11328116865E+04  0.15137225628E+04  0.10000143596E+04 0.  0.
   -9000010    2    1    2    0  503 -0.70365894901E+02 -0.55799655737E+02 -0.27050679780E+03  0.10107189416E+04  0.96969783464E+03 0.  0.
        -13    1    3    3    0    0  0.48286354721E+02 -0.32067206060E+03  0.47805110581E+01  0.32432238121E+03  0.10566000000E+00 0.  1.
          4    1    3    3  501    0  0.22079540180E+02  0.37647171634E+03  0.11280311754E+04  0.11894001816E+04  0.00000000000E+00 0.  1.
         13    1    4    4    0    0  0.31686735506E+03 -0.24987340415E+03 -0.39020542500E+03  0.56133940150E+03  0.10566000000E+00 0. -1.
         -4    1    4    4    0  503 -0.38723324997E+03  0.19407374841E+03  0.11969862721E+03  0.44937954010E+03  0.00000000000E+00 0. -1.
<mgrwt>
<rscale>  2 0.99640424E+03</rscale>
<asrwt>0</asrwt>
<pdfrwt beam="1">  1       21 0.26051895E+00 0.10040387E+04</pdfrwt>
<pdfrwt beam="2">  1       21 0.12785666E+00 0.10040387E+04</pdfrwt>
<totfact> 0.10371549E+01</totfact>
</mgrwt>
</event>
<event>
 8    1  0.7208583E-006  0.1052492E+04  0.7818608E-02  0.8733820E-01
         21   -1    0    0  501  502  0.00000000000E+00  0.00000000000E+00  0.14500806296E+04  0.14500806296E+04  0.00000000000E+00 0.  1.
         21   -1    0    0  502  503 -0.00000000000E+00 -0.00000000000E+00 -0.89702413055E+03  0.89702413055E+03  0.00000000000E+00 0.  1.
    9000010    2    1    2  501    0 -0.27832510388E+03  0.15831986448E+03 -0.21585758021E+03  0.10436598656E+04  0.96958825132E+03 0.  0.
   -9000010    2    1    2    0  503  0.27832510388E+03 -0.15831986448E+03  0.76891407931E+03  0.13034448946E+04  0.10026014607E+04 0.  0.
        -13    1    3    3    0    0  0.32204885402E+03 -0.13778370573E+03 -0.48427611278E+02  0.35361710739E+03  0.10566000000E+00 0.  1.
          4    1    3    3  501    0 -0.60037395789E+03  0.29610357021E+03 -0.16742996894E+03  0.69004275817E+03  0.00000000000E+00 0.  1.
         13    1    4    4    0    0 -0.27792275083E+03 -0.30939141364E+03  0.11445969559E+03  0.43135268093E+03  0.10566000000E+00 0. -1.
         -4    1    4    4    0  503  0.55624785471E+03  0.15107154917E+03  0.65445438372E+03  0.87209221371E+03  0.00000000000E+00 0. -1.
<mgrwt>
<rscale>  2 0.10445530E+04</rscale>
<asrwt>0</asrwt>
<pdfrwt beam="1">  1       21 0.22308933E+00 0.10524922E+04</pdfrwt>
<pdfrwt beam="2">  1       21 0.13800371E+00 0.10524922E+04</pdfrwt>
<totfact> 0.15447024E+01</totfact>
</mgrwt>
</event>
<event>
 8    1  0.7208583E-006  0.1052001E+04  0.7818608E-02  0.8742438E-01
         21   -1    0    0  501  502  0.00000000000E+00  0.00000000000E+00  0.28687604312E+04  0.28687604312E+04  0.00000000000E+00 0.  1.
         21   -1    0    0  502  503 -0.00000000000E+00 -0.00000000000E+00 -0.36209007179E+03  0.36209007179E+03  0.00000000000E+00 0.  1.
    9000010    2    1    2  501    0 -0.11367440312E+03 -0.67122982891E+01  0.12625639648E+04  0.16015845971E+04  0.97879442762E+03 0.  0.
   -9000010    2    1    2    0  503  0.11367440312E+03  0.67122982891E+01  0.12441063946E+04  0.16292659059E+04  0.10458201309E+04 0.  0.
        -13    1    3    3    0    0 -0.57518685118E+02 -0.15041965509E+03  0.13913318278E+04  0.14006208402E+04  0.10566000000E+00 0.  1.
          4    1    3    3  501    0 -0.56155718004E+02  0.14370735680E+03 -0.12876786297E+03  0.20096375692E+03  0.00000000000E+00 0.  1.
         13    1    4    4    0    0  0.86188567940E+02  0.47334530897E+03  0.98156872485E+03  0.10931429108E+04  0.10566000000E+00 0. -1.
         -4    1    4    4    0  503  0.27485835182E+02 -0.46663301068E+03  0.26253766975E+03  0.53612299506E+03  0.00000000000E+00 0. -1.
<mgrwt>
<rscale>  2 0.10349394E+04</rscale>
<asrwt>0</asrwt>
<pdfrwt beam="1">  1       21 0.44134774E+00 0.10520013E+04</pdfrwt>
<pdfrwt beam="2">  1       21 0.55706167E-01 0.10520013E+04</pdfrwt>
<totfact> 0.44623734E+00</totfact>
</mgrwt>
</event>
<event>
 8    1  0.7208583E-006  0.1001098E+04  0.7818608E-02  0.8774512E-01
         21   -1    0    0  503  502  0.00000000000E+00  0.00000000000E+00  0.10763786462E+04  0.10763786462E+04  0.00000000000E+00 0. -1.
         21   -1    0    0  501  503 -0.00000000000E+00 -0.00000000000E+00 -0.11012687044E+04  0.11012687044E+04  0.00000000000E+00 0. -1.
    9000010    2    1    2  501    0 -0.46861674103E+02  0.23707052752E+02 -0.44515367812E+03  0.10919132047E+04  0.99566792081E+03 0.  0.
   -9000010    2    1    2    0  502  0.46861674103E+02 -0.23707052752E+02  0.42026361994E+03  0.10857341459E+04  0.99971950288E+03 0.  0.
        -13    1    3    3    0    0  0.22584359454E+03  0.45496914434E+02  0.25293795664E+03  0.34212997456E+03  0.10566000000E+00 0.  1.
          4    1    3    3  501    0 -0.27270526865E+03 -0.21789861682E+02 -0.69809163476E+03  0.74978323011E+03  0.00000000000E+00 0.  1.
         13    1    4    4    0    0 -0.13557836229E+03 -0.18631267281E+03  0.68661891291E+03  0.72425095589E+03  0.10566000000E+00 0. -1.
         -4    1    4    4    0  502  0.18244003639E+03  0.16260562006E+03 -0.26635529297E+03  0.36148318999E+03  0.00000000000E+00 0. -1.
<mgrwt>
<rscale>  2 0.10000849E+04</rscale>
<asrwt>0</asrwt>
<pdfrwt beam="1">  1       21 0.16559672E+00 0.10010980E+04</pdfrwt>
<pdfrwt beam="2">  1       21 0.16942595E+00 0.10010980E+04</pdfrwt>
<totfact> 0.23583701E+01</totfact>
</mgrwt>
</event>
<event>
 8    1  0.7208583E-006  0.1005611E+04  0.7818608E-02  0.8770558E-01
         21   -1    0    0  501  502  0.00000000000E+00  0.00000000000E+00  0.16802406672E+04  0.16802406672E+04  0.00000000000E+00 0. -1.
         21   -1    0    0  502  503 -0.00000000000E+00 -0.00000000000E+00 -0.60348183295E+03  0.60348183295E+03  0.00000000000E+00 0. -1.
    9000010    2    1    2  501    0  0.97536385714E+01  0.42228969034E+02  0.63828903706E+03  0.11866772230E+04  0.99945561058E+03 0.  0.
   -9000010    2    1    2    0  503 -0.97536385714E+01 -0.42228969034E+02  0.43846979722E+03  0.10970452772E+04  0.10046761457E+04 0.  0.
        -13    1    3    3    0    0 -0.34331832896E+01  0.52120025291E+03  0.32792928130E+03  0.61579145421E+03  0.10566000000E+00 0.  1.
          4    1    3    3  501    0  0.13186821861E+02 -0.47897128387E+03  0.31035975576E+03  0.57088576882E+03  0.00000000000E+00 0.  1.
         13    1    4    4    0    0  0.36032731212E+02  0.37762643896E+03 -0.11907794404E+03  0.39759232015E+03  0.10566000000E+00 0. -1.
         -4    1    4    4    0  503 -0.45786369783E+02 -0.41985540800E+03  0.55754774126E+03  0.69945295701E+03  0.00000000000E+00 0. -1.
<mgrwt>
<rscale>  2 0.10043041E+04</rscale>
<asrwt>0</asrwt>
<pdfrwt beam="1">  1       21 0.25849856E+00 0.10056105E+04</pdfrwt>
<pdfrwt beam="2">  1       21 0.92843359E-01 0.10056105E+04</pdfrwt>
<totfact> 0.25430322E+01</totfact>
</mgrwt>
</event>
<event>
 8    1  0.7208583E-006  0.1010061E+04  0.7818608E-02  0.8777409E-01
         21   -1    0    0  503  502  0.00000000000E+00  0.00000000000E+00  0.55468337076E+03  0.55468337076E+03  0.00000000000E+00 0. -1.
         21   -1    0    0  501  503 -0.00000000000E+00 -0.00000000000E+00 -0.17747991568E+04  0.17747991568E+04  0.00000000000E+00 0. -1.
    9000010    2    1    2  501    0  0.28772734117E+02  0.59577708340E+02 -0.48051266987E+03  0.11185332468E+04  0.10078922684E+04 0.  0.
   -9000010    2    1    2    0  502 -0.28772734117E+02 -0.59577708340E+02 -0.73960311616E+03  0.12109492808E+04  0.95656051436E+03 0.  0.
        -13    1    3    3    0    0  0.50646172546E+03  0.21565771856E+02 -0.36769414808E+03  0.62623283175E+03  0.10566000000E+00 0.  1.
          4    1    3    3  501    0 -0.47768899134E+03  0.38011936483E+02 -0.11281852178E+03  0.49230041501E+03  0.00000000000E+00 0.  1.
         13    1    4    4    0    0  0.28186656713E+03 -0.21430700284E+03  0.41220798933E+02  0.35647639272E+03  0.10566000000E+00 0. -1.
         -4    1    4    4    0  502 -0.31063930125E+03  0.15472929450E+03 -0.78082391509E+03  0.85447288807E+03  0.00000000000E+00 0. -1.
<mgrwt>
<rscale>  2 0.99700666E+03</rscale>
<asrwt>0</asrwt>
<pdfrwt beam="1">  1       21 0.85335902E-01 0.10100615E+04</pdfrwt>
<pdfrwt beam="2">  1       21 0.27304603E+00 0.10100615E+04</pdfrwt>
<totfact> 0.24773867E+01</totfact>
</mgrwt>
</event>
<event>
 8    1  0.7208583E-006  0.1042872E+04  0.7818608E-02  0.8751186E-01
         21   -1    0    0  501  502  0.00000000000E+00  0.00000000000E+00  0.10185067204E+04  0.10185067204E+04  0.00000000000E+00 0. -1.
         21   -1    0    0  502  503 -0.00000000000E+00 -0.00000000000E+00 -0.10399589211E+04  0.10399589211E+04  0.00000000000E+00 0. -1.
    9000010    2    1    2  501    0 -0.33095620184E+03  0.10538400042E+03 -0.21580274120E+03  0.10649658143E+04  0.98333288739E+03 0.  0.
   -9000010    2    1    2    0  503  0.33095620184E+03 -0.10538400042E+03  0.19435054047E+03  0.99349982720E+03  0.91029224922E+03 0.  0.
        -13    1    3    3    0    0 -0.25989433642E+03 -0.92321005768E+02 -0.58128861979E+03  0.64340088970E+03  0.10566000000E+00 0.  1.
          4    1    3    3  501    0 -0.71061865422E+02  0.19770500619E+03  0.36548587860E+03  0.42156492459E+03  0.00000000000E+00 0.  1.
         13    1    4    4    0    0  0.29983830094E+03  0.38118103567E+03  0.12684208930E+03  0.50128925328E+03  0.10566000000E+00 0. -1.
         -4    1    4    4    0  503  0.31117900901E+02 -0.48656503610E+03  0.67508451169E+02  0.49221057393E+03  0.00000000000E+00 0. -1.
<mgrwt>
<rscale>  2 0.10252903E+04</rscale>
<asrwt>0</asrwt>
<pdfrwt beam="1">  1       21 0.15669334E+00 0.10428717E+04</pdfrwt>
<pdfrwt beam="2">  1       21 0.15999368E+00 0.10428717E+04</pdfrwt>
<totfact> 0.33518895E+01</totfact>
</mgrwt>
</event>
<event>
 8    1  0.7208583E-006  0.1053394E+04  0.7818608E-02  0.8742674E-01
         21   -1    0    0  501  502  0.00000000000E+00  0.00000000000E+00  0.92970291311E+03  0.92970291311E+03  0.00000000000E+00 0. -1.
         21   -1    0    0  502  503 -0.00000000000E+00 -0.00000000000E+00 -0.14983232364E+04  0.14983232364E+04  0.00000000000E+00 0. -1.
    9000010    2    1    2  501    0 -0.15173220558E+03 -0.29546790499E+03  0.32397458812E+03  0.11020884975E+04  0.99965773022E+03 0.  0.
   -9000010    2    1    2    0  503  0.15173220558E+03  0.29546790499E+03 -0.89259491138E+03  0.13259376519E+04  0.92252969380E+03 0.  0.
        -13    1    3    3    0    0 -0.33330285034E+03  0.59357511559E+02 -0.23748326030E+03  0.41353647277E+03  0.10566000000E+00 0.  1.
          4    1    3    3  501    0  0.18157064476E+03 -0.35482541655E+03  0.56145784842E+03  0.68855202477E+03  0.00000000000E+00 0.  1.
         13    1    4    4    0    0  0.28416939248E+02  0.23216250916E+03 -0.10731311944E+04  0.10983248721E+04  0.10566000000E+00 0. -1.
         -4    1    4    4    0  503  0.12331526633E+03  0.63305395827E+02  0.18053628304E+03  0.22761277984E+03  0.00000000000E+00 0. -1.
<mgrwt>
<rscale>  2 0.10346784E+04</rscale>
<asrwt>0</asrwt>
<pdfrwt beam="1">  1       21 0.14303122E+00 0.10533943E+04</pdfrwt>
<pdfrwt beam="2">  1       21 0.23051126E+00 0.10533943E+04</pdfrwt>
<totfact> 0.12216501E+01</totfact>
</mgrwt>
</event>
<event>
 8    1  0.7208583E-006  0.1053534E+04  0.7818608E-02  0.8729134E-01
         21   -1    0    0  501  502  0.00000000000E+00  0.00000000000E+00  0.19121772498E+04  0.19121772498E+04  0.00000000000E+00 0. -1.
         21   -1    0    0  502  503 -0.00000000000E+00 -0.00000000000E+00 -0.68989902030E+03  0.68989902030E+03  0.00000000000E+00 0. -1.
    9000010    2    1    2  501    0  0.34099014773E+03  0.87367815895E+02  0.11445837409E+04  0.15456811663E+04  0.97731822437E+03 0.  0.
   -9000010    2    1    2    0  503 -0.34099014773E+03 -0.87367815895E+02  0.77694488528E+02  0.10563951038E+04  0.99298880439E+03 0.  0.
        -13    1    3    3    0    0  0.51668116351E+02  0.18929270187E+03  0.12151733284E+04  0.12309132993E+04  0.10566000000E+00 0.  1.
          4    1    3    3  501    0  0.28932203137E+03 -0.10192488598E+03 -0.70589587456E+02  0.31476786697E+03  0.00000000000E+00 0.  1.
         13    1    4    4    0    0 -0.48957460429E+03  0.32398357091E+03  0.16625445764E+03  0.61015506491E+03  0.10566000000E+00 0. -1.
         -4    1    4    4    0  503  0.14858445656E+03 -0.41135138680E+03 -0.88559969114E+02  0.44624003887E+03  0.00000000000E+00 0. -1.
<mgrwt>
<rscale>  2 0.10498254E+04</rscale>
<asrwt>0</asrwt>
<pdfrwt beam="1">  1       21 0.29418111E+00 0.10535341E+04</pdfrwt>
<pdfrwt beam="2">  1       21 0.10613831E+00 0.10535341E+04</pdfrwt>
<totfact> 0.98701582E+00</totfact>
</mgrwt>
</event>
<event>
 8    1  0.7208583E-006  0.1151908E+04  0.7818608E-02  0.8653571E-01
         21   -1    0    0  503  502  0.00000000000E+00  0.00000000000E+00  0.10299174711E+04  0.10299174711E+04  0.00000000000E+00 0. -1.
         21   -1    0    0  501  503 -0.00000000000E+00 -0.00000000000E+00 -0.13630942322E+04  0.13630942322E+04  0.00000000000E+00 0. -1.
    9000010    2    1    2  501    0  0.51987399708E+03 -0.22659804520E+03 -0.53758344675E+03  0.12711758811E+04  0.10026347847E+04 0.  0.
   -9000010    2    1    2    0  502 -0.51987399708E+03  0.22659804520E+03  0.20440668564E+03  0.11218358222E+04  0.94610669157E+03 0.  0.
        -13    1    3    3    0    0  0.65831231014E+03 -0.33399543360E+03 -0.35106228548E+02  0.73902672874E+03  0.10566000000E+00 0.  1.
          4    1    3    3  501    0 -0.13843831307E+03  0.10739738840E+03 -0.50247721821E+03  0.53214915238E+03  0.00000000000E+00 0.  1.
         13    1    4    4    0    0 -0.43343470093E+03 -0.12646432517E+03 -0.26854945159E+03  0.52533578274E+03  0.10566000000E+00 0. -1.
         -4    1    4    4    0  502 -0.86439296144E+02  0.35306237037E+03  0.47295613723E+03  0.59650003942E+03  0.00000000000E+00 0. -1.
<mgrwt>
<rscale>  2 0.11394960E+04</rscale>
<asrwt>0</asrwt>
<pdfrwt beam="1">  1       21 0.15844884E+00 0.11519081E+04</pdfrwt>
<pdfrwt beam="2">  1       21 0.20970681E+00 0.11519081E+04</pdfrwt>
<totfact> 0.12504826E+01</totfact>
</mgrwt>
</event>
<event>
 8    1  0.7208583E-006  0.1014514E+04  0.7818608E-02  0.8761512E-01
         21   -1    0    0  503  502  0.00000000000E+00  0.00000000000E+00  0.20395402519E+04  0.20395402519E+04  0.00000000000E+00 0.  1.
         21   -1    0    0  501  503 -0.00000000000E+00 -0.00000000000E+00 -0.54196889659E+03  0.54196889659E+03  0.00000000000E+00 0.  1.
    9000010    2    1    2  501    0 -0.94508175805E+02  0.12822667501E+03  0.40644018252E+03  0.10929009848E+04  0.10019306688E+04 0.  0.
   -9000010    2    1    2    0  502  0.94508175805E+02 -0.12822667501E+03  0.10911311728E+04  0.14886081638E+04  0.10000065767E+04 0.  0.
        -13    1    3    3    0    0 -0.30832823209E+03  0.49817023967E+03  0.26284665612E+03  0.64212791731E+03  0.10566000000E+00 0.  1.
          4    1    3    3  501    0  0.21382005628E+03 -0.36994356466E+03  0.14359352640E+03  0.45077306744E+03  0.00000000000E+00 0.  1.
         13    1    4    4    0    0  0.21928204455E+03  0.40326496995E+03  0.59003817750E+03  0.74756425351E+03  0.10566000000E+00 0. -1.
         -4    1    4    4    0  502 -0.12477386874E+03 -0.53149164496E+03  0.50109299533E+03  0.74104391027E+03  0.00000000000E+00 0. -1.
<mgrwt>
<rscale>  2 0.10140388E+04</rscale>
<asrwt>0</asrwt>
<pdfrwt beam="1">  1       21 0.31377542E+00 0.10145141E+04</pdfrwt>
<pdfrwt beam="2">  1       21 0.83379831E-01 0.10145141E+04</pdfrwt>
<totfact> 0.13495033E+01</totfact>
</mgrwt>
</event>
<event>
 8    1  0.7208583E-006  0.1059422E+04  0.7818608E-02  0.8721947E-01
         21   -1    0    0  501  502  0.00000000000E+00  0.00000000000E+00  0.10863651652E+04  0.10863651652E+04  0.00000000000E+00 0.  1.
         21   -1    0    0  502  503 -0.00000000000E+00 -0.00000000000E+00 -0.11368485009E+04  0.11368485009E+04  0.00000000000E+00 0.  1.
    9000010    2    1    2  501    0  0.31127937025E+03  0.20004057710E+03  0.31953773265E+03  0.11010322997E+04  0.98653772536E+03 0.  0.
   -9000010    2    1    2    0  503 -0.31127937025E+03 -0.20004057710E+03 -0.37002106839E+03  0.11221813664E+04  0.99270557030E+03 0.  0.
        -13    1    3    3    0    0 -0.90863542613E+02  0.36623445684E+03 -0.19698008264E+03  0.42565834289E+03  0.10566000000E+00 0.  1.
          4    1    3    3  501    0  0.40214291286E+03 -0.16619387974E+03  0.51651781528E+03  0.67537395680E+03  0.00000000000E+00 0.  1.
         13    1    4    4    0    0  0.30799542885E+03 -0.21949087664E+03  0.38324612992E+02  0.38013973253E+03  0.10566000000E+00 0. -1.
         -4    1    4    4    0  503 -0.61927479910E+03  0.19450299539E+02 -0.40834568138E+03  0.74204163391E+03  0.00000000000E+00 0. -1.
<mgrwt>
<rscale>  2 0.10579749E+04</rscale>
<asrwt>0</asrwt>
<pdfrwt beam="1">  1       21 0.16713310E+00 0.10594222E+04</pdfrwt>
<pdfrwt beam="2">  1       21 0.17489977E+00 0.10594222E+04</pdfrwt>
<totfact> 0.20330178E+01</totfact>
</mgrwt>
</event>
<event>
 8    1  0.7208583E-006  0.1035658E+04  0.7818608E-02  0.8744824E-01
         21   -1    0    0  501  502  0.00000000000E+00  0.00000000000E+00  0.20017681742E+04  0.20017681742E+04  0.00000000000E+00 0. -1.
         21   -1    0    0  502  503 -0.00000000000E+00 -0.00000000000E+00 -0.85717583254E+03  0.85717583254E+03  0.00000000000E+00 0. -1.
    9000010    2    1    2  501    0 -0.79127066362E+02  0.19950035800E+03  0.14545878804E+04  0.17778871288E+04  0.99949750139E+03 0.  0.
   -9000010    2    1    2    0  503  0.79127066362E+02 -0.19950035800E+03 -0.30999553876E+03  0.10810568780E+04  0.10131758258E+04 0.  0.
        -13    1    3    3    0    0  0.36585725514E+03  0.35132416442E+02  0.11661709947E+04  0.12227185359E+04  0.10566000000E+00 0.  1.
          4    1    3    3  501    0 -0.44498432150E+03  0.16436794156E+03  0.28841688571E+03  0.55516859292E+03  0.00000000000E+00 0.  1.
         13    1    4    4    0    0  0.25064443797E+03  0.33133811929E+03  0.47975204887E+02  0.41822149040E+03  0.10566000000E+00 0. -1.
         -4    1    4    4    0  503 -0.17151737161E+03 -0.53083847729E+03 -0.35797074365E+03  0.66283538759E+03  0.00000000000E+00 0. -1.
<mgrwt>
<rscale>  2 0.10322969E+04</rscale>
<asrwt>0</asrwt>
<pdfrwt beam="1">  1       21 0.30796433E+00 0.10356576E+04</pdfrwt>
<pdfrwt beam="2">  1       21 0.13187321E+00 0.10356576E+04</pdfrwt>
<totfact> 0.43257652E+00</totfact>
</mgrwt>
</event>
<event>
 8    1  0.7208583E-006  0.1095427E+04  0.7818608E-02  0.8692618E-01
         21   -1    0    0  501  502  0.00000000000E+00  0.00000000000E+00  0.15907378522E+04  0.15907378522E+04  0.00000000000E+00 0. -1.
         21   -1    0    0  502  503 -0.00000000000E+00 -0.00000000000E+00 -0.92516240819E+03  0.92516240819E+03  0.00000000000E+00 0. -1.
    9000010    2    1    2  501    0 -0.90262985907E+02 -0.41186845309E+03  0.88942303791E+03  0.14110396194E+04  0.10110274170E+04 0.  0.
   -9000010    2    1    2    0  503  0.90262985907E+02  0.41186845309E+03 -0.22384759392E+03  0.11048606409E+04  0.99640667465E+03 0.  0.
        -13    1    3    3    0    0 -0.11813422445E+03 -0.58688578197E+03  0.10256015710E+04  0.11875391402E+04  0.10566000000E+00 0.  1.
          4    1    3    3  501    0  0.27871238547E+02  0.17501732888E+03 -0.13617853305E+03  0.22350047921E+03  0.00000000000E+00 0.  1.
         13    1    4    4    0    0  0.39823995724E+03  0.36096169909E+03  0.20429907643E+03  0.57500133526E+03  0.10566000000E+00 0. -1.
         -4    1    4    4    0  503 -0.30797697133E+03  0.50906753997E+02 -0.42814667035E+03  0.52985930567E+03  0.00000000000E+00 0. -1.
<mgrwt>
<rscale>  2 0.10920410E+04</rscale>
<asrwt>0</asrwt>
<pdfrwt beam="1">  1       21 0.24472890E+00 0.10954266E+04</pdfrwt>
<pdfrwt beam="2">  1       21 0.14233268E+00 0.10954266E+04</pdfrwt>
<totfact> 0.96465886E+00</totfact>
</mgrwt>
</event>
<event>
 8    1  0.7208583E-006  0.1071513E+04  0.7818608E-02  0.8712226E-01
         21   -1    0    0  503  502  0.00000000000E+00  0.00000000000E+00  0.22809498157E+04  0.22809498157E+04  0.00000000000E+00 0. -1.
         21   -1    0    0  501  503 -0.00000000000E+00 -0.00000000000E+00 -0.56733593779E+03  0.56733593779E+03  0.00000000000E+00 0. -1.
    9000010    2    1    2  501    0  0.18536669513E+03  0.29559506689E+03  0.36551778697E+03  0.11321411846E+04  0.10131155680E+04 0.  0.
   -9000010    2    1    2    0  502 -0.18536669513E+03 -0.29559506689E+03  0.13480960909E+04  0.17161445689E+04  0.10030213635E+04 0.  0.
        -13    1    3    3    0    0 -0.33115192014E+03  0.26165815541E+02 -0.14032783670E+03  0.36060803794E+03  0.10566000000E+00 0.  1.
          4    1    3    3  501    0  0.51651861527E+03  0.26942925135E+03  0.50584562367E+03  0.77153314665E+03  0.00000000000E+00 0.  1.
         13    1    4    4    0    0 -0.40684838692E+03 -0.33708360584E+02  0.13087091354E+04  0.13709053489E+04  0.10566000000E+00 0. -1.
         -4    1    4    4    0  502  0.22148169179E+03 -0.26188670630E+03  0.39386955552E+02  0.34523921997E+03  0.00000000000E+00 0. -1.
<mgrwt>
<rscale>  2 0.10691204E+04</rscale>
<asrwt>0</asrwt>
<pdfrwt beam="1">  1       21 0.35091535E+00 0.10715131E+04</pdfrwt>
<pdfrwt beam="2">  1       21 0.87282453E-01 0.10715131E+04</pdfrwt>
<totfact> 0.65132876E+00</totfact>
</mgrwt>
</event>
<event>
 8    1  0.7208583E-006  0.1009948E+04  0.7818608E-02  0.8770154E-01
         21   -1    0    0  501  502  0.00000000000E+00  0.00000000000E+00  0.98603486264E+03  0.98603486264E+03  0.00000000000E+00 0.  1.
         21   -1    0    0  502  503 -0.00000000000E+00 -0.00000000000E+00 -0.12285971578E+04  0.12285971578E+04  0.00000000000E+00 0.  1.
    9000010    2    1    2  501    0 -0.12006741785E+03 -0.90840827448E+02  0.34320620031E+03  0.10471050221E+04  0.97773728098E+03 0.  0.
   -9000010    2    1    2    0  503  0.12006741785E+03  0.90840827448E+02 -0.58576849546E+03  0.11675269983E+04  0.99866226561E+03 0.  0.
        -13    1    3    3    0    0  0.28882912420E+03  0.30419224354E+03  0.17171137520E+03  0.45325488586E+03  0.10566000000E+00 0.  1.
          4    1    3    3  501    0 -0.40889654205E+03 -0.39503307099E+03  0.17149482511E+03  0.59385013625E+03  0.00000000000E+00 0.  1.
         13    1    4    4    0    0  0.10317740899E+02  0.50853124867E+03 -0.52572706855E+03  0.73150492030E+03  0.10566000000E+00 0. -1.
         -4    1    4    4    0  503  0.10974967695E+03 -0.41769042122E+03 -0.60041426913E+02  0.43602207802E+03  0.00000000000E+00 0. -1.
<mgrwt>
<rscale>  2 0.10047360E+04</rscale>
<asrwt>0</asrwt>
<pdfrwt beam="1">  1       21 0.15169767E+00 0.10099478E+04</pdfrwt>
<pdfrwt beam="2">  1       21 0.18901495E+00 0.10099478E+04</pdfrwt>
<totfact> 0.21472156E+01</totfact>
</mgrwt>
</event>
<event>
 8    1  0.7208583E-006  0.1078503E+04  0.7818608E-02  0.8710209E-01
         21   -1    0    0  501  502  0.00000000000E+00  0.00000000000E+00  0.91581887725E+03  0.91581887725E+03  0.00000000000E+00 0.  1.
         21   -1    0    0  502  503 -0.00000000000E+00 -0.00000000000E+00 -0.19438085269E+04  0.19438085269E+04  0.00000000000E+00 0.  1.
    9000010    2    1    2  501    0  0.34984579527E+03 -0.80002502833E+02  0.35219601056E+03  0.11080338078E+04  0.98737247705E+03 0.  0.
   -9000010    2    1    2    0  503 -0.34984579527E+03  0.80002502833E+02 -0.13801856603E+04  0.17515935964E+04  0.10170423734E+04 0.  0.
        -13    1    3    3    0    0  0.21725123585E+03 -0.38014084839E+03  0.56661020095E+03  0.71606724201E+03  0.10566000000E+00 0.  1.
          4    1    3    3  501    0  0.13259455942E+03  0.30013834555E+03 -0.21441419039E+03  0.39196656579E+03  0.00000000000E+00 0.  1.
         13    1    4    4    0    0  0.10821468360E+03  0.18998240143E+03 -0.12413850392E+04  0.12604921885E+04  0.10566000000E+00 0. -1.
         -4    1    4    4    0  503 -0.45806047887E+03 -0.10997989859E+03 -0.13880062103E+03  0.49110140785E+03  0.00000000000E+00 0. -1.
<mgrwt>
<rscale>  2 0.10714505E+04</rscale>
<asrwt>0</asrwt>
<pdfrwt beam="1">  1       21 0.14089521E+00 0.10785025E+04</pdfrwt>
<pdfrwt beam="2">  1       21 0.29904747E+00 0.10785025E+04</pdfrwt>
<totfact> 0.40719701E+00</totfact>
</mgrwt>
</event>
<event>
 8    1  0.7208583E-006  0.1080617E+04  0.7818608E-02  0.8711457E-01
         21   -1    0    0  503  502  0.00000000000E+00  0.00000000000E+00  0.15761242261E+04  0.15761242261E+04  0.00000000000E+00 0. -1.
         21   -1    0    0  501  503 -0.00000000000E+00 -0.00000000000E+00 -0.96130389131E+03  0.96130389131E+03  0.00000000000E+00 0. -1.
    9000010    2    1    2  501    0 -0.21069980731E+03 -0.20500710346E+03 -0.34244644353E+03  0.10937892418E+04  0.99633479192E+03 0.  0.
   -9000010    2    1    2    0  502  0.21069980731E+03  0.20500710346E+03  0.95726677836E+03  0.14436388756E+04  0.10398611431E+04 0.  0.
        -13    1    3    3    0    0 -0.13549260666E+03  0.24067774256E+03 -0.53531999366E+03  0.60237158714E+03  0.10566000000E+00 0.  1.
          4    1    3    3  501    0 -0.75207200651E+02 -0.44568484602E+03  0.19287355013E+03  0.49141765469E+03  0.00000000000E+00 0.  1.
         13    1    4    4    0    0  0.35367672543E+03  0.45546692577E+03  0.16392966202E+03  0.59950837512E+03  0.10566000000E+00 0. -1.
         -4    1    4    4    0  502 -0.14297691812E+03 -0.25045982231E+03  0.79333711633E+03  0.84413050049E+03  0.00000000000E+00 0. -1.
<mgrwt>
<rscale>  2 0.10700077E+04</rscale>
<asrwt>0</asrwt>
<pdfrwt beam="1">  1       21 0.24248065E+00 0.10806172E+04</pdfrwt>
<pdfrwt beam="2">  1       21 0.14789291E+00 0.10806172E+04</pdfrwt>
<totfact> 0.89500435E+00</totfact>
</mgrwt>
</event>
<event>
 8    1  0.7208583E-006  0.1134688E+04  0.7818608E-02  0.8659080E-01
         21   -1    0    0  503  502  0.00000000000E+00  0.00000000000E+00  0.73963759894E+03  0.73963759894E+03  0.00000000000E+00 0. -1.
         21   -1    0    0  501  503 -0.00000000000E+00 -0.00000000000E+00 -0.19620616205E+04  0.19620616205E+04  0.00000000000E+00 0. -1.
    9000010    2    1    2  501    0 -0.51499006019E+02 -0.53655434040E+03 -0.10755459045E+04  0.15575442475E+04  0.98924333832E+03 0.  0.
   -9000010    2    1    2    0  502  0.51499006019E+02  0.53655434040E+03 -0.14687811706E+03  0.11441549719E+04  0.99848620958E+03 0.  0.
        -13    1    3    3    0    0  0.30589289235E+02  0.25157941254E+03 -0.44710100336E+02  0.25734589498E+03  0.10566000000E+00 0.  1.
          4    1    3    3  501    0 -0.82088295254E+02 -0.78813375294E+03 -0.10308358042E+04  0.13001983525E+04  0.00000000000E+00 0.  1.
         13    1    4    4    0    0  0.42753271445E+02  0.24547476436E+03 -0.57483515761E+03  0.62651510098E+03  0.10566000000E+00 0. -1.
         -4    1    4    4    0  502  0.87457345736E+01  0.29107957604E+03  0.42795704055E+03  0.51763987097E+03  0.00000000000E+00 0. -1.
<mgrwt>
<rscale>  2 0.11326516E+04</rscale>
<asrwt>0</asrwt>
<pdfrwt beam="1">  1       21 0.11379040E+00 0.11346882E+04</pdfrwt>
<pdfrwt beam="2">  1       21 0.30185563E+00 0.11346882E+04</pdfrwt>
<totfact> 0.70809630E+00</totfact>
</mgrwt>
</event>
<event>
 8    1  0.7208583E-006  0.1186243E+04  0.7818608E-02  0.8633898E-01
         21   -1    0    0  503  502  0.00000000000E+00  0.00000000000E+00  0.26526342939E+04  0.26526342939E+04  0.00000000000E+00 0. -1.
         21   -1    0    0  501  503 -0.00000000000E+00 -0.00000000000E+00 -0.97147456932E+03  0.97147456932E+03  0.00000000000E+00 0. -1.
    9000010    2    1    2  501    0 -0.24455488739E+03 -0.37130619563E+03 -0.44644889379E+03  0.11881509269E+04  0.10073284601E+04 0.  0.
   -9000010    2    1    2    0  502  0.24455488739E+03  0.37130619563E+03  0.21276086183E+04  0.24359579363E+04  0.10997714538E+04 0.  0.
        -13    1    3    3    0    0  0.36813329039E+03 -0.45806614143E+02 -0.15250223138E+02  0.37128553145E+03  0.10566000000E+00 0.  1.
          4    1    3    3  501    0 -0.61268817778E+03 -0.32549958149E+03 -0.43119867066E+03  0.81686539547E+03  0.00000000000E+00 0.  1.
         13    1    4    4    0    0  0.15848950355E+03  0.75760921984E+03  0.12066555640E+04  0.14335648970E+04  0.10566000000E+00 0. -1.
         -4    1    4    4    0  502  0.86065383845E+02 -0.38630302421E+03  0.92095305435E+03  0.10023930392E+04  0.00000000000E+00 0. -1.
<mgrwt>
<rscale>  2 0.11643549E+04</rscale>
<asrwt>0</asrwt>
<pdfrwt beam="1">  1       21 0.40809758E+00 0.11862431E+04</pdfrwt>
<pdfrwt beam="2">  1       21 0.14945763E+00 0.11862431E+04</pdfrwt>
<totfact> 0.57092456E-01</totfact>
</mgrwt>
</event>
<event>
 8    1  0.7208583E-006  0.1011772E+04  0.7818608E-02  0.8765135E-01
         21   -1    0    0  501  502  0.00000000000E+00  0.00000000000E+00  0.45249678397E+03  0.45249678397E+03  0.00000000000E+00 0.  1.
         21   -1    0    0  502  503 -0.00000000000E+00 -0.00000000000E+00 -0.22798347898E+04  0.22798347898E+04  0.00000000000E+00 0.  1.
    9000010    2    1    2  501    0 -0.64588989273E+02 -0.12307466450E+03 -0.75425012223E+03  0.12619732673E+04  0.10021797094E+04 0.  0.
   -9000010    2    1    2    0  503  0.64588989273E+02  0.12307466450E+03 -0.10730878836E+04  0.14703583064E+04  0.99554850852E+03 0.  0.
        -13    1    3    3    0    0  0.40572799108E+03  0.18568063290E+03 -0.28590005291E+03  0.52993523340E+03  0.10566000000E+00 0.  1.
          4    1    3    3  501    0 -0.47031698035E+03 -0.30875529740E+03 -0.46835006932E+03  0.73203803392E+03  0.00000000000E+00 0.  1.
         13    1    4    4    0    0 -0.26634305656E+03  0.43718442412E+03 -0.36780952360E+03  0.63035918434E+03  0.10566000000E+00 0. -1.
         -4    1    4    4    0  503  0.33093204583E+03 -0.31410975962E+03 -0.70527835998E+03  0.83999912208E+03  0.00000000000E+00 0. -1.
<mgrwt>
<rscale>  2 0.10101264E+04</rscale>
<asrwt>0</asrwt>
<pdfrwt beam="1">  1       21 0.69614890E-01 0.10117723E+04</pdfrwt>
<pdfrwt beam="2">  1       21 0.35074381E+00 0.10117723E+04</pdfrwt>
<totfact> 0.11485146E+01</totfact>
</mgrwt>
</event>
<event>
 8    1  0.7208583E-006  0.1002711E+04  0.7818608E-02  0.8773859E-01
         21   -1    0    0  503  502  0.00000000000E+00  0.00000000000E+00  0.12352460930E+04  0.12352460930E+04  0.00000000000E+00 0. -1.
         21   -1    0    0  501  503 -0.00000000000E+00 -0.00000000000E+00 -0.83256110136E+03  0.83256110136E+03  0.00000000000E+00 0. -1.
    9000010    2    1    2  501    0  0.44359371811E+02  0.41886233511E+02  0.21967497163E+02  0.99525159969E+03  0.99313693181E+03 0.  0.
   -9000010    2    1    2    0  502 -0.44359371811E+02 -0.41886233511E+02  0.38071749450E+03  0.10725555947E+04  0.10008533772E+04 0.  0.
        -13    1    3    3    0    0  0.45544214805E+03 -0.17243310244E+02  0.25168155684E+03  0.52064239089E+03  0.10566000000E+00 0.  1.
          4    1    3    3  501    0 -0.41108277624E+03  0.59129543755E+02 -0.22971405967E+03  0.47460920880E+03  0.00000000000E+00 0.  1.
         13    1    4    4    0    0  0.22556218612E+03 -0.39287462255E+03  0.43303917216E+03  0.62669905428E+03  0.10566000000E+00 0. -1.
         -4    1    4    4    0  502 -0.26992155793E+03  0.35098838904E+03 -0.52321677654E+02  0.44585654041E+03  0.00000000000E+00 0. -1.
<mgrwt>
<rscale>  2 0.10007801E+04</rscale>
<asrwt>0</asrwt>
<pdfrwt beam="1">  1       21 0.19003786E+00 0.10027112E+04</pdfrwt>
<pdfrwt beam="2">  1       21 0.12808632E+00 0.10027112E+04</pdfrwt>
<totfact> 0.34930798E+01</totfact>
</mgrwt>
</event>
<event>
 8    1  0.7208583E-006  0.1023173E+04  0.7818608E-02  0.8758442E-01
         21   -1    0    0  503  502  0.00000000000E+00  0.00000000000E+00  0.15518370383E+04  0.15518370383E+04  0.00000000000E+00 0.  1.
         21   -1    0    0  501  503 -0.00000000000E+00 -0.00000000000E+00 -0.81019557852E+03  0.81019557852E+03  0.00000000000E+00 0.  1.
    9000010    2    1    2  501    0  0.47983333114E+02  0.11206640037E+03 -0.13503644097E+03  0.10320451925E+04  0.10158844229E+04 0.  0.
   -9000010    2    1    2    0  502 -0.47983333114E+02 -0.11206640037E+03  0.87667790074E+03  0.13299874243E+04  0.99269387461E+03 0.  0.
        -13    1    3    3    0    0  0.48998494359E+03  0.43395398556E+02  0.13430650248E+03  0.50990847544E+03  0.10566000000E+00 0.  1.
          4    1    3    3  501    0 -0.44200161047E+03  0.68671001814E+02 -0.26934294345E+03  0.52213671709E+03  0.00000000000E+00 0.  1.
         13    1    4    4    0    0 -0.59334393441E+02  0.20524232710E+03  0.97458136840E+03  0.99772432959E+03  0.10566000000E+00 0. -1.
         -4    1    4    4    0  502  0.11351060327E+02 -0.31730872747E+03 -0.97903467657E+02  0.33226309467E+03  0.00000000000E+00 0. -1.
<mgrwt>
<rscale>  2 0.10173681E+04</rscale>
<asrwt>0</asrwt>
<pdfrwt beam="1">  1       21 0.23874416E+00 0.10231727E+04</pdfrwt>
<pdfrwt beam="2">  1       21 0.12464547E+00 0.10231727E+04</pdfrwt>
<totfact> 0.15988253E+01</totfact>
</mgrwt>
</event>
<event>
 8    1  0.7208583E-006  0.1099166E+04  0.7818608E-02  0.8690021E-01
         21   -1    0    0  501  502  0.00000000000E+00  0.00000000000E+00  0.57736630606E+03  0.57736630606E+03  0.00000000000E+00 0. -1.
         21   -1    0    0  502  503 -0.00000000000E+00 -0.00000000000E+00 -0.25499486532E+04  0.25499486532E+04  0.00000000000E+00 0. -1.
    9000010    2    1    2  501    0  0.22848430856E+03 -0.38426953193E+03 -0.29643335649E+03  0.11229092984E+04  0.98650109237E+03 0.  0.
   -9000010    2    1    2    0  503 -0.22848430856E+03  0.38426953193E+03 -0.16761489906E+04  0.20044056608E+04  0.10041406584E+04 0.  0.
        -13    1    3    3    0    0 -0.32955586247E+03 -0.40788595142E+03 -0.15295565539E+03  0.54623571792E+03  0.10566000000E+00 0.  1.
          4    1    3    3  501    0  0.55804017103E+03  0.23616419491E+02 -0.14347770110E+03  0.57667358051E+03  0.00000000000E+00 0.  1.
         13    1    4    4    0    0  0.10114268029E+03  0.56944893551E+03 -0.14565524388E+04  0.15671780211E+04  0.10566000000E+00 0. -1.
         -4    1    4    4    0  503 -0.32962698885E+03 -0.18517940357E+03 -0.21959655184E+03  0.43722763964E+03  0.00000000000E+00 0. -1.
<mgrwt>
<rscale>  2 0.10951213E+04</rscale>
<asrwt>0</asrwt>
<pdfrwt beam="1">  1       21 0.88825587E-01 0.10991663E+04</pdfrwt>
<pdfrwt beam="2">  1       21 0.39229979E+00 0.10991663E+04</pdfrwt>
<totfact> 0.31724423E+00</totfact>
</mgrwt>
</event>
<event>
 8    1  0.7208583E-006  0.1006668E+04  0.7818608E-02  0.8774067E-01
         21   -1    0    0  501  502  0.00000000000E+00  0.00000000000E+00  0.78151506179E+03  0.78151506179E+03  0.00000000000E+00 0. -1.
         21   -1    0    0  502  503 -0.00000000000E+00 -0.00000000000E+00 -0.14341763428E+04  0.14341763428E+04  0.00000000000E+00 0. -1.
    9000010    2    1    2  501    0  0.22201486780E+03  0.12755420933E+02  0.56881687946E+02  0.98409393692E+03  0.95694934452E+03 0.  0.
   -9000010    2    1    2    0  503 -0.22201486780E+03 -0.12755420933E+02 -0.70954296896E+03  0.12315974677E+04  0.98179824573E+03 0.  0.
        -13    1    3    3    0    0  0.47497728639E+03  0.28441224109E+03  0.19657340804E+03  0.58748179664E+03  0.10566000000E+00 0.  1.
          4    1    3    3  501    0 -0.25296241859E+03 -0.27165682016E+03 -0.13969172009E+03  0.39661214028E+03  0.00000000000E+00 0.  1.
         13    1    4    4    0    0  0.20427933275E+03 -0.11806452056E+03 -0.75417974576E+03  0.79022552280E+03  0.10566000000E+00 0. -1.
         -4    1    4    4    0  503 -0.42629420055E+03  0.10530909963E+03  0.44636776803E+02  0.44137194488E+03  0.00000000000E+00 0. -1.
<mgrwt>
<rscale>  2 0.10005580E+04</rscale>
<asrwt>0</asrwt>
<pdfrwt beam="1">  1       21 0.12023309E+00 0.10066683E+04</pdfrwt>
<pdfrwt beam="2">  1       21 0.22064251E+00 0.10066683E+04</pdfrwt>
<totfact> 0.24222178E+01</totfact>
</mgrwt>
</event>
<event>
 8    1  0.7208583E-006  0.1017476E+04  0.7818608E-02  0.8761555E-01
         21   -1    0    0  503  502  0.00000000000E+00  0.00000000000E+00  0.85116441336E+03  0.85116441336E+03  0.00000000000E+00 0.  1.
         21   -1    0    0  501  503 -0.00000000000E+00 -0.00000000000E+00 -0.17858045034E+04  0.17858045034E+04  0.00000000000E+00 0.  1.
    9000010    2    1    2  501    0 -0.13244221250E+03  0.31801676818E+02 -0.12204576292E+04  0.15801109747E+04  0.99432468620E+03 0.  0.
   -9000010    2    1    2    0  502  0.13244221250E+03 -0.31801676818E+02  0.28581753909E+03  0.10568579421E+04  0.10083177861E+04 0.  0.
        -13    1    3    3    0    0  0.28345833972E+03  0.36379709873E+03 -0.45512135175E+03  0.64794476260E+03  0.10566000000E+00 0.  1.
          4    1    3    3  501    0 -0.41590055222E+03 -0.33199542191E+03 -0.76533627743E+03  0.93216621214E+03  0.00000000000E+00 0.  1.
         13    1    4    4    0    0 -0.15253572847E+02  0.43813745177E+03 -0.76933578514E+02  0.44510210603E+03  0.10566000000E+00 0. -1.
         -4    1    4    4    0  502  0.14769578535E+03 -0.46993912859E+03  0.36275111760E+03  0.61175583602E+03  0.00000000000E+00 0. -1.
<mgrwt>
<rscale>  2 0.10139916E+04</rscale>
<asrwt>0</asrwt>
<pdfrwt beam="1">  1       21 0.13094837E+00 0.10174758E+04</pdfrwt>
<pdfrwt beam="2">  1       21 0.27473915E+00 0.10174758E+04</pdfrwt>
<totfact> 0.76305220E+00</totfact>
</mgrwt>
</event>
<event>
 8    1  0.7208583E-006  0.1037769E+04  0.7818608E-02  0.8751739E-01
         21   -1    0    0  503  502  0.00000000000E+00  0.00000000000E+00  0.54178276640E+03  0.54178276640E+03  0.00000000000E+00 0. -1.
         21   -1    0    0  501  503 -0.00000000000E+00 -0.00000000000E+00 -0.19955799204E+04  0.19955799204E+04  0.00000000000E+00 0. -1.
    9000010    2    1    2  501    0  0.11203426931E+03  0.85240110868E+02 -0.10002426503E+04  0.14048092919E+04  0.97631256939E+03 0.  0.
   -9000010    2    1    2    0  502 -0.11203426931E+03 -0.85240110868E+02 -0.45355450371E+03  0.11325533949E+04  0.10281770035E+04 0.  0.
        -13    1    3    3    0    0 -0.33877626038E+03  0.41673023861E+02 -0.40699201521E+02  0.34374762789E+03  0.10566000000E+00 0.  1.
          4    1    3    3  501    0  0.45081052969E+03  0.43567087007E+02 -0.95954344875E+03  0.10610616640E+04  0.00000000000E+00 0.  1.
         13    1    4    4    0    0  0.44124206641E+03 -0.71791816345E+01 -0.51743668443E+02  0.44432366605E+03  0.10566000000E+00 0. -1.
         -4    1    4    4    0  502 -0.55327633572E+03 -0.78060929234E+02 -0.40181083527E+03  0.68822972886E+03  0.00000000000E+00 0. -1.
<mgrwt>
<rscale>  2 0.10246841E+04</rscale>
<asrwt>0</asrwt>
<pdfrwt beam="1">  1       21 0.83351195E-01 0.10377695E+04</pdfrwt>
<pdfrwt beam="2">  1       21 0.30701230E+00 0.10377695E+04</pdfrwt>
<totfact> 0.14990157E+01</totfact>
</mgrwt>
</event>
<event>
 8    1  0.7208583E-006  0.1094107E+04  0.7818608E-02  0.8694302E-01
         21   -1    0    0  503  502  0.00000000000E+00  0.00000000000E+00  0.10455736069E+04  0.10455736069E+04  0.00000000000E+00 0.  1.
         21   -1    0    0  501  503 -0.00000000000E+00 -0.00000000000E+00 -0.13431427068E+04  0.13431427068E+04  0.00000000000E+00 0.  1.
    9000010    2    1    2  501    0  0.34972366484E+03  0.14653314759E+03 -0.62764070966E+03  0.12613493486E+04  0.10262995243E+04 0.  0.
   -9000010    2    1    2    0  502 -0.34972366484E+03 -0.14653314759E+03  0.33007160979E+03  0.11273669651E+04  0.10090740317E+04 0.  0.
        -13    1    3    3    0    0 -0.11932809236E+03 -0.11395871722E+03  0.20971779375E+03  0.26684704802E+03  0.10566000000E+00 0.  1.
          4    1    3    3  501    0  0.46905175720E+03  0.26049186482E+03 -0.83735850342E+03  0.99450230056E+03  0.00000000000E+00 0.  1.
         13    1    4    4    0    0  0.12670332808E+01  0.21607243766E+03 -0.26837013552E+03  0.34454527205E+03  0.10566000000E+00 0. -1.
         -4    1    4    4    0  502 -0.35099069813E+03 -0.36260558526E+03  0.59844174530E+03  0.78282169308E+03  0.00000000000E+00 0. -1.
<mgrwt>
<rscale>  2 0.10900488E+04</rscale>
<asrwt>0</asrwt>
<pdfrwt beam="1">  1       21 0.16085748E+00 0.10941066E+04</pdfrwt>
<pdfrwt beam="2">  1       21 0.20663734E+00 0.10941066E+04</pdfrwt>
<totfact> 0.12744101E+01</totfact>
</mgrwt>
</event>
<event>
 8    1  0.7208583E-006  0.1020633E+04  0.7818608E-02  0.8756493E-01
         21   -1    0    0  503  502  0.00000000000E+00  0.00000000000E+00  0.21031882489E+04  0.21031882489E+04  0.00000000000E+00 0. -1.
         21   -1    0    0  501  503 -0.00000000000E+00 -0.00000000000E+00 -0.55195380682E+03  0.55195380682E+03  0.00000000000E+00 0. -1.
    9000010    2    1    2  501    0 -0.15293342403E+03 -0.15130032892E+03  0.34358126707E+03  0.10769116900E+04  0.99770250041E+03 0.  0.
   -9000010    2    1    2    0  502  0.15293342403E+03  0.15130032892E+03  0.12076531750E+04  0.15782303656E+04  0.99302793230E+03 0.  0.
        -13    1    3    3    0    0  0.17477043200E+02  0.25272373790E+03  0.53997632650E+03  0.59644713017E+03  0.10566000000E+00 0.  1.
          4    1    3    3  501    0 -0.17041046723E+03 -0.40402406682E+03 -0.19639505943E+03  0.48046455986E+03  0.00000000000E+00 0.  1.
         13    1    4    4    0    0  0.24111220602E+03 -0.38438229593E+03  0.70483894788E+03  0.83826177232E+03  0.10566000000E+00 0. -1.
         -4    1    4    4    0  502 -0.88178781985E+02  0.53568262485E+03  0.50281422708E+03  0.73996859332E+03  0.00000000000E+00 0. -1.
<mgrwt>
<rscale>  2 0.10194883E+04</rscale>
<asrwt>0</asrwt>
<pdfrwt beam="1">  1       21 0.32356742E+00 0.10206325E+04</pdfrwt>
<pdfrwt beam="2">  1       21 0.84915971E-01 0.10206325E+04</pdfrwt>
<totfact> 0.10989025E+01</totfact>
</mgrwt>
</event>
<event>
 8    1  0.7208583E-006  0.1001173E+04  0.7818608E-02  0.8802628E-01
         21   -1    0    0  503  502  0.00000000000E+00  0.00000000000E+00  0.49558337834E+03  0.49558337834E+03  0.00000000000E+00 0. -1.
         21   -1    0    0  501  503 -0.00000000000E+00 -0.00000000000E+00 -0.18412127677E+04  0.18412127677E+04  0.00000000000E+00 0. -1.
    9000010    2    1    2  501    0  0.12160325775E+02  0.62171239349E+01 -0.81886310549E+03  0.12055004215E+04  0.88459479679E+03 0.  0.
   -9000010    2    1    2    0  502 -0.12160325775E+02 -0.62171239349E+01 -0.52676628389E+03  0.11312957246E+04  0.10010798032E+04 0.  0.
        -13    1    3    3    0    0 -0.37582030443E+03 -0.10092277350E+03 -0.13482925336E+03  0.41183157499E+03  0.10566000000E+00 0.  1.
          4    1    3    3  501    0  0.38798063020E+03  0.10713989743E+03 -0.68403385213E+03  0.79366884649E+03  0.00000000000E+00 0.  1.
         13    1    4    4    0    0 -0.68093646224E+02 -0.53012164216E+02 -0.82234140268E+03  0.82685695736E+03  0.10566000000E+00 0. -1.
         -4    1    4    4    0  502  0.55933320448E+02  0.46795040281E+02  0.29557511879E+03  0.30443876721E+03  0.00000000000E+00 0. -1.
<mgrwt>
<rscale>  2 0.97069070E+03</rscale>
<asrwt>0</asrwt>
<pdfrwt beam="1">  1       21 0.76243598E-01 0.10011730E+04</pdfrwt>
<pdfrwt beam="2">  1       21 0.28326350E+00 0.10011730E+04</pdfrwt>
<totfact> 0.27673477E+01</totfact>
</mgrwt>
</event>
<event>
 8    1  0.7208583E-006  0.1004002E+04  0.7818608E-02  0.8780331E-01
         21   -1    0    0  501  502  0.00000000000E+00  0.00000000000E+00  0.19319440894E+04  0.19319440894E+04  0.00000000000E+00 0. -1.
         21   -1    0    0  502  503 -0.00000000000E+00 -0.00000000000E+00 -0.55804873796E+03  0.55804873796E+03  0.00000000000E+00 0. -1.
    9000010    2    1    2  501    0 -0.35399441618E+02 -0.50100154618E+02  0.10963105597E+04  0.14865790332E+04  0.10021263557E+04 0.  0.
   -9000010    2    1    2    0  503  0.35399441618E+02  0.50100154618E+02  0.27758479179E+03  0.10034137942E+04  0.96230077408E+03 0.  0.
        -13    1    3    3    0    0 -0.21032520933E+03 -0.28958426371E+03  0.11325967183E+04  0.11878009416E+04  0.10566000000E+00 0.  1.
          4    1    3    3  501    0  0.17492576771E+03  0.23948410909E+03 -0.36286158594E+02  0.29877809160E+03  0.00000000000E+00 0.  1.
         13    1    4    4    0    0  0.46632695978E+03 -0.97024108849E+02  0.12404766555E+02  0.47647497365E+03  0.10566000000E+00 0. -1.
         -4    1    4    4    0  503 -0.43092751817E+03  0.14712426347E+03  0.26518002524E+03  0.52693882055E+03  0.00000000000E+00 0. -1.
<mgrwt>
<rscale>  2 0.99391413E+03</rscale>
<asrwt>0</asrwt>
<pdfrwt beam="1">  1       21 0.29722216E+00 0.10040022E+04</pdfrwt>
<pdfrwt beam="2">  1       21 0.85853653E-01 0.10040022E+04</pdfrwt>
<totfact> 0.16451907E+01</totfact>
</mgrwt>
</event>
<event>
 8    1  0.7208583E-006  0.1019205E+04  0.7818608E-02  0.8760653E-01
         21   -1    0    0  503  502  0.00000000000E+00  0.00000000000E+00  0.10094104676E+04  0.10094104676E+04  0.00000000000E+00 0. -1.
         21   -1    0    0  501  503 -0.00000000000E+00 -0.00000000000E+00 -0.10250903521E+04  0.10250903521E+04  0.00000000000E+00 0. -1.
    9000010    2    1    2  501    0 -0.16530948112E+03 -0.34661541521E+02 -0.12201555867E+03  0.10097637753E+04  0.98803159789E+03 0.  0.
   -9000010    2    1    2    0  502  0.16530948112E+03  0.34661541521E+02  0.10633567422E+03  0.10247370444E+04  0.10051119776E+04 0.  0.
        -13    1    3    3    0    0 -0.22132797533E+03  0.24262021044E+03  0.33701791317E+03  0.47056532399E+03  0.10566000000E+00 0.  1.
          4    1    3    3  501    0  0.56018494219E+02 -0.27728175196E+03 -0.45903347185E+03  0.53919845135E+03  0.00000000000E+00 0.  1.
         13    1    4    4    0    0  0.11056348209E+03  0.49432575459E+03 -0.10265052365E+03  0.51683592792E+03  0.10566000000E+00 0. -1.
         -4    1    4    4    0  502  0.54745999023E+02 -0.45966421306E+03  0.20898619787E+03  0.50790111644E+03  0.00000000000E+00 0. -1.
<mgrwt>
<rscale>  2 0.10149686E+04</rscale>
<asrwt>0</asrwt>
<pdfrwt beam="1">  1       21 0.15529392E+00 0.10192050E+04</pdfrwt>
<pdfrwt beam="2">  1       21 0.15770621E+00 0.10192050E+04</pdfrwt>
<totfact> 0.36274647E+01</totfact>
</mgrwt>
</event>
<event>
 8    1  0.7208583E-006  0.1158103E+04  0.7818608E-02  0.8664805E-01
         21   -1    0    0  503  502  0.00000000000E+00  0.00000000000E+00  0.69087034913E+03  0.69087034913E+03  0.00000000000E+00 0.  1.
         21   -1    0    0  501  503 -0.00000000000E+00 -0.00000000000E+00 -0.18933504502E+04  0.18933504502E+04  0.00000000000E+00 0.  1.
    9000010    2    1    2  501    0  0.21425774659E+03 -0.10202737370E+03 -0.26301865190E+03  0.11875944683E+04  0.11335280512E+04 0.  0.
   -9000010    2    1    2    0  502 -0.21425774659E+03  0.10202737370E+03 -0.93946144917E+03  0.13966263311E+04  0.10058137637E+04 0.  0.
        -13    1    3    3    0    0  0.27987857567E+03  0.10893235338E+02 -0.68808970748E+03  0.74291193044E+03  0.10566000000E+00 0.  1.
          4    1    3    3  501    0 -0.65620829076E+02 -0.11292060904E+03  0.42507105558E+03  0.44468253782E+03  0.00000000000E+00 0.  1.
         13    1    4    4    0    0 -0.17718255686E+03  0.46258843795E+03 -0.13368884148E+03  0.51308326701E+03  0.10566000000E+00 0. -1.
         -4    1    4    4    0  502 -0.37075189733E+02 -0.36056106426E+03 -0.80577260768E+03  0.88354306406E+03  0.00000000000E+00 0. -1.
<mgrwt>
<rscale>  2 0.11255908E+04</rscale>
<asrwt>0</asrwt>
<pdfrwt beam="1">  1       21 0.10628775E+00 0.11581027E+04</pdfrwt>
<pdfrwt beam="2">  1       21 0.29128468E+00 0.11581027E+04</pdfrwt>
<totfact> 0.10076735E+01</totfact>
</mgrwt>
</event>
<event>
 8    1  0.7208583E-006  0.1010454E+04  0.7818608E-02  0.8780166E-01
         21   -1    0    0  503  502  0.00000000000E+00  0.00000000000E+00  0.96071906744E+03  0.96071906744E+03  0.00000000000E+00 0. -1.
         21   -1    0    0  501  503 -0.00000000000E+00 -0.00000000000E+00 -0.10266908176E+04  0.10266908176E+04  0.00000000000E+00 0. -1.
    9000010    2    1    2  501    0  0.11125261443E+03  0.89084105231E+02 -0.20189617878E+03  0.96785441504E+03  0.93577079442E+03 0.  0.
   -9000010    2    1    2    0  502 -0.11125261443E+03 -0.89084105231E+02  0.13592442864E+03  0.10195554700E+04  0.10003523299E+04 0.  0.
        -13    1    3    3    0    0  0.30089317478E+03  0.42617098188E+03 -0.24929211389E+03  0.57819112552E+03  0.10566000000E+00 0.  1.
          4    1    3    3  501    0 -0.18964056034E+03 -0.33708687665E+03  0.47395935112E+02  0.38966328952E+03  0.00000000000E+00 0.  1.
         13    1    4    4    0    0  0.21500038140E+03  0.28188645960E+03  0.33421508666E+03  0.48722158760E+03  0.10566000000E+00 0. -1.
         -4    1    4    4    0  502 -0.32625299584E+03 -0.37097056483E+03 -0.19829065802E+03  0.53233388237E+03  0.00000000000E+00 0. -1.
<mgrwt>
<rscale>  2 0.99408794E+03</rscale>
<asrwt>0</asrwt>
<pdfrwt beam="1">  1       21 0.14780293E+00 0.10104543E+04</pdfrwt>
<pdfrwt beam="2">  1       21 0.15795243E+00 0.10104543E+04</pdfrwt>
<totfact> 0.42145348E+01</totfact>
</mgrwt>
</event>
<event>
 8    1  0.7208583E-006  0.1012096E+04  0.7818608E-02  0.8763880E-01
         21   -1    0    0  503  502  0.00000000000E+00  0.00000000000E+00  0.66313772377E+03  0.66313772377E+03  0.00000000000E+00 0. -1.
         21   -1    0    0  501  503 -0.00000000000E+00 -0.00000000000E+00 -0.15687896285E+04  0.15687896285E+04  0.00000000000E+00 0. -1.
    9000010    2    1    2  501    0 -0.11010556508E+03  0.12847522669E+03 -0.30465017901E+03  0.10569527681E+04  0.99785184421E+03 0.  0.
   -9000010    2    1    2    0  502  0.11010556508E+03 -0.12847522669E+03 -0.60100172568E+03  0.11749745842E+04  0.99535575543E+03 0.  0.
        -13    1    3    3    0    0 -0.52757773666E+03  0.15422788397E+03 -0.32435232364E+03  0.63822327553E+03  0.10566000000E+00 0.  1.
          4    1    3    3  501    0  0.41747217158E+03 -0.25752657280E+02  0.19702144636E+02  0.41872949252E+03  0.00000000000E+00 0.  1.
         13    1    4    4    0    0  0.99996558430E+02  0.15049137519E+03 -0.80767847302E+03  0.82764212837E+03  0.10566000000E+00 0. -1.
         -4    1    4    4    0  502  0.10109006650E+02 -0.27896660187E+03  0.20667674734E+03  0.34733245582E+03  0.00000000000E+00 0. -1.
<mgrwt>
<rscale>  2 0.10114798E+04</rscale>
<asrwt>0</asrwt>
<pdfrwt beam="1">  1       21 0.10202119E+00 0.10120956E+04</pdfrwt>
<pdfrwt beam="2">  1       21 0.24135225E+00 0.10120956E+04</pdfrwt>
<totfact> 0.26516546E+01</totfact>
</mgrwt>
</event>
<event>
 8    1  0.7208583E-006  0.1017666E+04  0.7818608E-02  0.8760509E-01
         21   -1    0    0  503  502  0.00000000000E+00  0.00000000000E+00  0.14638200464E+04  0.14638200464E+04  0.00000000000E+00 0. -1.
         21   -1    0    0  501  503 -0.00000000000E+00 -0.00000000000E+00 -0.72260025656E+03  0.72260025656E+03  0.00000000000E+00 0. -1.
    9000010    2    1    2  501    0 -0.14672705327E+03  0.79942709998E+02  0.56012426489E+03  0.11527667086E+04  0.99358554100E+03 0.  0.
   -9000010    2    1    2    0  502  0.14672705327E+03 -0.79942709998E+02  0.18109552495E+03  0.10336535944E+04  0.10038548196E+04 0.  0.
        -13    1    3    3    0    0 -0.50246291293E+03 -0.17316975116E+03  0.14634820635E+03  0.55124817483E+03  0.10566000000E+00 0.  1.
          4    1    3    3  501    0  0.35573585966E+03  0.25311246116E+03  0.41377605853E+03  0.60151853376E+03  0.00000000000E+00 0.  1.
         13    1    4    4    0    0  0.35827546277E+03  0.11445901620E+03 -0.29471636518E+03  0.47782833809E+03  0.10566000000E+00 0. -1.
         -4    1    4    4    0  502 -0.21154840951E+03 -0.19440172620E+03  0.47581189012E+03  0.55582525626E+03  0.00000000000E+00 0. -1.
<mgrwt>
<rscale>  2 0.10151244E+04</rscale>
<asrwt>0</asrwt>
<pdfrwt beam="1">  1       21 0.22520308E+00 0.10176660E+04</pdfrwt>
<pdfrwt beam="2">  1       21 0.11116927E+00 0.10176660E+04</pdfrwt>
<totfact> 0.27715081E+01</totfact>
</mgrwt>
</event>
<event>
 8    1  0.7208583E-006  0.1209981E+04  0.7818608E-02  0.8601427E-01
         21   -1    0    0  503  502  0.00000000000E+00  0.00000000000E+00  0.59820669270E+03  0.59820669270E+03  0.00000000000E+00 0.  1.
         21   -1    0    0  501  503 -0.00000000000E+00 -0.00000000000E+00 -0.29042977094E+04  0.29042977094E+04  0.00000000000E+00 0.  1.
    9000010    2    1    2  501    0 -0.52890044643E+03  0.41175256496E+03 -0.18615582113E+04  0.22134494993E+04  0.99231237761E+03 0.  0.
   -9000010    2    1    2    0  502  0.52890044643E+03 -0.41175256496E+03 -0.44453280538E+03  0.12890549028E+04  0.10073615391E+04 0.  0.
        -13    1    3    3    0    0 -0.32514699139E+03  0.64478411862E+03 -0.67959009080E+03  0.99161980028E+03  0.10566000000E+00 0.  1.
          4    1    3    3  501    0 -0.20375345504E+03 -0.23303155365E+03 -0.11819681205E+04  0.12218296990E+04  0.00000000000E+00 0.  1.
         13    1    4    4    0    0 -0.25360958872E+03 -0.18241905353E+03 -0.34845444174E+03  0.46799043122E+03  0.10566000000E+00 0. -1.
         -4    1    4    4    0  502  0.78251003514E+03 -0.22933351144E+03 -0.96078363633E+02  0.82106447160E+03  0.00000000000E+00 0. -1.
<mgrwt>
<rscale>  2 0.12068434E+04</rscale>
<asrwt>0</asrwt>
<pdfrwt beam="1">  1       21 0.92031799E-01 0.12099806E+04</pdfrwt>
<pdfrwt beam="2">  1       21 0.44681503E+00 0.12099806E+04</pdfrwt>
<totfact> 0.11877767E+00</totfact>
</mgrwt>
</event>
<event>
 8    1  0.7208583E-006  0.1044073E+04  0.7818608E-02  0.8737922E-01
         21   -1    0    0  501  502  0.00000000000E+00  0.00000000000E+00  0.16686847077E+04  0.16686847077E+04  0.00000000000E+00 0.  1.
         21   -1    0    0  502  503 -0.00000000000E+00 -0.00000000000E+00 -0.67558353823E+03  0.67558353823E+03  0.00000000000E+00 0.  1.
    9000010    2    1    2  501    0 -0.11411984426E+03  0.29006076317E+03  0.24317940176E+03  0.10720194418E+04  0.99645916971E+03 0.  0.
   -9000010    2    1    2    0  503  0.11411984426E+03 -0.29006076317E+03  0.74992176767E+03  0.12722488041E+04  0.97932414285E+03 0.  0.
        -13    1    3    3    0    0  0.19206496340E+03  0.27425261776E+03  0.54639035374E+03  0.64081657152E+03  0.10566000000E+00 0.  1.
          4    1    3    3  501    0 -0.30618480766E+03  0.15808145412E+02 -0.30321095198E+03  0.43120287024E+03  0.00000000000E+00 0.  1.
         13    1    4    4    0    0 -0.22730848492E+03 -0.18339626431E+02 -0.14941970733E+03  0.27263849566E+03  0.10566000000E+00 0. -1.
         -4    1    4    4    0  503  0.34142832919E+03 -0.27172113674E+03  0.89934147499E+03  0.99961030845E+03  0.00000000000E+00 0. -1.
<mgrwt>
<rscale>  2 0.10399641E+04</rscale>
<asrwt>0</asrwt>
<pdfrwt beam="1">  1       21 0.25672072E+00 0.10440735E+04</pdfrwt>
<pdfrwt beam="2">  1       21 0.10393593E+00 0.10440735E+04</pdfrwt>
<totfact> 0.19370320E+01</totfact>
</mgrwt>
</event>
<event>
 8    1  0.7208583E-006  0.1041611E+04  0.7818608E-02  0.8748315E-01
         21   -1    0    0  503  502  0.00000000000E+00  0.00000000000E+00  0.65237473320E+03  0.65237473320E+03  0.00000000000E+00 0.  1.
         21   -1    0    0  501  503 -0.00000000000E+00 -0.00000000000E+00 -0.16375152457E+04  0.16375152457E+04  0.00000000000E+00 0.  1.
    9000010    2    1    2  501    0  0.52741859217E+02 -0.11889249525E+02 -0.71617674958E+03  0.12640660767E+04  0.10402071196E+04 0.  0.
   -9000010    2    1    2    0  502 -0.52741859217E+02  0.11889249525E+02 -0.26896376294E+03  0.10258239022E+04  0.98845845365E+03 0.  0.
        -13    1    3    3    0    0 -0.19848863393E+03 -0.39678627182E+03 -0.38648739947E+02  0.44534348493E+03  0.10566000000E+00 0.  1.
          4    1    3    3  501    0  0.25123049315E+03  0.38489702230E+03 -0.67752800963E+03  0.81872259178E+03  0.00000000000E+00 0.  1.
         13    1    4    4    0    0  0.12558514755E+03  0.47597017754E+03 -0.11730538512E+03  0.50604328247E+03  0.10566000000E+00 0. -1.
         -4    1    4    4    0  502 -0.17832700677E+03 -0.46408092802E+03 -0.15165837781E+03  0.51978061973E+03  0.00000000000E+00 0. -1.
<mgrwt>
<rscale>  2 0.10284448E+04</rscale>
<asrwt>0</asrwt>
<pdfrwt beam="1">  1       21 0.10036534E+00 0.10416112E+04</pdfrwt>
<pdfrwt beam="2">  1       21 0.25192542E+00 0.10416112E+04</pdfrwt>
<totfact> 0.23025197E+01</totfact>
</mgrwt>
</event>
<event>
 8    1  0.7208583E-006  0.1108298E+04  0.7818608E-02  0.8685831E-01
         21   -1    0    0  503  502  0.00000000000E+00  0.00000000000E+00  0.12271240529E+04  0.12271240529E+04  0.00000000000E+00 0. -1.
         21   -1    0    0  501  503 -0.00000000000E+00 -0.00000000000E+00 -0.12437229946E+04  0.12437229946E+04  0.00000000000E+00 0. -1.
    9000010    2    1    2  501    0 -0.22379683192E+03  0.33433404304E+03 -0.58585170247E+03  0.12536136565E+04  0.10326958449E+04 0.  0.
   -9000010    2    1    2    0  502  0.22379683192E+03 -0.33433404304E+03  0.56925276076E+03  0.12172333910E+04  0.99786980521E+03 0.  0.
        -13    1    3    3    0    0 -0.22090823795E+03  0.57049087193E+03 -0.74861108965E+03  0.96678790811E+03  0.10566000000E+00 0.  1.
          4    1    3    3  501    0 -0.28885939698E+01 -0.23615682889E+03  0.16275938718E+03  0.28682574836E+03  0.00000000000E+00 0.  1.
         13    1    4    4    0    0  0.30309571306E+03 -0.66768889150E+03  0.38894279200E+03  0.83003130888E+03  0.10566000000E+00 0. -1.
         -4    1    4    4    0  502 -0.79298881134E+02  0.33335484846E+03  0.18030996876E+03  0.38720208209E+03  0.00000000000E+00 0. -1.
<mgrwt>
<rscale>  2 0.11001140E+04</rscale>
<asrwt>0</asrwt>
<pdfrwt beam="1">  1       21 0.18878832E+00 0.11082982E+04</pdfrwt>
<pdfrwt beam="2">  1       21 0.19134200E+00 0.11082982E+04</pdfrwt>
<totfact> 0.98196128E+00</totfact>
</mgrwt>
</event>
<event>
 8    1  0.7208583E-006  0.1098333E+04  0.7818608E-02  0.8699020E-01
         21   -1    0    0  501  502  0.00000000000E+00  0.00000000000E+00  0.89234305581E+03  0.89234305581E+03  0.00000000000E+00 0.  1.
         21   -1    0    0  502  503 -0.00000000000E+00 -0.00000000000E+00 -0.14285113385E+04  0.14285113385E+04  0.00000000000E+00 0.  1.
    9000010    2    1    2  501    0  0.32485254513E+03  0.31326798123E+03  0.10466336495E+03  0.10492412415E+04  0.94142804228E+03 0.  0.
   -9000010    2    1    2    0  503 -0.32485254513E+03 -0.31326798123E+03 -0.64083164766E+03  0.12716131528E+04  0.10013335137E+04 0.  0.
        -13    1    3    3    0    0 -0.26990045088E+03 -0.89790207457E+02 -0.10113029590E+03  0.30188720187E+03  0.10566000000E+00 0.  1.
          4    1    3    3  501    0  0.59475299601E+03  0.40305818869E+03  0.20579366085E+03  0.74735403965E+03  0.00000000000E+00 0.  1.
         13    1    4    4    0    0  0.28349589962E+03 -0.13028543587E+03 -0.54661816417E+03  0.62939307946E+03  0.10566000000E+00 0. -1.
         -4    1    4    4    0  503 -0.60834844475E+03 -0.18298254536E+03 -0.94213483484E+02  0.64222007334E+03  0.00000000000E+00 0. -1.
<mgrwt>
<rscale>  2 0.10844921E+04</rscale>
<asrwt>0</asrwt>
<pdfrwt beam="1">  1       21 0.13728355E+00 0.10983327E+04</pdfrwt>
<pdfrwt beam="2">  1       21 0.21977097E+00 0.10983327E+04</pdfrwt>
<totfact> 0.16448586E+01</totfact>
</mgrwt>
</event>
<event>
 8    1  0.7208583E-006  0.1087759E+04  0.7818608E-02  0.8698015E-01
         21   -1    0    0  501  502  0.00000000000E+00  0.00000000000E+00  0.10331569299E+04  0.10331569299E+04  0.00000000000E+00 0.  1.
         21   -1    0    0  502  503 -0.00000000000E+00 -0.00000000000E+00 -0.11876405503E+04  0.11876405503E+04  0.00000000000E+00 0.  1.
    9000010    2    1    2  501    0  0.20465151763E+03 -0.34440522114E+03 -0.30736586385E+03  0.11223473020E+04  0.10023435000E+04 0.  0.
   -9000010    2    1    2    0  503 -0.20465151763E+03  0.34440522114E+03  0.15288224339E+03  0.10984501782E+04  0.10112974902E+04 0.  0.
        -13    1    3    3    0    0 -0.29768833322E+03  0.17642736985E+03 -0.29779833351E+02  0.34732090379E+03  0.10566000000E+00 0.  1.
          4    1    3    3  501    0  0.50233985085E+03 -0.52083259099E+03 -0.27758603050E+03  0.77502639821E+03  0.00000000000E+00 0.  1.
         13    1    4    4    0    0 -0.16632403087E+03  0.44078398330E+03  0.52895218410E+03  0.70833934481E+03  0.10566000000E+00 0. -1.
         -4    1    4    4    0  503 -0.38327486752E+02 -0.96378762160E+02 -0.37606994071E+03  0.39011083341E+03  0.00000000000E+00 0. -1.
<mgrwt>
<rscale>  2 0.10856732E+04</rscale>
<asrwt>0</asrwt>
<pdfrwt beam="1">  1       21 0.15894722E+00 0.10877591E+04</pdfrwt>
<pdfrwt beam="2">  1       21 0.18271393E+00 0.10877591E+04</pdfrwt>
<totfact> 0.20487949E+01</totfact>
</mgrwt>
</event>
<event>
 8    1  0.7208583E-006  0.1030515E+04  0.7818608E-02  0.8748859E-01
         21   -1    0    0  503  502  0.00000000000E+00  0.00000000000E+00  0.54116093515E+03  0.54116093515E+03  0.00000000000E+00 0.  1.
         21   -1    0    0  501  503 -0.00000000000E+00 -0.00000000000E+00 -0.20727646586E+04  0.20727646586E+04  0.00000000000E+00 0. -1.
    9000010    2    1    2  501    0 -0.17146790456E+03  0.14059334854E+03 -0.44147952807E+03  0.11211002310E+04  0.10063765808E+04 0.  0.
   -9000010    2    1    2    0  502  0.17146790456E+03 -0.14059334854E+03 -0.10901241954E+04  0.14928253627E+04  0.99548433955E+03 0.  0.
        -13    1    3    3    0    0  0.34300005152E+03 -0.97037037442E+01 -0.47282196210E+03  0.58421213289E+03  0.10566000000E+00 0.  1.
          4    1    3    3  501    0 -0.51446795608E+03  0.15029705228E+03  0.31342434027E+02  0.53688809814E+03  0.00000000000E+00 0.  1.
         13    1    4    4    0    0  0.10388114260E+03  0.62642031355E+02  0.17321021944E+03  0.21146419830E+03  0.10566000000E+00 0. -1.
         -4    1    4    4    0  502  0.67586761955E+02 -0.20323537989E+03 -0.12633344148E+04  0.12813611644E+04  0.00000000000E+00 0. -1.
<mgrwt>
<rscale>  2 0.10278462E+04</rscale>
<asrwt>0</asrwt>
<pdfrwt beam="1">  1       21 0.83255529E-01 0.10305152E+04</pdfrwt>
<pdfrwt beam="2">  1       21 0.31888687E+00 0.10305152E+04</pdfrwt>
<totfact> 0.12425329E+01</totfact>
</mgrwt>
</event>
<event>
 8    1  0.7208583E-006  0.1012092E+04  0.7818608E-02  0.8767856E-01
         21   -1    0    0  501  502  0.00000000000E+00  0.00000000000E+00  0.77609632271E+03  0.77609632271E+03  0.00000000000E+00 0.  1.
         21   -1    0    0  502  503 -0.00000000000E+00 -0.00000000000E+00 -0.13098738279E+04  0.13098738279E+04  0.00000000000E+00 0.  1.
    9000010    2    1    2  501    0  0.84775357560E+02  0.13640739202E+03 -0.37681694133E+03  0.10617795568E+04  0.97958714886E+03 0.  0.
   -9000010    2    1    2    0  503 -0.84775357560E+02 -0.13640739202E+03 -0.15696056389E+03  0.10241905938E+04  0.99926768984E+03 0.  0.
        -13    1    3    3    0    0 -0.18702428596E+03 -0.14863533107E+03 -0.57370104464E+03  0.62145268924E+03  0.10566000000E+00 0.  1.
          4    1    3    3  501    0  0.27179964352E+03  0.28504272308E+03  0.19688410330E+03  0.44032686761E+03  0.00000000000E+00 0.  1.
         13    1    4    4    0    0 -0.24669176310E+03 -0.51474396423E+03  0.31263054285E+02  0.57166035757E+03  0.10566000000E+00 0. -1.
         -4    1    4    4    0  503  0.16191640554E+03  0.37833657222E+03 -0.18822361817E+03  0.45253023622E+03  0.00000000000E+00 0. -1.
<mgrwt>
<rscale>  2 0.10071999E+04</rscale>
<asrwt>0</asrwt>
<pdfrwt beam="1">  1       21 0.11939943E+00 0.10120918E+04</pdfrwt>
<pdfrwt beam="2">  1       21 0.20151905E+00 0.10120918E+04</pdfrwt>
<totfact> 0.34534463E+01</totfact>
</mgrwt>
</event>
<event>
 8    1  0.7208583E-006  0.1032461E+04  0.7818608E-02  0.8752802E-01
         21   -1    0    0  501  502  0.00000000000E+00  0.00000000000E+00  0.15176730758E+04  0.15176730758E+04  0.00000000000E+00 0.  1.
         21   -1    0    0  502  503 -0.00000000000E+00 -0.00000000000E+00 -0.70242787216E+03  0.70242787216E+03  0.00000000000E+00 0.  1.
    9000010    2    1    2  501    0  0.39141355456E+02 -0.87905341773E+02  0.60535137424E+03  0.11665207313E+04  0.99250236037E+03 0.  0.
   -9000010    2    1    2    0  503 -0.39141355456E+02  0.87905341773E+02  0.20989382937E+03  0.10535802167E+04  0.10279671486E+04 0.  0.
        -13    1    3    3    0    0 -0.28434956261E+03 -0.19975614653E+03 -0.11741618761E+03  0.36680207757E+03  0.10566000000E+00 0.  1.
          4    1    3    3  501    0  0.32349091807E+03  0.11185080475E+03  0.72276756185E+03  0.79971865369E+03  0.00000000000E+00 0.  1.
         13    1    4    4    0    0  0.27178130042E+03  0.33050161462E+03  0.42607126282E+03  0.60384859417E+03  0.10566000000E+00 0. -1.
         -4    1    4    4    0  503 -0.31092265587E+03 -0.24259627285E+03 -0.21617743345E+03  0.44973162249E+03  0.00000000000E+00 0. -1.
<mgrwt>
<rscale>  2 0.10235193E+04</rscale>
<asrwt>0</asrwt>
<pdfrwt beam="1">  1       21 0.23348816E+00 0.10324611E+04</pdfrwt>
<pdfrwt beam="2">  1       21 0.10806583E+00 0.10324611E+04</pdfrwt>
<totfact> 0.25876820E+01</totfact>
</mgrwt>
</event>
<event>
 8    1  0.7208583E-006  0.1095793E+04  0.7818608E-02  0.8693966E-01
         21   -1    0    0  501  502  0.00000000000E+00  0.00000000000E+00  0.13183592698E+04  0.13183592698E+04  0.00000000000E+00 0.  1.
         21   -1    0    0  502  503 -0.00000000000E+00 -0.00000000000E+00 -0.98287703611E+03  0.98287703611E+03  0.00000000000E+00 0.  1.
    9000010    2    1    2  501    0 -0.33486963295E+03 -0.10920240485E+03  0.51669424207E+03  0.12115008370E+04  0.10376408348E+04 0.  0.
   -9000010    2    1    2    0  503  0.33486963295E+03  0.10920240485E+03 -0.18121200837E+03  0.10897354689E+04  0.10151959239E+04 0.  0.
        -13    1    3    3    0    0  0.18412188533E+03  0.10397399985E+03  0.60739597994E+03  0.64314955408E+03  0.10566000000E+00 0.  1.
          4    1    3    3  501    0 -0.51899151828E+03 -0.21317640470E+03 -0.90701737868E+02  0.56835128294E+03  0.00000000000E+00 0.  1.
         13    1    4    4    0    0  0.57362591211E+03  0.14550352994E+03 -0.43873868713E+03  0.73668827263E+03  0.10566000000E+00 0. -1.
         -4    1    4    4    0  503 -0.23875627916E+03 -0.36301125095E+02  0.25752667876E+03  0.35304719627E+03  0.00000000000E+00 0. -1.
<mgrwt>
<rscale>  2 0.10904462E+04</rscale>
<asrwt>0</asrwt>
<pdfrwt beam="1">  1       21 0.20282450E+00 0.10957926E+04</pdfrwt>
<pdfrwt beam="2">  1       21 0.15121185E+00 0.10957926E+04</pdfrwt>
<totfact> 0.16557620E+01</totfact>
</mgrwt>
</event>
<event>
 8    1  0.7208583E-006  0.1033733E+04  0.7818608E-02  0.8751443E-01
         21   -1    0    0  503  502  0.00000000000E+00  0.00000000000E+00  0.12443961250E+04  0.12443961250E+04  0.00000000000E+00 0.  1.
         21   -1    0    0  501  503 -0.00000000000E+00 -0.00000000000E+00 -0.10154152546E+04  0.10154152546E+04  0.00000000000E+00 0.  1.
    9000010    2    1    2  501    0  0.86016695106E+02  0.26369034532E+03 -0.36624527971E+03  0.10966949340E+04  0.99582764742E+03 0.  0.
   -9000010    2    1    2    0  502 -0.86016695106E+02 -0.26369034532E+03  0.59522615013E+03  0.11631164455E+04  0.96000740935E+03 0.  0.
        -13    1    3    3    0    0  0.37566187136E+03  0.45592317802E+03 -0.44578994394E+03  0.74007869253E+03  0.10566000000E+00 0.  1.
          4    1    3    3  501    0 -0.28964517625E+03 -0.19223283270E+03  0.79544664234E+02  0.35661624150E+03  0.00000000000E+00 0.  1.
         13    1    4    4    0    0 -0.13515402051E+03  0.35311475050E+03  0.26534625126E+03  0.46191479788E+03  0.10566000000E+00 0. -1.
         -4    1    4    4    0  502  0.49137325402E+02 -0.61680509583E+03  0.32987989888E+03  0.70120164765E+03  0.00000000000E+00 0. -1.
<mgrwt>
<rscale>  2 0.10250081E+04</rscale>
<asrwt>0</asrwt>
<pdfrwt beam="1">  1       21 0.19144556E+00 0.10337331E+04</pdfrwt>
<pdfrwt beam="2">  1       21 0.15621773E+00 0.10337331E+04</pdfrwt>
<totfact> 0.18637468E+01</totfact>
</mgrwt>
</event>
<event>
 8    1  0.7208583E-006  0.1013290E+04  0.7818608E-02  0.8764486E-01
         21   -1    0    0  503  502  0.00000000000E+00  0.00000000000E+00  0.17798010478E+04  0.17798010478E+04  0.00000000000E+00 0.  1.
         21   -1    0    0  501  503 -0.00000000000E+00 -0.00000000000E+00 -0.60927255521E+03  0.60927255521E+03  0.00000000000E+00 0.  1.
    9000010    2    1    2  501    0 -0.12529925310E+01 -0.20014881667E+03  0.28444312489E+03  0.10430037954E+04  0.98330458517E+03 0.  0.
   -9000010    2    1    2    0  502  0.12529925310E+01  0.20014881667E+03  0.88608536773E+03  0.13460698076E+04  0.99332549006E+03 0.  0.
        -13    1    3    3    0    0  0.21272258572E+03  0.10236308464E+03 -0.28097883676E+03  0.36698530958E+03  0.10566000000E+00 0.  1.
          4    1    3    3  501    0 -0.21397557825E+03 -0.30251190130E+03  0.56542196166E+03  0.67601848587E+03  0.00000000000E+00 0.  1.
         13    1    4    4    0    0  0.24144996961E+03  0.40519813161E+03  0.77511667892E+02  0.47800803708E+03  0.10566000000E+00 0. -1.
         -4    1    4    4    0  502 -0.24019697708E+03 -0.20504931495E+03  0.80857369984E+03  0.86806177051E+03  0.00000000000E+00 0. -1.
<mgrwt>
<rscale>  2 0.10108257E+04</rscale>
<asrwt>0</asrwt>
<pdfrwt beam="1">  1       21 0.27381554E+00 0.10132900E+04</pdfrwt>
<pdfrwt beam="2">  1       21 0.93734240E-01 0.10132900E+04</pdfrwt>
<totfact> 0.19232898E+01</totfact>
</mgrwt>
</event>
<event>
 8    1  0.7208583E-006  0.1049638E+04  0.7818608E-02  0.8733177E-01
         21   -1    0    0  501  502  0.00000000000E+00  0.00000000000E+00  0.22628457642E+04  0.22628457642E+04  0.00000000000E+00 0. -1.
         21   -1    0    0  502  503 -0.00000000000E+00 -0.00000000000E+00 -0.48627832351E+03  0.48627832351E+03  0.00000000000E+00 0. -1.
    9000010    2    1    2  501    0 -0.11733162097E+03 -0.11488105305E+03  0.10652135637E+04  0.14954664520E+04  0.10367138502E+04 0.  0.
   -9000010    2    1    2    0  503  0.11733162097E+03  0.11488105305E+03  0.71135387698E+03  0.12536576357E+04  0.10191510014E+04 0.  0.
        -13    1    3    3    0    0 -0.33507586134E+03 -0.49666235709E+03  0.71947925897E+03  0.93626905591E+03  0.10566000000E+00 0.  1.
          4    1    3    3  501    0  0.21774424038E+03  0.38178130404E+03  0.34573430473E+03  0.55919739609E+03  0.00000000000E+00 0.  1.
         13    1    4    4    0    0  0.47175481653E+03 -0.22271445920E+03  0.49267726741E+03  0.71755504196E+03  0.10566000000E+00 0. -1.
         -4    1    4    4    0  503 -0.35442319556E+03  0.33759551225E+03  0.21867660957E+03  0.53610259374E+03  0.00000000000E+00 0. -1.
<mgrwt>
<rscale>  2 0.10452752E+04</rscale>
<asrwt>0</asrwt>
<pdfrwt beam="1">  1       21 0.34813011E+00 0.10496380E+04</pdfrwt>
<pdfrwt beam="2">  1       21 0.74812051E-01 0.10496380E+04</pdfrwt>
<totfact> 0.10004659E+01</totfact>
</mgrwt>
</event>
<event>
 8    1  0.7208583E-006  0.1051023E+04  0.7818608E-02  0.8730347E-01
         21   -1    0    0  501  502  0.00000000000E+00  0.00000000000E+00  0.12707315470E+04  0.12707315470E+04  0.00000000000E+00 0.  1.
         21   -1    0    0  502  503 -0.00000000000E+00 -0.00000000000E+00 -0.99363950047E+03  0.99363950047E+03  0.00000000000E+00 0.  1.
    9000010    2    1    2  501    0  0.29722217519E+02 -0.24744350436E+03  0.55299314649E+03  0.11876237807E+04  0.10210470735E+04 0.  0.
   -9000010    2    1    2    0  503 -0.29722217519E+02  0.24744350436E+03 -0.27590109996E+03  0.10767472668E+04  0.10105204409E+04 0.  0.
        -13    1    3    3    0    0  0.37435582840E+03 -0.23751334118E+03 -0.95190151195E+02  0.45344905948E+03  0.10566000000E+00 0.  1.
          4    1    3    3  501    0 -0.34463361088E+03 -0.99301631836E+01  0.64818329769E+03  0.73417472123E+03  0.00000000000E+00 0.  1.
         13    1    4    4    0    0  0.17954198228E+03 -0.33074644761E+03  0.51960064495E+02  0.37990577184E+03  0.10566000000E+00 0. -1.
         -4    1    4    4    0  503 -0.20926419980E+03  0.57818995198E+03 -0.32786116445E+03  0.69684149492E+03  0.00000000000E+00 0. -1.
<mgrwt>
<rscale>  2 0.10484575E+04</rscale>
<asrwt>0</asrwt>
<pdfrwt beam="1">  1       21 0.19549716E+00 0.10510228E+04</pdfrwt>
<pdfrwt beam="2">  1       21 0.15286762E+00 0.10510228E+04</pdfrwt>
<totfact> 0.18450616E+01</totfact>
</mgrwt>
</event>
<event>
 8    1  0.7208583E-006  0.1084927E+04  0.7818608E-02  0.8703813E-01
         21   -1    0    0  503  502  0.00000000000E+00  0.00000000000E+00  0.10670735542E+04  0.10670735542E+04  0.00000000000E+00 0.  1.
         21   -1    0    0  501  503 -0.00000000000E+00 -0.00000000000E+00 -0.11452331840E+04  0.11452331840E+04  0.00000000000E+00 0.  1.
    9000010    2    1    2  501    0 -0.40813927780E+03  0.10432345592E+03 -0.30582446713E+03  0.11272069634E+04  0.99980292059E+03 0.  0.
   -9000010    2    1    2    0  502  0.40813927780E+03 -0.10432345592E+03  0.22766483735E+03  0.10850997749E+04  0.97372952598E+03 0.  0.
        -13    1    3    3    0    0 -0.65107076778E+03  0.30791624021E+03 -0.53724873613E+02  0.72221321564E+03  0.10566000000E+00 0.  1.
          4    1    3    3  501    0  0.24293148998E+03 -0.20359278429E+03 -0.25209959352E+03  0.40499374772E+03  0.00000000000E+00 0.  1.
         13    1    4    4    0    0  0.51661124449E+02  0.34846355388E+03  0.34934059055E+03  0.49611952142E+03  0.10566000000E+00 0. -1.
         -4    1    4    4    0  502  0.35647815335E+03 -0.45278700980E+03 -0.12167575320E+03  0.58898025347E+03  0.00000000000E+00 0. -1.
<mgrwt>
<rscale>  2 0.10788820E+04</rscale>
<asrwt>0</asrwt>
<pdfrwt beam="1">  1       21 0.16416516E+00 0.10849272E+04</pdfrwt>
<pdfrwt beam="2">  1       21 0.17618972E+00 0.10849272E+04</pdfrwt>
<totfact> 0.20903104E+01</totfact>
</mgrwt>
</event>
<event>
 8    1  0.7208583E-006  0.1030690E+04  0.7818608E-02  0.8749766E-01
         21   -1    0    0  503  502  0.00000000000E+00  0.00000000000E+00  0.17161629272E+04  0.17161629272E+04  0.00000000000E+00 0. -1.
         21   -1    0    0  501  503 -0.00000000000E+00 -0.00000000000E+00 -0.74475032020E+03  0.74475032020E+03  0.00000000000E+00 0. -1.
    9000010    2    1    2  501    0 -0.35658107909E+02  0.17557078879E+02 -0.40898499900E+02  0.10162350435E+04  0.10146335420E+04 0.  0.
   -9000010    2    1    2    0  502  0.35658107909E+02 -0.17557078879E+02  0.10123111069E+04  0.14446782040E+04  0.10299230962E+04 0.  0.
        -13    1    3    3    0    0  0.34542177383E+02  0.31913175737E+03 -0.41880949266E+03  0.52767380348E+03  0.10566000000E+00 0.  1.
          4    1    3    3  501    0 -0.70200285292E+02 -0.30157467849E+03  0.37791099276E+03  0.48856123997E+03  0.00000000000E+00 0.  1.
         13    1    4    4    0    0  0.47925541958E+03  0.11220790734E+03  0.79242066627E+03  0.93284880617E+03  0.10566000000E+00 0. -1.
         -4    1    4    4    0  502 -0.44359731167E+03 -0.12976498622E+03  0.21989044064E+03  0.51182939780E+03  0.00000000000E+00 0. -1.
<mgrwt>
<rscale>  2 0.10268488E+04</rscale>
<asrwt>0</asrwt>
<pdfrwt beam="1">  1       21 0.26402507E+00 0.10306897E+04</pdfrwt>
<pdfrwt beam="2">  1       21 0.11457697E+00 0.10306897E+04</pdfrwt>
<totfact> 0.13227020E+01</totfact>
</mgrwt>
</event>
<event>
 8    1  0.7208583E-006  0.1115206E+04  0.7818608E-02  0.8674040E-01
         21   -1    0    0  501  502  0.00000000000E+00  0.00000000000E+00  0.95283280436E+03  0.95283280436E+03  0.00000000000E+00 0.  1.
         21   -1    0    0  502  503 -0.00000000000E+00 -0.00000000000E+00 -0.18354924552E+04  0.18354924552E+04  0.00000000000E+00 0.  1.
    9000010    2    1    2  501    0  0.18618361452E+03  0.42489423520E+03  0.31144293093E+03  0.11544448465E+04  0.10102211416E+04 0.  0.
   -9000010    2    1    2    0  503 -0.18618361452E+03 -0.42489423520E+03 -0.11941025818E+04  0.16338804131E+04  0.10141423859E+04 0.  0.
        -13    1    3    3    0    0  0.44558128073E+03  0.33494909577E+03 -0.18484028205E+03  0.58728146193E+03  0.10566000000E+00 0.  1.
          4    1    3    3  501    0 -0.25939766621E+03  0.89945139431E+02  0.49628321298E+03  0.56716338460E+03  0.00000000000E+00 0.  1.
         13    1    4    4    0    0  0.25097451544E+03 -0.50902976178E+03 -0.31650765311E+03  0.64982813991E+03  0.10566000000E+00 0. -1.
         -4    1    4    4    0  503 -0.43715812997E+03  0.84135526585E+02 -0.87759492869E+03  0.98405227315E+03  0.00000000000E+00 0. -1.
<mgrwt>
<rscale>  2 0.11143137E+04</rscale>
<asrwt>0</asrwt>
<pdfrwt beam="1">  1       21 0.14658966E+00 0.11152059E+04</pdfrwt>
<pdfrwt beam="2">  1       21 0.28238345E+00 0.11152059E+04</pdfrwt>
<totfact> 0.47024044E+00</totfact>
</mgrwt>
</event>
<event>
 8    1  0.7208583E-006  0.1032790E+04  0.7818608E-02  0.8758176E-01
         21   -1    0    0  503  502  0.00000000000E+00  0.00000000000E+00  0.84519386924E+03  0.84519386924E+03  0.00000000000E+00 0. -1.
         21   -1    0    0  501  503 -0.00000000000E+00 -0.00000000000E+00 -0.15065994544E+04  0.15065994544E+04  0.00000000000E+00 0. -1.
    9000010    2    1    2  501    0  0.49611685352E+02  0.18903052075E+03 -0.86124913289E+03  0.12998462652E+04  0.95375908231E+03 0.  0.
   -9000010    2    1    2    0  502 -0.49611685352E+02 -0.18903052075E+03  0.19984354769E+03  0.10519470585E+04  0.10141308166E+04 0.  0.
        -13    1    3    3    0    0  0.49582705865E+03  0.61000987303E+02 -0.53798258361E+03  0.73415997165E+03  0.10566000000E+00 0.  1.
          4    1    3    3  501    0 -0.44621537330E+03  0.12802953345E+03 -0.32326654928E+03  0.56568629353E+03  0.00000000000E+00 0.  1.
         13    1    4    4    0    0  0.16609615834E+03 -0.41140577118E+03 -0.24732037986E+03  0.50794687107E+03  0.10566000000E+00 0. -1.
         -4    1    4    4    0  502 -0.21570784369E+03  0.22237525043E+03  0.44716392755E+03  0.54400018744E+03  0.00000000000E+00 0. -1.
<mgrwt>
<rscale>  2 0.10176571E+04</rscale>
<asrwt>0</asrwt>
<pdfrwt beam="1">  1       21 0.13002983E+00 0.10327900E+04</pdfrwt>
<pdfrwt beam="2">  1       21 0.23178453E+00 0.10327900E+04</pdfrwt>
<totfact> 0.15908793E+01</totfact>
</mgrwt>
</event>
<event>
 8    1  0.7208583E-006  0.1195029E+04  0.7818608E-02  0.8618878E-01
         21   -1    0    0  501  502  0.00000000000E+00  0.00000000000E+00  0.91135613156E+03  0.91135613156E+03  0.00000000000E+00 0. -1.
         21   -1    0    0  502  503 -0.00000000000E+00 -0.00000000000E+00 -0.17478842305E+04  0.17478842305E+04  0.00000000000E+00 0. -1.
    9000010    2    1    2  501    0 -0.66368231798E+03 -0.10114980227E+03  0.66003483903E+02  0.11968507273E+04  0.98863021487E+03 0.  0.
   -9000010    2    1    2    0  503  0.66368231798E+03  0.10114980227E+03 -0.90253158282E+03  0.14623896348E+04  0.93451307335E+03 0.  0.
        -13    1    3    3    0    0  0.21444066717E+02 -0.10055237796E+03  0.41528864769E+03  0.42782625069E+03  0.10566000000E+00 0.  1.
          4    1    3    3  501    0 -0.68512638469E+03 -0.59742430666E+00 -0.34928516379E+03  0.76902447657E+03  0.00000000000E+00 0.  1.
         13    1    4    4    0    0  0.54814447289E+03  0.25086005342E+03 -0.10579289541E+04  0.12176234281E+04  0.10566000000E+00 0. -1.
         -4    1    4    4    0  503  0.11553784509E+03 -0.14971025114E+03  0.15539737127E+03  0.24476620670E+03  0.00000000000E+00 0. -1.
<mgrwt>
<rscale>  2 0.11837794E+04</rscale>
<asrwt>0</asrwt>
<pdfrwt beam="1">  1       21 0.14020864E+00 0.11950294E+04</pdfrwt>
<pdfrwt beam="2">  1       21 0.26890526E+00 0.11950294E+04</pdfrwt>
<totfact> 0.65985264E+00</totfact>
</mgrwt>
</event>
<event>
 8    1  0.7208583E-006  0.1075871E+04  0.7818608E-02  0.8707030E-01
         21   -1    0    0  501  502  0.00000000000E+00  0.00000000000E+00  0.17140851900E+04  0.17140851900E+04  0.00000000000E+00 0. -1.
         21   -1    0    0  502  503 -0.00000000000E+00 -0.00000000000E+00 -0.12692105147E+04  0.12692105147E+04  0.00000000000E+00 0. -1.
    9000010    2    1    2  501    0 -0.36597290981E+03 -0.14491584823E+03  0.12445658832E+04  0.16451269013E+04  0.10012799358E+04 0.  0.
   -9000010    2    1    2    0  503  0.36597290981E+03  0.14491584823E+03 -0.79969120792E+03  0.13381688035E+04  0.99812471402E+03 0.  0.
        -13    1    3    3    0    0  0.32911006207E+03  0.85721522030E+02  0.45725664090E+03  0.56986424621E+03  0.10566000000E+00 0.  1.
          4    1    3    3  501    0 -0.69508297189E+03 -0.23063737026E+03  0.78730924227E+03  0.10752626550E+04  0.00000000000E+00 0.  1.
         13    1    4    4    0    0 -0.69337187839E+02 -0.36814623011E+03 -0.43054183360E+03  0.57070620638E+03  0.10566000000E+00 0. -1.
         -4    1    4    4    0  503  0.43531009765E+03  0.51306207834E+03 -0.36914937432E+03  0.76746259708E+03  0.00000000000E+00 0. -1.
<mgrwt>
<rscale>  2 0.10751362E+04</rscale>
<asrwt>0</asrwt>
<pdfrwt beam="1">  1       21 0.26370541E+00 0.10758709E+04</pdfrwt>
<pdfrwt beam="2">  1       21 0.19526316E+00 0.10758709E+04</pdfrwt>
<totfact> 0.25195170E+00</totfact>
</mgrwt>
</event>
<event>
 8    1  0.7208583E-006  0.1051863E+04  0.7818608E-02  0.8734100E-01
         21   -1    0    0  501  502  0.00000000000E+00  0.00000000000E+00  0.67672494470E+03  0.67672494470E+03  0.00000000000E+00 0. -1.
         21   -1    0    0  502  503 -0.00000000000E+00 -0.00000000000E+00 -0.25437564811E+04  0.25437564811E+04  0.00000000000E+00 0. -1.
    9000010    2    1    2  501    0 -0.22996184397E+03  0.24337647503E+03 -0.19287414011E+04  0.21969202839E+04  0.99714631967E+03 0.  0.
   -9000010    2    1    2    0  503  0.22996184397E+03 -0.24337647503E+03  0.61709864740E+02  0.10235611420E+04  0.96527444058E+03 0.  0.
        -13    1    3    3    0    0  0.23129624390E+03 -0.91641302606E+02 -0.13915426489E+04  0.14136078083E+04  0.10566000000E+00 0.  1.
          4    1    3    3  501    0 -0.46125808787E+03  0.33501777763E+03 -0.53719875223E+03  0.78331247555E+03  0.00000000000E+00 0.  1.
         13    1    4    4    0    0 -0.37526929649E+03 -0.31947810294E+02 -0.20660744004E+02  0.37719303411E+03  0.10566000000E+00 0. -1.
         -4    1    4    4    0  503  0.60523114046E+03 -0.21142866473E+03  0.82370608744E+02  0.64636810784E+03  0.00000000000E+00 0. -1.
<mgrwt>
<rscale>  2 0.10442394E+04</rscale>
<asrwt>0</asrwt>
<pdfrwt beam="1">  1       21 0.10411153E+00 0.10518628E+04</pdfrwt>
<pdfrwt beam="2">  1       21 0.39134716E+00 0.10518628E+04</pdfrwt>
<totfact> 0.21581879E+00</totfact>
</mgrwt>
</event>
<event>
 8    1  0.7208583E-006  0.1048358E+04  0.7818608E-02  0.8741037E-01
         21   -1    0    0  501  502  0.00000000000E+00  0.00000000000E+00  0.19813154476E+04  0.19813154476E+04  0.00000000000E+00 0. -1.
         21   -1    0    0  502  503 -0.00000000000E+00 -0.00000000000E+00 -0.57688612898E+03  0.57688612898E+03  0.00000000000E+00 0. -1.
    9000010    2    1    2  501    0  0.15245796742E+03 -0.47659873055E+02  0.10803035994E+04  0.15053602113E+04  0.10361170801E+04 0.  0.
   -9000010    2    1    2    0  503 -0.15245796742E+03  0.47659873055E+02  0.32412571925E+03  0.10528413653E+04  0.98888956066E+03 0.  0.
        -13    1    3    3    0    0  0.50753182746E+03  0.19494317981E+03  0.31726532013E+03  0.62948287805E+03  0.10566000000E+00 0.  1.
          4    1    3    3  501    0 -0.35507386004E+03 -0.24260305287E+03  0.76303827927E+03  0.87587733329E+03  0.00000000000E+00 0.  1.
         13    1    4    4    0    0  0.14547570959E+03  0.43743440249E+03  0.32186503803E+03  0.56223585125E+03  0.10566000000E+00 0. -1.
         -4    1    4    4    0  503 -0.29793367700E+03 -0.38977452944E+03  0.22606812145E+01  0.49060551400E+03  0.00000000000E+00 0. -1.
<mgrwt>
<rscale>  2 0.10364951E+04</rscale>
<asrwt>0</asrwt>
<pdfrwt beam="1">  1       21 0.30481776E+00 0.10483575E+04</pdfrwt>
<pdfrwt beam="2">  1       21 0.88751713E-01 0.10483575E+04</pdfrwt>
<totfact> 0.13219579E+01</totfact>
</mgrwt>
</event>
<event>
 8    1  0.7208583E-006  0.1042509E+04  0.7818608E-02  0.8744986E-01
         21   -1    0    0  503  502  0.00000000000E+00  0.00000000000E+00  0.12391438402E+04  0.12391438402E+04  0.00000000000E+00 0. -1.
         21   -1    0    0  501  503 -0.00000000000E+00 -0.00000000000E+00 -0.84320438981E+03  0.84320438981E+03  0.00000000000E+00 0. -1.
    9000010    2    1    2  501    0 -0.40095196750E+02  0.32407060985E+02  0.18447815232E+03  0.10587052732E+04  0.10412333190E+04 0.  0.
   -9000010    2    1    2    0  502  0.40095196750E+02 -0.32407060985E+02  0.21146129803E+03  0.10236429567E+04  0.10002355622E+04 0.  0.
        -13    1    3    3    0    0  0.53302073722E+02  0.23969715014E+03  0.56465175692E+03  0.61573326417E+03  0.10566000000E+00 0.  1.
          4    1    3    3  501    0 -0.93397270472E+02 -0.20729008915E+03 -0.38017360460E+03  0.44297200908E+03  0.00000000000E+00 0.  1.
         13    1    4    4    0    0  0.28638111625E+03 -0.12953854111E+03 -0.30833958577E+03  0.44030408662E+03  0.10566000000E+00 0. -1.
         -4    1    4    4    0  502 -0.24628591950E+03  0.97131480121E+02  0.51980088381E+03  0.58333887011E+03  0.00000000000E+00 0. -1.
<mgrwt>
<rscale>  2 0.10321181E+04</rscale>
<asrwt>0</asrwt>
<pdfrwt beam="1">  1       21 0.19063752E+00 0.10425088E+04</pdfrwt>
<pdfrwt beam="2">  1       21 0.12972375E+00 0.10425088E+04</pdfrwt>
<totfact> 0.33015071E+01</totfact>
</mgrwt>
</event>
<event>
 8    1  0.7208583E-006  0.1009231E+04  0.7818608E-02  0.8773781E-01
         21   -1    0    0  501  502  0.00000000000E+00  0.00000000000E+00  0.12057828592E+04  0.12057828592E+04  0.00000000000E+00 0.  1.
         21   -1    0    0  502  503 -0.00000000000E+00 -0.00000000000E+00 -0.11195594635E+04  0.11195594635E+04  0.00000000000E+00 0.  1.
    9000010    2    1    2  501    0  0.14579259805E+03  0.82589876902E+02  0.64667138342E+03  0.11709379687E+04  0.96168356490E+03 0.  0.
   -9000010    2    1    2    0  503 -0.14579259805E+03 -0.82589876902E+02 -0.56044798777E+03  0.11544043540E+04  0.99522404313E+03 0.  0.
        -13    1    3    3    0    0 -0.22613681109E+03 -0.33889015215E+03  0.33976070602E+03  0.53049198021E+03  0.10566000000E+00 0.  1.
          4    1    3    3  501    0  0.37192940914E+03  0.42148002905E+03  0.30691067740E+03  0.64044598849E+03  0.00000000000E+00 0.  1.
         13    1    4    4    0    0  0.30061329072E+03 -0.32074273072E+03 -0.46430181990E+03  0.63939067947E+03  0.10566000000E+00 0. -1.
         -4    1    4    4    0  503 -0.44640588877E+03  0.23815285382E+03 -0.96146167869E+02  0.51501367449E+03  0.00000000000E+00 0. -1.
<mgrwt>
<rscale>  2 0.10008628E+04</rscale>
<asrwt>0</asrwt>
<pdfrwt beam="1">  1       21 0.18550505E+00 0.10092311E+04</pdfrwt>
<pdfrwt beam="2">  1       21 0.17223992E+00 0.10092311E+04</pdfrwt>
<totfact> 0.15271601E+01</totfact>
</mgrwt>
</event>
<event>
 8    1  0.7208583E-006  0.1081245E+04  0.7818608E-02  0.8704754E-01
         21   -1    0    0  501  502  0.00000000000E+00  0.00000000000E+00  0.60609585699E+03  0.60609585699E+03  0.00000000000E+00 0.  1.
         21   -1    0    0  502  503 -0.00000000000E+00 -0.00000000000E+00 -0.31233903278E+04  0.31233903278E+04  0.00000000000E+00 0.  1.
    9000010    2    1    2  501    0 -0.12070475863E+03 -0.30860246638E+03 -0.98632272649E+02  0.10857338858E+04  0.10292155385E+04 0.  0.
   -9000010    2    1    2    0  503  0.12070475863E+03  0.30860246638E+03 -0.24186621982E+04  0.26437522989E+04  0.10147385222E+04 0.  0.
        -13    1    3    3    0    0 -0.26414078681E+03  0.17462502763E+03 -0.39090562152E+03  0.50306209521E+03  0.10566000000E+00 0.  1.
          4    1    3    3  501    0  0.14343602819E+03 -0.48322749400E+03  0.29227334887E+03  0.58267179064E+03  0.00000000000E+00 0.  1.
         13    1    4    4    0    0 -0.21186243488E+03  0.23982031198E+03 -0.15646006848E+03  0.35620111952E+03  0.10566000000E+00 0. -1.
         -4    1    4    4    0  503  0.33256719351E+03  0.68782154395E+02 -0.22622021297E+04  0.22875511794E+04  0.00000000000E+00 0. -1.
<mgrwt>
<rscale>  2 0.10777852E+04</rscale>
<asrwt>0</asrwt>
<pdfrwt beam="1">  1       21 0.93245517E-01 0.10812445E+04</pdfrwt>
<pdfrwt beam="2">  1       21 0.48052158E+00 0.10812445E+04</pdfrwt>
<totfact> 0.68727225E-01</totfact>
</mgrwt>
</event>
<event>
 8    1  0.7208583E-006  0.1034407E+04  0.7818608E-02  0.8747203E-01
         21   -1    0    0  501  502  0.00000000000E+00  0.00000000000E+00  0.20822293437E+04  0.20822293437E+04  0.00000000000E+00 0. -1.
         21   -1    0    0  502  503 -0.00000000000E+00 -0.00000000000E+00 -0.60548515677E+03  0.60548515677E+03  0.00000000000E+00 0. -1.
    9000010    2    1    2  501    0  0.80101507598E+02 -0.25503224197E+03  0.12813465134E+04  0.16350139396E+04  0.97977752529E+03 0.  0.
   -9000010    2    1    2    0  503 -0.80101507598E+02  0.25503224197E+03  0.19539767345E+03  0.10527005609E+04  0.99926999561E+03 0.  0.
        -13    1    3    3    0    0  0.29435519463E+03 -0.26830850453E+03  0.13516655396E+04  0.14091253232E+04  0.10566000000E+00 0.  1.
          4    1    3    3  501    0 -0.21425368703E+03  0.13276262564E+02 -0.70319026215E+02  0.22588861636E+03  0.00000000000E+00 0.  1.
         13    1    4    4    0    0  0.32028576888E+03  0.22924259130E+03 -0.23952111479E+03  0.46098320469E+03  0.10566000000E+00 0. -1.
         -4    1    4    4    0  503 -0.40038727648E+03  0.25789650664E+02  0.43491878824E+03  0.59171735619E+03  0.00000000000E+00 0. -1.
<mgrwt>
<rscale>  2 0.10296703E+04</rscale>
<asrwt>0</asrwt>
<pdfrwt beam="1">  1       21 0.32034297E+00 0.10344072E+04</pdfrwt>
<pdfrwt beam="2">  1       21 0.93151563E-01 0.10344072E+04</pdfrwt>
<totfact> 0.91117142E+00</totfact>
</mgrwt>
</event>
<event>
 8    1  0.7208583E-006  0.1029279E+04  0.7818608E-02  0.8748673E-01
         21   -1    0    0  503  502  0.00000000000E+00  0.00000000000E+00  0.14345740690E+04  0.14345740690E+04  0.00000000000E+00 0.  1.
         21   -1    0    0  501  503 -0.00000000000E+00 -0.00000000000E+00 -0.75036378588E+03  0.75036378588E+03  0.00000000000E+00 0.  1.
    9000010    2    1    2  501    0 -0.12934512576E+02 -0.14271416914E+03  0.18644402868E+03  0.10460286366E+04  0.10192545792E+04 0.  0.
   -9000010    2    1    2    0  502  0.12934512576E+02  0.14271416914E+03  0.49776625448E+03  0.11389092183E+04  0.10143018918E+04 0.  0.
        -13    1    3    3    0    0  0.40477190173E+02  0.36524828315E+03  0.35223444435E+03  0.50903224478E+03  0.10566000000E+00 0.  1.
          4    1    3    3  501    0 -0.53411702749E+02 -0.50796245229E+03 -0.16579041567E+03  0.53699639185E+03  0.00000000000E+00 0.  1.
         13    1    4    4    0    0  0.92514345460E+02 -0.73622433057E+02  0.77180843403E+03  0.78081203677E+03  0.10566000000E+00 0. -1.
         -4    1    4    4    0  502 -0.79579832884E+02  0.21633660220E+03 -0.27404217954E+03  0.35809718153E+03  0.00000000000E+00 0. -1.
<mgrwt>
<rscale>  2 0.10280504E+04</rscale>
<asrwt>0</asrwt>
<pdfrwt beam="1">  1       21 0.22070370E+00 0.10292786E+04</pdfrwt>
<pdfrwt beam="2">  1       21 0.11544058E+00 0.10292786E+04</pdfrwt>
<totfact> 0.26945871E+01</totfact>
</mgrwt>
</event>
<event>
 8    1  0.7208583E-006  0.1084753E+04  0.7818608E-02  0.8708707E-01
         21   -1    0    0  503  502  0.00000000000E+00  0.00000000000E+00  0.15925753759E+04  0.15925753759E+04  0.00000000000E+00 0.  1.
         21   -1    0    0  501  503 -0.00000000000E+00 -0.00000000000E+00 -0.75184977922E+03  0.75184977922E+03  0.00000000000E+00 0.  1.
    9000010    2    1    2  501    0  0.16845746483E+02  0.16043469600E+03  0.12944088788E+03  0.10472689464E+04  0.10266422122E+04 0.  0.
   -9000010    2    1    2    0  502 -0.16845746483E+02 -0.16043469600E+03  0.71128470882E+03  0.12971562087E+04  0.10726906460E+04 0.  0.
        -13    1    3    3    0    0  0.33925040467E+03  0.17007340765E+02 -0.32621623215E+03  0.47095342444E+03  0.10566000000E+00 0.  1.
          4    1    3    3  501    0 -0.32240465819E+03  0.14342735523E+03  0.45565712002E+03  0.57631552198E+03  0.00000000000E+00 0.  1.
         13    1    4    4    0    0 -0.44591009067E+03 -0.33657365049E+03  0.60070698770E+03  0.82034537081E+03  0.10566000000E+00 0. -1.
         -4    1    4    4    0  502  0.42906434419E+03  0.17613895449E+03  0.11057772112E+03  0.47681083792E+03  0.00000000000E+00 0. -1.
<mgrwt>
<rscale>  2 0.10731906E+04</rscale>
<asrwt>0</asrwt>
<pdfrwt beam="1">  1       21 0.24501160E+00 0.10847526E+04</pdfrwt>
<pdfrwt beam="2">  1       21 0.11566920E+00 0.10847526E+04</pdfrwt>
<totfact> 0.17483442E+01</totfact>
</mgrwt>
</event>
<event>
 8    1  0.7208583E-006  0.1068085E+04  0.7818608E-02  0.8718958E-01
         21   -1    0    0  503  502  0.00000000000E+00  0.00000000000E+00  0.84001252370E+03  0.84001252370E+03  0.00000000000E+00 0. -1.
         21   -1    0    0  501  503 -0.00000000000E+00 -0.00000000000E+00 -0.19345671910E+04  0.19345671910E+04  0.00000000000E+00 0. -1.
    9000010    2    1    2  501    0  0.36944677493E+03 -0.50298465604E+02 -0.13309693797E+04  0.17065415555E+04  0.10008914706E+04 0.  0.
   -9000010    2    1    2    0  502 -0.36944677493E+03  0.50298465604E+02  0.23641471244E+03  0.10680381592E+04  0.97251875973E+03 0.  0.
        -13    1    3    3    0    0  0.10134411552E+03  0.26417510973E+03  0.29701163976E+02  0.28450182540E+03  0.10566000000E+00 0.  1.
          4    1    3    3  501    0  0.26810265942E+03 -0.31447357533E+03 -0.13606705437E+04  0.14220397301E+04  0.00000000000E+00 0.  1.
         13    1    4    4    0    0 -0.51642963360E+03  0.40517460156E+03  0.12617031115E+03  0.66841976541E+03  0.10566000000E+00 0. -1.
         -4    1    4    4    0  502  0.14698285867E+03 -0.35487613595E+03  0.11024440129E+03  0.39961839375E+03  0.00000000000E+00 0. -1.
<mgrwt>
<rscale>  2 0.10613866E+04</rscale>
<asrwt>0</asrwt>
<pdfrwt beam="1">  1       21 0.12923270E+00 0.10680845E+04</pdfrwt>
<pdfrwt beam="2">  1       21 0.29762572E+00 0.10680845E+04</pdfrwt>
<totfact> 0.53848776E+00</totfact>
</mgrwt>
</event>
<event>
 8    1  0.7208583E-006  0.1057094E+04  0.7818608E-02  0.8725838E-01
         21   -1    0    0  503  502  0.00000000000E+00  0.00000000000E+00  0.16136265175E+04  0.16136265175E+04  0.00000000000E+00 0. -1.
         21   -1    0    0  501  503 -0.00000000000E+00 -0.00000000000E+00 -0.93412044733E+03  0.93412044733E+03  0.00000000000E+00 0. -1.
    9000010    2    1    2  501    0  0.51290705108E+01 -0.24870178240E+03  0.99816072251E+03  0.14436689131E+04  0.10129048419E+04 0.  0.
   -9000010    2    1    2    0  502 -0.51290705108E+01  0.24870178240E+03 -0.31865465234E+03  0.11040780518E+04  0.10274087176E+04 0.  0.
        -13    1    3    3    0    0 -0.32050671963E+03 -0.15281322446E+03  0.10425145030E+04  0.11013232673E+04  0.10566000000E+00 0.  1.
          4    1    3    3  501    0  0.32563579014E+03 -0.95888557937E+02 -0.44353780485E+02  0.34234564582E+03  0.00000000000E+00 0.  1.
         13    1    4    4    0    0  0.53080325360E+02  0.17561719982E+03  0.36794639970E+03  0.41114898277E+03  0.10566000000E+00 0. -1.
         -4    1    4    4    0  502 -0.58209395871E+02  0.73084582572E+02 -0.68660105205E+03  0.69292906899E+03  0.00000000000E+00 0. -1.
<mgrwt>
<rscale>  2 0.10535534E+04</rscale>
<asrwt>0</asrwt>
<pdfrwt beam="1">  1       21 0.24825023E+00 0.10570939E+04</pdfrwt>
<pdfrwt beam="2">  1       21 0.14371084E+00 0.10570939E+04</pdfrwt>
<totfact> 0.89104126E+00</totfact>
</mgrwt>
</event>
<event>
 8    1  0.7208583E-006  0.1049402E+04  0.7818608E-02  0.8730455E-01
         21   -1    0    0  501  502  0.00000000000E+00  0.00000000000E+00  0.77757641843E+03  0.77757641843E+03  0.00000000000E+00 0. -1.
         21   -1    0    0  502  503 -0.00000000000E+00 -0.00000000000E+00 -0.17498115329E+04  0.17498115329E+04  0.00000000000E+00 0. -1.
    9000010    2    1    2  501    0 -0.14189824151E+03 -0.23196053256E+03  0.69550615871E+02  0.10517046869E+04  0.10135603883E+04 0.  0.
   -9000010    2    1    2    0  503  0.14189824151E+03  0.23196053256E+03 -0.10417857303E+04  0.14756832644E+04  0.10091495376E+04 0.  0.
        -13    1    3    3    0    0  0.13068452652E+03  0.23704606424E+03  0.34885862267E+03  0.44155592151E+03  0.10566000000E+00 0.  1.
          4    1    3    3  501    0 -0.27258276803E+03 -0.46900659680E+03 -0.27930800680E+03  0.61014876541E+03  0.00000000000E+00 0.  1.
         13    1    4    4    0    0 -0.36308150430E+03  0.13069992704E+03 -0.83655207888E+03  0.92126545661E+03  0.10566000000E+00 0. -1.
         -4    1    4    4    0  503  0.50497974581E+03  0.10126060552E+03 -0.20523365142E+03  0.55441780778E+03  0.00000000000E+00 0. -1.
<mgrwt>
<rscale>  2 0.10483359E+04</rscale>
<asrwt>0</asrwt>
<pdfrwt beam="1">  1       21 0.11962714E+00 0.10494024E+04</pdfrwt>
<pdfrwt beam="2">  1       21 0.26920177E+00 0.10494024E+04</pdfrwt>
<totfact> 0.10729144E+01</totfact>
</mgrwt>
</event>
<event>
 8    1  0.7208583E-006  0.1038197E+04  0.7818608E-02  0.8740203E-01
         21   -1    0    0  501  502  0.00000000000E+00  0.00000000000E+00  0.11047618107E+04  0.11047618107E+04  0.00000000000E+00 0. -1.
         21   -1    0    0  502  503 -0.00000000000E+00 -0.00000000000E+00 -0.10373473495E+04  0.10373473495E+04  0.00000000000E+00 0. -1.
    9000010    2    1    2  501    0 -0.22769892597E+03  0.18635148781E+03 -0.23363971804E+03  0.10611436801E+04  0.99240350363E+03 0.  0.
   -9000010    2    1    2    0  503  0.22769892597E+03 -0.18635148781E+03  0.30105417931E+03  0.10809654801E+04  0.99562998769E+03 0.  0.
        -13    1    3    3    0    0  0.21702777327E+03  0.42768586179E+03  0.48098470097E+02  0.48200593848E+03  0.10566000000E+00 0.  1.
          4    1    3    3  501    0 -0.44472669924E+03 -0.24133437397E+03 -0.28173818814E+03  0.57913774159E+03  0.00000000000E+00 0.  1.
         13    1    4    4    0    0  0.45600429605E+03 -0.46743344802E+03  0.83026877863E+02  0.65827609705E+03  0.10566000000E+00 0. -1.
         -4    1    4    4    0  503 -0.22830537008E+03  0.28108196021E+03  0.21802730144E+03  0.42268938304E+03  0.00000000000E+00 0. -1.
<mgrwt>
<rscale>  2 0.10374226E+04</rscale>
<asrwt>0</asrwt>
<pdfrwt beam="1">  1       21 0.16996336E+00 0.10381969E+04</pdfrwt>
<pdfrwt beam="2">  1       21 0.15959190E+00 0.10381969E+04</pdfrwt>
<totfact> 0.26050241E+01</totfact>
</mgrwt>
</event>
<event>
 8    1  0.7208583E-006  0.1110924E+04  0.7818608E-02  0.8681103E-01
         21   -1    0    0  503  502  0.00000000000E+00  0.00000000000E+00  0.12923054386E+04  0.12923054386E+04  0.00000000000E+00 0.  1.
         21   -1    0    0  501  503 -0.00000000000E+00 -0.00000000000E+00 -0.17672760814E+04  0.17672760814E+04  0.00000000000E+00 0.  1.
    9000010    2    1    2  501    0 -0.11793624912E+03 -0.42523499242E+03 -0.12868563348E+04  0.17000446984E+04  0.10195190005E+04 0.  0.
   -9000010    2    1    2    0  502  0.11793624912E+03  0.42523499242E+03  0.81188569198E+03  0.13595368217E+04  0.99722025399E+03 0.  0.
        -13    1    3    3    0    0 -0.11248364400E+03  0.12711784226E+03 -0.11057960257E+04  0.11187476827E+04  0.10566000000E+00 0.  1.
          4    1    3    3  501    0 -0.54526051124E+01 -0.55235283468E+03 -0.18106030916E+03  0.58129701568E+03  0.00000000000E+00 0.  1.
         13    1    4    4    0    0 -0.42311186266E+02 -0.17758873453E+03  0.70303474178E+03  0.72635105454E+03  0.10566000000E+00 0. -1.
         -4    1    4    4    0  502  0.16024743538E+03  0.60282372696E+03  0.10885095020E+03  0.63318576712E+03  0.00000000000E+00 0. -1.
<mgrwt>
<rscale>  2 0.11057817E+04</rscale>
<asrwt>0</asrwt>
<pdfrwt beam="1">  1       21 0.19881622E+00 0.11109243E+04</pdfrwt>
<pdfrwt beam="2">  1       21 0.27188863E+00 0.11109243E+04</pdfrwt>
<totfact> 0.20456584E+00</totfact>
</mgrwt>
</event>
<event>
 8    1  0.7208583E-006  0.1053143E+04  0.7818608E-02  0.8739795E-01
         21   -1    0    0  501  502  0.00000000000E+00  0.00000000000E+00  0.20566054217E+04  0.20566054217E+04  0.00000000000E+00 0. -1.
         21   -1    0    0  502  503 -0.00000000000E+00 -0.00000000000E+00 -0.69178742575E+03  0.69178742575E+03  0.00000000000E+00 0. -1.
    9000010    2    1    2  501    0 -0.27550359176E+03 -0.13788052283E+03  0.14029764375E+04  0.17542671271E+04  0.10070734836E+04 0.  0.
   -9000010    2    1    2    0  503  0.27550359176E+03  0.13788052283E+03 -0.38158441533E+02  0.99412572040E+03  0.94441337011E+03 0.  0.
        -13    1    3    3    0    0 -0.62589689029E+03  0.86211126338E+02  0.75761556093E+03  0.98648903942E+03  0.10566000000E+00 0.  1.
          4    1    3    3  501    0  0.35039329852E+03 -0.22409164917E+03  0.64536087659E+03  0.76777808767E+03  0.00000000000E+00 0.  1.
         13    1    4    4    0    0  0.43758200107E+03  0.10241886860E+03  0.35154706928E+03  0.57057250669E+03  0.10566000000E+00 0. -1.
         -4    1    4    4    0  503 -0.16207840931E+03  0.35461654227E+02 -0.38970551082E+03  0.42355321371E+03  0.00000000000E+00 0. -1.
<mgrwt>
<rscale>  2 0.10378768E+04</rscale>
<asrwt>0</asrwt>
<pdfrwt beam="1">  1       21 0.31640083E+00 0.10531430E+04</pdfrwt>
<pdfrwt beam="2">  1       21 0.10642884E+00 0.10531430E+04</pdfrwt>
<totfact> 0.68290065E+00</totfact>
</mgrwt>
</event>
<event>
 8    1  0.7208583E-006  0.9988384E+03  0.7818608E-02  0.8805514E-01
         21   -1    0    0  501  502  0.00000000000E+00  0.00000000000E+00  0.16844857587E+04  0.16844857587E+04  0.00000000000E+00 0. -1.
         21   -1    0    0  502  503 -0.00000000000E+00 -0.00000000000E+00 -0.53556436901E+03  0.53556436901E+03  0.00000000000E+00 0. -1.
    9000010    2    1    2  501    0 -0.12825101452E+02  0.58580422467E+02  0.77301847915E+03  0.12630264511E+04  0.99703665823E+03 0.  0.
   -9000010    2    1    2    0  503  0.12825101452E+02 -0.58580422467E+02  0.37590291057E+03  0.95702367668E+03  0.87806330662E+03 0.  0.
        -13    1    3    3    0    0  0.48900442152E+03 -0.10184837762E+02  0.43036705109E+03  0.65149433229E+03  0.10566000000E+00 0.  1.
          4    1    3    3  501    0 -0.50182952297E+03  0.68765260229E+02  0.34265142806E+03  0.61153211877E+03  0.00000000000E+00 0.  1.
         13    1    4    4    0    0  0.10299485666E+03  0.77761338140E+02  0.63647353034E+03  0.64942538616E+03  0.10566000000E+00 0. -1.
         -4    1    4    4    0  503 -0.90169755207E+02 -0.13634176061E+03 -0.26057061977E+03  0.30759829051E+03  0.00000000000E+00 0. -1.
<mgrwt>
<rscale>  2 0.96773292E+03</rscale>
<asrwt>0</asrwt>
<pdfrwt beam="1">  1       21 0.25915165E+00 0.99883845E+03</pdfrwt>
<pdfrwt beam="2">  1       21 0.82394519E-01 0.99883845E+03</pdfrwt>
<totfact> 0.34104671E+01</totfact>
</mgrwt>
</event>
<event>
 8    1  0.7208583E-006  0.1065813E+04  0.7818608E-02  0.8723775E-01
         21   -1    0    0  503  502  0.00000000000E+00  0.00000000000E+00  0.11051874361E+04  0.11051874361E+04  0.00000000000E+00 0. -1.
         21   -1    0    0  501  503 -0.00000000000E+00 -0.00000000000E+00 -0.12192014244E+04  0.12192014244E+04  0.00000000000E+00 0. -1.
    9000010    2    1    2  501    0 -0.43993797326E+02 -0.37857278014E+03 -0.55947279866E+03  0.11692302521E+04  0.95332930615E+03 0.  0.
   -9000010    2    1    2    0  502  0.43993797326E+02  0.37857278014E+03  0.44545881037E+03  0.11551586085E+04  0.99534167747E+03 0.  0.
        -13    1    3    3    0    0  0.25065040468E+03 -0.31746726774E+02 -0.65691760444E+03  0.70382826756E+03  0.10566000000E+00 0.  1.
          4    1    3    3  501    0 -0.29464420201E+03 -0.34682605336E+03  0.97444805774E+02  0.46540198457E+03  0.00000000000E+00 0.  1.
         13    1    4    4    0    0 -0.30738515357E+03  0.58272036105E+03  0.29445437970E+03  0.72163151588E+03  0.10566000000E+00 0. -1.
         -4    1    4    4    0  502  0.35137895089E+03 -0.20414758092E+03  0.15100443067E+03  0.43352709259E+03  0.00000000000E+00 0. -1.
<mgrwt>
<rscale>  2 0.10558945E+04</rscale>
<asrwt>0</asrwt>
<pdfrwt beam="1">  1       21 0.17002884E+00 0.10658132E+04</pdfrwt>
<pdfrwt beam="2">  1       21 0.18756945E+00 0.10658132E+04</pdfrwt>
<totfact> 0.15135087E+01</totfact>
</mgrwt>
</event>
<event>
 8    1  0.7208583E-006  0.1013714E+04  0.7818608E-02  0.8832074E-01
         21   -1    0    0  503  502  0.00000000000E+00  0.00000000000E+00  0.20348923796E+04  0.20348923796E+04  0.00000000000E+00 0.  1.
         21   -1    0    0  501  503 -0.00000000000E+00 -0.00000000000E+00 -0.71498211030E+03  0.71498211030E+03  0.00000000000E+00 0.  1.
    9000010    2    1    2  501    0  0.80067491060E+01  0.41400851281E+02 -0.21866532769E+03  0.10370297080E+04  0.10128365866E+04 0.  0.
   -9000010    2    1    2    0  502 -0.80067491060E+01 -0.41400851281E+02  0.15385755970E+04  0.17128447819E+04  0.75156120224E+03 0.  0.
        -13    1    3    3    0    0  0.42021633759E+03  0.17038335270E+03 -0.36383567292E+03  0.58136792593E+03  0.10566000000E+00 0.  1.
          4    1    3    3  501    0 -0.41220958848E+03 -0.12898250142E+03  0.14517034524E+03  0.45566178207E+03  0.00000000000E+00 0.  1.
         13    1    4    4    0    0  0.18150891341E+03 -0.32630589058E+03  0.10651840360E+04  0.11287329452E+04  0.10566000000E+00 0. -1.
         -4    1    4    4    0  502 -0.18951566251E+03  0.28490503930E+03  0.47339156100E+03  0.58411183671E+03  0.00000000000E+00 0. -1.
<mgrwt>
<rscale>  2 0.94101880E+03</rscale>
<asrwt>0</asrwt>
<pdfrwt beam="1">  1       21 0.31306036E+00 0.10137140E+04</pdfrwt>
<pdfrwt beam="2">  1       21 0.10999725E+00 0.10137140E+04</pdfrwt>
<totfact> 0.66582758E+00</totfact>
</mgrwt>
</event>
<event>
 8    1  0.7721062E-006  0.1035411E+04  0.7818608E-02  0.8811538E-01
         21   -1    0    0  501  502  0.00000000000E+00  0.00000000000E+00  0.15625810653E+04  0.15625810653E+04  0.00000000000E+00 0.  1.
         21   -1    0    0  502  503 -0.00000000000E+00 -0.00000000000E+00 -0.58633033958E+03  0.58633033958E+03  0.00000000000E+00 0.  1.
    9000010    2    1    2  501    0 -0.15566177205E+02  0.28199283942E+03  0.90536238502E+03  0.13754118172E+04  0.99614976356E+03 0.  0.
   -9000010    2    1    2    0  503  0.15566177205E+02 -0.28199283942E+03  0.70888340748E+02  0.77349958769E+03  0.71659904266E+03 0.  0.
        -13    1    3    3    0    0  0.45080930368E+03  0.30866789291E+03  0.62691927653E+03  0.83158444360E+03  0.10566000000E+00 0.  1.
          4    1    3    3  501    0 -0.46637548089E+03 -0.26675053489E+02  0.27844310850E+03  0.54382737364E+03  0.00000000000E+00 0.  1.
         13    1    4    4    0    0  0.34446406073E+03 -0.12526430427E+02  0.43554160752E+02  0.34743254982E+03  0.10566000000E+00 0. -1.
         -4    1    4    4    0  503 -0.32889788352E+03 -0.26946640899E+03  0.27334179996E+02  0.42606703787E+03  0.00000000000E+00 0. -1.
<mgrwt>
<rscale>  2 0.96159417E+03</rscale>
<asrwt>0</asrwt>
<pdfrwt beam="1">  1       21 0.24039708E+00 0.10354113E+04</pdfrwt>
<pdfrwt beam="2">  1       21 0.90204669E-01 0.10354113E+04</pdfrwt>
<totfact> 0.36829288E+01</totfact>
</mgrwt>
</event>
<event>
 8    1  0.7208583E-006  0.1021378E+04  0.7818608E-02  0.8758219E-01
         21   -1    0    0  503  502  0.00000000000E+00  0.00000000000E+00  0.12848552819E+04  0.12848552819E+04  0.00000000000E+00 0. -1.
         21   -1    0    0  501  503 -0.00000000000E+00 -0.00000000000E+00 -0.83002294617E+03  0.83002294617E+03  0.00000000000E+00 0. -1.
    9000010    2    1    2  501    0 -0.10770444928E+03  0.15693894867E+03  0.28132556592E+02  0.10217652559E+04  0.10034852841E+04 0.  0.
   -9000010    2    1    2    0  502  0.10770444928E+03 -0.15693894867E+03  0.42669977916E+03  0.10931129722E+04  0.98822729495E+03 0.  0.
        -13    1    3    3    0    0 -0.42754210049E+03  0.42565517240E+03  0.37084538364E+01  0.60331445970E+03  0.10566000000E+00 0.  1.
          4    1    3    3  501    0  0.31983765121E+03 -0.26871622373E+03  0.24424102756E+02  0.41845079618E+03  0.00000000000E+00 0.  1.
         13    1    4    4    0    0  0.44423776910E+03 -0.30622940864E+03  0.47869441223E+03  0.72129882690E+03  0.10566000000E+00 0. -1.
         -4    1    4    4    0  502 -0.33653331982E+03  0.14929045997E+03 -0.51994633078E+02  0.37181414532E+03  0.00000000000E+00 0. -1.
<mgrwt>
<rscale>  2 0.10176104E+04</rscale>
<asrwt>0</asrwt>
<pdfrwt beam="1">  1       21 0.19767004E+00 0.10213779E+04</pdfrwt>
<pdfrwt beam="2">  1       21 0.12769584E+00 0.10213779E+04</pdfrwt>
<totfact> 0.30539937E+01</totfact>
</mgrwt>
</event>
<event>
 8    1  0.7208583E-006  0.1019428E+04  0.7818608E-02  0.8757594E-01
         21   -1    0    0  503  502  0.00000000000E+00  0.00000000000E+00  0.12745031395E+04  0.12745031395E+04  0.00000000000E+00 0. -1.
         21   -1    0    0  501  503 -0.00000000000E+00 -0.00000000000E+00 -0.11013427607E+04  0.11013427607E+04  0.00000000000E+00 0. -1.
    9000010    2    1    2  501    0  0.17380733816E+03  0.93688323018E+02 -0.52268381993E+03  0.11415719844E+04  0.99549069674E+03 0.  0.
   -9000010    2    1    2    0  502 -0.17380733816E+03 -0.93688323018E+02  0.69584419872E+03  0.12342739158E+04  0.10001232213E+04 0.  0.
        -13    1    3    3    0    0 -0.35802905069E+03 -0.19309776657E+03 -0.25953481598E+03  0.48252448691E+03  0.10566000000E+00 0.  1.
          4    1    3    3  501    0  0.53183638885E+03  0.28678608958E+03 -0.26314900395E+03  0.65904749750E+03  0.00000000000E+00 0.  1.
         13    1    4    4    0    0 -0.31737028802E+02 -0.47141644214E+03  0.68300964600E+03  0.83050760900E+03  0.10566000000E+00 0. -1.
         -4    1    4    4    0  502 -0.14207030936E+03  0.37772811912E+03  0.12834552724E+02  0.40376630681E+03  0.00000000000E+00 0. -1.
<mgrwt>
<rscale>  2 0.10182898E+04</rscale>
<asrwt>0</asrwt>
<pdfrwt beam="1">  1       21 0.19607741E+00 0.10194278E+04</pdfrwt>
<pdfrwt beam="2">  1       21 0.16943735E+00 0.10194278E+04</pdfrwt>
<totfact> 0.13247916E+01</totfact>
</mgrwt>
</event>
<event>
 8    1  0.7208583E-006  0.1007454E+04  0.7818608E-02  0.8769361E-01
         21   -1    0    0  501  502  0.00000000000E+00  0.00000000000E+00  0.11448912357E+04  0.11448912357E+04  0.00000000000E+00 0. -1.
         21   -1    0    0  502  503 -0.00000000000E+00 -0.00000000000E+00 -0.88324914613E+03  0.88324914613E+03  0.00000000000E+00 0. -1.
    9000010    2    1    2  501    0 -0.15380298810E+03  0.64535243212E+02  0.19310203541E+03  0.10257937137E+04  0.99355130225E+03 0.  0.
   -9000010    2    1    2    0  503  0.15380298810E+03 -0.64535243212E+02  0.68540054141E+02  0.10023466681E+04  0.98599236676E+03 0.  0.
        -13    1    3    3    0    0 -0.33148282801E+03  0.23068321820E+03 -0.28163874738E+03  0.49235760135E+03  0.10566000000E+00 0.  1.
          4    1    3    3  501    0  0.17767983991E+03 -0.16614797499E+03  0.47474078279E+03  0.53343611234E+03  0.00000000000E+00 0.  1.
         13    1    4    4    0    0 -0.28730227403E+03 -0.34740335741E+03  0.14327566377E+03  0.47303236295E+03  0.10566000000E+00 0. -1.
         -4    1    4    4    0  503  0.44110526213E+03  0.28286811420E+03 -0.74735609626E+02  0.52931430517E+03  0.00000000000E+00 0. -1.
<mgrwt>
<rscale>  2 0.10055857E+04</rscale>
<asrwt>0</asrwt>
<pdfrwt beam="1">  1       21 0.17613711E+00 0.10074544E+04</pdfrwt>
<pdfrwt beam="2">  1       21 0.13588448E+00 0.10074544E+04</pdfrwt>
<totfact> 0.38088378E+01</totfact>
</mgrwt>
</event>
<event>
 8    1  0.7208583E-006  0.1016636E+04  0.7818608E-02  0.8767401E-01
         21   -1    0    0  501  502  0.00000000000E+00  0.00000000000E+00  0.15181363663E+04  0.15181363663E+04  0.00000000000E+00 0.  1.
         21   -1    0    0  502  503 -0.00000000000E+00 -0.00000000000E+00 -0.70284914893E+03  0.70284914893E+03  0.00000000000E+00 0.  1.
    9000010    2    1    2  501    0  0.28290919155E+02 -0.14707268256E+03  0.69687844547E+03  0.12325536265E+04  0.10055436959E+04 0.  0.
   -9000010    2    1    2    0  503 -0.28290919155E+02  0.14707268256E+03  0.11840877191E+03  0.98843188871E+03  0.96981761754E+03 0.  0.
        -13    1    3    3    0    0 -0.29977929895E+03  0.28589602855E+03  0.10131787394E+03  0.42646159260E+03  0.10566000000E+00 0.  1.
          4    1    3    3  501    0  0.32807021810E+03 -0.43296871111E+03  0.59556057152E+03  0.80609203392E+03  0.00000000000E+00 0.  1.
         13    1    4    4    0    0 -0.46654134284E+03  0.25231330280E+03  0.74095805113E+02  0.53554927584E+03  0.10566000000E+00 0. -1.
         -4    1    4    4    0  503  0.43825042369E+03 -0.10524062024E+03  0.44312966797E+02  0.45288261287E+03  0.00000000000E+00 0. -1.
<mgrwt>
<rscale>  2 0.10076881E+04</rscale>
<asrwt>0</asrwt>
<pdfrwt beam="1">  1       21 0.23355944E+00 0.10166361E+04</pdfrwt>
<pdfrwt beam="2">  1       21 0.10813064E+00 0.10166361E+04</pdfrwt>
<totfact> 0.25896140E+01</totfact>
</mgrwt>
</event>
<event>
 8    1  0.7208583E-006  0.1167221E+04  0.7818608E-02  0.8643644E-01
         21   -1    0    0  503  502  0.00000000000E+00  0.00000000000E+00  0.12758431677E+04  0.12758431677E+04  0.00000000000E+00 0. -1.
         21   -1    0    0  501  503 -0.00000000000E+00 -0.00000000000E+00 -0.14815147051E+04  0.14815147051E+04  0.00000000000E+00 0.  1.
    9000010    2    1    2  501    0  0.43593101074E+03 -0.32055385470E+03 -0.87545423293E+03  0.14116190851E+04  0.96615615068E+03 0.  0.
   -9000010    2    1    2    0  502 -0.43593101074E+03  0.32055385470E+03  0.66978269555E+03  0.13457387877E+04  0.10342211589E+04 0.  0.
        -13    1    3    3    0    0  0.51222319336E+03  0.19885538934E+03 -0.61786959002E+03  0.82684878129E+03  0.10566000000E+00 0.  1.
          4    1    3    3  501    0 -0.76292182624E+02 -0.51940924404E+03 -0.25758464291E+03  0.58477030378E+03  0.00000000000E+00 0.  1.
         13    1    4    4    0    0 -0.51891180547E+03  0.19741700885E+03  0.90843800463E+03  0.10646607707E+04  0.10566000000E+00 0. -1.
         -4    1    4    4    0  502  0.82980794731E+02  0.12313684585E+03 -0.23865530908E+03  0.28107801702E+03  0.00000000000E+00 0. -1.
<mgrwt>
<rscale>  2 0.11519590E+04</rscale>
<asrwt>0</asrwt>
<pdfrwt beam="1">  1       21 0.19628357E+00 0.11672206E+04</pdfrwt>
<pdfrwt beam="2">  1       21 0.22792534E+00 0.11672206E+04</pdfrwt>
<totfact> 0.44222445E+00</totfact>
</mgrwt>
</event>
<event>
 8    1  0.7208583E-006  0.1042581E+04  0.7818608E-02  0.8736715E-01
         21   -1    0    0  503  502  0.00000000000E+00  0.00000000000E+00  0.98078865758E+03  0.98078865758E+03  0.00000000000E+00 0.  1.
         21   -1    0    0  501  503 -0.00000000000E+00 -0.00000000000E+00 -0.15469073822E+04  0.15469073822E+04  0.00000000000E+00 0.  1.
    9000010    2    1    2  501    0 -0.14460185116E+02  0.29005541246E+03  0.39356661542E+03  0.11143924325E+04  0.10013164203E+04 0.  0.
   -9000010    2    1    2    0  502  0.14460185116E+02 -0.29005541246E+03 -0.95968534001E+03  0.14133036072E+04  0.99603709527E+03 0.  0.
        -13    1    3    3    0    0 -0.47732153708E+03  0.30435269343E+03  0.12736013841E+03  0.58024738498E+03  0.10566000000E+00 0.  1.
          4    1    3    3  501    0  0.46286135197E+03 -0.14297280973E+02  0.26620647702E+03  0.53414504752E+03  0.00000000000E+00 0.  1.
         13    1    4    4    0    0  0.32140885105E+03 -0.30842544275E+03 -0.10079929286E+04  0.11020343273E+04  0.10566000000E+00 0. -1.
         -4    1    4    4    0  502 -0.30694866593E+03  0.18370030297E+02  0.48307588577E+02  0.31126927996E+03  0.00000000000E+00 0. -1.
<mgrwt>
<rscale>  2 0.10413117E+04</rscale>
<asrwt>0</asrwt>
<pdfrwt beam="1">  1       21 0.15089056E+00 0.10425813E+04</pdfrwt>
<pdfrwt beam="2">  1       21 0.23798575E+00 0.10425813E+04</pdfrwt>
<totfact> 0.91596855E+00</totfact>
</mgrwt>
</event>
<event>
 8    1  0.7208583E-006  0.1087712E+04  0.7818608E-02  0.8700734E-01
         21   -1    0    0  503  502  0.00000000000E+00  0.00000000000E+00  0.18365814606E+04  0.18365814606E+04  0.00000000000E+00 0.  1.
         21   -1    0    0  501  503 -0.00000000000E+00 -0.00000000000E+00 -0.11025703078E+04  0.11025703078E+04  0.00000000000E+00 0.  1.
    9000010    2    1    2  501    0 -0.24948657816E+03  0.30217428435E+03 -0.59510938288E+03  0.12216888052E+04  0.99237871214E+03 0.  0.
   -9000010    2    1    2    0  502  0.24948657816E+03 -0.30217428435E+03  0.13291205357E+04  0.17174629632E+04  0.10146747167E+04 0.  0.
        -13    1    3    3    0    0  0.24383656803E+03  0.46587794791E+03 -0.17766154029E+03  0.55503348396E+03  0.10566000000E+00 0.  1.
          4    1    3    3  501    0 -0.49332314619E+03 -0.16370366356E+03 -0.41744784259E+03  0.66665532122E+03  0.00000000000E+00 0.  1.
         13    1    4    4    0    0  0.25382196037E+02 -0.59960080710E+02 -0.17021531298E+03  0.18224360371E+03  0.10566000000E+00 0. -1.
         -4    1    4    4    0  502  0.22410438212E+03 -0.24221420364E+03  0.14993358487E+04  0.15352193595E+04  0.00000000000E+00 0. -1.
<mgrwt>
<rscale>  2 0.10824824E+04</rscale>
<asrwt>0</asrwt>
<pdfrwt beam="1">  1       21 0.28255099E+00 0.10877121E+04</pdfrwt>
<pdfrwt beam="2">  1       21 0.16962620E+00 0.10877121E+04</pdfrwt>
<totfact> 0.29754473E+00</totfact>
</mgrwt>
</event>
<event>
 8    1  0.7208583E-006  0.1004552E+04  0.7818608E-02  0.8777802E-01
         21   -1    0    0  503  502  0.00000000000E+00  0.00000000000E+00  0.17649338952E+04  0.17649338952E+04  0.00000000000E+00 0. -1.
         21   -1    0    0  501  503 -0.00000000000E+00 -0.00000000000E+00 -0.73636835957E+03  0.73636835957E+03  0.00000000000E+00 0. -1.
    9000010    2    1    2  501    0  0.82388110431E+02  0.15507436214E+02 -0.11422208409E+03  0.97976086206E+03  0.96946190282E+03 0.  0.
   -9000010    2    1    2    0  502 -0.82388110431E+02 -0.15507436214E+02  0.11427876197E+04  0.15215413927E+04  0.10010476436E+04 0.  0.
        -13    1    3    3    0    0 -0.53748709012E+02 -0.21151650185E+02 -0.53390981039E+03  0.53702515102E+03  0.10566000000E+00 0.  1.
          4    1    3    3  501    0  0.13613681944E+03  0.36659086400E+02  0.41968772630E+03  0.44273571104E+03  0.00000000000E+00 0.  1.
         13    1    4    4    0    0  0.16051825545E+03 -0.43230626361E+03  0.29903901684E+03  0.54961728562E+03  0.10566000000E+00 0. -1.
         -4    1    4    4    0  502 -0.24290636588E+03  0.41679882740E+03  0.84374860289E+03  0.97192410711E+03  0.00000000000E+00 0. -1.
<mgrwt>
<rscale>  2 0.99658981E+03</rscale>
<asrwt>0</asrwt>
<pdfrwt beam="1">  1       21 0.27152829E+00 0.10045520E+04</pdfrwt>
<pdfrwt beam="2">  1       21 0.11328744E+00 0.10045520E+04</pdfrwt>
<totfact> 0.12129643E+01</totfact>
</mgrwt>
</event>
<event>
 8    1  0.7208583E-006  0.1077127E+04  0.7818608E-02  0.8710641E-01
         21   -1    0    0  501  502  0.00000000000E+00  0.00000000000E+00  0.21583200961E+04  0.21583200961E+04  0.00000000000E+00 0.  1.
         21   -1    0    0  502  503 -0.00000000000E+00 -0.00000000000E+00 -0.60363812291E+03  0.60363812291E+03  0.00000000000E+00 0.  1.
    9000010    2    1    2  501    0 -0.19991180132E+03  0.31752849807E+03  0.12822812569E+04  0.16746487989E+04  0.10096604887E+04 0.  0.
   -9000010    2    1    2    0  503  0.19991180132E+03 -0.31752849807E+03  0.27240071623E+03  0.10873094201E+04  0.98348896758E+03 0.  0.
        -13    1    3    3    0    0  0.37707025358E+03  0.30713050213E+03  0.45502967590E+03  0.66600535928E+03  0.10566000000E+00 0.  1.
          4    1    3    3  501    0 -0.57698205490E+03  0.10397995945E+02  0.82725158102E+03  0.10086434396E+04  0.00000000000E+00 0.  1.
         13    1    4    4    0    0  0.25476217374E+03  0.97919715937E+02  0.52947900523E+03  0.59568453403E+03  0.10566000000E+00 0. -1.
         -4    1    4    4    0  503 -0.54850372423E+02 -0.41544821401E+03 -0.25707828900E+03  0.49162488602E+03  0.00000000000E+00 0. -1.
<mgrwt>
<rscale>  2 0.10709513E+04</rscale>
<asrwt>0</asrwt>
<pdfrwt beam="1">  1       21 0.33204924E+00 0.10771274E+04</pdfrwt>
<pdfrwt beam="2">  1       21 0.92867405E-01 0.10771274E+04</pdfrwt>
<totfact> 0.75248597E+00</totfact>
</mgrwt>
</event>
<event>
 8    1  0.7208583E-006  0.1033564E+04  0.7818608E-02  0.8745638E-01
         21   -1    0    0  501  502  0.00000000000E+00  0.00000000000E+00  0.24592386610E+04  0.24592386610E+04  0.00000000000E+00 0. -1.
         21   -1    0    0  502  503 -0.00000000000E+00 -0.00000000000E+00 -0.63769527638E+03  0.63769527638E+03  0.00000000000E+00 0. -1.
    9000010    2    1    2  501    0 -0.15646570623E+03  0.72635769142E+02  0.17954341696E+04  0.20716751528E+04  0.10190665381E+04 0.  0.
   -9000010    2    1    2    0  503  0.15646570623E+03 -0.72635769142E+02  0.26109215023E+02  0.10252587846E+04  0.10103051084E+04 0.  0.
        -13    1    3    3    0    0 -0.22420728894E+03  0.52677149113E+03  0.10584244965E+04  0.12033368349E+04  0.10566000000E+00 0.  1.
          4    1    3    3  501    0  0.67741582704E+02 -0.45413572199E+03  0.73700967309E+03  0.86833831785E+03  0.00000000000E+00 0.  1.
         13    1    4    4    0    0 -0.13812472733E+03  0.40337623831E+03  0.14987650751E+03  0.45194447513E+03  0.10566000000E+00 0. -1.
         -4    1    4    4    0  503  0.29459043356E+03 -0.47601200745E+03 -0.12376729249E+03  0.57331430949E+03  0.00000000000E+00 0. -1.
<mgrwt>
<rscale>  2 0.10313976E+04</rscale>
<asrwt>0</asrwt>
<pdfrwt beam="1">  1       21 0.37834441E+00 0.10335638E+04</pdfrwt>
<pdfrwt beam="2">  1       21 0.98106967E-01 0.10335638E+04</pdfrwt>
<totfact> 0.31256424E+00</totfact>
</mgrwt>
</event>
<event>
 8    1  0.7208583E-006  0.1048016E+04  0.7818608E-02  0.8732357E-01
         21   -1    0    0  503  502  0.00000000000E+00  0.00000000000E+00  0.20425181518E+04  0.20425181518E+04  0.00000000000E+00 0.  1.
         21   -1    0    0  501  503 -0.00000000000E+00 -0.00000000000E+00 -0.55832638322E+03  0.55832638322E+03  0.00000000000E+00 0.  1.
    9000010    2    1    2  501    0  0.55360934175E+02 -0.31803255708E+03  0.46828252981E+03  0.11412524167E+04  0.98942357484E+03 0.  0.
   -9000010    2    1    2    0  502 -0.55360934175E+02  0.31803255708E+03  0.10159092388E+04  0.14595921183E+04  0.99705969235E+03 0.  0.
        -13    1    3    3    0    0  0.42999979139E+03 -0.34525320923E+03  0.13787515524E+02  0.55162460590E+03  0.10566000000E+00 0.  1.
          4    1    3    3  501    0 -0.37463885721E+03  0.27220652150E+02  0.45449501429E+03  0.58962781078E+03  0.00000000000E+00 0.  1.
         13    1    4    4    0    0  0.49279649734E+02 -0.35857979442E+02  0.10828240447E+04  0.10845377824E+04  0.10566000000E+00 0. -1.
         -4    1    4    4    0  502 -0.10464058391E+03  0.35389053653E+03 -0.66914805917E+02  0.37505433592E+03  0.00000000000E+00 0. -1.
<mgrwt>
<rscale>  2 0.10461957E+04</rscale>
<asrwt>0</asrwt>
<pdfrwt beam="1">  1       21 0.31423356E+00 0.10480160E+04</pdfrwt>
<pdfrwt beam="2">  1       21 0.85896368E-01 0.10480160E+04</pdfrwt>
<totfact> 0.12338979E+01</totfact>
</mgrwt>
</event>
<event>
 8    1  0.7208583E-006  0.1051031E+04  0.7818608E-02  0.8735277E-01
         21   -1    0    0  501  502  0.00000000000E+00  0.00000000000E+00  0.61970533082E+03  0.61970533082E+03  0.00000000000E+00 0. -1.
         21   -1    0    0  502  503 -0.00000000000E+00 -0.00000000000E+00 -0.20052787785E+04  0.20052787785E+04  0.00000000000E+00 0. -1.
    9000010    2    1    2  501    0 -0.59403067048E+02  0.23231531796E+03 -0.21455586623E+03  0.10727070074E+04  0.10233117671E+04 0.  0.
   -9000010    2    1    2    0  503  0.59403067048E+02 -0.23231531796E+03 -0.11710175814E+04  0.15522771019E+04  0.99034483569E+03 0.  0.
        -13    1    3    3    0    0  0.11751205760E+03  0.52113786099E+03  0.16966026643E+03  0.56051616480E+03  0.10566000000E+00 0.  1.
          4    1    3    3  501    0 -0.17691512465E+03 -0.28882254303E+03 -0.38421613266E+03  0.51219084264E+03  0.00000000000E+00 0.  1.
         13    1    4    4    0    0  0.46057598543E+03 -0.44657536073E+01 -0.91561340435E+03  0.10249380951E+04  0.10566000000E+00 0. -1.
         -4    1    4    4    0  503 -0.40117291838E+03 -0.22784956435E+03 -0.25540417708E+03  0.52733900680E+03  0.00000000000E+00 0. -1.
<mgrwt>
<rscale>  2 0.10429201E+04</rscale>
<asrwt>0</asrwt>
<pdfrwt beam="1">  1       21 0.95339280E-01 0.10510310E+04</pdfrwt>
<pdfrwt beam="2">  1       21 0.30850443E+00 0.10510310E+04</pdfrwt>
<totfact> 0.10359803E+01</totfact>
</mgrwt>
</event>
<event>
 8    1  0.7208583E-006  0.1385443E+04  0.7818608E-02  0.8479246E-01
         21   -1    0    0  501  502  0.00000000000E+00  0.00000000000E+00  0.23489377222E+04  0.23489377222E+04  0.00000000000E+00 0. -1.
         21   -1    0    0  502  503 -0.00000000000E+00 -0.00000000000E+00 -0.10766347625E+04  0.10766347625E+04  0.00000000000E+00 0. -1.
    9000010    2    1    2  501    0  0.59256248599E+03 -0.73551465513E+03  0.14799859569E+04  0.20246494388E+04  0.10083326879E+04 0.  0.
   -9000010    2    1    2    0  503 -0.59256248599E+03  0.73551465513E+03 -0.20768299733E+03  0.14009230459E+04  0.10135783371E+04 0.  0.
        -13    1    3    3    0    0 -0.21721235183E+03 -0.10661507446E+02  0.55997733416E+03  0.60072414590E+03  0.10566000000E+00 0.  1.
          4    1    3    3  501    0  0.80977483783E+03 -0.72485314768E+03  0.92000862278E+03  0.14239252929E+04  0.00000000000E+00 0.  1.
         13    1    4    4    0    0 -0.35553481512E+03 -0.18309395020E+03  0.83523337794E+02  0.40853954335E+03  0.10566000000E+00 0. -1.
         -4    1    4    4    0  503 -0.23702767087E+03  0.91860860533E+03 -0.29120633512E+03  0.99238350257E+03  0.00000000000E+00 0. -1.
<mgrwt>
<rscale>  2 0.13844840E+04</rscale>
<asrwt>0</asrwt>
<pdfrwt beam="1">  1       21 0.36137503E+00 0.13854433E+04</pdfrwt>
<pdfrwt beam="2">  1       21 0.16563612E+00 0.13854433E+04</pdfrwt>
<totfact> 0.83935803E-01</totfact>
</mgrwt>
</event>
<event>
 8    1  0.7208583E-006  0.1017510E+04  0.7818608E-02  0.8765595E-01
         21   -1    0    0  501  502  0.00000000000E+00  0.00000000000E+00  0.47443974755E+03  0.47443974755E+03  0.00000000000E+00 0. -1.
         21   -1    0    0  502  503 -0.00000000000E+00 -0.00000000000E+00 -0.22717613619E+04  0.22717613619E+04  0.00000000000E+00 0. -1.
    9000010    2    1    2  501    0  0.25886417384E+03 -0.47237996680E+02 -0.52603854622E+03  0.11178620393E+04  0.95060869862E+03 0.  0.
   -9000010    2    1    2    0  503 -0.25886417384E+03  0.47237996680E+02 -0.12712830682E+04  0.16283390702E+04  0.98289643371E+03 0.  0.
        -13    1    3    3    0    0 -0.22596210219E+03  0.27782033032E+03 -0.36722783495E+03  0.51293206323E+03  0.10566000000E+00 0.  1.
          4    1    3    3  501    0  0.48482627603E+03 -0.32505832700E+03 -0.15881071127E+03  0.60492997603E+03  0.00000000000E+00 0.  1.
         13    1    4    4    0    0 -0.40027520238E+03  0.42901329663E+03 -0.57350774333E+03  0.82047778102E+03  0.10566000000E+00 0. -1.
         -4    1    4    4    0  503  0.14141102854E+03 -0.38177529995E+03 -0.69777532484E+03  0.80786128920E+03  0.00000000000E+00 0. -1.
<mgrwt>
<rscale>  2 0.10096309E+04</rscale>
<asrwt>0</asrwt>
<pdfrwt beam="1">  1       21 0.72990731E-01 0.10175104E+04</pdfrwt>
<pdfrwt beam="2">  1       21 0.34950174E+00 0.10175104E+04</pdfrwt>
<totfact> 0.10454719E+01</totfact>
</mgrwt>
</event>
<event>
 8    1  0.7208583E-006  0.9885663E+03  0.7818608E-02  0.8794379E-01
         21   -1    0    0  501  502  0.00000000000E+00  0.00000000000E+00  0.90750192264E+03  0.90750192264E+03  0.00000000000E+00 0. -1.
         21   -1    0    0  502  503 -0.00000000000E+00 -0.00000000000E+00 -0.11089407829E+04  0.11089407829E+04  0.00000000000E+00 0. -1.
    9000010    2    1    2  501    0 -0.21449085061E+02  0.50107559166E+02  0.15418659843E+03  0.10005183287E+04  0.98706260603E+03 0.  0.
   -9000010    2    1    2    0  503  0.21449085061E+02 -0.50107559166E+02 -0.35562545865E+03  0.10159243768E+04  0.95008528131E+03 0.  0.
        -13    1    3    3    0    0  0.43923759359E+03  0.32171499983E+02  0.28092145149E+03  0.52238064867E+03  0.10566000000E+00 0.  1.
          4    1    3    3  501    0 -0.46068667865E+03  0.17936059183E+02 -0.12673485306E+03  0.47813768005E+03  0.00000000000E+00 0.  1.
         13    1    4    4    0    0 -0.45406598736E+03 -0.11174187339E+03 -0.22516556397E+03  0.51900068353E+03  0.10566000000E+00 0. -1.
         -4    1    4    4    0  503  0.47551507242E+03  0.61634314222E+02 -0.13045989468E+03  0.49692369325E+03  0.00000000000E+00 0. -1.
<mgrwt>
<rscale>  2 0.97920447E+03</rscale>
<asrwt>0</asrwt>
<pdfrwt beam="1">  1       21 0.13961568E+00 0.98856635E+03</pdfrwt>
<pdfrwt beam="2">  1       21 0.17060627E+00 0.98856635E+03</pdfrwt>
<totfact> 0.39241611E+01</totfact>
</mgrwt>
</event>
<event>
 8    1  0.7208583E-006  0.1033536E+04  0.7818608E-02  0.8771421E-01
         21   -1    0    0  501  502  0.00000000000E+00  0.00000000000E+00  0.66882129929E+03  0.66882129929E+03  0.00000000000E+00 0. -1.
         21   -1    0    0  502  503 -0.00000000000E+00 -0.00000000000E+00 -0.15492002690E+04  0.15492002690E+04  0.00000000000E+00 0. -1.
    9000010    2    1    2  501    0  0.17338744877E+03 -0.18138088614E+02 -0.10114253346E+03  0.92364661465E+03  0.90138840631E+03 0.  0.
   -9000010    2    1    2    0  503 -0.17338744877E+03  0.18138088614E+02 -0.77923643620E+03  0.12943749536E+04  0.10187270976E+04 0.  0.
        -13    1    3    3    0    0 -0.15391246857E+03  0.27089390043E+03 -0.31008922240E+03  0.43957694467E+03  0.10566000000E+00 0.  1.
          4    1    3    3  501    0  0.32729991733E+03 -0.28903198905E+03  0.20894668893E+03  0.48406966998E+03  0.00000000000E+00 0.  1.
         13    1    4    4    0    0  0.37117718331E+03 -0.21829314871E+03 -0.41401475246E+03  0.59735469078E+03  0.10566000000E+00 0. -1.
         -4    1    4    4    0  503 -0.54456463208E+03  0.23643123732E+03 -0.36522168374E+03  0.69702026281E+03  0.00000000000E+00 0. -1.
<mgrwt>
<rscale>  2 0.10033809E+04</rscale>
<asrwt>0</asrwt>
<pdfrwt beam="1">  1       21 0.10289559E+00 0.10335362E+04</pdfrwt>
<pdfrwt beam="2">  1       21 0.23833850E+00 0.10335362E+04</pdfrwt>
<totfact> 0.27148469E+01</totfact>
</mgrwt>
</event>
<event>
 8    1  0.7208583E-006  0.1181853E+04  0.7818608E-02  0.8635644E-01
         21   -1    0    0  503  502  0.00000000000E+00  0.00000000000E+00  0.12534406624E+04  0.12534406624E+04  0.00000000000E+00 0. -1.
         21   -1    0    0  501  503 -0.00000000000E+00 -0.00000000000E+00 -0.12562773762E+04  0.12562773762E+04  0.00000000000E+00 0. -1.
    9000010    2    1    2  501    0 -0.88050095418E+02  0.48738033570E+03 -0.51821849043E+03  0.12203788398E+04  0.98766476994E+03 0.  0.
   -9000010    2    1    2    0  502  0.88050095418E+02 -0.48738033570E+03  0.51538177656E+03  0.12893391988E+04  0.10730725899E+04 0.  0.
        -13    1    3    3    0    0  0.47882500157E+00  0.77482491671E+03 -0.24125993286E+03  0.81151725009E+03  0.10566000000E+00 0.  1.
          4    1    3    3  501    0 -0.88528920419E+02 -0.28744458101E+03 -0.27695855757E+03  0.40886158968E+03  0.00000000000E+00 0.  1.
         13    1    4    4    0    0  0.20583841521E+03  0.29029894064E+03  0.13132015583E+02  0.35611148410E+03  0.10566000000E+00 0. -1.
         -4    1    4    4    0  502 -0.11778831979E+03 -0.77767927634E+03  0.50224976097E+03  0.93322771472E+03  0.00000000000E+00 0. -1.
<mgrwt>
<rscale>  2 0.11621230E+04</rscale>
<asrwt>0</asrwt>
<pdfrwt beam="1">  1       21 0.19283702E+00 0.11818533E+04</pdfrwt>
<pdfrwt beam="2">  1       21 0.19327344E+00 0.11818533E+04</pdfrwt>
<totfact> 0.86608728E+00</totfact>
</mgrwt>
</event>
<event>
 8    1  0.7208583E-006  0.1040375E+04  0.7818608E-02  0.8742612E-01
         21   -1    0    0  503  502  0.00000000000E+00  0.00000000000E+00  0.60704699028E+03  0.60704699028E+03  0.00000000000E+00 0. -1.
         21   -1    0    0  501  503 -0.00000000000E+00 -0.00000000000E+00 -0.17609689938E+04  0.17609689938E+04  0.00000000000E+00 0. -1.
    9000010    2    1    2  501    0  0.16523237940E+03 -0.17454456420E+03 -0.69605742675E+03  0.12517493297E+04  0.10122316429E+04 0.  0.
   -9000010    2    1    2    0  502 -0.16523237940E+03  0.17454456420E+03 -0.45786457676E+03  0.11162666544E+04  0.98926423618E+03 0.  0.
        -13    1    3    3    0    0  0.27929222153E+03 -0.36490493903E+03  0.60344016397E+02  0.46346647238E+03  0.10566000000E+00 0.  1.
          4    1    3    3  501    0 -0.11405984213E+03  0.19036037483E+03 -0.75640144315E+03  0.78828285728E+03  0.00000000000E+00 0.  1.
         13    1    4    4    0    0 -0.43215990223E+03 -0.25696232574E+03 -0.29714625408E+03  0.58402716155E+03  0.10566000000E+00 0. -1.
         -4    1    4    4    0  502  0.26692752283E+03  0.43150688994E+03 -0.16071832268E+03  0.53223949285E+03  0.00000000000E+00 0. -1.
<mgrwt>
<rscale>  2 0.10347466E+04</rscale>
<asrwt>0</asrwt>
<pdfrwt beam="1">  1       21 0.93391844E-01 0.10403751E+04</pdfrwt>
<pdfrwt beam="2">  1       21 0.27091831E+00 0.10403751E+04</pdfrwt>
<totfact> 0.20237907E+01</totfact>
</mgrwt>
</event>
<event>
 8    1  0.7208583E-006  0.9910032E+03  0.7818608E-02  0.8784646E-01
         21   -1    0    0  503  502  0.00000000000E+00  0.00000000000E+00  0.88046473445E+03  0.88046473445E+03  0.00000000000E+00 0. -1.
         21   -1    0    0  501  503 -0.00000000000E+00 -0.00000000000E+00 -0.12094006505E+04  0.12094006505E+04  0.00000000000E+00 0. -1.
    9000010    2    1    2  501    0  0.93350949776E+02 -0.11078424780E+03 -0.46740659956E+03  0.10956990222E+04  0.98035701075E+03 0.  0.
   -9000010    2    1    2    0  502 -0.93350949776E+02  0.11078424780E+03  0.13847068355E+03  0.99416636271E+03  0.97375822315E+03 0.  0.
        -13    1    3    3    0    0 -0.39422651393E+03  0.13451991826E+03 -0.33376377737E+03  0.53376813594E+03  0.10566000000E+00 0.  1.
          4    1    3    3  501    0  0.48757746370E+03 -0.24530416607E+03 -0.13364282219E+03  0.56193088625E+03  0.00000000000E+00 0.  1.
         13    1    4    4    0    0 -0.14059355351E+03 -0.37293402517E+03 -0.15361077846E+03  0.42713302007E+03  0.10566000000E+00 0. -1.
         -4    1    4    4    0  502  0.47242603737E+02  0.48371827297E+03  0.29208146201E+03  0.56703334264E+03  0.00000000000E+00 0. -1.
<mgrwt>
<rscale>  2 0.98936734E+03</rscale>
<asrwt>0</asrwt>
<pdfrwt beam="1">  1       21 0.13545611E+00 0.99100324E+03</pdfrwt>
<pdfrwt beam="2">  1       21 0.18606164E+00 0.99100324E+03</pdfrwt>
<totfact> 0.32042626E+01</totfact>
</mgrwt>
</event>
<event>
 8    1  0.7208583E-006  0.1110387E+04  0.7818608E-02  0.8686307E-01
         21   -1    0    0  501  502  0.00000000000E+00  0.00000000000E+00  0.53530159322E+03  0.53530159322E+03  0.00000000000E+00 0.  1.
         21   -1    0    0  502  503 -0.00000000000E+00 -0.00000000000E+00 -0.24293947461E+04  0.24293947461E+04  0.00000000000E+00 0.  1.
    9000010    2    1    2  501    0 -0.25883793218E+02  0.36232113544E+03 -0.49033728515E+03  0.11748669097E+04  0.10039596737E+04 0.  0.
   -9000010    2    1    2    0  503  0.25883793218E+02 -0.36232113544E+03 -0.14037558677E+04  0.17898294296E+04  0.10492913203E+04 0.  0.
        -13    1    3    3    0    0  0.19055228607E+03  0.45431866598E+03 -0.70256586693E+03  0.85808766016E+03  0.10566000000E+00 0.  1.
          4    1    3    3  501    0 -0.21643607928E+03 -0.91997530535E+02  0.21222858178E+03  0.31677924958E+03  0.00000000000E+00 0.  1.
         13    1    4    4    0    0  0.29313647670E+03 -0.50155823432E+03 -0.31644965278E+03  0.66153612924E+03  0.10566000000E+00 0. -1.
         -4    1    4    4    0  503 -0.26725268348E+03  0.13923709888E+03 -0.10873062149E+04  0.11282933003E+04  0.00000000000E+00 0. -1.
<mgrwt>
<rscale>  2 0.10995455E+04</rscale>
<asrwt>0</asrwt>
<pdfrwt beam="1">  1       21 0.82354092E-01 0.11103868E+04</pdfrwt>
<pdfrwt beam="2">  1       21 0.37375303E+00 0.11103868E+04</pdfrwt>
<totfact> 0.51686200E+00</totfact>
</mgrwt>
</event>
<event>
 8    1  0.7208583E-006  0.1067284E+04  0.7818608E-02  0.8716002E-01
         21   -1    0    0  501  502  0.00000000000E+00  0.00000000000E+00  0.16704150416E+04  0.16704150416E+04  0.00000000000E+00 0.  1.
         21   -1    0    0  502  503 -0.00000000000E+00 -0.00000000000E+00 -0.97386926432E+03  0.97386926432E+03  0.00000000000E+00 0.  1.
    9000010    2    1    2  501    0  0.33071239305E+03  0.17940806983E+03  0.10811687652E+04  0.15192174495E+04  0.99876815007E+03 0.  0.
   -9000010    2    1    2    0  503 -0.33071239305E+03 -0.17940806983E+03 -0.38462298782E+03  0.11250668565E+04  0.98807016268E+03 0.  0.
        -13    1    3    3    0    0 -0.33781783899E+03 -0.75663051443E+02  0.28183618044E+03  0.44640501057E+03  0.10566000000E+00 0.  1.
          4    1    3    3  501    0  0.66853023205E+03  0.25507112127E+03  0.79933258472E+03  0.10728124389E+04  0.00000000000E+00 0.  1.
         13    1    4    4    0    0 -0.18382874339E+03  0.35178060322E+03  0.79201165089E+02  0.40474119560E+03  0.10566000000E+00 0. -1.
         -4    1    4    4    0  503 -0.14688364966E+03 -0.53118867305E+03 -0.46382415291E+03  0.72032566089E+03  0.00000000000E+00 0. -1.
<mgrwt>
<rscale>  2 0.10647743E+04</rscale>
<asrwt>0</asrwt>
<pdfrwt beam="1">  1       21 0.25698693E+00 0.10672843E+04</pdfrwt>
<pdfrwt beam="2">  1       21 0.14982604E+00 0.10672843E+04</pdfrwt>
<totfact> 0.67644430E+00</totfact>
</mgrwt>
</event>
<event>
 8    1  0.7208583E-006  0.9853010E+03  0.7818608E-02  0.8790503E-01
         21   -1    0    0  503  502  0.00000000000E+00  0.00000000000E+00  0.11547963194E+04  0.11547963194E+04  0.00000000000E+00 0. -1.
         21   -1    0    0  501  503 -0.00000000000E+00 -0.00000000000E+00 -0.86603240503E+03  0.86603240503E+03  0.00000000000E+00 0. -1.
    9000010    2    1    2  501    0  0.12713015118E+03  0.31119554628E+02 -0.50344097104E+02  0.98658634659E+03  0.97656929562E+03 0.  0.
   -9000010    2    1    2    0  502 -0.12713015118E+03 -0.31119554628E+02  0.33910801144E+03  0.10342423778E+04  0.96826264547E+03 0.  0.
        -13    1    3    3    0    0  0.51958515440E+03  0.20112536799E+03 -0.13658748077E+02  0.55732101960E+03  0.10566000000E+00 0.  1.
          4    1    3    3  501    0 -0.39245500322E+03 -0.17000581336E+03 -0.36685349028E+02  0.42926532700E+03  0.00000000000E+00 0.  1.
         13    1    4    4    0    0  0.23889717345E+03 -0.16842261684E+03  0.52536704227E+03  0.60120593611E+03  0.10566000000E+00 0. -1.
         -4    1    4    4    0  502 -0.36602732463E+03  0.13730306221E+03 -0.18625903083E+03  0.43303644169E+03  0.00000000000E+00 0. -1.
<mgrwt>
<rscale>  2 0.98323643E+03</rscale>
<asrwt>0</asrwt>
<pdfrwt beam="1">  1       21 0.17766097E+00 0.98530102E+03</pdfrwt>
<pdfrwt beam="2">  1       21 0.13323575E+00 0.98530102E+03</pdfrwt>
<totfact> 0.39401654E+01</totfact>
</mgrwt>
</event>
<event>
 8    1  0.7208583E-006  0.1131421E+04  0.7818608E-02  0.8666337E-01
         21   -1    0    0  503  502  0.00000000000E+00  0.00000000000E+00  0.17134048378E+04  0.17134048378E+04  0.00000000000E+00 0.  1.
         21   -1    0    0  501  503 -0.00000000000E+00 -0.00000000000E+00 -0.84096908487E+03  0.84096908487E+03  0.00000000000E+00 0.  1.
    9000010    2    1    2  501    0  0.44421572934E+03  0.25276250106E+03 -0.28566930867E+02  0.11317816547E+04  0.10094043531E+04 0.  0.
   -9000010    2    1    2    0  502 -0.44421572934E+03 -0.25276250106E+03  0.90100268376E+03  0.14225922680E+04  0.97506226911E+03 0.  0.
        -13    1    3    3    0    0  0.58590311363E+03 -0.65090465385E+02 -0.32630667509E+03  0.67379172198E+03  0.10566000000E+00 0.  1.
          4    1    3    3  501    0 -0.14168738429E+03  0.31785296644E+03  0.29773974422E+03  0.45798993267E+03  0.00000000000E+00 0.  1.
         13    1    4    4    0    0  0.17698336466E+02  0.71302426171E+02 -0.18483417458E+03  0.19889934728E+03  0.10566000000E+00 0. -1.
         -4    1    4    4    0  502 -0.46191406580E+03 -0.32406492723E+03  0.10858368583E+04  0.12236929207E+04  0.00000000000E+00 0. -1.
<mgrwt>
<rscale>  2 0.11237103E+04</rscale>
<asrwt>0</asrwt>
<pdfrwt beam="1">  1       21 0.26360074E+00 0.11314211E+04</pdfrwt>
<pdfrwt beam="2">  1       21 0.12937986E+00 0.11314211E+04</pdfrwt>
<totfact> 0.92483200E+00</totfact>
</mgrwt>
</event>
<event>
 8    1  0.7208583E-006  0.1067005E+04  0.7818608E-02  0.8714216E-01
         21   -1    0    0  501  502  0.00000000000E+00  0.00000000000E+00  0.10316269111E+04  0.10316269111E+04  0.00000000000E+00 0. -1.
         21   -1    0    0  502  503 -0.00000000000E+00 -0.00000000000E+00 -0.13701757571E+04  0.13701757571E+04  0.00000000000E+00 0. -1.
    9000010    2    1    2  501    0 -0.13428747753E+03 -0.33896430116E+03  0.36120593805E+03  0.11258102247E+04  0.10020224590E+04 0.  0.
   -9000010    2    1    2    0  503  0.13428747753E+03  0.33896430116E+03 -0.69975478412E+03  0.12759924435E+04  0.10027811495E+04 0.  0.
        -13    1    3    3    0    0  0.23688500054E+02 -0.60213136946E+03 -0.58956089412E+02  0.60547432874E+03  0.10566000000E+00 0.  1.
          4    1    3    3  501    0 -0.15797597758E+03  0.26316706830E+03  0.42016202747E+03  0.52033589599E+03  0.00000000000E+00 0.  1.
         13    1    4    4    0    0  0.48886988238E+03  0.24454869457E+03 -0.72524253134E+03  0.90817100060E+03  0.10566000000E+00 0. -1.
         -4    1    4    4    0  503 -0.35458240485E+03  0.94415606590E+02  0.25487747213E+02  0.36782144290E+03  0.00000000000E+00 0. -1.
<mgrwt>
<rscale>  2 0.10668268E+04</rscale>
<asrwt>0</asrwt>
<pdfrwt beam="1">  1       21 0.15871183E+00 0.10670051E+04</pdfrwt>
<pdfrwt beam="2">  1       21 0.21079627E+00 0.10670051E+04</pdfrwt>
<totfact> 0.12432865E+01</totfact>
</mgrwt>
</event>
<event>
 8    1  0.7208583E-006  0.1045063E+04  0.7818608E-02  0.8752863E-01
         21   -1    0    0  501  502  0.00000000000E+00  0.00000000000E+00  0.17986693003E+04  0.17986693003E+04  0.00000000000E+00 0.  1.
         21   -1    0    0  502  503 -0.00000000000E+00 -0.00000000000E+00 -0.63324701921E+03  0.63324701921E+03  0.00000000000E+00 0.  1.
    9000010    2    1    2  501    0  0.29721210107E+03  0.74549026246E+01  0.10188812828E+04  0.14595467717E+04  0.10018817804E+04 0.  0.
   -9000010    2    1    2    0  503 -0.29721210107E+03 -0.74549026246E+01  0.14654099831E+03  0.97236954778E+03  0.91413219212E+03 0.  0.
        -13    1    3    3    0    0 -0.18353672562E+03 -0.33909579726E+03  0.16323995911E+03  0.41871109943E+03  0.10566000000E+00 0.  1.
          4    1    3    3  501    0  0.48074882669E+03  0.34655069989E+03  0.85564132366E+03  0.10408356723E+04  0.00000000000E+00 0.  1.
         13    1    4    4    0    0  0.27084352719E+03 -0.53312631085E+02  0.27339964155E+03  0.38851747454E+03  0.10566000000E+00 0. -1.
         -4    1    4    4    0  503 -0.56805562827E+03  0.45857728461E+02 -0.12685864324E+03  0.58385207324E+03  0.00000000000E+00 0. -1.
<mgrwt>
<rscale>  2 0.10234524E+04</rscale>
<asrwt>0</asrwt>
<pdfrwt beam="1">  1       21 0.27671835E+00 0.10450635E+04</pdfrwt>
<pdfrwt beam="2">  1       21 0.97422619E-01 0.10450635E+04</pdfrwt>
<totfact> 0.16489744E+01</totfact>
</mgrwt>
</event>
<event>
 8    1  0.7208583E-006  0.1038620E+04  0.7818608E-02  0.8739306E-01
         21   -1    0    0  503  502  0.00000000000E+00  0.00000000000E+00  0.12470112838E+04  0.12470112838E+04  0.00000000000E+00 0. -1.
         21   -1    0    0  501  503 -0.00000000000E+00 -0.00000000000E+00 -0.92357884130E+03  0.92357884130E+03  0.00000000000E+00 0.  1.
    9000010    2    1    2  501    0 -0.13885134456E+03  0.25237468461E+03 -0.11308136801E+03  0.10439685189E+04  0.99705074865E+03 0.  0.
   -9000010    2    1    2    0  502  0.13885134456E+03 -0.25237468461E+03  0.43651381050E+03  0.11266216062E+04  0.99787737695E+03 0.  0.
        -13    1    3    3    0    0  0.31580689090E+03  0.25357108144E+03  0.23779706886E+03  0.46965917728E+03  0.10566000000E+00 0.  1.
          4    1    3    3  501    0 -0.45465823546E+03 -0.11963968259E+01 -0.35087843686E+03  0.57430934164E+03  0.00000000000E+00 0.  1.
         13    1    4    4    0    0 -0.35983233130E+03 -0.13288143002E+03  0.47714702703E+03  0.61221407829E+03  0.10566000000E+00 0. -1.
         -4    1    4    4    0  502  0.49868367586E+03 -0.11949325460E+03 -0.40633216530E+02  0.51440752789E+03  0.00000000000E+00 0. -1.
<mgrwt>
<rscale>  2 0.10384216E+04</rscale>
<asrwt>0</asrwt>
<pdfrwt beam="1">  1       21 0.19184789E+00 0.10386202E+04</pdfrwt>
<pdfrwt beam="2">  1       21 0.14208905E+00 0.10386202E+04</pdfrwt>
<totfact> 0.24722831E+01</totfact>
</mgrwt>
</event>
<event>
 8    1  0.7208583E-006  0.1024586E+04  0.7818608E-02  0.8776043E-01
         21   -1    0    0  503  502  0.00000000000E+00  0.00000000000E+00  0.19678712145E+04  0.19678712145E+04  0.00000000000E+00 0. -1.
         21   -1    0    0  501  503 -0.00000000000E+00 -0.00000000000E+00 -0.58175669041E+03  0.58175669041E+03  0.00000000000E+00 0. -1.
    9000010    2    1    2  501    0 -0.16036175009E+03  0.21102520196E+03  0.19639505156E+03  0.10432384703E+04  0.98971105024E+03 0.  0.
   -9000010    2    1    2    0  502  0.16036175009E+03 -0.21102520196E+03  0.11897194726E+04  0.15063894346E+04  0.88517183558E+03 0.  0.
        -13    1    3    3    0    0  0.35113062963E+03  0.10987209607E+03  0.34154452463E+03  0.50201321698E+03  0.10566000000E+00 0.  1.
          4    1    3    3  501    0 -0.51149237972E+03  0.10115310588E+03 -0.14514947307E+03  0.54122525336E+03  0.00000000000E+00 0.  1.
         13    1    4    4    0    0  0.41105955901E+03  0.17712260139E+03  0.71782758597E+03  0.84594256975E+03  0.10566000000E+00 0. -1.
         -4    1    4    4    0  502 -0.25069780892E+03 -0.38814780335E+03  0.47189188660E+03  0.66044686485E+03  0.00000000000E+00 0. -1.
<mgrwt>
<rscale>  2 0.99845661E+03</rscale>
<asrwt>0</asrwt>
<pdfrwt beam="1">  1       21 0.30274941E+00 0.10245855E+04</pdfrwt>
<pdfrwt beam="2">  1       21 0.89501030E-01 0.10245855E+04</pdfrwt>
<totfact> 0.13452465E+01</totfact>
</mgrwt>
</event>
<event>
 8    1  0.7208583E-006  0.1139083E+04  0.7818608E-02  0.8656268E-01
         21   -1    0    0  501  502  0.00000000000E+00  0.00000000000E+00  0.14958407398E+04  0.14958407398E+04  0.00000000000E+00 0. -1.
         21   -1    0    0  502  503 -0.00000000000E+00 -0.00000000000E+00 -0.11396047177E+04  0.11396047177E+04  0.00000000000E+00 0. -1.
    9000010    2    1    2  501    0 -0.52512251529E+03 -0.84341736874E+02  0.83326086114E+03  0.14113236006E+04  0.10072951197E+04 0.  0.
   -9000010    2    1    2    0  503  0.52512251529E+03  0.84341736874E+02 -0.47702483899E+03  0.12241218570E+04  0.99400927513E+03 0.  0.
        -13    1    3    3    0    0 -0.71577708272E+03 -0.23465964390E+03  0.88594849993E+03  0.11628872414E+04  0.10566000000E+00 0.  1.
          4    1    3    3  501    0  0.19065456743E+03  0.15031790702E+03 -0.52687638783E+02  0.24843635913E+03  0.00000000000E+00 0.  1.
         13    1    4    4    0    0  0.77758115794E+03  0.22917898663E+03 -0.23074466683E+03  0.84285145638E+03  0.10566000000E+00 0. -1.
         -4    1    4    4    0  503 -0.25245864265E+03 -0.14483724975E+03 -0.24628017216E+03  0.38127040059E+03  0.00000000000E+00 0. -1.
<mgrwt>
<rscale>  2 0.11361389E+04</rscale>
<asrwt>0</asrwt>
<pdfrwt beam="1">  1       21 0.23012934E+00 0.11390832E+04</pdfrwt>
<pdfrwt beam="2">  1       21 0.17532380E+00 0.11390832E+04</pdfrwt>
<totfact> 0.63246236E+00</totfact>
</mgrwt>
</event>
<event>
 8    1  0.7208583E-006  0.1175841E+04  0.7818608E-02  0.8638195E-01
         21   -1    0    0  501  502  0.00000000000E+00  0.00000000000E+00  0.81467951287E+03  0.81467951287E+03  0.00000000000E+00 0.  1.
         21   -1    0    0  502  503 -0.00000000000E+00 -0.00000000000E+00 -0.18410341975E+04  0.18410341975E+04  0.00000000000E+00 0.  1.
    9000010    2    1    2  501    0  0.52920008086E+03  0.33310781378E+03 -0.97789204631E+03  0.14788749138E+04  0.91639762948E+03 0.  0.
   -9000010    2    1    2    0  503 -0.52920008086E+03 -0.33310781378E+03 -0.48462638329E+02  0.11768387966E+04  0.99578480838E+03 0.  0.
        -13    1    3    3    0    0  0.43071358590E+03 -0.99429364050E+02 -0.93372408482E+03  0.10330736030E+04  0.10566000000E+00 0.  1.
          4    1    3    3  501    0  0.98486494960E+02  0.43253717783E+03 -0.44167961491E+02  0.44580131081E+03  0.00000000000E+00 0.  1.
         13    1    4    4    0    0  0.25101562831E+03  0.66450319922E+02 -0.14085927757E+03  0.29540791783E+03  0.10566000000E+00 0. -1.
         -4    1    4    4    0  503 -0.78021570917E+03 -0.39955813370E+03  0.92396639242E+02  0.88143087874E+03  0.00000000000E+00 0. -1.
<mgrwt>
<rscale>  2 0.11588699E+04</rscale>
<asrwt>0</asrwt>
<pdfrwt beam="1">  1       21 0.12533531E+00 0.11758405E+04</pdfrwt>
<pdfrwt beam="2">  1       21 0.28323603E+00 0.11758405E+04</pdfrwt>
<totfact> 0.72604157E+00</totfact>
</mgrwt>
</event>
<event>
 8    1  0.7208583E-006  0.1044113E+04  0.7818608E-02  0.8734724E-01
         21   -1    0    0  503  502  0.00000000000E+00  0.00000000000E+00  0.64867749403E+03  0.64867749403E+03  0.00000000000E+00 0.  1.
         21   -1    0    0  501  503 -0.00000000000E+00 -0.00000000000E+00 -0.17716884731E+04  0.17716884731E+04  0.00000000000E+00 0.  1.
    9000010    2    1    2  501    0 -0.27746685406E+03  0.47728450506E+02 -0.28102921718E+03  0.10790590366E+04  0.10030578864E+04 0.  0.
   -9000010    2    1    2    0  502  0.27746685406E+03 -0.47728450506E+02 -0.84198176194E+03  0.13413069306E+04  0.10054377825E+04 0.  0.
        -13    1    3    3    0    0 -0.56813896235E+03 -0.61551683120E+02 -0.44831507106E+03  0.72633112582E+03  0.10566000000E+00 0.  1.
          4    1    3    3  501    0  0.29067210828E+03  0.10928013363E+03  0.16728585388E+03  0.35272791079E+03  0.00000000000E+00 0.  1.
         13    1    4    4    0    0  0.49916514953E+03  0.11842511713E+03 -0.65875636505E+02  0.51723298959E+03  0.10566000000E+00 0. -1.
         -4    1    4    4    0  502 -0.22169829547E+03 -0.16615356764E+03 -0.77610612543E+03  0.82407394097E+03  0.00000000000E+00 0. -1.
<mgrwt>
<rscale>  2 0.10435392E+04</rscale>
<asrwt>0</asrwt>
<pdfrwt beam="1">  1       21 0.99796538E-01 0.10441125E+04</pdfrwt>
<pdfrwt beam="2">  1       21 0.27256746E+00 0.10441125E+04</pdfrwt>
<totfact> 0.16586726E+01</totfact>
</mgrwt>
</event>
<event>
 8    1  0.7208583E-006  0.1068248E+04  0.7818608E-02  0.8720004E-01
         21   -1    0    0  501  502  0.00000000000E+00  0.00000000000E+00  0.82537475609E+03  0.82537475609E+03  0.00000000000E+00 0. -1.
         21   -1    0    0  502  503 -0.00000000000E+00 -0.00000000000E+00 -0.16108678115E+04  0.16108678115E+04  0.00000000000E+00 0. -1.
    9000010    2    1    2  501    0  0.34154655889E+03  0.13648839685E+03 -0.89563071560E+03  0.13940258642E+04  0.10029310030E+04 0.  0.
   -9000010    2    1    2    0  503 -0.34154655889E+03 -0.13648839685E+03  0.11013766016E+03  0.10422167035E+04  0.96891806592E+03 0.  0.
        -13    1    3    3    0    0 -0.28979599922E+03  0.77419270069E+02 -0.40936572173E+01  0.29998705594E+03  0.10566000000E+00 0.  1.
          4    1    3    3  501    0  0.63134255810E+03  0.59069126785E+02 -0.89153705839E+03  0.10940388082E+04  0.00000000000E+00 0.  1.
         13    1    4    4    0    0  0.23464671324E+03 -0.33975562178E+03 -0.34460334921E+02  0.41434344258E+03  0.10566000000E+00 0. -1.
         -4    1    4    4    0  503 -0.57619327212E+03  0.20326722492E+03  0.14459799508E+03  0.62787326090E+03  0.00000000000E+00 0. -1.
<mgrwt>
<rscale>  2 0.10601905E+04</rscale>
<asrwt>0</asrwt>
<pdfrwt beam="1">  1       21 0.12698073E+00 0.10682480E+04</pdfrwt>
<pdfrwt beam="2">  1       21 0.24782582E+00 0.10682480E+04</pdfrwt>
<totfact> 0.12876073E+01</totfact>
</mgrwt>
</event>
<event>
 8    1  0.7208583E-006  0.1189603E+04  0.7818608E-02  0.8616012E-01
         21   -1    0    0  503  502  0.00000000000E+00  0.00000000000E+00  0.29257132910E+04  0.29257132910E+04  0.00000000000E+00 0.  1.
         21   -1    0    0  501  503 -0.00000000000E+00 -0.00000000000E+00 -0.64127480721E+03  0.64127480721E+03  0.00000000000E+00 0.  1.
    9000010    2    1    2  501    0  0.63616515307E+03 -0.30274119920E+01  0.25174632879E+03  0.12159488716E+04  0.10052065345E+04 0.  0.
   -9000010    2    1    2    0  502 -0.63616515307E+03  0.30274119920E+01  0.20326921550E+04  0.23510392266E+04  0.99540583735E+03 0.  0.
        -13    1    3    3    0    0  0.68098788989E+03  0.23666804269E+02 -0.23925595301E+03  0.72218283421E+03  0.10566000000E+00 0.  1.
          4    1    3    3  501    0 -0.44822736827E+02 -0.26694216261E+02  0.49100228180E+03  0.49376603736E+03  0.00000000000E+00 0.  1.
         13    1    4    4    0    0 -0.64187858355E+03 -0.14462439039E+03  0.54038432508E+03  0.85143382613E+03  0.10566000000E+00 0. -1.
         -4    1    4    4    0  502  0.57134304868E+01  0.14765180238E+03  0.14923078299E+04  0.14996054005E+04  0.00000000000E+00 0. -1.
<mgrwt>
<rscale>  2 0.11875302E+04</rscale>
<asrwt>0</asrwt>
<pdfrwt beam="1">  1       21 0.45010973E+00 0.11896031E+04</pdfrwt>
<pdfrwt beam="2">  1       21 0.98657664E-01 0.11896031E+04</pdfrwt>
<totfact> 0.94605456E-01</totfact>
</mgrwt>
</event>
<event>
 8    1  0.7208583E-006  0.1053770E+04  0.7818608E-02  0.8732038E-01
         21   -1    0    0  503  502  0.00000000000E+00  0.00000000000E+00  0.20012885417E+04  0.20012885417E+04  0.00000000000E+00 0.  1.
         21   -1    0    0  501  503 -0.00000000000E+00 -0.00000000000E+00 -0.84294413043E+03  0.84294413043E+03  0.00000000000E+00 0.  1.
    9000010    2    1    2  501    0  0.24864070393E+02 -0.22824824619E+03 -0.26833928475E+03  0.10873989944E+04  0.10284527784E+04 0.  0.
   -9000010    2    1    2    0  502 -0.24864070393E+02  0.22824824619E+03  0.14266836960E+04  0.17568336776E+04  0.99916100738E+03 0.  0.
        -13    1    3    3    0    0  0.65565738281E+02  0.90896748882E+01  0.38523233624E+03  0.39087779712E+03  0.10566000000E+00 0.  1.
          4    1    3    3  501    0 -0.40701667888E+02 -0.23733792108E+03 -0.65357162099E+03  0.69652119732E+03  0.00000000000E+00 0.  1.
         13    1    4    4    0    0 -0.17894378102E+03  0.52469612696E+03  0.12742200093E+04  0.13895911434E+04  0.10566000000E+00 0. -1.
         -4    1    4    4    0  502  0.15407971063E+03 -0.29644788077E+03  0.15246368667E+03  0.36724253429E+03  0.00000000000E+00 0. -1.
<mgrwt>
<rscale>  2 0.10465539E+04</rscale>
<asrwt>0</asrwt>
<pdfrwt beam="1">  1       21 0.30789054E+00 0.10537697E+04</pdfrwt>
<pdfrwt beam="2">  1       21 0.12968371E+00 0.10537697E+04</pdfrwt>
<totfact> 0.45256755E+00</totfact>
</mgrwt>
</event>
<event>
 8    1  0.7208583E-006  0.1069361E+04  0.7818608E-02  0.8713438E-01
         21   -1    0    0  501  502  0.00000000000E+00  0.00000000000E+00  0.20224690289E+04  0.20224690289E+04  0.00000000000E+00 0.  1.
         21   -1    0    0  502  503 -0.00000000000E+00 -0.00000000000E+00 -0.60948690005E+03  0.60948690005E+03  0.00000000000E+00 0.  1.
    9000010    2    1    2  501    0 -0.11566486667E+03  0.34632802238E+03  0.34102169383E+03  0.11224211737E+04  0.10050930480E+04 0.  0.
   -9000010    2    1    2    0  503  0.11566486667E+03 -0.34632802238E+03  0.10719604351E+04  0.15095347553E+04  0.99813553318E+03 0.  0.
        -13    1    3    3    0    0  0.20396328230E+03  0.54043083204E+03 -0.51936818514E+02  0.57996892074E+03  0.10566000000E+00 0.  1.
          4    1    3    3  501    0 -0.31962814897E+03 -0.19410280966E+03  0.39295851234E+03  0.54245225297E+03  0.00000000000E+00 0.  1.
         13    1    4    4    0    0  0.48988083584E+03  0.37065540098E+02  0.70836720204E+03  0.86205637384E+03  0.10566000000E+00 0. -1.
         -4    1    4    4    0  503 -0.37421596917E+03 -0.38339356248E+03  0.36359323301E+03  0.64747838143E+03  0.00000000000E+00 0. -1.
<mgrwt>
<rscale>  2 0.10677233E+04</rscale>
<asrwt>0</asrwt>
<pdfrwt beam="1">  1       21 0.31114908E+00 0.10693613E+04</pdfrwt>
<pdfrwt beam="2">  1       21 0.93767217E-01 0.10693613E+04</pdfrwt>
<totfact> 0.10313875E+01</totfact>
</mgrwt>
</event>
<event>
 8    1  0.7208583E-006  0.1047657E+04  0.7818608E-02  0.8745085E-01
         21   -1    0    0  503  502  0.00000000000E+00  0.00000000000E+00  0.10101583645E+04  0.10101583645E+04  0.00000000000E+00 0.  1.
         21   -1    0    0  501  503 -0.00000000000E+00 -0.00000000000E+00 -0.10894008405E+04  0.10894008405E+04  0.00000000000E+00 0.  1.
    9000010    2    1    2  501    0 -0.16214965670E+03  0.70108313583E+02 -0.29561562678E+03  0.10297913098E+04  0.97050185789E+03 0.  0.
   -9000010    2    1    2    0  502  0.16214965670E+03 -0.70108313583E+02  0.21637315080E+03  0.10697678952E+04  0.10326559555E+04 0.  0.
        -13    1    3    3    0    0 -0.20773550076E+03  0.13010438012E+02 -0.64245970357E+03  0.67533531793E+03  0.10566000000E+00 0.  1.
          4    1    3    3  501    0  0.45585844055E+02  0.57097875571E+02  0.34684407679E+03  0.35445599188E+03  0.00000000000E+00 0.  1.
         13    1    4    4    0    0  0.41519319939E+03 -0.34036680336E+03 -0.14111815760E+03  0.55511196998E+03  0.10566000000E+00 0. -1.
         -4    1    4    4    0  502 -0.25304354268E+03  0.27025848977E+03  0.35749130840E+03  0.51465592522E+03  0.00000000000E+00 0. -1.
<mgrwt>
<rscale>  2 0.10320081E+04</rscale>
<asrwt>0</asrwt>
<pdfrwt beam="1">  1       21 0.15540898E+00 0.10476574E+04</pdfrwt>
<pdfrwt beam="2">  1       21 0.16760013E+00 0.10476574E+04</pdfrwt>
<totfact> 0.29588862E+01</totfact>
</mgrwt>
</event>
<event>
 8    1  0.7208583E-006  0.1077407E+04  0.7818608E-02  0.8707028E-01
         21   -1    0    0  501  502  0.00000000000E+00  0.00000000000E+00  0.14353358944E+04  0.14353358944E+04  0.00000000000E+00 0. -1.
         21   -1    0    0  502  503 -0.00000000000E+00 -0.00000000000E+00 -0.15383884884E+04  0.15383884884E+04  0.00000000000E+00 0. -1.
    9000010    2    1    2  501    0 -0.30856672053E+03  0.16864730224E+03  0.97709032701E+03  0.14544798737E+04  0.10184060399E+04 0.  0.
   -9000010    2    1    2    0  503  0.30856672053E+03 -0.16864730224E+03 -0.10801429210E+04  0.15192445091E+04  0.10088309150E+04 0.  0.
        -13    1    3    3    0    0  0.47914291636E+02  0.10464290993E+03 -0.19570247553E+03  0.22703609412E+03  0.10566000000E+00 0.  1.
          4    1    3    3  501    0 -0.35648101216E+03  0.64004392317E+02  0.11727928025E+04  0.12274437796E+04  0.00000000000E+00 0.  1.
         13    1    4    4    0    0  0.31397922941E+03 -0.29394051413E+03  0.17560460822E+01  0.43010124065E+03  0.10566000000E+00 0. -1.
         -4    1    4    4    0  503 -0.54125088839E+01  0.12529321188E+03 -0.10818989671E+04  0.10891432685E+04  0.00000000000E+00 0. -1.
<mgrwt>
<rscale>  2 0.10751385E+04</rscale>
<asrwt>0</asrwt>
<pdfrwt beam="1">  1       21 0.22082091E+00 0.10774072E+04</pdfrwt>
<pdfrwt beam="2">  1       21 0.23667515E+00 0.10774072E+04</pdfrwt>
<totfact> 0.25188102E+00</totfact>
</mgrwt>
</event>
<event>
 8    1  0.7208583E-006  0.1026574E+04  0.7818608E-02  0.8750293E-01
         21   -1    0    0  503  502  0.00000000000E+00  0.00000000000E+00  0.12165699560E+04  0.12165699560E+04  0.00000000000E+00 0.  1.
         21   -1    0    0  501  503 -0.00000000000E+00 -0.00000000000E+00 -0.97347870207E+03  0.97347870207E+03  0.00000000000E+00 0.  1.
    9000010    2    1    2  501    0 -0.65473886531E+02  0.17341871566E+03 -0.24367504663E+03  0.10539166755E+04  0.10084651455E+04 0.  0.
   -9000010    2    1    2    0  502  0.65473886531E+02 -0.17341871566E+03  0.48676630058E+03  0.11361319826E+04  0.10096997424E+04 0.  0.
        -13    1    3    3    0    0  0.15283270653E+03 -0.13999398036E+03  0.31505312828E+03  0.37711355786E+03  0.10566000000E+00 0.  1.
          4    1    3    3  501    0 -0.21830659306E+03  0.31341269601E+03 -0.55872817490E+03  0.67680311762E+03  0.00000000000E+00 0.  1.
         13    1    4    4    0    0 -0.27022064576E+03 -0.42099881016E+03  0.68836849232E+01  0.50030649789E+03  0.10566000000E+00 0. -1.
         -4    1    4    4    0  502  0.33569453229E+03  0.24758009451E+03  0.47988261565E+03  0.63582548471E+03  0.00000000000E+00 0. -1.
<mgrwt>
<rscale>  2 0.10262704E+04</rscale>
<asrwt>0</asrwt>
<pdfrwt beam="1">  1       21 0.18716461E+00 0.10265741E+04</pdfrwt>
<pdfrwt beam="2">  1       21 0.14976596E+00 0.10265741E+04</pdfrwt>
<totfact> 0.23024194E+01</totfact>
</mgrwt>
</event>
<event>
 8    1  0.7208583E-006  0.1133485E+04  0.7818608E-02  0.8699649E-01
         21   -1    0    0  501  502  0.00000000000E+00  0.00000000000E+00  0.15542319600E+04  0.15542319600E+04  0.00000000000E+00 0. -1.
         21   -1    0    0  502  503 -0.00000000000E+00 -0.00000000000E+00 -0.96251424308E+03  0.96251424308E+03  0.00000000000E+00 0. -1.
    9000010    2    1    2  501    0 -0.52061235327E+00 -0.90992268855E+02  0.97474660514E+03  0.14949644075E+04  0.11298264342E+04 0.  0.
   -9000010    2    1    2    0  503  0.52061235327E+00  0.90992268855E+02 -0.38302888819E+03  0.10217817956E+04  0.94289291261E+03 0.  0.
        -13    1    3    3    0    0  0.33657383938E+03 -0.49884398220E+03  0.46816456523E+03  0.76243382613E+03  0.10566000000E+00 0.  1.
          4    1    3    3  501    0 -0.33709445173E+03  0.40785171334E+03  0.50658203991E+03  0.73253058136E+03  0.00000000000E+00 0.  1.
         13    1    4    4    0    0 -0.10023847833E+03 -0.28174441743E+03  0.17251376851E+03  0.34523713703E+03  0.10566000000E+00 0. -1.
         -4    1    4    4    0  503  0.10075909068E+03  0.37273668629E+03 -0.55554265670E+03  0.67654465860E+03  0.00000000000E+00 0. -1.
<mgrwt>
<rscale>  2 0.10837537E+04</rscale>
<asrwt>0</asrwt>
<pdfrwt beam="1">  1       21 0.23911261E+00 0.11334847E+04</pdfrwt>
<pdfrwt beam="2">  1       21 0.14807911E+00 0.11334847E+04</pdfrwt>
<totfact> 0.93261528E+00</totfact>
</mgrwt>
</event>
<event>
 8    1  0.7208583E-006  0.1210090E+04  0.7818608E-02  0.8599092E-01
         21   -1    0    0  501  502  0.00000000000E+00  0.00000000000E+00  0.25326107228E+04  0.25326107228E+04  0.00000000000E+00 0.  1.
         21   -1    0    0  502  503 -0.00000000000E+00 -0.00000000000E+00 -0.65307788813E+03  0.65307788813E+03  0.00000000000E+00 0.  1.
    9000010    2    1    2  501    0 -0.52548107719E+03  0.42102162095E+03  0.14798268684E+04  0.19112937860E+04  0.10048715382E+04 0.  0.
   -9000010    2    1    2    0  503  0.52548107719E+03 -0.42102162095E+03  0.39970596625E+03  0.12743948249E+04  0.10054490253E+04 0.  0.
        -13    1    3    3    0    0 -0.77633399007E+02  0.68514671630E+03  0.82890695236E+03  0.10782113496E+04  0.10566000000E+00 0.  1.
          4    1    3    3  501    0 -0.44784767818E+03 -0.26412509536E+03  0.65091991604E+03  0.83308243646E+03  0.00000000000E+00 0.  1.
         13    1    4    4    0    0  0.62550403231E+03 -0.35903967548E+03  0.66698406202E+03  0.98236069402E+03  0.10566000000E+00 0. -1.
         -4    1    4    4    0  503 -0.10002295513E+03 -0.61981945464E+02 -0.26727809577E+03  0.29203413087E+03  0.00000000000E+00 0. -1.
<mgrwt>
<rscale>  2 0.12099698E+04</rscale>
<asrwt>0</asrwt>
<pdfrwt beam="1">  1       21 0.38963241E+00 0.12100898E+04</pdfrwt>
<pdfrwt beam="2">  1       21 0.10047352E+00 0.12100898E+04</pdfrwt>
<totfact> 0.23560595E+00</totfact>
</mgrwt>
</event>
<event>
 8    1  0.7208583E-006  0.1025317E+04  0.7818608E-02  0.8765231E-01
         21   -1    0    0  501  502  0.00000000000E+00  0.00000000000E+00  0.13263218204E+04  0.13263218204E+04  0.00000000000E+00 0.  1.
         21   -1    0    0  502  503 -0.00000000000E+00 -0.00000000000E+00 -0.11271679436E+04  0.11271679436E+04  0.00000000000E+00 0.  1.
    9000010    2    1    2  501    0 -0.14939513733E+03  0.15582697945E+03  0.81373575574E+03  0.13089848233E+04  0.10023344915E+04 0.  0.
   -9000010    2    1    2    0  503  0.14939513733E+03 -0.15582697945E+03 -0.61458187891E+03  0.11445049407E+04  0.94105245277E+03 0.  0.
        -13    1    3    3    0    0 -0.49746659643E+03  0.16207678360E+02  0.78933920511E+03  0.93316241635E+03  0.10566000000E+00 0.  1.
          4    1    3    3  501    0  0.34807145910E+03  0.13961930109E+03  0.24396550632E+02  0.37582240694E+03  0.00000000000E+00 0.  1.
         13    1    4    4    0    0  0.34636059042E+03 -0.32891040192E+03 -0.14408952128E+01  0.47765028884E+03  0.10566000000E+00 0. -1.
         -4    1    4    4    0  503 -0.19696545309E+03  0.17308342247E+03 -0.61314098370E+03  0.66685465188E+03  0.00000000000E+00 0. -1.
<mgrwt>
<rscale>  2 0.10100228E+04</rscale>
<asrwt>0</asrwt>
<pdfrwt beam="1">  1       21 0.20404951E+00 0.10253172E+04</pdfrwt>
<pdfrwt beam="2">  1       21 0.17341045E+00 0.10253172E+04</pdfrwt>
<totfact> 0.10620479E+01</totfact>
</mgrwt>
</event>
<event>
 8    1  0.7208583E-006  0.1002693E+04  0.7818608E-02  0.8772176E-01
         21   -1    0    0  501  502  0.00000000000E+00  0.00000000000E+00  0.19115333200E+04  0.19115333200E+04  0.00000000000E+00 0.  1.
         21   -1    0    0  502  503 -0.00000000000E+00 -0.00000000000E+00 -0.52909975148E+03  0.52909975148E+03  0.00000000000E+00 0.  1.
    9000010    2    1    2  501    0  0.12817311457E+03 -0.66833640253E+02  0.78899003247E+03  0.12758915186E+04  0.99221913567E+03 0.  0.
   -9000010    2    1    2    0  503 -0.12817311457E+03  0.66833640253E+02  0.59344353601E+03  0.11647415528E+04  0.99174219013E+03 0.  0.
        -13    1    3    3    0    0  0.34602039592E+03  0.32609646282E+03  0.65052094164E+03  0.80575835344E+03  0.10566000000E+00 0.  1.
          4    1    3    3  501    0 -0.21784728135E+03 -0.39293010308E+03  0.13846909084E+03  0.47013316519E+03  0.00000000000E+00 0.  1.
         13    1    4    4    0    0  0.14830359996E+03  0.38355085142E+03  0.61945162404E+03  0.74352238640E+03  0.10566000000E+00 0. -1.
         -4    1    4    4    0  503 -0.27647671453E+03 -0.31671721117E+03 -0.26008088031E+02  0.42121916643E+03  0.00000000000E+00 0. -1.
<mgrwt>
<rscale>  2 0.10025753E+04</rscale>
<asrwt>0</asrwt>
<pdfrwt beam="1">  1       21 0.29408204E+00 0.10026933E+04</pdfrwt>
<pdfrwt beam="2">  1       21 0.81399963E-01 0.10026933E+04</pdfrwt>
<totfact> 0.19779436E+01</totfact>
</mgrwt>
</event>
<event>
 8    1  0.7208583E-006  0.1009581E+04  0.7818608E-02  0.8766404E-01
         21   -1    0    0  503  502  0.00000000000E+00  0.00000000000E+00  0.21848774696E+04  0.21848774696E+04  0.00000000000E+00 0.  1.
         21   -1    0    0  501  503 -0.00000000000E+00 -0.00000000000E+00 -0.13487394348E+04  0.13487394348E+04  0.00000000000E+00 0.  1.
    9000010    2    1    2  501    0  0.59150814614E+02 -0.48993384783E+02 -0.10118733549E+04  0.14293851150E+04  0.10066553283E+04 0.  0.
   -9000010    2    1    2    0  502 -0.59150814614E+02  0.48993384783E+02  0.18480113896E+04  0.21042317894E+04  0.10033674086E+04 0.  0.
        -13    1    3    3    0    0  0.39795266541E+03  0.18347327452E+03 -0.13096444501E+03  0.45736250763E+03  0.10566000000E+00 0.  1.
          4    1    3    3  501    0 -0.33880185079E+03 -0.23246665930E+03 -0.88090890986E+03  0.97202260738E+03  0.00000000000E+00 0.  1.
         13    1    4    4    0    0  0.36906170568E+03  0.21873831241E+03  0.13898075308E+04  0.14545164061E+04  0.10566000000E+00 0. -1.
         -4    1    4    4    0  502 -0.42821252029E+03 -0.16974492763E+03  0.45820385881E+03  0.64971538324E+03  0.00000000000E+00 0. -1.
<mgrwt>
<rscale>  2 0.10087606E+04</rscale>
<asrwt>0</asrwt>
<pdfrwt beam="1">  1       21 0.33613499E+00 0.10095812E+04</pdfrwt>
<pdfrwt beam="2">  1       21 0.20749837E+00 0.10095812E+04</pdfrwt>
<totfact> 0.63252586E-01</totfact>
</mgrwt>
</event>
<event>
 8    1  0.7208583E-006  0.1086780E+04  0.7818608E-02  0.8700131E-01
         21   -1    0    0  503  502  0.00000000000E+00  0.00000000000E+00  0.89072757359E+03  0.89072757359E+03  0.00000000000E+00 0.  1.
         21   -1    0    0  501  503 -0.00000000000E+00 -0.00000000000E+00 -0.16443838374E+04  0.16443838374E+04  0.00000000000E+00 0.  1.
    9000010    2    1    2  501    0  0.35825984560E+03 -0.21356245108E+03 -0.95158986681E+03  0.14445115625E+04  0.10035593366E+04 0.  0.
   -9000010    2    1    2    0  502 -0.35825984560E+03  0.21356245108E+03  0.19793360300E+03  0.10905998485E+04  0.98806441131E+03 0.  0.
        -13    1    3    3    0    0  0.10278309738E+03 -0.36665934054E+03  0.64013983291E+02  0.38613629502E+03  0.10566000000E+00 0.  1.
          4    1    3    3  501    0  0.25547674822E+03  0.15309688945E+03 -0.10156038501E+04  0.10583752675E+04  0.00000000000E+00 0.  1.
         13    1    4    4    0    0 -0.59539270999E+03  0.18314898098E+03  0.43038744771E+03  0.75714555711E+03  0.10566000000E+00 0. -1.
         -4    1    4    4    0  502  0.23713286439E+03  0.30413470101E+02 -0.23245384470E+03  0.33345429140E+03  0.00000000000E+00 0. -1.
<mgrwt>
<rscale>  2 0.10831891E+04</rscale>
<asrwt>0</asrwt>
<pdfrwt beam="1">  1       21 0.13703501E+00 0.10867798E+04</pdfrwt>
<pdfrwt beam="2">  1       21 0.25298213E+00 0.10867798E+04</pdfrwt>
<totfact> 0.94234029E+00</totfact>
</mgrwt>
</event>
<event>
 8    1  0.7208583E-006  0.1116640E+04  0.7818608E-02  0.8685103E-01
         21   -1    0    0  503  502  0.00000000000E+00  0.00000000000E+00  0.43525479814E+03  0.43525479814E+03  0.00000000000E+00 0.  1.
         21   -1    0    0  501  503 -0.00000000000E+00 -0.00000000000E+00 -0.27519395728E+04  0.27519395728E+04  0.00000000000E+00 0.  1.
    9000010    2    1    2  501    0 -0.24404025317E+03  0.39104404758E+03 -0.13237929075E+04  0.16929658511E+04  0.94933377633E+03 0.  0.
   -9000010    2    1    2    0  502  0.24404025317E+03 -0.39104404758E+03 -0.99289186713E+03  0.14942285198E+04  0.10170612160E+04 0.  0.
        -13    1    3    3    0    0 -0.23612946250E+03 -0.24788284399E+03 -0.19006521239E+03  0.39157096870E+03  0.10566000000E+00 0.  1.
          4    1    3    3  501    0 -0.79107906750E+01  0.63892689158E+03 -0.11337276951E+04  0.13013948824E+04  0.00000000000E+00 0.  1.
         13    1    4    4    0    0  0.14165942015E+03  0.34100497680E+03 -0.41850805722E+03  0.55812255880E+03  0.10566000000E+00 0. -1.
         -4    1    4    4    0  502  0.10238083302E+03 -0.73204902438E+03 -0.57438380991E+03  0.93610596097E+03  0.00000000000E+00 0. -1.
<mgrwt>
<rscale>  2 0.11009844E+04</rscale>
<asrwt>0</asrwt>
<pdfrwt beam="1">  1       21 0.66962278E-01 0.11166399E+04</pdfrwt>
<pdfrwt beam="2">  1       21 0.42337531E+00 0.11166399E+04</pdfrwt>
<totfact> 0.38370573E+00</totfact>
</mgrwt>
</event>
<event>
 8    1  0.7208583E-006  0.1002484E+04  0.7818608E-02  0.8782229E-01
         21   -1    0    0  503  502  0.00000000000E+00  0.00000000000E+00  0.51185122181E+03  0.51185122181E+03  0.00000000000E+00 0. -1.
         21   -1    0    0  501  503 -0.00000000000E+00 -0.00000000000E+00 -0.20157323941E+04  0.20157323941E+04  0.00000000000E+00 0. -1.
    9000010    2    1    2  501    0 -0.98436484663E+02  0.65037272663E+02 -0.41248239940E+03  0.10456505391E+04  0.95358467462E+03 0.  0.
   -9000010    2    1    2    0  502  0.98436484663E+02 -0.65037272663E+02 -0.10913987729E+04  0.14819330769E+04  0.99551734011E+03 0.  0.
        -13    1    3    3    0    0 -0.46359144825E+03  0.15402425110E+03 -0.12053473862E+01  0.48850994345E+03  0.10566000000E+00 0.  1.
          4    1    3    3  501    0  0.36515496359E+03 -0.88986978437E+02 -0.41127705202E+03  0.55714059561E+03  0.00000000000E+00 0.  1.
         13    1    4    4    0    0  0.52272438533E+03 -0.19488466375E+03 -0.63897479244E+03  0.84823912414E+03  0.10566000000E+00 0. -1.
         -4    1    4    4    0  502 -0.42428790066E+03  0.12984739109E+03 -0.45242398045E+03  0.63369395271E+03  0.00000000000E+00 0. -1.
<mgrwt>
<rscale>  2 0.99191085E+03</rscale>
<asrwt>0</asrwt>
<pdfrwt beam="1">  1       21 0.78746343E-01 0.10024841E+04</pdfrwt>
<pdfrwt beam="2">  1       21 0.31011267E+00 0.10024841E+04</pdfrwt>
<totfact> 0.16521034E+01</totfact>
</mgrwt>
</event>
<event>
 8    1  0.7208583E-006  0.1082862E+04  0.7818608E-02  0.8712692E-01
         21   -1    0    0  501  502  0.00000000000E+00  0.00000000000E+00  0.11827525620E+04  0.11827525620E+04  0.00000000000E+00 0. -1.
         21   -1    0    0  502  503 -0.00000000000E+00 -0.00000000000E+00 -0.16377325178E+04  0.16377325178E+04  0.00000000000E+00 0. -1.
    9000010    2    1    2  501    0 -0.38529000235E+03  0.34004603081E+03  0.68881186180E+03  0.12833751011E+04  0.95315800376E+03 0.  0.
   -9000010    2    1    2    0  503  0.38529000235E+03 -0.34004603081E+03 -0.11437918177E+04  0.15371099787E+04  0.88902625128E+03 0.  0.
        -13    1    3    3    0    0 -0.51274103367E+03  0.46188875723E+02 -0.97183218344E+01  0.51490895971E+03  0.10566000000E+00 0.  1.
          4    1    3    3  501    0  0.12745103131E+03  0.29385715509E+03  0.69853018364E+03  0.76846614137E+03  0.00000000000E+00 0.  1.
         13    1    4    4    0    0  0.50666709049E+03 -0.51530966582E+03 -0.55586655480E+03  0.91172541381E+03  0.10566000000E+00 0. -1.
         -4    1    4    4    0  503 -0.12137708814E+03  0.17526363501E+03 -0.58792526286E+03  0.62538456488E+03  0.00000000000E+00 0. -1.
<mgrwt>
<rscale>  2 0.10685821E+04</rscale>
<asrwt>0</asrwt>
<pdfrwt beam="1">  1       21 0.18196193E+00 0.10828619E+04</pdfrwt>
<pdfrwt beam="2">  1       21 0.25195885E+00 0.10828619E+04</pdfrwt>
<totfact> 0.39079331E+00</totfact>
</mgrwt>
</event>
<event>
 8    1  0.7208583E-006  0.1011970E+04  0.7818608E-02  0.8783245E-01
         21   -1    0    0  503  502  0.00000000000E+00  0.00000000000E+00  0.11021941721E+04  0.11021941721E+04  0.00000000000E+00 0. -1.
         21   -1    0    0  501  503 -0.00000000000E+00 -0.00000000000E+00 -0.97127213736E+03  0.97127213736E+03  0.00000000000E+00 0. -1.
    9000010    2    1    2  501    0 -0.87778909908E+01 -0.12143486955E+03 -0.28983191388E+03  0.10526561824E+04  0.10046188437E+04 0.  0.
   -9000010    2    1    2    0  502  0.87778909908E+01  0.12143486955E+03  0.42075394859E+03  0.10208101270E+04  0.92206070909E+03 0.  0.
        -13    1    3    3    0    0 -0.26148377086E+03 -0.40761668490E+03  0.11337904042E+03  0.49737304129E+03  0.10566000000E+00 0.  1.
          4    1    3    3  501    0  0.25270587987E+03  0.28618181535E+03 -0.40321095430E+03  0.55528314113E+03  0.00000000000E+00 0.  1.
         13    1    4    4    0    0  0.26520471227E+03 -0.25020505987E+03  0.43683897669E+03  0.56900300009E+03  0.10566000000E+00 0. -1.
         -4    1    4    4    0  502 -0.25642682128E+03  0.37163992942E+03 -0.16085028094E+02  0.45180712692E+03  0.00000000000E+00 0. -1.
<mgrwt>
<rscale>  2 0.99084070E+03</rscale>
<asrwt>0</asrwt>
<pdfrwt beam="1">  1       21 0.16956834E+00 0.10119696E+04</pdfrwt>
<pdfrwt beam="2">  1       21 0.14942648E+00 0.10119696E+04</pdfrwt>
<totfact> 0.32430107E+01</totfact>
</mgrwt>
</event>
<event>
 8    1  0.7208583E-006  0.1151687E+04  0.7818608E-02  0.8661545E-01
         21   -1    0    0  503  502  0.00000000000E+00  0.00000000000E+00  0.44795225083E+04  0.44795225083E+04  0.00000000000E+00 0.  1.
         21   -1    0    0  501  503 -0.00000000000E+00 -0.00000000000E+00 -0.29627669641E+03  0.29627669641E+03  0.00000000000E+00 0.  1.
    9000010    2    1    2  501    0 -0.25067512649E+03  0.24579056507E+03  0.13688981253E+04  0.17349216635E+04  0.10063896263E+04 0.  0.
   -9000010    2    1    2    0  502  0.25067512649E+03 -0.24579056507E+03  0.28143476865E+04  0.30408775412E+04  0.10968738756E+04 0.  0.
        -13    1    3    3    0    0 -0.23474492334E+03  0.27607974025E+02 -0.95020602958E+02  0.25474753269E+03  0.10566000000E+00 0.  1.
          4    1    3    3  501    0 -0.15930203155E+02  0.21818259105E+03  0.14639187283E+04  0.14801741308E+04  0.00000000000E+00 0.  1.
         13    1    4    4    0    0 -0.13074586225E+03 -0.60222723834E+03  0.12905707978E+04  0.14301556287E+04  0.10566000000E+00 0. -1.
         -4    1    4    4    0  502  0.38142098874E+03  0.35643667327E+03  0.15237768887E+04  0.16107219125E+04  0.00000000000E+00 0. -1.
<mgrwt>
<rscale>  2 0.11296049E+04</rscale>
<asrwt>0</asrwt>
<pdfrwt beam="1">  1       21 0.68915726E+00 0.11516872E+04</pdfrwt>
<pdfrwt beam="2">  1       21 0.45581033E-01 0.11516872E+04</pdfrwt>
<totfact> 0.94419326E-02</totfact>
</mgrwt>
</event>
<event>
 8    1  0.7208583E-006  0.1062772E+04  0.7818608E-02  0.8724776E-01
         21   -1    0    0  503  502  0.00000000000E+00  0.00000000000E+00  0.16549809483E+04  0.16549809483E+04  0.00000000000E+00 0. -1.
         21   -1    0    0  501  503 -0.00000000000E+00 -0.00000000000E+00 -0.69255295423E+03  0.69255295423E+03  0.00000000000E+00 0. -1.
    9000010    2    1    2  501    0  0.27044314137E+03  0.76631184747E+02  0.73358708526E+03  0.12913693089E+04  0.10249257774E+04 0.  0.
   -9000010    2    1    2    0  502 -0.27044314137E+03 -0.76631184747E+02  0.22884090884E+03  0.10561645936E+04  0.99201998775E+03 0.  0.
        -13    1    3    3    0    0  0.43813372818E+03 -0.37184752547E+03  0.48451707110E+03  0.75165720200E+03  0.10566000000E+00 0.  1.
          4    1    3    3  501    0 -0.16769058681E+03  0.44847871021E+03  0.24907001416E+03  0.53971210693E+03  0.00000000000E+00 0.  1.
         13    1    4    4    0    0 -0.53720521775E+03  0.23713029958E+03  0.45874460514E+01  0.58723187990E+03  0.10566000000E+00 0. -1.
         -4    1    4    4    0  502  0.26676207637E+03 -0.31376148432E+03  0.22425346279E+03  0.46893271373E+03  0.00000000000E+00 0. -1.
<mgrwt>
<rscale>  2 0.10547577E+04</rscale>
<asrwt>0</asrwt>
<pdfrwt beam="1">  1       21 0.25461245E+00 0.10627722E+04</pdfrwt>
<pdfrwt beam="2">  1       21 0.10654661E+00 0.10627722E+04</pdfrwt>
<totfact> 0.18702320E+01</totfact>
</mgrwt>
</event>
<event>
 8    1  0.7208583E-006  0.1011265E+04  0.7818608E-02  0.8777652E-01
         21   -1    0    0  501  502  0.00000000000E+00  0.00000000000E+00  0.15198151156E+04  0.15198151156E+04  0.00000000000E+00 0. -1.
         21   -1    0    0  502  503 -0.00000000000E+00 -0.00000000000E+00 -0.14243027890E+04  0.14243027890E+04  0.00000000000E+00 0. -1.
    9000010    2    1    2  501    0 -0.68502824792E+01  0.16304676516E+03  0.11423545911E+04  0.14885987679E+04  0.94038348885E+03 0.  0.
   -9000010    2    1    2    0  503  0.68502824792E+01 -0.16304676516E+03 -0.10468422644E+04  0.14555191367E+04  0.99801105036E+03 0.  0.
        -13    1    3    3    0    0 -0.26539284389E+03  0.10036018978E+03  0.11855951428E+04  0.12190739859E+04  0.10566000000E+00 0.  1.
          4    1    3    3  501    0  0.25854256141E+03  0.62686575379E+02 -0.43240551766E+02  0.26952478199E+03  0.00000000000E+00 0.  1.
         13    1    4    4    0    0 -0.29825554460E+03 -0.40822810553E+03 -0.90974867385E+03  0.10407925907E+04  0.10566000000E+00 0. -1.
         -4    1    4    4    0  503  0.30510582708E+03  0.24518134037E+03 -0.13709359055E+03  0.41472654600E+03  0.00000000000E+00 0. -1.
<mgrwt>
<rscale>  2 0.99674884E+03</rscale>
<asrwt>0</asrwt>
<pdfrwt beam="1">  1       21 0.23381771E+00 0.10112652E+04</pdfrwt>
<pdfrwt beam="2">  1       21 0.21912351E+00 0.10112652E+04</pdfrwt>
<totfact> 0.27709753E+00</totfact>
</mgrwt>
</event>
<event>
 8    1  0.7208583E-006  0.1016545E+04  0.7818608E-02  0.8837929E-01
         21   -1    0    0  501  502  0.00000000000E+00  0.00000000000E+00  0.20633417234E+04  0.20633417234E+04  0.00000000000E+00 0. -1.
         21   -1    0    0  502  503 -0.00000000000E+00 -0.00000000000E+00 -0.77691935837E+03  0.77691935837E+03  0.00000000000E+00 0. -1.
    9000010    2    1    2  501    0  0.18110199632E+03  0.56316512098E+02  0.16152425644E+04  0.17718576358E+04  0.70320797554E+03 0.  0.
   -9000010    2    1    2    0  503 -0.18110199632E+03 -0.56316512098E+02 -0.32882019943E+03  0.10684034460E+04  0.99869600840E+03 0.  0.
        -13    1    3    3    0    0  0.29325156954E+02  0.11031052338E+03  0.16064744522E+04  0.16105243100E+04  0.10566000000E+00 0.  1.
          4    1    3    3  501    0  0.15177683936E+03 -0.53994011284E+02  0.87681122835E+01  0.16133332580E+03  0.00000000000E+00 0.  1.
         13    1    4    4    0    0 -0.12914847732E+03  0.46738613409E+03 -0.10296189391E+03  0.49571190252E+03  0.10566000000E+00 0. -1.
         -4    1    4    4    0  503 -0.51953519002E+02 -0.52370264619E+03 -0.22585830553E+03  0.57269154345E+03  0.00000000000E+00 0. -1.
<mgrwt>
<rscale>  2 0.93524969E+03</rscale>
<asrwt>0</asrwt>
<pdfrwt beam="1">  1       21 0.31743719E+00 0.10165447E+04</pdfrwt>
<pdfrwt beam="2">  1       21 0.11952606E+00 0.10165447E+04</pdfrwt>
<totfact> 0.49335796E+00</totfact>
</mgrwt>
</event>
<event>
 8    1  0.7208583E-006  0.1105533E+04  0.7818608E-02  0.8702071E-01
         21   -1    0    0  501  502  0.00000000000E+00  0.00000000000E+00  0.76985442252E+03  0.76985442252E+03  0.00000000000E+00 0. -1.
         21   -1    0    0  502  503 -0.00000000000E+00 -0.00000000000E+00 -0.16119040445E+04  0.16119040445E+04  0.00000000000E+00 0. -1.
    9000010    2    1    2  501    0 -0.75226330810E+02 -0.53974100927E+02 -0.65461718336E+02  0.11074694962E+04  0.11016493290E+04 0.  0.
   -9000010    2    1    2    0  503  0.75226330810E+02  0.53974100927E+02 -0.77658790359E+03  0.12742889708E+04  0.10060573565E+04 0.  0.
        -13    1    3    3    0    0 -0.12828575863E+02 -0.53611771492E+03 -0.24450965904E+03  0.58938252531E+03  0.10566000000E+00 0.  1.
          4    1    3    3  501    0 -0.62397754946E+02  0.48214361400E+03  0.17904794070E+03  0.51808697089E+03  0.00000000000E+00 0.  1.
         13    1    4    4    0    0  0.56588463628E+02 -0.14285037860E+03 -0.97921122425E+03  0.99119277527E+03  0.10566000000E+00 0. -1.
         -4    1    4    4    0  503  0.18637867182E+02  0.19682447953E+03  0.20262332066E+03  0.28309619550E+03  0.00000000000E+00 0. -1.
<mgrwt>
<rscale>  2 0.10809170E+04</rscale>
<asrwt>0</asrwt>
<pdfrwt beam="1">  1       21 0.11843914E+00 0.11055331E+04</pdfrwt>
<pdfrwt beam="2">  1       21 0.24798524E+00 0.11055331E+04</pdfrwt>
<totfact> 0.15504674E+01</totfact>
</mgrwt>
</event>
<event>
 8    1  0.7208583E-006  0.1272961E+04  0.7818608E-02  0.8554390E-01
         21   -1    0    0  503  502  0.00000000000E+00  0.00000000000E+00  0.10911993296E+04  0.10911993296E+04  0.00000000000E+00 0.  1.
         21   -1    0    0  501  503 -0.00000000000E+00 -0.00000000000E+00 -0.19329679065E+04  0.19329679065E+04  0.00000000000E+00 0.  1.
    9000010    2    1    2  501    0 -0.72502621097E+03  0.30657484375E+03 -0.11538862253E+04  0.17181042437E+04  0.10003887394E+04 0.  0.
   -9000010    2    1    2    0  502  0.72502621097E+03 -0.30657484375E+03  0.31211764831E+03  0.13060629924E+04  0.99435002502E+03 0.  0.
        -13    1    3    3    0    0  0.19179874627E+03  0.37395981309E+02 -0.55986654850E+03  0.59298885468E+03  0.10566000000E+00 0.  1.
          4    1    3    3  501    0 -0.91682495723E+03  0.26917886244E+03 -0.59401967679E+03  0.11251153890E+04  0.00000000000E+00 0.  1.
         13    1    4    4    0    0  0.48102602593E+03  0.11463895698E+03 -0.25689184764E+03  0.55724461472E+03  0.10566000000E+00 0. -1.
         -4    1    4    4    0  502  0.24400018503E+03 -0.42121380073E+03  0.56900949596E+03  0.74881837765E+03  0.00000000000E+00 0. -1.
<mgrwt>
<rscale>  2 0.12717739E+04</rscale>
<asrwt>0</asrwt>
<pdfrwt beam="1">  1       21 0.16787682E+00 0.12729606E+04</pdfrwt>
<pdfrwt beam="2">  1       21 0.29737967E+00 0.12729606E+04</pdfrwt>
<totfact> 0.23170690E+00</totfact>
</mgrwt>
</event>
<event>
 8    1  0.7208583E-006  0.1020491E+04  0.7818608E-02  0.8757151E-01
         21   -1    0    0  501  502  0.00000000000E+00  0.00000000000E+00  0.87650617206E+03  0.87650617206E+03  0.00000000000E+00 0. -1.
         21   -1    0    0  502  503 -0.00000000000E+00 -0.00000000000E+00 -0.15352394263E+04  0.15352394263E+04  0.00000000000E+00 0. -1.
    9000010    2    1    2  501    0 -0.20190001613E+03 -0.61336926492E+02  0.25141899872E+03  0.10443470978E+04  0.99142499092E+03 0.  0.
   -9000010    2    1    2    0  503  0.20190001613E+03  0.61336926492E+02 -0.91015225293E+03  0.13673985006E+04  0.99843662832E+03 0.  0.
        -13    1    3    3    0    0 -0.46634221717E+02  0.13084530190E+03 -0.35947705956E+03  0.38538164354E+03  0.10566000000E+00 0.  1.
          4    1    3    3  501    0 -0.15526579442E+03 -0.19218222839E+03  0.61089605829E+03  0.65896545422E+03  0.00000000000E+00 0.  1.
         13    1    4    4    0    0  0.86450900115E+02  0.52988698153E+03 -0.51000991152E+03  0.74051609863E+03  0.10566000000E+00 0. -1.
         -4    1    4    4    0  503  0.11544911602E+03 -0.46855005503E+03 -0.40014234141E+03  0.62688240193E+03  0.00000000000E+00 0. -1.
<mgrwt>
<rscale>  2 0.10187717E+04</rscale>
<asrwt>0</asrwt>
<pdfrwt beam="1">  1       21 0.13484711E+00 0.10204908E+04</pdfrwt>
<pdfrwt beam="2">  1       21 0.23619068E+00 0.10204908E+04</pdfrwt>
<totfact> 0.13315065E+01</totfact>
</mgrwt>
</event>
<event>
 8    1  0.7208583E-006  0.1012179E+04  0.7818608E-02  0.8763238E-01
         21   -1    0    0  503  502  0.00000000000E+00  0.00000000000E+00  0.21066563966E+04  0.21066563966E+04  0.00000000000E+00 0. -1.
         21   -1    0    0  501  503 -0.00000000000E+00 -0.00000000000E+00 -0.64844741851E+03  0.64844741851E+03  0.00000000000E+00 0. -1.
    9000010    2    1    2  501    0  0.12188726423E+03 -0.20463107848E+03  0.40272905733E+02  0.10129794260E+04  0.98375557289E+03 0.  0.
   -9000010    2    1    2    0  502 -0.12188726423E+03  0.20463107848E+03  0.14179360723E+04  0.17421243890E+04  0.98372978922E+03 0.  0.
        -13    1    3    3    0    0  0.51222668496E+03  0.70838529828E+02 -0.72328806938E+02  0.52213575014E+03  0.10566000000E+00 0.  1.
          4    1    3    3  501    0 -0.39033942074E+03 -0.27546960831E+03  0.11260171267E+03  0.49084367591E+03  0.00000000000E+00 0.  1.
         13    1    4    4    0    0  0.28781240844E+02 -0.38823816365E+03  0.42918993480E+03  0.57944908563E+03  0.10566000000E+00 0. -1.
         -4    1    4    4    0  502 -0.15066850507E+03  0.59286924212E+03  0.98874613754E+03  0.11626753034E+04  0.00000000000E+00 0. -1.
<mgrwt>
<rscale>  2 0.10121723E+04</rscale>
<asrwt>0</asrwt>
<pdfrwt beam="1">  1       21 0.32410098E+00 0.10121785E+04</pdfrwt>
<pdfrwt beam="2">  1       21 0.99761142E-01 0.10121785E+04</pdfrwt>
<totfact> 0.72246431E+00</totfact>
</mgrwt>
</event>
<event>
 8    1  0.7208583E-006  0.1014717E+04  0.7818608E-02  0.8761065E-01
         21   -1    0    0  503  502  0.00000000000E+00  0.00000000000E+00  0.16154012488E+04  0.16154012488E+04  0.00000000000E+00 0. -1.
         21   -1    0    0  501  503 -0.00000000000E+00 -0.00000000000E+00 -0.10496913113E+04  0.10496913113E+04  0.00000000000E+00 0. -1.
    9000010    2    1    2  501    0  0.75354703628E+02  0.13420556574E+03 -0.55283905882E+03  0.11548597054E+04  0.10021878312E+04 0.  0.
   -9000010    2    1    2    0  502 -0.75354703628E+02 -0.13420556574E+03  0.11185489963E+04  0.15102328547E+04  0.10029765467E+04 0.  0.
        -13    1    3    3    0    0  0.15312346285E+03  0.47587563741E+03 -0.62169208384E+03  0.79775025881E+03  0.10566000000E+00 0.  1.
          4    1    3    3  501    0 -0.77768759219E+02 -0.34167007167E+03  0.68853025020E+02  0.35710944658E+03  0.00000000000E+00 0.  1.
         13    1    4    4    0    0  0.29103135215E+03  0.30064916758E+03  0.65190754964E+03  0.77464355309E+03  0.10566000000E+00 0. -1.
         -4    1    4    4    0  502 -0.36638605578E+03 -0.43485473332E+03  0.46664144666E+03  0.73558930165E+03  0.00000000000E+00 0. -1.
<mgrwt>
<rscale>  2 0.10145225E+04</rscale>
<asrwt>0</asrwt>
<pdfrwt beam="1">  1       21 0.24852327E+00 0.10147174E+04</pdfrwt>
<pdfrwt beam="2">  1       21 0.16149097E+00 0.10147174E+04</pdfrwt>
<totfact> 0.62399064E+00</totfact>
</mgrwt>
</event>
<event>
 8    1  0.7208583E-006  0.1064345E+04  0.7818608E-02  0.8718417E-01
         21   -1    0    0  501  502  0.00000000000E+00  0.00000000000E+00  0.77051673859E+03  0.77051673859E+03  0.00000000000E+00 0. -1.
         21   -1    0    0  502  503 -0.00000000000E+00 -0.00000000000E+00 -0.15961088280E+04  0.15961088280E+04  0.00000000000E+00 0. -1.
    9000010    2    1    2  501    0  0.44578165204E+02  0.36165021639E+03 -0.65580508239E+02  0.10663634989E+04  0.10000261081E+04 0.  0.
   -9000010    2    1    2    0  503 -0.44578165204E+02 -0.36165021639E+03 -0.76001158119E+03  0.13002620677E+04  0.99009380832E+03 0.  0.
        -13    1    3    3    0    0 -0.21460854041E+03 -0.13174017946E+03  0.30617449690E+03  0.39642796851E+03  0.10566000000E+00 0.  1.
          4    1    3    3  501    0  0.25918670562E+03  0.49339039584E+03 -0.37175500514E+03  0.66993553043E+03  0.00000000000E+00 0.  1.
         13    1    4    4    0    0 -0.10839151275E+03 -0.60672872411E+03 -0.14215242786E+03  0.63251544535E+03  0.10566000000E+00 0. -1.
         -4    1    4    4    0  503  0.63813347544E+02  0.24507850772E+03 -0.61785915333E+03  0.66774662232E+03  0.00000000000E+00 0. -1.
<mgrwt>
<rscale>  2 0.10620057E+04</rscale>
<asrwt>0</asrwt>
<pdfrwt beam="1">  1       21 0.11854104E+00 0.10643450E+04</pdfrwt>
<pdfrwt beam="2">  1       21 0.24555520E+00 0.10643450E+04</pdfrwt>
<totfact> 0.16259603E+01</totfact>
</mgrwt>
</event>
<event>
 8    1  0.7208583E-006  0.1123784E+04  0.7818608E-02  0.8670848E-01
         21   -1    0    0  501  502  0.00000000000E+00  0.00000000000E+00  0.16029992953E+04  0.16029992953E+04  0.00000000000E+00 0. -1.
         21   -1    0    0  502  503 -0.00000000000E+00 -0.00000000000E+00 -0.80753002643E+03  0.80753002643E+03  0.00000000000E+00 0. -1.
    9000010    2    1    2  501    0 -0.35788847886E+03 -0.26783191284E+03  0.14998221584E+03  0.11337482480E+04  0.10310539888E+04 0.  0.
   -9000010    2    1    2    0  503  0.35788847886E+03  0.26783191284E+03  0.64548705305E+03  0.12767810738E+04  0.10068258429E+04 0.  0.
        -13    1    3    3    0    0 -0.47910308675E+03  0.73496328210E+02  0.45153534969E+03  0.66243917546E+03  0.10566000000E+00 0.  1.
          4    1    3    3  501    0  0.12121460790E+03 -0.34132824105E+03 -0.30155313384E+03  0.47130907252E+03  0.00000000000E+00 0.  1.
         13    1    4    4    0    0 -0.18711719383E+03  0.11148664077E+03 -0.17502944175E+03  0.27942339190E+03  0.10566000000E+00 0. -1.
         -4    1    4    4    0  503  0.54500567268E+03  0.15634527208E+03  0.82051649480E+03  0.99735768188E+03  0.00000000000E+00 0. -1.
<mgrwt>
<rscale>  2 0.11181957E+04</rscale>
<asrwt>0</asrwt>
<pdfrwt beam="1">  1       21 0.24661528E+00 0.11237840E+04</pdfrwt>
<pdfrwt beam="2">  1       21 0.12423539E+00 0.11237840E+04</pdfrwt>
<totfact> 0.13816971E+01</totfact>
</mgrwt>
</event>
<event>
 8    1  0.7208583E-006  0.1044333E+04  0.7818608E-02  0.8738209E-01
         21   -1    0    0  503  502  0.00000000000E+00  0.00000000000E+00  0.48105152724E+03  0.48105152724E+03  0.00000000000E+00 0.  1.
         21   -1    0    0  501  503 -0.00000000000E+00 -0.00000000000E+00 -0.23723962276E+04  0.23723962276E+04  0.00000000000E+00 0.  1.
    9000010    2    1    2  501    0 -0.21977192553E+03  0.75988961984E+02 -0.12909730275E+04  0.16488411227E+04  0.99899532967E+03 0.  0.
   -9000010    2    1    2    0  502  0.21977192553E+03 -0.75988961984E+02 -0.60037167283E+03  0.12046066321E+04  0.10181144193E+04 0.  0.
        -13    1    3    3    0    0 -0.15199423913E+03 -0.43957554442E+03 -0.84160997287E+03  0.96158008797E+03  0.10566000000E+00 0.  1.
          4    1    3    3  501    0 -0.67777686395E+02  0.51556450641E+03 -0.44936305463E+03  0.68726103477E+03  0.00000000000E+00 0.  1.
         13    1    4    4    0    0  0.12220841157E+03 -0.19396588373E+03 -0.86719344437E+03  0.89698502832E+03  0.10566000000E+00 0. -1.
         -4    1    4    4    0  502  0.97563513955E+02  0.11797692175E+03  0.26682177154E+03  0.30762160374E+03  0.00000000000E+00 0. -1.
<mgrwt>
<rscale>  2 0.10396437E+04</rscale>
<asrwt>0</asrwt>
<pdfrwt beam="1">  1       21 0.74007929E-01 0.10443328E+04</pdfrwt>
<pdfrwt beam="2">  1       21 0.36498403E+00 0.10443328E+04</pdfrwt>
<totfact> 0.78297462E+00</totfact>
</mgrwt>
</event>
<event>
 8    1  0.7208583E-006  0.1027108E+04  0.7818608E-02  0.8752330E-01
         21   -1    0    0  503  502  0.00000000000E+00  0.00000000000E+00  0.76316950483E+03  0.76316950483E+03  0.00000000000E+00 0.  1.
         21   -1    0    0  501  503 -0.00000000000E+00 -0.00000000000E+00 -0.17681068699E+04  0.17681068699E+04  0.00000000000E+00 0.  1.
    9000010    2    1    2  501    0  0.94464716709E+02 -0.17311026201E+03 -0.11084159448E+04  0.15111373054E+04  0.10079976705E+04 0.  0.
   -9000010    2    1    2    0  502 -0.94464716709E+02  0.17311026201E+03  0.10347857969E+03  0.10201390693E+04  0.99553260055E+03 0.  0.
        -13    1    3    3    0    0  0.82575991862E+02 -0.14812008880E+03 -0.13033058401E+04  0.13142923872E+04  0.10566000000E+00 0.  1.
          4    1    3    3  501    0  0.11888724846E+02 -0.24990173207E+02  0.19488989530E+03  0.19684491821E+03  0.00000000000E+00 0.  1.
         13    1    4    4    0    0 -0.52512671256E+03  0.24229288858E+03  0.45434069368E+02  0.58011048424E+03  0.10566000000E+00 0. -1.
         -4    1    4    4    0  502  0.43066199586E+03 -0.69182626578E+02  0.58044510326E+02  0.44002858506E+03  0.00000000000E+00 0. -1.
<mgrwt>
<rscale>  2 0.10240363E+04</rscale>
<asrwt>0</asrwt>
<pdfrwt beam="1">  1       21 0.11741069E+00 0.10271076E+04</pdfrwt>
<pdfrwt beam="2">  1       21 0.27201644E+00 0.10271076E+04</pdfrwt>
<totfact> 0.10845467E+01</totfact>
</mgrwt>
</event>
<event>
 8    1  0.7208583E-006  0.1006643E+04  0.7818608E-02  0.8771805E-01
         21   -1    0    0  501  502  0.00000000000E+00  0.00000000000E+00  0.12187368410E+04  0.12187368410E+04  0.00000000000E+00 0. -1.
         21   -1    0    0  502  503 -0.00000000000E+00 -0.00000000000E+00 -0.87837151096E+03  0.87837151096E+03  0.00000000000E+00 0. -1.
    9000010    2    1    2  501    0  0.38225222957E+02 -0.32844633282E+02  0.44293793468E+03  0.10997837576E+04  0.10053807049E+04 0.  0.
   -9000010    2    1    2    0  503 -0.38225222957E+02  0.32844633282E+02 -0.10257260462E+03  0.99732459440E+03  0.99075489894E+03 0.  0.
        -13    1    3    3    0    0 -0.28224381875E+03  0.25264886599E+03 -0.11498953621E+03  0.39587324652E+03  0.10566000000E+00 0.  1.
          4    1    3    3  501    0  0.32046904170E+03 -0.28549349927E+03  0.55792747089E+03  0.70391051107E+03  0.00000000000E+00 0.  1.
         13    1    4    4    0    0 -0.39153411050E+03  0.34208394245E+03 -0.17956752192E+02  0.52023344710E+03  0.10566000000E+00 0. -1.
         -4    1    4    4    0  503  0.35330888754E+03 -0.30923930917E+03 -0.84615852428E+02  0.47709114730E+03  0.00000000000E+00 0. -1.
<mgrwt>
<rscale>  2 0.10029712E+04</rscale>
<asrwt>0</asrwt>
<pdfrwt beam="1">  1       21 0.18749798E+00 0.10066431E+04</pdfrwt>
<pdfrwt beam="2">  1       21 0.13513408E+00 0.10066431E+04</pdfrwt>
<totfact> 0.31308457E+01</totfact>
</mgrwt>
</event>
<event>
 8    1  0.7208583E-006  0.1082651E+04  0.7818608E-02  0.8701371E-01
         21   -1    0    0  501  502  0.00000000000E+00  0.00000000000E+00  0.12231753288E+04  0.12231753288E+04  0.00000000000E+00 0. -1.
         21   -1    0    0  502  503 -0.00000000000E+00 -0.00000000000E+00 -0.13741337574E+04  0.13741337574E+04  0.00000000000E+00 0. -1.
    9000010    2    1    2  501    0  0.13089433324E+03 -0.37033545896E+03  0.64180046205E+03  0.12554448181E+04  0.10049637702E+04 0.  0.
   -9000010    2    1    2    0  503 -0.13089433324E+03  0.37033545896E+03 -0.79275889075E+03  0.13418642681E+04  0.10088862060E+04 0.  0.
        -13    1    3    3    0    0 -0.13570115898E+03 -0.25415986882E+03  0.85018750221E+03  0.89768081384E+03  0.10566000000E+00 0.  1.
          4    1    3    3  501    0  0.26659549221E+03 -0.11617559014E+03 -0.20838704015E+03  0.35776400422E+03  0.00000000000E+00 0.  1.
         13    1    4    4    0    0 -0.10536494911E+03  0.16814381757E+03  0.22725325356E+03  0.30169217475E+03  0.10566000000E+00 0. -1.
         -4    1    4    4    0  503 -0.25529384126E+02  0.20219164139E+03 -0.10200121443E+04  0.10401720934E+04  0.00000000000E+00 0. -1.
<mgrwt>
<rscale>  2 0.10817362E+04</rscale>
<asrwt>0</asrwt>
<pdfrwt beam="1">  1       21 0.18818082E+00 0.10826509E+04</pdfrwt>
<pdfrwt beam="2">  1       21 0.21140519E+00 0.10826509E+04</pdfrwt>
<totfact> 0.69687175E+00</totfact>
</mgrwt>
</event>
<event>
 8    1  0.7208583E-006  0.1054776E+04  0.7818608E-02  0.8731100E-01
         21   -1    0    0  503  502  0.00000000000E+00  0.00000000000E+00  0.14053179431E+04  0.14053179431E+04  0.00000000000E+00 0. -1.
         21   -1    0    0  501  503 -0.00000000000E+00 -0.00000000000E+00 -0.79741560450E+03  0.79741560450E+03  0.00000000000E+00 0. -1.
    9000010    2    1    2  501    0 -0.21583788826E+02  0.25028663582E+03  0.50220027193E+03  0.11426745784E+04  0.99518381162E+03 0.  0.
   -9000010    2    1    2    0  502  0.21583788826E+02 -0.25028663582E+03  0.10570206668E+03  0.10600589692E+04  0.10244231701E+04 0.  0.
        -13    1    3    3    0    0  0.12606929738E+03  0.55415957982E+03  0.39405790706E+02  0.56968336394E+03  0.10566000000E+00 0.  1.
          4    1    3    3  501    0 -0.14765308620E+03 -0.30387294400E+03  0.46279448122E+03  0.57299121443E+03  0.00000000000E+00 0.  1.
         13    1    4    4    0    0  0.18429809363E+03 -0.37535118078E+03 -0.35959750056E+03  0.55151125991E+03  0.10566000000E+00 0. -1.
         -4    1    4    4    0  502 -0.16271430481E+03  0.12506454496E+03  0.46529956723E+03  0.50854770933E+03  0.00000000000E+00 0. -1.
<mgrwt>
<rscale>  2 0.10476096E+04</rscale>
<asrwt>0</asrwt>
<pdfrwt beam="1">  1       21 0.21620276E+00 0.10547758E+04</pdfrwt>
<pdfrwt beam="2">  1       21 0.12267932E+00 0.10547758E+04</pdfrwt>
<totfact> 0.24458662E+01</totfact>
</mgrwt>
</event>
<event>
 8    1  0.7208583E-006  0.1036161E+04  0.7818608E-02  0.8758045E-01
         21   -1    0    0  503  502  0.00000000000E+00  0.00000000000E+00  0.46732475066E+03  0.46732475066E+03  0.00000000000E+00 0. -1.
         21   -1    0    0  501  503 -0.00000000000E+00 -0.00000000000E+00 -0.24801641186E+04  0.24801641186E+04  0.00000000000E+00 0. -1.
    9000010    2    1    2  501    0 -0.19835437567E+03  0.21035540129E+03 -0.15195906561E+04  0.17999160541E+04  0.92029787934E+03 0.  0.
   -9000010    2    1    2    0  502  0.19835437567E+03 -0.21035540129E+03 -0.49324871189E+03  0.11475728151E+04  0.99500513621E+03 0.  0.
        -13    1    3    3    0    0 -0.14412310291E+03  0.13962492104E+03 -0.16388177429E+04  0.16510572955E+04  0.10566000000E+00 0.  1.
          4    1    3    3  501    0 -0.54231272761E+02  0.70730480251E+02  0.11922708685E+03  0.14885875863E+03  0.00000000000E+00 0.  1.
         13    1    4    4    0    0  0.19133733166E+03  0.35939978466E+03 -0.21319460709E+02  0.40771645818E+03  0.10566000000E+00 0. -1.
         -4    1    4    4    0  502  0.70170440033E+01 -0.56975518595E+03 -0.47192925118E+03  0.73985635696E+03  0.00000000000E+00 0. -1.
<mgrwt>
<rscale>  2 0.10177998E+04</rscale>
<asrwt>0</asrwt>
<pdfrwt beam="1">  1       21 0.71896114E-01 0.10361607E+04</pdfrwt>
<pdfrwt beam="2">  1       21 0.38156372E+00 0.10361607E+04</pdfrwt>
<totfact> 0.64302227E+00</totfact>
</mgrwt>
</event>
<event>
 8    1  0.7208583E-006  0.1098842E+04  0.7818608E-02  0.8696864E-01
         21   -1    0    0  503  502  0.00000000000E+00  0.00000000000E+00  0.96960564064E+03  0.96960564064E+03  0.00000000000E+00 0. -1.
         21   -1    0    0  501  503 -0.00000000000E+00 -0.00000000000E+00 -0.12068579295E+04  0.12068579295E+04  0.00000000000E+00 0. -1.
    9000010    2    1    2  501    0 -0.53086637577E+02 -0.30523323862E+03 -0.17265366272E+00  0.10523366611E+04  0.10056972196E+04 0.  0.
   -9000010    2    1    2    0  502  0.53086637577E+02  0.30523323862E+03 -0.23707963515E+03  0.11241269090E+04  0.10542623170E+04 0.  0.
        -13    1    3    3    0    0  0.35066271080E+03 -0.40617758001E+03 -0.22202164544E+03  0.58072212413E+03  0.10566000000E+00 0.  1.
          4    1    3    3  501    0 -0.40374934838E+03  0.10094434139E+03  0.22184899178E+03  0.47161453702E+03  0.00000000000E+00 0.  1.
         13    1    4    4    0    0 -0.32441542023E+02 -0.36979807821E+03  0.69755513945E+02  0.37771538913E+03  0.10566000000E+00 0. -1.
         -4    1    4    4    0  502  0.85528179600E+02  0.67503131683E+03 -0.30683514910E+03  0.74641151983E+03  0.00000000000E+00 0. -1.
<mgrwt>
<rscale>  2 0.10870267E+04</rscale>
<asrwt>0</asrwt>
<pdfrwt beam="1">  1       21 0.14917010E+00 0.10988424E+04</pdfrwt>
<pdfrwt beam="2">  1       21 0.18567045E+00 0.10988424E+04</pdfrwt>
<totfact> 0.23582779E+01</totfact>
</mgrwt>
</event>
<event>
 8    1  0.7208583E-006  0.1078598E+04  0.7818608E-02  0.8719040E-01
         21   -1    0    0  503  502  0.00000000000E+00  0.00000000000E+00  0.79523331932E+03  0.79523331932E+03  0.00000000000E+00 0. -1.
         21   -1    0    0  501  503 -0.00000000000E+00 -0.00000000000E+00 -0.16230264674E+04  0.16230264674E+04  0.00000000000E+00 0. -1.
    9000010    2    1    2  501    0  0.20051565448E+03 -0.34487750430E+03 -0.89984670198E+03  0.14046696281E+04  0.10021106008E+04 0.  0.
   -9000010    2    1    2    0  502 -0.20051565448E+03  0.34487750430E+03  0.72053553929E+02  0.10135901586E+04  0.92899207441E+03 0.  0.
        -13    1    3    3    0    0 -0.94674031704E+02 -0.21842097469E+03  0.16683402193E+03  0.29069657119E+03  0.10566000000E+00 0.  1.
          4    1    3    3  501    0  0.29518968618E+03 -0.12645652961E+03 -0.10666807239E+04  0.11139730569E+04  0.00000000000E+00 0.  1.
         13    1    4    4    0    0 -0.52330665473E+03  0.29825774144E+03  0.23800992922E+03  0.64765443933E+03  0.10566000000E+00 0. -1.
         -4    1    4    4    0  502  0.32279100026E+03  0.46619762856E+02 -0.16595637529E+03  0.36593571927E+03  0.00000000000E+00 0. -1.
<mgrwt>
<rscale>  2 0.10612926E+04</rscale>
<asrwt>0</asrwt>
<pdfrwt beam="1">  1       21 0.12234359E+00 0.10785976E+04</pdfrwt>
<pdfrwt beam="2">  1       21 0.24969638E+00 0.10785976E+04</pdfrwt>
<totfact> 0.13839109E+01</totfact>
</mgrwt>
</event>
<event>
 8    1  0.7208583E-006  0.1056602E+04  0.7818608E-02  0.8732979E-01
         21   -1    0    0  503  502  0.00000000000E+00  0.00000000000E+00  0.11637723534E+04  0.11637723534E+04  0.00000000000E+00 0. -1.
         21   -1    0    0  501  503 -0.00000000000E+00 -0.00000000000E+00 -0.15018091946E+04  0.15018091946E+04  0.00000000000E+00 0. -1.
    9000010    2    1    2  501    0  0.39412987849E+03  0.10394024456E+03 -0.99626106062E+03  0.14207254874E+04  0.92724477565E+03 0.  0.
   -9000010    2    1    2    0  502 -0.39412987849E+03 -0.10394024456E+03  0.65822421943E+03  0.12448560607E+04  0.97481565093E+03 0.  0.
        -13    1    3    3    0    0  0.54153045416E+03  0.38661412580E+03 -0.50596161919E+03  0.83589645669E+03  0.10566000000E+00 0.  1.
          4    1    3    3  501    0 -0.14740057568E+03 -0.28267388124E+03 -0.49029944144E+03  0.58482903067E+03  0.00000000000E+00 0.  1.
         13    1    4    4    0    0 -0.11157750897E+03 -0.45601788762E+03  0.28897369135E+02  0.47035829263E+03  0.10566000000E+00 0. -1.
         -4    1    4    4    0  502 -0.28255236952E+03  0.35207764306E+03  0.62932685030E+03  0.77449776808E+03  0.00000000000E+00 0. -1.
<mgrwt>
<rscale>  2 0.10454974E+04</rscale>
<asrwt>0</asrwt>
<pdfrwt beam="1">  1       21 0.17904190E+00 0.10566019E+04</pdfrwt>
<pdfrwt beam="2">  1       21 0.23104757E+00 0.10566019E+04</pdfrwt>
<totfact> 0.59159940E+00</totfact>
</mgrwt>
</event>
<event>
 8    1  0.7208583E-006  0.1123710E+04  0.7818608E-02  0.8687185E-01
         21   -1    0    0  501  502  0.00000000000E+00  0.00000000000E+00  0.12647586935E+04  0.12647586935E+04  0.00000000000E+00 0.  1.
         21   -1    0    0  502  503 -0.00000000000E+00 -0.00000000000E+00 -0.91848344297E+03  0.91848344297E+03  0.00000000000E+00 0.  1.
    9000010    2    1    2  501    0 -0.39655861052E+02  0.16981571764E+03  0.26012558522E+03  0.11534250170E+04  0.11100963852E+04 0.  0.
   -9000010    2    1    2    0  503  0.39655861052E+02 -0.16981571764E+03  0.86149665321E+02  0.10298171195E+04  0.10112821413E+04 0.  0.
        -13    1    3    3    0    0 -0.28038516951E+03 -0.35363354934E+03 -0.11524363696E+03  0.46578282227E+03  0.10566000000E+00 0.  1.
          4    1    3    3  501    0  0.24072930845E+03  0.52344926697E+03  0.37536922217E+03  0.68764219475E+03  0.00000000000E+00 0.  1.
         13    1    4    4    0    0  0.37676200775E+03  0.16772862899E+03  0.29702414410E+03  0.50823799230E+03  0.10566000000E+00 0. -1.
         -4    1    4    4    0  503 -0.33710614670E+03 -0.33754434663E+03 -0.21087447878E+03  0.52157912716E+03  0.00000000000E+00 0. -1.
<mgrwt>
<rscale>  2 0.10984984E+04</rscale>
<asrwt>0</asrwt>
<pdfrwt beam="1">  1       21 0.19457826E+00 0.11237099E+04</pdfrwt>
<pdfrwt beam="2">  1       21 0.14130514E+00 0.11237099E+04</pdfrwt>
<totfact> 0.23479958E+01</totfact>
</mgrwt>
</event>
<event>
 8    1  0.7208583E-006  0.1015090E+04  0.7818608E-02  0.8762430E-01
         21   -1    0    0  501  502  0.00000000000E+00  0.00000000000E+00  0.21454843186E+04  0.21454843186E+04  0.00000000000E+00 0.  1.
         21   -1    0    0  502  503 -0.00000000000E+00 -0.00000000000E+00 -0.51165254567E+03  0.51165254567E+03  0.00000000000E+00 0.  1.
    9000010    2    1    2  501    0  0.42196335846E+02 -0.16547830438E+02  0.11624895970E+04  0.15379538076E+04  0.10059152497E+04 0.  0.
   -9000010    2    1    2    0  503 -0.42196335846E+02  0.16547830438E+02  0.47134217595E+03  0.11191830567E+04  0.10140773669E+04 0.  0.
        -13    1    3    3    0    0 -0.42380873451E+03 -0.24298914845E+03  0.58298097390E+03  0.76060791266E+03  0.10566000000E+00 0.  1.
          4    1    3    3  501    0  0.46600507035E+03  0.22644131801E+03  0.57950862309E+03  0.77734589491E+03  0.00000000000E+00 0.  1.
         13    1    4    4    0    0  0.43296585216E+03 -0.16084325123E+03  0.39203951151E+03  0.60582585811E+03  0.10566000000E+00 0. -1.
         -4    1    4    4    0  503 -0.47516218801E+03  0.17739108167E+03  0.79302664431E+02  0.51335719860E+03  0.00000000000E+00 0. -1.
<mgrwt>
<rscale>  2 0.10130451E+04</rscale>
<asrwt>0</asrwt>
<pdfrwt beam="1">  1       21 0.33007451E+00 0.10150898E+04</pdfrwt>
<pdfrwt beam="2">  1       21 0.78715777E-01 0.10150898E+04</pdfrwt>
<totfact> 0.11939242E+01</totfact>
</mgrwt>
</event>
<event>
 8    1  0.7208583E-006  0.1013689E+04  0.7818608E-02  0.8770759E-01
         21   -1    0    0  501  502  0.00000000000E+00  0.00000000000E+00  0.69387041204E+03  0.69387041204E+03  0.00000000000E+00 0. -1.
         21   -1    0    0  502  503 -0.00000000000E+00 -0.00000000000E+00 -0.23914217566E+04  0.23914217566E+04  0.00000000000E+00 0. -1.
    9000010    2    1    2  501    0 -0.12338995179E+03  0.89984563023E+02  0.12158161085E+03  0.10209538033E+04  0.10021188944E+04 0.  0.
   -9000010    2    1    2    0  503  0.12338995179E+03 -0.89984563023E+02 -0.18191329554E+04  0.20643383654E+04  0.96380800756E+03 0.  0.
        -13    1    3    3    0    0 -0.53162717657E+03 -0.71358861056E+02  0.20481612385E+03  0.57416826599E+03  0.10566000000E+00 0.  1.
          4    1    3    3  501    0  0.40823722478E+03  0.16134342408E+03 -0.83234513006E+02  0.44678553730E+03  0.00000000000E+00 0.  1.
         13    1    4    4    0    0  0.40965326020E+03  0.14570040536E+03 -0.15400413651E+04  0.16002411752E+04  0.10566000000E+00 0. -1.
         -4    1    4    4    0  503 -0.28626330841E+03 -0.23568496838E+03 -0.27909159037E+03  0.46409719012E+03  0.00000000000E+00 0. -1.
<mgrwt>
<rscale>  2 0.10040890E+04</rscale>
<asrwt>0</asrwt>
<pdfrwt beam="1">  1       21 0.10674929E+00 0.10136886E+04</pdfrwt>
<pdfrwt beam="2">  1       21 0.36791104E+00 0.10136886E+04</pdfrwt>
<totfact> 0.29745184E+00</totfact>
</mgrwt>
</event>
<event>
 8    1  0.7208583E-006  0.1009591E+04  0.7818608E-02  0.8767024E-01
         21   -1    0    0  501  502  0.00000000000E+00  0.00000000000E+00  0.24889015659E+04  0.24889015659E+04  0.00000000000E+00 0. -1.
         21   -1    0    0  502  503 -0.00000000000E+00 -0.00000000000E+00 -0.46093497195E+03  0.46093497195E+03  0.00000000000E+00 0. -1.
    9000010    2    1    2  501    0 -0.16349207713E+03 -0.12447395804E+03  0.15206598363E+04  0.18252889333E+04  0.98845835856E+03 0.  0.
   -9000010    2    1    2    0  503  0.16349207713E+03  0.12447395804E+03  0.50730675768E+03  0.11245476046E+04  0.98235622010E+03 0.  0.
        -13    1    3    3    0    0 -0.39652050107E+03 -0.30357598531E+03  0.32923620097E+03  0.59814995931E+03  0.10566000000E+00 0.  1.
          4    1    3    3  501    0  0.23302842394E+03  0.17910202727E+03  0.11914236354E+04  0.12271389740E+04  0.00000000000E+00 0.  1.
         13    1    4    4    0    0 -0.18510246937E+03 -0.16041852230E+03 -0.17926518670E+03  0.30353425637E+03  0.10566000000E+00 0. -1.
         -4    1    4    4    0  503  0.34859454649E+03  0.28489248034E+03  0.68657194438E+03  0.82101334825E+03  0.00000000000E+00 0. -1.
<mgrwt>
<rscale>  2 0.10080939E+04</rscale>
<asrwt>0</asrwt>
<pdfrwt beam="1">  1       21 0.38290792E+00 0.10095907E+04</pdfrwt>
<pdfrwt beam="2">  1       21 0.70913074E-01 0.10095907E+04</pdfrwt>
<totfact> 0.65404707E+00</totfact>
</mgrwt>
</event>
<event>
 8    1  0.7208583E-006  0.1058640E+04  0.7818608E-02  0.8739105E-01
         21   -1    0    0  503  502  0.00000000000E+00  0.00000000000E+00  0.10053306241E+04  0.10053306241E+04  0.00000000000E+00 0. -1.
         21   -1    0    0  501  503 -0.00000000000E+00 -0.00000000000E+00 -0.10553574383E+04  0.10553574383E+04  0.00000000000E+00 0. -1.
    9000010    2    1    2  501    0 -0.61191282444E+01 -0.12978814792E+03 -0.16912743840E+03  0.99536940896E+03  0.97225190295E+03 0.  0.
   -9000010    2    1    2    0  502  0.61191282444E+01  0.12978814792E+03  0.11910062421E+03  0.10653186534E+04  0.10506362203E+04 0.  0.
        -13    1    3    3    0    0  0.17755385038E+03  0.11155092217E+03 -0.50261327643E+03  0.54459994017E+03  0.10566000000E+00 0.  1.
          4    1    3    3  501    0 -0.18367297863E+03 -0.24133907009E+03  0.33348583803E+03  0.45076946879E+03  0.00000000000E+00 0.  1.
         13    1    4    4    0    0  0.37556845858E+03  0.37955897386E+03  0.26499455648E+03  0.59610301782E+03  0.10566000000E+00 0. -1.
         -4    1    4    4    0  502 -0.36944933034E+03 -0.24977082594E+03 -0.14589393227E+03  0.46921563555E+03  0.00000000000E+00 0. -1.
<mgrwt>
<rscale>  2 0.10386446E+04</rscale>
<asrwt>0</asrwt>
<pdfrwt beam="1">  1       21 0.15466625E+00 0.10586401E+04</pdfrwt>
<pdfrwt beam="2">  1       21 0.16236268E+00 0.10586401E+04</pdfrwt>
<totfact> 0.33198065E+01</totfact>
</mgrwt>
</event>
<event>
 8    1  0.7208583E-006  0.1025515E+04  0.7818608E-02  0.8757477E-01
         21   -1    0    0  503  502  0.00000000000E+00  0.00000000000E+00  0.11496268844E+04  0.11496268844E+04  0.00000000000E+00 0. -1.
         21   -1    0    0  501  503 -0.00000000000E+00 -0.00000000000E+00 -0.91074749412E+03  0.91074749412E+03  0.00000000000E+00 0. -1.
    9000010    2    1    2  501    0  0.80813242825E+02  0.48107087699E+02 -0.37993151096E+02  0.99814140805E+03  0.99297417833E+03 0.  0.
   -9000010    2    1    2    0  502 -0.80813242825E+02 -0.48107087699E+02  0.27687254137E+03  0.10622329705E+04  0.10211931293E+04 0.  0.
        -13    1    3    3    0    0 -0.85190984121E+02  0.23068190491E+02 -0.49940142094E+03  0.50714044957E+03  0.10566000000E+00 0.  1.
          4    1    3    3  501    0  0.16600422695E+03  0.25038897208E+02  0.46140826985E+03  0.49100095847E+03  0.00000000000E+00 0.  1.
         13    1    4    4    0    0  0.31593951430E+03  0.30735522032E+03 -0.39710418979E+02  0.44256291834E+03  0.10566000000E+00 0. -1.
         -4    1    4    4    0  502 -0.39675275712E+03 -0.35546230802E+03  0.31658296034E+03  0.61967005211E+03  0.00000000000E+00 0. -1.
<mgrwt>
<rscale>  2 0.10184172E+04</rscale>
<asrwt>0</asrwt>
<pdfrwt beam="1">  1       21 0.17686567E+00 0.10255147E+04</pdfrwt>
<pdfrwt beam="2">  1       21 0.14011500E+00 0.10255147E+04</pdfrwt>
<totfact> 0.34162873E+01</totfact>
</mgrwt>
</event>
<event>
 8    1  0.7208583E-006  0.1086507E+04  0.7818608E-02  0.8700811E-01
         21   -1    0    0  501  502  0.00000000000E+00  0.00000000000E+00  0.76877054072E+03  0.76877054072E+03  0.00000000000E+00 0. -1.
         21   -1    0    0  502  503 -0.00000000000E+00 -0.00000000000E+00 -0.15942708910E+04  0.15942708910E+04  0.00000000000E+00 0. -1.
    9000010    2    1    2  501    0  0.40790248407E+03  0.84896261612E+02 -0.14818108828E+03  0.10965653603E+04  0.10034471300E+04 0.  0.
   -9000010    2    1    2    0  503 -0.40790248407E+03 -0.84896261612E+02 -0.67731926204E+03  0.12664760715E+04  0.98570200627E+03 0.  0.
        -13    1    3    3    0    0  0.54867380374E+03  0.42543398481E+03 -0.20454548283E+03  0.72379270793E+03  0.10566000000E+00 0.  1.
          4    1    3    3  501    0 -0.14077131967E+03 -0.34053772320E+03  0.56364394548E+02  0.37277265234E+03  0.00000000000E+00 0.  1.
         13    1    4    4    0    0 -0.56694398046E+02 -0.42378302519E+03 -0.64954967673E+03  0.77763815551E+03  0.10566000000E+00 0. -1.
         -4    1    4    4    0  503 -0.35120808603E+03  0.33888676358E+03 -0.27769585307E+02  0.48883791597E+03  0.00000000000E+00 0. -1.
<mgrwt>
<rscale>  2 0.10823922E+04</rscale>
<asrwt>0</asrwt>
<pdfrwt beam="1">  1       21 0.11827239E+00 0.10865072E+04</pdfrwt>
<pdfrwt beam="2">  1       21 0.24527244E+00 0.10865072E+04</pdfrwt>
<totfact> 0.16360139E+01</totfact>
</mgrwt>
</event>
<event>
 8    1  0.7208583E-006  0.1052420E+04  0.7818608E-02  0.8729177E-01
         21   -1    0    0  501  502  0.00000000000E+00  0.00000000000E+00  0.13216125569E+04  0.13216125569E+04  0.00000000000E+00 0.  1.
         21   -1    0    0  502  503 -0.00000000000E+00 -0.00000000000E+00 -0.85927133272E+03  0.85927133272E+03  0.00000000000E+00 0.  1.
    9000010    2    1    2  501    0 -0.66162403204E+02 -0.27548843925E+03  0.43460730735E+03  0.11386273740E+04  0.10135666932E+04 0.  0.
   -9000010    2    1    2    0  503  0.66162403204E+02  0.27548843925E+03  0.27733916861E+02  0.10422565156E+04  0.10026256183E+04 0.  0.
        -13    1    3    3    0    0 -0.38432822934E+02 -0.45753421484E+03  0.68693379710E+03  0.82625219660E+03  0.10566000000E+00 0.  1.
          4    1    3    3  501    0 -0.27729580269E+02  0.18204577559E+03 -0.25232648975E+03  0.31237517741E+03  0.00000000000E+00 0.  1.
         13    1    4    4    0    0 -0.36422107882E+03 -0.11311445111E+03 -0.18591805093E+03  0.42428458154E+03  0.10566000000E+00 0. -1.
         -4    1    4    4    0  503  0.43038348203E+03  0.38860289036E+03  0.21365196779E+03  0.61797193410E+03  0.00000000000E+00 0. -1.
<mgrwt>
<rscale>  2 0.10497773E+04</rscale>
<asrwt>0</asrwt>
<pdfrwt beam="1">  1       21 0.20332501E+00 0.10524204E+04</pdfrwt>
<pdfrwt beam="2">  1       21 0.13219559E+00 0.10524204E+04</pdfrwt>
<totfact> 0.24795993E+01</totfact>
</mgrwt>
</event>
<event>
 8    1  0.7208583E-006  0.1158057E+04  0.7818608E-02  0.8644722E-01
         21   -1    0    0  501  502  0.00000000000E+00  0.00000000000E+00  0.66831303508E+03  0.66831303508E+03  0.00000000000E+00 0.  1.
         21   -1    0    0  502  503 -0.00000000000E+00 -0.00000000000E+00 -0.28374972012E+04  0.28374972012E+04  0.00000000000E+00 0. -1.
    9000010    2    1    2  501    0  0.43596217027E+03  0.35499915729E+03 -0.97862716011E+02  0.11327386428E+04  0.97848469898E+03 0.  0.
   -9000010    2    1    2    0  503 -0.43596217027E+03 -0.35499915729E+03 -0.20713214501E+04  0.23730715935E+04  0.10124271937E+04 0.  0.
        -13    1    3    3    0    0 -0.12023026797E+02 -0.20206521797E+03 -0.32481452005E+03  0.38272625869E+03  0.10566000000E+00 0.  1.
          4    1    3    3  501    0  0.44798519706E+03  0.55706437526E+03  0.22695180404E+03  0.75001238412E+03  0.00000000000E+00 0.  1.
         13    1    4    4    0    0 -0.19635174669E+03 -0.63946893492E+03 -0.17771057608E+04  0.18988363340E+04  0.10566000000E+00 0. -1.
         -4    1    4    4    0  503 -0.23961042358E+03  0.28446977764E+03 -0.29421568931E+03  0.47423525946E+03  0.00000000000E+00 0. -1.
<mgrwt>
<rscale>  2 0.11505969E+04</rscale>
<asrwt>0</asrwt>
<pdfrwt beam="1">  1       21 0.10281739E+00 0.11580571E+04</pdfrwt>
<pdfrwt beam="2">  1       21 0.43653803E+00 0.11580571E+04</pdfrwt>
<totfact> 0.10608508E+00</totfact>
</mgrwt>
</event>
<event>
 8    1  0.7208583E-006  0.1009605E+04  0.7818608E-02  0.8769939E-01
         21   -1    0    0  503  502  0.00000000000E+00  0.00000000000E+00  0.57986103250E+03  0.57986103250E+03  0.00000000000E+00 0. -1.
         21   -1    0    0  501  503 -0.00000000000E+00 -0.00000000000E+00 -0.18157366332E+04  0.18157366332E+04  0.00000000000E+00 0. -1.
    9000010    2    1    2  501    0  0.18221311231E+03  0.51241422484E+02 -0.87894240978E+03  0.13247555766E+04  0.97293898898E+03 0.  0.
   -9000010    2    1    2    0  502 -0.18221311231E+03 -0.51241422484E+02 -0.35693319090E+03  0.10708420891E+04  0.99170266480E+03 0.  0.
        -13    1    3    3    0    0 -0.34699725611E+03 -0.14313386241E+02 -0.67522404142E+02  0.35379549884E+03  0.10566000000E+00 0.  1.
          4    1    3    3  501    0  0.52921036842E+03  0.65554808726E+02 -0.81142000564E+03  0.97096007773E+03  0.00000000000E+00 0.  1.
         13    1    4    4    0    0  0.23230111974E+03  0.24170093884E+03 -0.44348732632E+03  0.55593540437E+03  0.10566000000E+00 0. -1.
         -4    1    4    4    0  502 -0.41451423205E+03 -0.29294236132E+03  0.86554135418E+02  0.51490668473E+03  0.00000000000E+00 0. -1.
<mgrwt>
<rscale>  2 0.10049666E+04</rscale>
<asrwt>0</asrwt>
<pdfrwt beam="1">  1       21 0.89209392E-01 0.10096046E+04</pdfrwt>
<pdfrwt beam="2">  1       21 0.27934409E+00 0.10096046E+04</pdfrwt>
<totfact> 0.19948467E+01</totfact>
</mgrwt>
</event>
<event>
 8    1  0.7208583E-006  0.1043107E+04  0.7818608E-02  0.8742833E-01
         21   -1    0    0  503  502  0.00000000000E+00  0.00000000000E+00  0.18077847871E+04  0.18077847871E+04  0.00000000000E+00 0.  1.
         21   -1    0    0  501  503 -0.00000000000E+00 -0.00000000000E+00 -0.68145909673E+03  0.68145909673E+03  0.00000000000E+00 0.  1.
    9000010    2    1    2  501    0 -0.10522878395E+03  0.16419085032E+02  0.80773881981E+02  0.10123380837E+04  0.10034746097E+04 0.  0.
   -9000010    2    1    2    0  502  0.10522878395E+03 -0.16419085032E+02  0.10455518084E+04  0.14769058001E+04  0.10376557595E+04 0.  0.
        -13    1    3    3    0    0  0.34572827039E+03 -0.25347411976E+03  0.20059118125E+03  0.47330117208E+03  0.10566000000E+00 0.  1.
          4    1    3    3  501    0 -0.45095705434E+03  0.26989320479E+03 -0.11981729927E+03  0.53903691159E+03  0.00000000000E+00 0.  1.
         13    1    4    4    0    0 -0.29037660043E+03 -0.38185344676E+03  0.33408575399E+03  0.58458868194E+03  0.10566000000E+00 0. -1.
         -4    1    4    4    0  502  0.39560538438E+03  0.36543436173E+03  0.71146605439E+03  0.89231711820E+03  0.00000000000E+00 0. -1.
<mgrwt>
<rscale>  2 0.10345020E+04</rscale>
<asrwt>0</asrwt>
<pdfrwt beam="1">  1       21 0.27812074E+00 0.10431070E+04</pdfrwt>
<pdfrwt beam="2">  1       21 0.10483986E+00 0.10431070E+04</pdfrwt>
<totfact> 0.13293823E+01</totfact>
</mgrwt>
</event>
<event>
 8    1  0.7208583E-006  0.1093280E+04  0.7818608E-02  0.8693442E-01
         21   -1    0    0  501  502  0.00000000000E+00  0.00000000000E+00  0.73343489311E+03  0.73343489311E+03  0.00000000000E+00 0. -1.
         21   -1    0    0  502  503 -0.00000000000E+00 -0.00000000000E+00 -0.19431820009E+04  0.19431820009E+04  0.00000000000E+00 0.  1.
    9000010    2    1    2  501    0 -0.35464772677E+03  0.25436504369E+03 -0.58220508862E+02  0.10948288418E+04  0.10023891358E+04 0.  0.
   -9000010    2    1    2    0  503  0.35464772677E+03 -0.25436504369E+03 -0.11515265989E+04  0.15817880522E+04  0.99275543242E+03 0.  0.
        -13    1    3    3    0    0 -0.45368841888E+03  0.58420086235E+03  0.26586379339E+02  0.74015584557E+03  0.10566000000E+00 0.  1.
          4    1    3    3  501    0  0.99040692109E+02 -0.32983581866E+03 -0.84806888201E+02  0.35467299622E+03  0.00000000000E+00 0.  1.
         13    1    4    4    0    0 -0.31141923116E+03  0.75525541684E+02 -0.21386474850E+03  0.38525859730E+03  0.10566000000E+00 0. -1.
         -4    1    4    4    0  503  0.66606695793E+03 -0.32989058537E+03 -0.93766185044E+03  0.11965294549E+04  0.00000000000E+00 0. -1.
<mgrwt>
<rscale>  2 0.10910665E+04</rscale>
<asrwt>0</asrwt>
<pdfrwt beam="1">  1       21 0.11283614E+00 0.10932797E+04</pdfrwt>
<pdfrwt beam="2">  1       21 0.29895108E+00 0.10932797E+04</pdfrwt>
<totfact> 0.76677680E+00</totfact>
</mgrwt>
</event>
<event>
 8    1  0.7208583E-006  0.1034282E+04  0.7818608E-02  0.8746523E-01
         21   -1    0    0  501  502  0.00000000000E+00  0.00000000000E+00  0.17425467708E+04  0.17425467708E+04  0.00000000000E+00 0.  1.
         21   -1    0    0  502  503 -0.00000000000E+00 -0.00000000000E+00 -0.76492730579E+03  0.76492730579E+03  0.00000000000E+00 0.  1.
    9000010    2    1    2  501    0  0.22640672328E+03 -0.64134825714E+02  0.10595121609E+04  0.14699547514E+04  0.99137665492E+03 0.  0.
   -9000010    2    1    2    0  503 -0.22640672328E+03  0.64134825714E+02 -0.81892695824E+02  0.10375193252E+04  0.10071577118E+04 0.  0.
        -13    1    3    3    0    0 -0.13419682923E+03  0.20666617589E+03 -0.67981737587E+02  0.25561929708E+03  0.10566000000E+00 0.  1.
          4    1    3    3  501    0  0.36060355250E+03 -0.27080100160E+03  0.11274938985E+04  0.12143354543E+04  0.00000000000E+00 0.  1.
         13    1    4    4    0    0  0.22432346420E+03 -0.14117593580E+03  0.30860751054E+03  0.40680495101E+03  0.10566000000E+00 0. -1.
         -4    1    4    4    0  503 -0.45073018747E+03  0.20531076152E+03 -0.39050020636E+03  0.63071437423E+03  0.00000000000E+00 0. -1.
<mgrwt>
<rscale>  2 0.10304205E+04</rscale>
<asrwt>0</asrwt>
<pdfrwt beam="1">  1       21 0.26808412E+00 0.10342823E+04</pdfrwt>
<pdfrwt beam="2">  1       21 0.11768112E+00 0.10342823E+04</pdfrwt>
<totfact> 0.11479690E+01</totfact>
</mgrwt>
</event>
<event>
 8    1  0.7208583E-006  0.9979367E+03  0.7818608E-02  0.8786905E-01
         21   -1    0    0  501  502  0.00000000000E+00  0.00000000000E+00  0.17725007764E+04  0.17725007764E+04  0.00000000000E+00 0.  1.
         21   -1    0    0  502  503 -0.00000000000E+00 -0.00000000000E+00 -0.71435043512E+03  0.71435043512E+03  0.00000000000E+00 0.  1.
    9000010    2    1    2  501    0  0.76212031335E+02  0.23279249213E+02  0.11557648327E+04  0.15269806770E+04  0.99474993951E+03 0.  0.
   -9000010    2    1    2    0  503 -0.76212031335E+02 -0.23279249213E+02 -0.97614491445E+02  0.95987053454E+03  0.95156327008E+03 0.  0.
        -13    1    3    3    0    0  0.22109059064E+03  0.44925090519E+03  0.37393549014E+03  0.62492814549E+03  0.10566000000E+00 0.  1.
          4    1    3    3  501    0 -0.14487855930E+03 -0.42597165597E+03  0.78182934259E+03  0.90205253149E+03  0.00000000000E+00 0.  1.
         13    1    4    4    0    0 -0.83692337451E+02  0.25750170165E+03 -0.44023346479E+03  0.51683367575E+03  0.10566000000E+00 0. -1.
         -4    1    4    4    0  503  0.74803061159E+01 -0.28078095087E+03  0.34261897334E+03  0.44303685879E+03  0.00000000000E+00 0. -1.
<mgrwt>
<rscale>  2 0.98699750E+03</rscale>
<asrwt>0</asrwt>
<pdfrwt beam="1">  1       21 0.27269243E+00 0.99793669E+03</pdfrwt>
<pdfrwt beam="2">  1       21 0.10990007E+00 0.99793669E+03</pdfrwt>
<totfact> 0.12946070E+01</totfact>
</mgrwt>
</event>
<event>
 8    1  0.7208583E-006  0.1033350E+04  0.7818608E-02  0.8755216E-01
         21   -1    0    0  503  502  0.00000000000E+00  0.00000000000E+00  0.25500466432E+04  0.25500466432E+04  0.00000000000E+00 0. -1.
         21   -1    0    0  501  503 -0.00000000000E+00 -0.00000000000E+00 -0.41511231495E+03  0.41511231495E+03  0.00000000000E+00 0. -1.
    9000010    2    1    2  501    0 -0.12220250705E+03 -0.13149173218E+03  0.80154636164E+03  0.13077797367E+04  0.10176383157E+04 0.  0.
   -9000010    2    1    2    0  502  0.12220250705E+03  0.13149173218E+03  0.13333879666E+04  0.16573792214E+04  0.96786305113E+03 0.  0.
        -13    1    3    3    0    0 -0.41090073555E+03 -0.35193936857E+03  0.77286386608E+03  0.94340834228E+03  0.10566000000E+00 0.  1.
          4    1    3    3  501    0  0.28869822850E+03  0.22044763639E+03  0.28682495553E+02  0.36437139444E+03  0.00000000000E+00 0.  1.
         13    1    4    4    0    0 -0.18599849984E+02  0.20018537723E+03  0.14488690263E+04  0.14627513822E+04  0.10566000000E+00 0. -1.
         -4    1    4    4    0  502  0.14080235703E+03 -0.68693645050E+02 -0.11548105974E+03  0.19462783915E+03  0.00000000000E+00 0. -1.
<mgrwt>
<rscale>  2 0.10208805E+04</rscale>
<asrwt>0</asrwt>
<pdfrwt beam="1">  1       21 0.39231486E+00 0.10333495E+04</pdfrwt>
<pdfrwt beam="2">  1       21 0.63863434E-01 0.10333495E+04</pdfrwt>
<totfact> 0.71537410E+00</totfact>
</mgrwt>
</event>
<event>
 8    1  0.7208583E-006  0.1117703E+04  0.7818608E-02  0.8694651E-01
         21   -1    0    0  503  502  0.00000000000E+00  0.00000000000E+00  0.15654730952E+04  0.15654730952E+04  0.00000000000E+00 0.  1.
         21   -1    0    0  501  503 -0.00000000000E+00 -0.00000000000E+00 -0.77681135501E+03  0.77681135501E+03  0.00000000000E+00 0.  1.
    9000010    2    1    2  501    0  0.10525048542E+03 -0.76854242732E+02  0.72172688190E+03  0.13304698477E+04  0.11100793144E+04 0.  0.
   -9000010    2    1    2    0  502 -0.10525048542E+03  0.76854242732E+02  0.66934858260E+02  0.10118146024E+04  0.10011514746E+04 0.  0.
        -13    1    3    3    0    0  0.33648062512E+03 -0.49874029708E+03  0.56270749866E+03  0.82377232001E+03  0.10566000000E+00 0.  1.
          4    1    3    3  501    0 -0.23123013970E+03  0.42188605434E+03  0.15901938325E+03  0.50669752773E+03  0.00000000000E+00 0.  1.
         13    1    4    4    0    0 -0.11361400560E+03 -0.31245762011E+03  0.38524166355E+03  0.50887037361E+03  0.10566000000E+00 0. -1.
         -4    1    4    4    0  502  0.83635201796E+01  0.38931186284E+03 -0.31830680529E+03  0.50294422883E+03  0.00000000000E+00 0. -1.
<mgrwt>
<rscale>  2 0.10896374E+04</rscale>
<asrwt>0</asrwt>
<pdfrwt beam="1">  1       21 0.24084201E+00 0.11177031E+04</pdfrwt>
<pdfrwt beam="2">  1       21 0.11950944E+00 0.11177031E+04</pdfrwt>
<totfact> 0.17011441E+01</totfact>
</mgrwt>
</event>
<event>
 8    1  0.7208583E-006  0.1168688E+04  0.7818608E-02  0.8631073E-01
         21   -1    0    0  503  502  0.00000000000E+00  0.00000000000E+00  0.16977332061E+04  0.16977332061E+04  0.00000000000E+00 0.  1.
         21   -1    0    0  501  503 -0.00000000000E+00 -0.00000000000E+00 -0.10057385493E+04  0.10057385493E+04  0.00000000000E+00 0.  1.
    9000010    2    1    2  501    0  0.58095097417E+03 -0.15206398449E+03  0.95323065695E+03  0.15059422778E+04  0.99929273434E+03 0.  0.
   -9000010    2    1    2    0  502 -0.58095097417E+03  0.15206398449E+03 -0.26123600020E+03  0.11975294776E+04  0.10025991782E+04 0.  0.
        -13    1    3    3    0    0 -0.18575490073E+03  0.23042027317E+03  0.34846390946E+03  0.45719305856E+03  0.10566000000E+00 0.  1.
          4    1    3    3  501    0  0.76670587490E+03 -0.38248425766E+03  0.60476674749E+03  0.10487492192E+04  0.00000000000E+00 0.  1.
         13    1    4    4    0    0  0.28409375050E+03  0.10306766902E+03 -0.62958432133E+02  0.30870046779E+03  0.10566000000E+00 0. -1.
         -4    1    4    4    0  502 -0.86504472468E+03  0.48996315471E+02 -0.19827756807E+03  0.88882900977E+03  0.00000000000E+00 0. -1.
<mgrwt>
<rscale>  2 0.11679789E+04</rscale>
<asrwt>0</asrwt>
<pdfrwt beam="1">  1       21 0.26118972E+00 0.11686884E+04</pdfrwt>
<pdfrwt beam="2">  1       21 0.15472901E+00 0.11686884E+04</pdfrwt>
<totfact> 0.55767251E+00</totfact>
</mgrwt>
</event>
<event>
 8    1  0.7208583E-006  0.1247330E+04  0.7818608E-02  0.8578763E-01
         21   -1    0    0  503  502  0.00000000000E+00  0.00000000000E+00  0.16083125656E+04  0.16083125656E+04  0.00000000000E+00 0. -1.
         21   -1    0    0  501  503 -0.00000000000E+00 -0.00000000000E+00 -0.11137953744E+04  0.11137953744E+04  0.00000000000E+00 0. -1.
    9000010    2    1    2  501    0 -0.60031662253E+03  0.35129260731E+03 -0.29695540918E+03  0.12448602999E+04  0.98879123579E+03 0.  0.
   -9000010    2    1    2    0  502  0.60031662253E+03 -0.35129260731E+03  0.79147260034E+03  0.14772476401E+04  0.10353961416E+04 0.  0.
        -13    1    3    3    0    0 -0.40837930987E+03 -0.30919242530E+03 -0.20161927217E+03  0.55047611998E+03  0.10566000000E+00 0.  1.
          4    1    3    3  501    0 -0.19193731266E+03  0.66048503261E+03 -0.95336137019E+02  0.69438417992E+03  0.00000000000E+00 0.  1.
         13    1    4    4    0    0 -0.15415013088E+03  0.17477548129E+03 -0.41083435002E+02  0.23663598945E+03  0.10566000000E+00 0. -1.
         -4    1    4    4    0  502  0.75446675340E+03 -0.52606808860E+03  0.83255603535E+03  0.12406116507E+04  0.00000000000E+00 0. -1.
<mgrwt>
<rscale>  2 0.12376152E+04</rscale>
<asrwt>0</asrwt>
<pdfrwt beam="1">  1       21 0.24743270E+00 0.12473298E+04</pdfrwt>
<pdfrwt beam="2">  1       21 0.17135314E+00 0.12473298E+04</pdfrwt>
<totfact> 0.49715153E+00</totfact>
</mgrwt>
</event>
<event>
 8    1  0.7208583E-006  0.1007871E+04  0.7818608E-02  0.8770954E-01
         21   -1    0    0  501  502  0.00000000000E+00  0.00000000000E+00  0.11346658446E+04  0.11346658446E+04  0.00000000000E+00 0. -1.
         21   -1    0    0  502  503 -0.00000000000E+00 -0.00000000000E+00 -0.98408312501E+03  0.98408312501E+03  0.00000000000E+00 0. -1.
    9000010    2    1    2  501    0 -0.14582141049E+03  0.22266930440E+02 -0.26668800563E+03  0.10425572305E+04  0.99701724483E+03 0.  0.
   -9000010    2    1    2    0  503  0.14582141049E+03 -0.22266930440E+02  0.41727072523E+03  0.10761917392E+04  0.98097609622E+03 0.  0.
        -13    1    3    3    0    0  0.28276832435E+03  0.37779342622E+02  0.24419785595E+03  0.37552337876E+03  0.10566000000E+00 0.  1.
          4    1    3    3  501    0 -0.42858973484E+03 -0.15512412183E+02 -0.51088586158E+03  0.66703385170E+03  0.00000000000E+00 0.  1.
         13    1    4    4    0    0 -0.25037343100E+03  0.31173279510E+03  0.38804328693E+03  0.55717303792E+03  0.10566000000E+00 0. -1.
         -4    1    4    4    0  503  0.39619484149E+03 -0.33399972554E+03  0.29227438298E+02  0.51901870124E+03  0.00000000000E+00 0. -1.
<mgrwt>
<rscale>  2 0.10038805E+04</rscale>
<asrwt>0</asrwt>
<pdfrwt beam="1">  1       21 0.17456398E+00 0.10078706E+04</pdfrwt>
<pdfrwt beam="2">  1       21 0.15139740E+00 0.10078706E+04</pdfrwt>
<totfact> 0.28324438E+01</totfact>
</mgrwt>
</event>
<event>
 8    1  0.7208583E-006  0.1072537E+04  0.7818608E-02  0.8742612E-01
         21   -1    0    0  501  502  0.00000000000E+00  0.00000000000E+00  0.61405165968E+03  0.61405165968E+03  0.00000000000E+00 0.  1.
         21   -1    0    0  502  503 -0.00000000000E+00 -0.00000000000E+00 -0.20215063676E+04  0.20215063676E+04  0.00000000000E+00 0.  1.
    9000010    2    1    2  501    0 -0.20854698769E+03 -0.27707475660E+03 -0.85308428525E+02  0.93308759071E+03  0.86203982341E+03 0.  0.
   -9000010    2    1    2    0  503  0.20854698769E+03  0.27707475660E+03 -0.13221462794E+04  0.17024704365E+04  0.10149248920E+04 0.  0.
        -13    1    3    3    0    0  0.49116670026E+02 -0.30967418025E+03  0.32237363276E+03  0.44970580989E+03  0.10566000000E+00 0.  1.
          4    1    3    3  501    0 -0.25766365772E+03  0.32599423654E+02 -0.40768206129E+03  0.48338178082E+03  0.00000000000E+00 0.  1.
         13    1    4    4    0    0 -0.36462509988E+03  0.24504439198E+01 -0.80269437373E+03  0.88163242733E+03  0.10566000000E+00 0. -1.
         -4    1    4    4    0  503  0.57317208757E+03  0.27462431268E+03 -0.51945190563E+03  0.82083800920E+03  0.00000000000E+00 0. -1.
<mgrwt>
<rscale>  2 0.10347466E+04</rscale>
<asrwt>0</asrwt>
<pdfrwt beam="1">  1       21 0.94469487E-01 0.10725366E+04</pdfrwt>
<pdfrwt beam="2">  1       21 0.31100098E+00 0.10725366E+04</pdfrwt>
<totfact> 0.10136157E+01</totfact>
</mgrwt>
</event>
<event>
 8    1  0.7208583E-006  0.1208566E+04  0.7818608E-02  0.8602194E-01
         21   -1    0    0  503  502  0.00000000000E+00  0.00000000000E+00  0.20100994844E+04  0.20100994844E+04  0.00000000000E+00 0. -1.
         21   -1    0    0  501  503 -0.00000000000E+00 -0.00000000000E+00 -0.75309230364E+03  0.75309230364E+03  0.00000000000E+00 0. -1.
    9000010    2    1    2  501    0  0.58228416632E+03  0.27446012797E+03  0.34195484168E+03  0.12560118939E+04  0.10228634081E+04 0.  0.
   -9000010    2    1    2    0  502 -0.58228416632E+03 -0.27446012797E+03  0.91505233911E+03  0.15071798942E+04  0.10098946667E+04 0.  0.
        -13    1    3    3    0    0  0.61976936100E+03 -0.26049172059E+03  0.18704112301E+03  0.69782117350E+03  0.10566000000E+00 0.  1.
          4    1    3    3  501    0 -0.37485194675E+02  0.53495184856E+03  0.15491371867E+03  0.55819072039E+03  0.00000000000E+00 0.  1.
         13    1    4    4    0    0 -0.61443608242E+03  0.15995783045E+03  0.19246373874E+03  0.66344593510E+03  0.10566000000E+00 0. -1.
         -4    1    4    4    0  502  0.32151916099E+02 -0.43441795842E+03  0.72258860037E+03  0.84373395907E+03  0.00000000000E+00 0. -1.
<mgrwt>
<rscale>  2 0.12058180E+04</rscale>
<asrwt>0</asrwt>
<pdfrwt beam="1">  1       21 0.30924607E+00 0.12085664E+04</pdfrwt>
<pdfrwt beam="2">  1       21 0.11586035E+00 0.12085664E+04</pdfrwt>
<totfact> 0.58820430E+00</totfact>
</mgrwt>
</event>
<event>
 8    1  0.7208583E-006  0.9855081E+03  0.7818608E-02  0.8790652E-01
         21   -1    0    0  503  502  0.00000000000E+00  0.00000000000E+00  0.11930520080E+04  0.11930520080E+04  0.00000000000E+00 0. -1.
         21   -1    0    0  501  503 -0.00000000000E+00 -0.00000000000E+00 -0.83287982314E+03  0.83287982314E+03  0.00000000000E+00 0. -1.
    9000010    2    1    2  501    0 -0.11746006039E+03  0.85444940219E+02 -0.24150819490E+01  0.97583861223E+03  0.96496500501E+03 0.  0.
   -9000010    2    1    2    0  502  0.11746006039E+03 -0.85444940219E+02  0.36258726682E+03  0.10500932189E+04  0.97474537124E+03 0.  0.
        -13    1    3    3    0    0 -0.17314843312E+03  0.45466859714E+03 -0.23042213597E+03  0.53832916048E+03  0.10566000000E+00 0.  1.
          4    1    3    3  501    0  0.55688372729E+02 -0.36922365692E+03  0.22800705402E+03  0.43750945175E+03  0.00000000000E+00 0.  1.
         13    1    4    4    0    0 -0.80001775205E+02  0.34020970937E+03 -0.12710119256E+03  0.37188392638E+03  0.10566000000E+00 0. -1.
         -4    1    4    4    0  502  0.19746183559E+03 -0.42565464959E+03  0.48968845938E+03  0.67820929254E+03  0.00000000000E+00 0. -1.
<mgrwt>
<rscale>  2 0.98308104E+03</rscale>
<asrwt>0</asrwt>
<pdfrwt beam="1">  1       21 0.18354646E+00 0.98550811E+03</pdfrwt>
<pdfrwt beam="2">  1       21 0.12813536E+00 0.98550811E+03</pdfrwt>
<totfact> 0.39496799E+01</totfact>
</mgrwt>
</event>
<event>
 8    1  0.7208583E-006  0.9921452E+03  0.7818608E-02  0.8827317E-01
         21   -1    0    0  501  502  0.00000000000E+00  0.00000000000E+00  0.17233815890E+04  0.17233815890E+04  0.00000000000E+00 0.  1.
         21   -1    0    0  502  503 -0.00000000000E+00 -0.00000000000E+00 -0.13927548099E+04  0.13927548099E+04  0.00000000000E+00 0.  1.
    9000010    2    1    2  501    0 -0.20683123411E+02  0.64493765088E+01  0.14220875853E+04  0.16411317132E+04  0.81884724675E+03 0.  0.
   -9000010    2    1    2    0  503  0.20683123411E+02 -0.64493765088E+01 -0.10914608062E+04  0.14750046857E+04  0.99190863760E+03 0.  0.
        -13    1    3    3    0    0 -0.20214140175E+03  0.36300102030E+03  0.80093397305E+03  0.90228938118E+03  0.10566000000E+00 0.  1.
          4    1    3    3  501    0  0.18145827834E+03 -0.35655164379E+03  0.62115361228E+03  0.73884233197E+03  0.00000000000E+00 0.  1.
         13    1    4    4    0    0  0.45205958186E+03 -0.16430356974E+03 -0.32187860139E+03  0.57875674837E+03  0.10566000000E+00 0. -1.
         -4    1    4    4    0  503 -0.43137645845E+03  0.15785419323E+03 -0.76958220483E+03  0.89624793735E+03  0.00000000000E+00 0. -1.
<mgrwt>
<rscale>  2 0.94573649E+03</rscale>
<asrwt>0</asrwt>
<pdfrwt beam="1">  1       21 0.26513563E+00 0.99214522E+03</pdfrwt>
<pdfrwt beam="2">  1       21 0.21426997E+00 0.99214522E+03</pdfrwt>
<totfact> 0.17936366E+00</totfact>
</mgrwt>
</event>
<event>
 8    1  0.7208583E-006  0.1086948E+04  0.7818608E-02  0.8719340E-01
         21   -1    0    0  503  502  0.00000000000E+00  0.00000000000E+00  0.73726103231E+03  0.73726103231E+03  0.00000000000E+00 0.  1.
         21   -1    0    0  501  503 -0.00000000000E+00 -0.00000000000E+00 -0.14738246444E+04  0.14738246444E+04  0.00000000000E+00 0.  1.
    9000010    2    1    2  501    0  0.12415138583E+03 -0.19119453876E+03 -0.23623067326E+03  0.10145119547E+04  0.95992742280E+03 0.  0.
   -9000010    2    1    2    0  502 -0.12415138583E+03  0.19119453876E+03 -0.50033293880E+03  0.11965737219E+04  0.10627731198E+04 0.  0.
        -13    1    3    3    0    0  0.21679321811E+03 -0.91134272640E+02 -0.59012363158E+03  0.63525637878E+03  0.10566000000E+00 0.  1.
          4    1    3    3  501    0 -0.92641832280E+02 -0.10006026612E+03  0.35389295832E+03  0.37925557595E+03  0.00000000000E+00 0.  1.
         13    1    4    4    0    0 -0.48221754527E+03  0.43218166770E+03 -0.36960155267E+03  0.74560047865E+03  0.10566000000E+00 0. -1.
         -4    1    4    4    0  502  0.35806615944E+03 -0.24098712894E+03 -0.13073138613E+03  0.45097324330E+03  0.00000000000E+00 0. -1.
<mgrwt>
<rscale>  2 0.10609492E+04</rscale>
<asrwt>0</asrwt>
<pdfrwt beam="1">  1       21 0.11342478E+00 0.10869478E+04</pdfrwt>
<pdfrwt beam="2">  1       21 0.22674225E+00 0.10869478E+04</pdfrwt>
<totfact> 0.25162830E+01</totfact>
</mgrwt>
</event>
<event>
 8    1  0.7208583E-006  0.1057000E+04  0.7818608E-02  0.8725487E-01
         21   -1    0    0  501  502  0.00000000000E+00  0.00000000000E+00  0.14611282762E+04  0.14611282762E+04  0.00000000000E+00 0. -1.
         21   -1    0    0  502  503 -0.00000000000E+00 -0.00000000000E+00 -0.76353337176E+03  0.76353337176E+03  0.00000000000E+00 0. -1.
    9000010    2    1    2  501    0  0.35773836559E+02 -0.26967807200E+03  0.45809281461E+03  0.11408676627E+04  0.10088230603E+04 0.  0.
   -9000010    2    1    2    0  503 -0.35773836559E+02  0.26967807200E+03  0.23950208980E+03  0.10837939853E+04  0.10213922467E+04 0.  0.
        -13    1    3    3    0    0  0.14483274000E+03  0.98877896479E+02  0.67645475955E+03  0.69881643789E+03  0.10566000000E+00 0.  1.
          4    1    3    3  501    0 -0.10905890344E+03 -0.36855596848E+03 -0.21836194494E+03  0.44205122477E+03  0.00000000000E+00 0.  1.
         13    1    4    4    0    0 -0.12112872614E+02  0.28109361283E+03 -0.37495435719E+03  0.46877619606E+03  0.10566000000E+00 0. -1.
         -4    1    4    4    0  503 -0.23660963945E+02 -0.11415540827E+02  0.61445644699E+03  0.61501778920E+03  0.00000000000E+00 0. -1.
<mgrwt>
<rscale>  2 0.10539512E+04</rscale>
<asrwt>0</asrwt>
<pdfrwt beam="1">  1       21 0.22478897E+00 0.10569996E+04</pdfrwt>
<pdfrwt beam="2">  1       21 0.11746667E+00 0.10569996E+04</pdfrwt>
<totfact> 0.23781793E+01</totfact>
</mgrwt>
</event>
<event>
 8    1  0.7208583E-006  0.9983384E+03  0.7818608E-02  0.8829293E-01
         21   -1    0    0  501  502  0.00000000000E+00  0.00000000000E+00  0.11878312035E+04  0.11878312035E+04  0.00000000000E+00 0.  1.
         21   -1    0    0  502  503 -0.00000000000E+00 -0.00000000000E+00 -0.72542148124E+03  0.72542148124E+03  0.00000000000E+00 0.  1.
    9000010    2    1    2  501    0 -0.82676454317E+02  0.54371228044E+02  0.44850568027E+03  0.91481751180E+03  0.79116503216E+03 0.  0.
   -9000010    2    1    2    0  503  0.82676454317E+02 -0.54371228044E+02  0.13904041956E+02  0.99843517290E+03  0.99342228965E+03 0.  0.
        -13    1    3    3    0    0  0.26260793655E+03 -0.19050262070E+03  0.35575645617E+03  0.48147361724E+03  0.10566000000E+00 0.  1.
          4    1    3    3  501    0 -0.34528439087E+03  0.24487384875E+03  0.92749224106E+02  0.43334389455E+03  0.00000000000E+00 0.  1.
         13    1    4    4    0    0  0.53653814624E+03 -0.83893572264E+02  0.22661727733E+02  0.54353001656E+03  0.10566000000E+00 0. -1.
         -4    1    4    4    0  503 -0.45386169192E+03  0.29522344220E+02 -0.87576857769E+01  0.45490515634E+03  0.00000000000E+00 0. -1.
<mgrwt>
<rscale>  2 0.94377338E+03</rscale>
<asrwt>0</asrwt>
<pdfrwt beam="1">  1       21 0.18274326E+00 0.99833836E+03</pdfrwt>
<pdfrwt beam="2">  1       21 0.11160330E+00 0.99833836E+03</pdfrwt>
<totfact> 0.58795221E+01</totfact>
</mgrwt>
</event>
<event>
 8    1  0.7208583E-006  0.1112114E+04  0.7818608E-02  0.8679454E-01
         21   -1    0    0  503  502  0.00000000000E+00  0.00000000000E+00  0.74107010074E+03  0.74107010074E+03  0.00000000000E+00 0. -1.
         21   -1    0    0  501  503 -0.00000000000E+00 -0.00000000000E+00 -0.18358946878E+04  0.18358946878E+04  0.00000000000E+00 0. -1.
    9000010    2    1    2  501    0  0.35133946896E+03  0.33599527899E+03 -0.96111646662E+03  0.14568421390E+04  0.98097497703E+03 0.  0.
   -9000010    2    1    2    0  502 -0.35133946896E+03 -0.33599527899E+03 -0.13370812047E+03  0.11201226496E+04  0.10002322924E+04 0.  0.
        -13    1    3    3    0    0 -0.54014484742E+02  0.34699856949E+03  0.61717417097E+02  0.35655942356E+03  0.10566000000E+00 0.  1.
          4    1    3    3  501    0  0.40535395370E+03 -0.11003290505E+02 -0.10228338837E+04  0.11002827154E+04  0.00000000000E+00 0.  1.
         13    1    4    4    0    0 -0.46952716081E+03 -0.38739819687E+03  0.29214774787E+03  0.67519140651E+03  0.10566000000E+00 0. -1.
         -4    1    4    4    0  502  0.11818769185E+03  0.51402917886E+02 -0.42585586833E+03  0.44493124308E+03  0.00000000000E+00 0. -1.
<mgrwt>
<rscale>  2 0.11077664E+04</rscale>
<asrwt>0</asrwt>
<pdfrwt beam="1">  1       21 0.11401079E+00 0.11121137E+04</pdfrwt>
<pdfrwt beam="2">  1       21 0.28244533E+00 0.11121137E+04</pdfrwt>
<totfact> 0.97186493E+00</totfact>
</mgrwt>
</event>
<event>
 8    1  0.7208583E-006  0.1051813E+04  0.7818608E-02  0.8732548E-01
         21   -1    0    0  503  502  0.00000000000E+00  0.00000000000E+00  0.77848850375E+03  0.77848850375E+03  0.00000000000E+00 0.  1.
         21   -1    0    0  501  503 -0.00000000000E+00 -0.00000000000E+00 -0.20024975019E+04  0.20024975019E+04  0.00000000000E+00 0.  1.
    9000010    2    1    2  501    0  0.33662781831E+02  0.33070378070E+03 -0.13857007174E+04  0.17396774328E+04  0.99790426324E+03 0.  0.
   -9000010    2    1    2    0  502 -0.33662781831E+02 -0.33070378070E+03  0.16169171926E+03  0.10413085728E+04  0.97348916702E+03 0.  0.
        -13    1    3    3    0    0 -0.18605990190E+03 -0.31442693189E+03 -0.40525953355E+03  0.54563530246E+03  0.10566000000E+00 0.  1.
          4    1    3    3  501    0  0.21972268373E+03  0.64513071259E+03 -0.98044118381E+03  0.11940421303E+04  0.00000000000E+00 0.  1.
         13    1    4    4    0    0 -0.20086875481E+03  0.28573486522E+03 -0.80133244977E+02  0.35834901699E+03  0.10566000000E+00 0. -1.
         -4    1    4    4    0  502  0.16720597298E+03 -0.61643864592E+03  0.24182496423E+03  0.68295955584E+03  0.00000000000E+00 0. -1.
<mgrwt>
<rscale>  2 0.10459812E+04</rscale>
<asrwt>0</asrwt>
<pdfrwt beam="1">  1       21 0.11976746E+00 0.10518132E+04</pdfrwt>
<pdfrwt beam="2">  1       21 0.30807654E+00 0.10518132E+04</pdfrwt>
<totfact> 0.56588125E+00</totfact>
</mgrwt>
</event>
<event>
 8    1  0.7208583E-006  0.1028755E+04  0.7818608E-02  0.8757011E-01
         21   -1    0    0  503  502  0.00000000000E+00  0.00000000000E+00  0.17052333972E+04  0.17052333972E+04  0.00000000000E+00 0. -1.
         21   -1    0    0  501  503 -0.00000000000E+00 -0.00000000000E+00 -0.64079712091E+03  0.64079712091E+03  0.00000000000E+00 0. -1.
    9000010    2    1    2  501    0  0.72850237001E+02 -0.12253686202E+03  0.23680471621E+03  0.10556575450E+04  0.10188296909E+04 0.  0.
   -9000010    2    1    2    0  502 -0.72850237001E+02  0.12253686202E+03  0.82763156013E+03  0.12903729732E+04  0.97967646239E+03 0.  0.
        -13    1    3    3    0    0 -0.27385197499E+03 -0.10541710902E+03  0.52701399484E+03  0.60320098890E+03  0.10566000000E+00 0.  1.
          4    1    3    3  501    0  0.34670221200E+03 -0.17119753006E+02 -0.29020927864E+03  0.45245655609E+03  0.00000000000E+00 0.  1.
         13    1    4    4    0    0 -0.28980191759E+03 -0.11852462059E+03 -0.82830980298E+02  0.32387377107E+03  0.10566000000E+00 0. -1.
         -4    1    4    4    0  502  0.21695168059E+03  0.24106148262E+03  0.91046254043E+03  0.96649920209E+03  0.00000000000E+00 0. -1.
<mgrwt>
<rscale>  2 0.10189246E+04</rscale>
<asrwt>0</asrwt>
<pdfrwt beam="1">  1       21 0.26234360E+00 0.10287548E+04</pdfrwt>
<pdfrwt beam="2">  1       21 0.98584173E-01 0.10287548E+04</pdfrwt>
<totfact> 0.20345864E+01</totfact>
</mgrwt>
</event>
<event>
 8    1  0.7208583E-006  0.1067635E+04  0.7818608E-02  0.8719408E-01
         21   -1    0    0  501  502  0.00000000000E+00  0.00000000000E+00  0.45461980053E+03  0.45461980053E+03  0.00000000000E+00 0.  1.
         21   -1    0    0  502  503 -0.00000000000E+00 -0.00000000000E+00 -0.25131542232E+04  0.25131542232E+04  0.00000000000E+00 0.  1.
    9000010    2    1    2  501    0 -0.68263741228E+02  0.29120316048E+03 -0.77169445718E+03  0.12957090523E+04  0.99694051669E+03 0.  0.
   -9000010    2    1    2    0  503  0.68263741228E+02 -0.29120316048E+03 -0.12868399655E+04  0.16720649715E+04  0.10248828972E+04 0.  0.
        -13    1    3    3    0    0  0.18329104345E+03  0.78878998400E+02  0.19226174509E+03  0.27709581879E+03  0.10566000000E+00 0.  1.
          4    1    3    3  501    0 -0.25155478468E+03  0.21232416208E+03 -0.96395620227E+03  0.10186132335E+04  0.00000000000E+00 0.  1.
         13    1    4    4    0    0 -0.43978795468E+03  0.64404389158E+02 -0.59979987167E+03  0.74653952852E+03  0.10566000000E+00 0. -1.
         -4    1    4    4    0  503  0.50805169591E+03 -0.35560754963E+03 -0.68704009386E+03  0.92552544300E+03  0.00000000000E+00 0. -1.
<mgrwt>
<rscale>  2 0.10608724E+04</rscale>
<asrwt>0</asrwt>
<pdfrwt beam="1">  1       21 0.69941508E-01 0.10676348E+04</pdfrwt>
<pdfrwt beam="2">  1       21 0.38663911E+00 0.10676348E+04</pdfrwt>
<totfact> 0.62834737E+00</totfact>
</mgrwt>
</event>
<event>
 8    1  0.7208583E-006  0.1112323E+04  0.7818608E-02  0.8679098E-01
         21   -1    0    0  501  502  0.00000000000E+00  0.00000000000E+00  0.15237375852E+04  0.15237375852E+04  0.00000000000E+00 0. -1.
         21   -1    0    0  502  503 -0.00000000000E+00 -0.00000000000E+00 -0.92634589762E+03  0.92634589762E+03  0.00000000000E+00 0. -1.
    9000010    2    1    2  501    0  0.44557831984E+03  0.83731804431E+02  0.75293715204E+03  0.13431968177E+04  0.10157323870E+04 0.  0.
   -9000010    2    1    2    0  503 -0.44557831984E+03 -0.83731804431E+02 -0.15554546442E+03  0.11068866651E+04  0.99772373117E+03 0.  0.
        -13    1    3    3    0    0  0.19531692339E+01 -0.19239851929E+03  0.79596021900E+03  0.81888563701E+03  0.10566000000E+00 0.  1.
          4    1    3    3  501    0  0.44362515061E+03  0.27613032372E+03 -0.43023066968E+02  0.52431118072E+03  0.00000000000E+00 0.  1.
         13    1    4    4    0    0 -0.22521528874E+03  0.35930672383E+03  0.22741386868E+03  0.48118637440E+03  0.10566000000E+00 0. -1.
         -4    1    4    4    0  503 -0.22036303111E+03 -0.44303852826E+03 -0.38295933310E+03  0.62570029073E+03  0.00000000000E+00 0. -1.
<mgrwt>
<rscale>  2 0.11081954E+04</rscale>
<asrwt>0</asrwt>
<pdfrwt beam="1">  1       21 0.23442117E+00 0.11123234E+04</pdfrwt>
<pdfrwt beam="2">  1       21 0.14251475E+00 0.11123234E+04</pdfrwt>
<totfact> 0.11398851E+01</totfact>
</mgrwt>
</event>
<event>
 8    1  0.7208583E-006  0.1075256E+04  0.7818608E-02  0.8709925E-01
         21   -1    0    0  501  502  0.00000000000E+00  0.00000000000E+00  0.13536226293E+04  0.13536226293E+04  0.00000000000E+00 0.  1.
         21   -1    0    0  502  503 -0.00000000000E+00 -0.00000000000E+00 -0.93117096345E+03  0.93117096345E+03  0.00000000000E+00 0.  1.
    9000010    2    1    2  501    0  0.23612662228E+03 -0.31282721206E+03  0.56363857345E+03  0.12140281162E+04  0.10012787719E+04 0.  0.
   -9000010    2    1    2    0  503 -0.23612662228E+03  0.31282721206E+03 -0.14118690764E+03  0.10707654765E+04  0.98640170138E+03 0.  0.
        -13    1    3    3    0    0  0.48917359016E+03 -0.53550599181E+03  0.46972018391E+03  0.86411488293E+03  0.10566000000E+00 0.  1.
          4    1    3    3  501    0 -0.25304696788E+03  0.22267877975E+03  0.93918389546E+02  0.34991323324E+03  0.00000000000E+00 0.  1.
         13    1    4    4    0    0 -0.10165354746E+03 -0.13383980248E+03 -0.47059769433E+03  0.49970865263E+03  0.10566000000E+00 0. -1.
         -4    1    4    4    0  503 -0.13447307482E+03  0.44666701455E+03  0.32941078669E+03  0.57105682390E+03  0.00000000000E+00 0. -1.
<mgrwt>
<rscale>  2 0.10717794E+04</rscale>
<asrwt>0</asrwt>
<pdfrwt beam="1">  1       21 0.20824964E+00 0.10752562E+04</pdfrwt>
<pdfrwt beam="2">  1       21 0.14325707E+00 0.10752562E+04</pdfrwt>
<totfact> 0.17815360E+01</totfact>
</mgrwt>
</event>
<event>
 8    1  0.7208583E-006  0.1162984E+04  0.7818608E-02  0.8661199E-01
         21   -1    0    0  503  502  0.00000000000E+00  0.00000000000E+00  0.14382271811E+04  0.14382271811E+04  0.00000000000E+00 0. -1.
         21   -1    0    0  501  503 -0.00000000000E+00 -0.00000000000E+00 -0.11167672953E+04  0.11167672953E+04  0.00000000000E+00 0. -1.
    9000010    2    1    2  501    0 -0.32927501777E+03 -0.15193621578E+03 -0.48019319730E+03  0.11424863814E+04  0.97117607772E+03 0.  0.
   -9000010    2    1    2    0  502  0.32927501777E+03  0.15193621578E+03  0.80165308316E+03  0.14125080950E+04  0.11049999103E+04 0.  0.
        -13    1    3    3    0    0 -0.11288428918E+03 -0.54772162990E+03 -0.13720399023E+03  0.57581836781E+03  0.10566000000E+00 0.  1.
          4    1    3    3  501    0 -0.21639072858E+03  0.39578541412E+03 -0.34298920707E+03  0.56666801358E+03  0.00000000000E+00 0.  1.
         13    1    4    4    0    0  0.16798885992E+02 -0.35195377306E+03 -0.69091894797E+02  0.35906456527E+03  0.10566000000E+00 0. -1.
         -4    1    4    4    0  502  0.31247613178E+03  0.50388998884E+03  0.87074497796E+03  0.10534435298E+04  0.00000000000E+00 0. -1.
<mgrwt>
<rscale>  2 0.11300318E+04</rscale>
<asrwt>0</asrwt>
<pdfrwt beam="1">  1       21 0.22126572E+00 0.11629839E+04</pdfrwt>
<pdfrwt beam="2">  1       21 0.17181035E+00 0.11629839E+04</pdfrwt>
<totfact> 0.78409170E+00</totfact>
</mgrwt>
</event>
<event>
 8    1  0.7208583E-006  0.1090702E+04  0.7818608E-02  0.8695511E-01
         21   -1    0    0  501  502  0.00000000000E+00  0.00000000000E+00  0.10649613705E+04  0.10649613705E+04  0.00000000000E+00 0. -1.
         21   -1    0    0  502  503 -0.00000000000E+00 -0.00000000000E+00 -0.11646075302E+04  0.11646075302E+04  0.00000000000E+00 0. -1.
    9000010    2    1    2  501    0 -0.28606399855E+03 -0.27324141610E+03  0.19485985435E+03  0.10998055415E+04  0.10075258724E+04 0.  0.
   -9000010    2    1    2    0  503  0.28606399855E+03  0.27324141610E+03 -0.29450601403E+03  0.11297633591E+04  0.10164339490E+04 0.  0.
        -13    1    3    3    0    0 -0.35639567659E+02 -0.57589270485E+03  0.35292690553E+03  0.67637267693E+03  0.10566000000E+00 0.  1.
          4    1    3    3  501    0 -0.25042443089E+03  0.30265128875E+03 -0.15806705118E+03  0.42343286461E+03  0.00000000000E+00 0.  1.
         13    1    4    4    0    0  0.58394843531E+03 -0.11244034904E+03 -0.90762350125E+02  0.60156165316E+03  0.10566000000E+00 0. -1.
         -4    1    4    4    0  503 -0.29788443676E+03  0.38568176514E+03 -0.20374366390E+03  0.52820170598E+03  0.00000000000E+00 0. -1.
<mgrwt>
<rscale>  2 0.10886222E+04</rscale>
<asrwt>0</asrwt>
<pdfrwt beam="1">  1       21 0.16384021E+00 0.10907023E+04</pdfrwt>
<pdfrwt beam="2">  1       21 0.17917039E+00 0.10907023E+04</pdfrwt>
<totfact> 0.19859095E+01</totfact>
</mgrwt>
</event>
<event>
 8    1  0.7208583E-006  0.1101824E+04  0.7818608E-02  0.8689700E-01
         21   -1    0    0  501  502  0.00000000000E+00  0.00000000000E+00  0.21694473023E+04  0.21694473023E+04  0.00000000000E+00 0.  1.
         21   -1    0    0  502  503 -0.00000000000E+00 -0.00000000000E+00 -0.10112172107E+04  0.10112172107E+04  0.00000000000E+00 0.  1.
    9000010    2    1    2  501    0  0.37623011782E+03 -0.11353179886E+02  0.16530648862E+04  0.19728247591E+04  0.10088290320E+04 0.  0.
   -9000010    2    1    2    0  503 -0.37623011782E+03  0.11353179886E+02 -0.49483479459E+03  0.12078397539E+04  0.10355372523E+04 0.  0.
        -13    1    3    3    0    0 -0.32982802549E+03  0.14785622266E+01  0.29671998893E+03  0.44365693451E+03  0.10566000000E+00 0.  1.
          4    1    3    3  501    0  0.70605814332E+03 -0.12831742112E+02  0.13563448973E+04  0.15291678246E+04  0.00000000000E+00 0.  1.
         13    1    4    4    0    0  0.15185314727E+03 -0.40279344255E+03 -0.18093950369E+03  0.46694865976E+03  0.10566000000E+00 0. -1.
         -4    1    4    4    0  503 -0.52808326509E+03  0.41414662243E+03 -0.31389529089E+03  0.74089109415E+03  0.00000000000E+00 0. -1.
<mgrwt>
<rscale>  2 0.10955038E+04</rscale>
<asrwt>0</asrwt>
<pdfrwt beam="1">  1       21 0.33376112E+00 0.11018237E+04</pdfrwt>
<pdfrwt beam="2">  1       21 0.15557188E+00 0.11018237E+04</pdfrwt>
<totfact> 0.17025510E+00</totfact>
</mgrwt>
</event>
<event>
 8    1  0.7208583E-006  0.1176664E+04  0.7818608E-02  0.8626287E-01
         21   -1    0    0  503  502  0.00000000000E+00  0.00000000000E+00  0.32375377213E+04  0.32375377213E+04  0.00000000000E+00 0. -1.
         21   -1    0    0  501  503 -0.00000000000E+00 -0.00000000000E+00 -0.48647497670E+03  0.48647497670E+03  0.00000000000E+00 0. -1.
    9000010    2    1    2  501    0  0.49207786825E+03  0.34406923956E+03  0.71347008307E+03  0.13760734982E+04  0.10119359876E+04 0.  0.
   -9000010    2    1    2    0  502 -0.49207786825E+03 -0.34406923956E+03  0.20375926615E+04  0.23479391998E+04  0.10002551482E+04 0.  0.
        -13    1    3    3    0    0  0.16311205153E+03 -0.34767897957E+03  0.10586724370E+03  0.39836427882E+03  0.10566000000E+00 0.  1.
          4    1    3    3  501    0  0.32896581672E+03  0.69174821913E+03  0.60760283937E+03  0.97770921938E+03  0.00000000000E+00 0.  1.
         13    1    4    4    0    0 -0.22921561637E+02 -0.33771829126E+03  0.17815551780E+04  0.18134271161E+04  0.10566000000E+00 0. -1.
         -4    1    4    4    0  502 -0.46915630661E+03 -0.63509483073E+01  0.25603748354E+03  0.53451208364E+03  0.00000000000E+00 0. -1.
<mgrwt>
<rscale>  2 0.11741486E+04</rscale>
<asrwt>0</asrwt>
<pdfrwt beam="1">  1       21 0.49808271E+00 0.11766642E+04</pdfrwt>
<pdfrwt beam="2">  1       21 0.74842306E-01 0.11766642E+04</pdfrwt>
<totfact> 0.88063097E-01</totfact>
</mgrwt>
</event>
<event>
 8    1  0.7208583E-006  0.1007195E+04  0.7818608E-02  0.8768884E-01
         21   -1    0    0  503  502  0.00000000000E+00  0.00000000000E+00  0.66070696713E+03  0.66070696713E+03  0.00000000000E+00 0. -1.
         21   -1    0    0  501  503 -0.00000000000E+00 -0.00000000000E+00 -0.21623719988E+04  0.21623719988E+04  0.00000000000E+00 0. -1.
    9000010    2    1    2  501    0 -0.14370864184E+03  0.71938665138E+02 -0.15137826808E+04  0.18158110280E+04  0.98985066529E+03 0.  0.
   -9000010    2    1    2    0  502  0.14370864184E+03 -0.71938665138E+02  0.12117649074E+02  0.10072679379E+04  0.99429096150E+03 0.  0.
        -13    1    3    3    0    0 -0.52148212773E+03  0.22278524810E+03 -0.10882068878E+04  0.12270986587E+04  0.10566000000E+00 0.  1.
          4    1    3    3  501    0  0.37777348590E+03 -0.15084658297E+03 -0.42557579296E+03  0.58871236932E+03  0.00000000000E+00 0.  1.
         13    1    4    4    0    0 -0.36019596575E+03  0.18701112670E+03 -0.12443429810E+03  0.42449758651E+03  0.10566000000E+00 0. -1.
         -4    1    4    4    0  502  0.50390460758E+03 -0.25894979183E+03  0.13655194717E+03  0.58277035143E+03  0.00000000000E+00 0. -1.
<mgrwt>
<rscale>  2 0.10060975E+04</rscale>
<asrwt>0</asrwt>
<pdfrwt beam="1">  1       21 0.10164723E+00 0.10071950E+04</pdfrwt>
<pdfrwt beam="2">  1       21 0.33267261E+00 0.10071950E+04</pdfrwt>
<totfact> 0.59940583E+00</totfact>
</mgrwt>
</event>
<event>
 8    1  0.7208583E-006  0.1003621E+04  0.7818608E-02  0.8772639E-01
         21   -1    0    0  501  502  0.00000000000E+00  0.00000000000E+00  0.99973607213E+03  0.99973607213E+03  0.00000000000E+00 0. -1.
         21   -1    0    0  502  503 -0.00000000000E+00 -0.00000000000E+00 -0.10293205436E+04  0.10293205436E+04  0.00000000000E+00 0. -1.
    9000010    2    1    2  501    0  0.17196012209E+02  0.85497592408E+02 -0.18195863325E+03  0.10139341180E+04  0.99365381810E+03 0.  0.
   -9000010    2    1    2    0  503 -0.17196012209E+02 -0.85497592408E+02  0.15237416174E+03  0.10151224978E+04  0.99982511433E+03 0.  0.
        -13    1    3    3    0    0 -0.35235612069E+03 -0.14878176171E+03 -0.37503755818E+03  0.53567156880E+03  0.10566000000E+00 0.  1.
          4    1    3    3  501    0  0.36955213290E+03  0.23427935412E+03  0.19307892493E+03  0.47826254918E+03  0.00000000000E+00 0.  1.
         13    1    4    4    0    0  0.15754989996E+03  0.84126935369E+01 -0.39904504460E+03  0.42910337120E+03  0.10566000000E+00 0. -1.
         -4    1    4    4    0  503 -0.17474591217E+03 -0.93910285945E+02  0.55141920634E+03  0.58601912661E+03  0.00000000000E+00 0. -1.
<mgrwt>
<rscale>  2 0.10020808E+04</rscale>
<asrwt>0</asrwt>
<pdfrwt beam="1">  1       21 0.15380555E+00 0.10036213E+04</pdfrwt>
<pdfrwt beam="2">  1       21 0.15835701E+00 0.10036213E+04</pdfrwt>
<totfact> 0.37028361E+01</totfact>
</mgrwt>
</event>
<event>
 8    1  0.7208583E-006  0.1008090E+04  0.7818608E-02  0.8770382E-01
         21   -1    0    0  501  502  0.00000000000E+00  0.00000000000E+00  0.14647523471E+04  0.14647523471E+04  0.00000000000E+00 0.  1.
         21   -1    0    0  502  503 -0.00000000000E+00 -0.00000000000E+00 -0.74000185606E+03  0.74000185606E+03  0.00000000000E+00 0.  1.
    9000010    2    1    2  501    0  0.15682369315E+03  0.26037420928E+02  0.66327446397E+03  0.11947913501E+04  0.98097998845E+03 0.  0.
   -9000010    2    1    2    0  503 -0.15682369315E+03 -0.26037420928E+02  0.61476027080E+02  0.10099628530E+04  0.99547679260E+03 0.  0.
        -13    1    3    3    0    0  0.25766178964E+03  0.36548962521E+03  0.70848004743E+03  0.83780442393E+03  0.10566000000E+00 0.  1.
          4    1    3    3  501    0 -0.10083809649E+03 -0.33945220428E+03 -0.45205583465E+02  0.35698692619E+03  0.00000000000E+00 0.  1.
         13    1    4    4    0    0 -0.64968598960E+02 -0.66118079307E+02  0.52632899672E+03  0.53442936223E+03  0.10566000000E+00 0. -1.
         -4    1    4    4    0  503 -0.91855094191E+02  0.40080658379E+02 -0.46485296964E+03  0.47553349082E+03  0.00000000000E+00 0. -1.
<mgrwt>
<rscale>  2 0.10044927E+04</rscale>
<asrwt>0</asrwt>
<pdfrwt beam="1">  1       21 0.22534651E+00 0.10080901E+04</pdfrwt>
<pdfrwt beam="2">  1       21 0.11384644E+00 0.10080901E+04</pdfrwt>
<totfact> 0.25961885E+01</totfact>
</mgrwt>
</event>
<event>
 8    1  0.7208583E-006  0.1032997E+04  0.7818608E-02  0.8747699E-01
         21   -1    0    0  503  502  0.00000000000E+00  0.00000000000E+00  0.51991933094E+03  0.51991933094E+03  0.00000000000E+00 0.  1.
         21   -1    0    0  501  503 -0.00000000000E+00 -0.00000000000E+00 -0.21120770078E+04  0.21120770078E+04  0.00000000000E+00 0.  1.
    9000010    2    1    2  501    0  0.19163071492E+03  0.28417155774E+02 -0.51843646097E+03  0.11420436037E+04  0.99897815939E+03 0.  0.
   -9000010    2    1    2    0  502 -0.19163071492E+03 -0.28417155774E+02 -0.10737212159E+04  0.14899527351E+04  0.10146684373E+04 0.  0.
        -13    1    3    3    0    0 -0.30795723885E+03 -0.96566975057E+02  0.99419309216E+02  0.33770853090E+03  0.10566000000E+00 0.  1.
          4    1    3    3  501    0  0.49958795377E+03  0.12498413083E+03 -0.61785577019E+03  0.80433507276E+03  0.00000000000E+00 0.  1.
         13    1    4    4    0    0  0.36960004661E+03 -0.12972210962E+03 -0.71774002882E+03  0.81766911420E+03  0.10566000000E+00 0. -1.
         -4    1    4    4    0  502 -0.56123076153E+03  0.10130495384E+03 -0.35598118706E+03  0.67228362087E+03  0.00000000000E+00 0. -1.
<mgrwt>
<rscale>  2 0.10291229E+04</rscale>
<asrwt>0</asrwt>
<pdfrwt beam="1">  1       21 0.79987589E-01 0.10329966E+04</pdfrwt>
<pdfrwt beam="2">  1       21 0.32493493E+00 0.10329966E+04</pdfrwt>
<totfact> 0.12427198E+01</totfact>
</mgrwt>
</event>
<event>
 8    1  0.7208583E-006  0.1023681E+04  0.7818608E-02  0.8767667E-01
         21   -1    0    0  503  502  0.00000000000E+00  0.00000000000E+00  0.99098664844E+03  0.99098664844E+03  0.00000000000E+00 0. -1.
         21   -1    0    0  501  503 -0.00000000000E+00 -0.00000000000E+00 -0.99594614688E+03  0.99594614688E+03  0.00000000000E+00 0. -1.
    9000010    2    1    2  501    0 -0.13460014843E+03  0.11733059561E+03 -0.58214948640E+02  0.96186782719E+03  0.94335415837E+03 0.  0.
   -9000010    2    1    2    0  502  0.13460014843E+03 -0.11733059561E+03  0.53255450195E+02  0.10250649681E+04  0.10079872902E+04 0.  0.
        -13    1    3    3    0    0 -0.43309526851E+03  0.36104494951E+03  0.36560179152E+02  0.56503241061E+03  0.10566000000E+00 0.  1.
          4    1    3    3  501    0  0.29849512008E+03 -0.24371435390E+03 -0.94775127792E+02  0.39683541658E+03  0.00000000000E+00 0.  1.
         13    1    4    4    0    0  0.43191360750E+03  0.27171409825E+03 -0.82620829739E+02  0.51691791244E+03  0.10566000000E+00 0. -1.
         -4    1    4    4    0  502 -0.29731345907E+03 -0.38904469386E+03  0.13587627993E+03  0.50814705570E+03  0.00000000000E+00 0. -1.
<mgrwt>
<rscale>  2 0.10074024E+04</rscale>
<asrwt>0</asrwt>
<pdfrwt beam="1">  1       21 0.15245948E+00 0.10236806E+04</pdfrwt>
<pdfrwt beam="2">  1       21 0.15322248E+00 0.10236806E+04</pdfrwt>
<totfact> 0.42004330E+01</totfact>
</mgrwt>
</event>
<event>
 8    1  0.7208583E-006  0.1058200E+04  0.7818608E-02  0.8729414E-01
         21   -1    0    0  501  502  0.00000000000E+00  0.00000000000E+00  0.15785195610E+04  0.15785195610E+04  0.00000000000E+00 0. -1.
         21   -1    0    0  502  503 -0.00000000000E+00 -0.00000000000E+00 -0.81379659177E+03  0.81379659177E+03  0.00000000000E+00 0. -1.
    9000010    2    1    2  501    0  0.18262813067E+03  0.29899377687E+03 -0.95879381792E+02  0.10283424120E+04  0.96205246624E+03 0.  0.
   -9000010    2    1    2    0  503 -0.18262813067E+03 -0.29899377687E+03  0.86060235101E+03  0.13639737407E+04  0.99851772449E+03 0.  0.
        -13    1    3    3    0    0  0.26851836893E+03  0.57768604792E+02  0.39123842380E+03  0.47802389226E+03  0.10566000000E+00 0.  1.
          4    1    3    3  501    0 -0.85890238257E+02  0.24122517208E+03 -0.48711780559E+03  0.55031851977E+03  0.00000000000E+00 0.  1.
         13    1    4    4    0    0  0.39381177658E+03 -0.21639996467E+03  0.22705659657E+03  0.50345940183E+03  0.10566000000E+00 0. -1.
         -4    1    4    4    0  503 -0.57643990725E+03 -0.82593812200E+02  0.63354575444E+03  0.86051433890E+03  0.00000000000E+00 0. -1.
<mgrwt>
<rscale>  2 0.10495095E+04</rscale>
<asrwt>0</asrwt>
<pdfrwt beam="1">  1       21 0.24284916E+00 0.10582003E+04</pdfrwt>
<pdfrwt beam="2">  1       21 0.12519948E+00 0.10582003E+04</pdfrwt>
<totfact> 0.14611449E+01</totfact>
</mgrwt>
</event>
<event>
 8    1  0.7208583E-006  0.1024115E+04  0.7818608E-02  0.8754622E-01
         21   -1    0    0  503  502  0.00000000000E+00  0.00000000000E+00  0.12444239854E+04  0.12444239854E+04  0.00000000000E+00 0. -1.
         21   -1    0    0  501  503 -0.00000000000E+00 -0.00000000000E+00 -0.92070581709E+03  0.92070581709E+03  0.00000000000E+00 0. -1.
    9000010    2    1    2  501    0  0.88436416560E+02 -0.13327074484E+03  0.49265203314E+03  0.11271752924E+04  0.10011173872E+04 0.  0.
   -9000010    2    1    2    0  502 -0.88436416560E+02  0.13327074484E+03 -0.16893386485E+03  0.10379545100E+04  0.10115477364E+04 0.  0.
        -13    1    3    3    0    0  0.21016270582E+03  0.14450491453E+03  0.70976195076E+03  0.75419630810E+03  0.10566000000E+00 0.  1.
          4    1    3    3  501    0 -0.12172628926E+03 -0.27777565936E+03 -0.21710991762E+03  0.37297898434E+03  0.00000000000E+00 0.  1.
         13    1    4    4    0    0 -0.49962664592E+03 -0.18315573500E+02  0.11856067642E+03  0.51382768581E+03  0.10566000000E+00 0. -1.
         -4    1    4    4    0  502  0.41119022936E+03  0.15158631834E+03 -0.28749454127E+03  0.52412682424E+03  0.00000000000E+00 0. -1.
<mgrwt>
<rscale>  2 0.10215297E+04</rscale>
<asrwt>0</asrwt>
<pdfrwt beam="1">  1       21 0.19144984E+00 0.10241147E+04</pdfrwt>
<pdfrwt beam="2">  1       21 0.14164705E+00 0.10241147E+04</pdfrwt>
<totfact> 0.25219934E+01</totfact>
</mgrwt>
</event>
<event>
 8    1  0.7208583E-006  0.1046989E+04  0.7818608E-02  0.8736106E-01
         21   -1    0    0  503  502  0.00000000000E+00  0.00000000000E+00  0.17208120987E+04  0.17208120987E+04  0.00000000000E+00 0. -1.
         21   -1    0    0  501  503 -0.00000000000E+00 -0.00000000000E+00 -0.12976234714E+04  0.12976234714E+04  0.00000000000E+00 0. -1.
    9000010    2    1    2  501    0 -0.20108854315E+03 -0.75649598802E+02 -0.87399167220E+03  0.13638356606E+04  0.10247081546E+04 0.  0.
   -9000010    2    1    2    0  502  0.20108854315E+03  0.75649598802E+02  0.12971802994E+04  0.16545999095E+04  0.10044225542E+04 0.  0.
        -13    1    3    3    0    0  0.10944813561E+03 -0.14228393100E+03 -0.10045353618E+04  0.10204483895E+04  0.10566000000E+00 0.  1.
          4    1    3    3  501    0 -0.31053667877E+03  0.66634332203E+02  0.13054368955E+03  0.34338727112E+03  0.00000000000E+00 0.  1.
         13    1    4    4    0    0  0.43683697545E+03  0.19614861238E+03  0.13046322992E+04  0.13897360428E+04  0.10566000000E+00 0. -1.
         -4    1    4    4    0  502 -0.23574843230E+03 -0.12049901357E+03 -0.74519997725E+01  0.26486386674E+03  0.00000000000E+00 0. -1.
<mgrwt>
<rscale>  2 0.10419921E+04</rscale>
<asrwt>0</asrwt>
<pdfrwt beam="1">  1       21 0.26474032E+00 0.10469891E+04</pdfrwt>
<pdfrwt beam="2">  1       21 0.19963438E+00 0.10469891E+04</pdfrwt>
<totfact> 0.23055328E+00</totfact>
</mgrwt>
</event>
<event>
 8    1  0.7208583E-006  0.1060064E+04  0.7818608E-02  0.8727696E-01
         21   -1    0    0  501  502  0.00000000000E+00  0.00000000000E+00  0.10807784490E+04  0.10807784490E+04  0.00000000000E+00 0.  1.
         21   -1    0    0  502  503 -0.00000000000E+00 -0.00000000000E+00 -0.17537983388E+04  0.17537983388E+04  0.00000000000E+00 0.  1.
    9000010    2    1    2  501    0  0.23438911516E+03 -0.25706709489E+03  0.59164983356E+03  0.11843871573E+04  0.96524694469E+03 0.  0.
   -9000010    2    1    2    0  503 -0.23438911516E+03  0.25706709489E+03 -0.12646697233E+04  0.16501896305E+04  0.10013563597E+04 0.  0.
        -13    1    3    3    0    0  0.48150159704E+02 -0.34830139120E+03 -0.17317359538E+03  0.39194566242E+03  0.10566000000E+00 0.  1.
          4    1    3    3  501    0  0.18623895546E+03  0.91234296305E+02  0.76482342893E+03  0.79244149487E+03  0.00000000000E+00 0.  1.
         13    1    4    4    0    0 -0.49219156047E+03 -0.20275975835E+03 -0.60812088305E+03  0.80819247174E+03  0.10566000000E+00 0. -1.
         -4    1    4    4    0  503  0.25780244531E+03  0.45982685325E+03 -0.65654884025E+03  0.84199715879E+03  0.00000000000E+00 0. -1.
<mgrwt>
<rscale>  2 0.10514496E+04</rscale>
<asrwt>0</asrwt>
<pdfrwt beam="1">  1       21 0.16627361E+00 0.10600643E+04</pdfrwt>
<pdfrwt beam="2">  1       21 0.26981513E+00 0.10600643E+04</pdfrwt>
<totfact> 0.39422090E+00</totfact>
</mgrwt>
</event>
<event>
 8    1  0.7208583E-006  0.9771460E+03  0.7818608E-02  0.8864208E-01
         21   -1    0    0  501  502  0.00000000000E+00  0.00000000000E+00  0.75509995011E+03  0.75509995011E+03  0.00000000000E+00 0.  1.
         21   -1    0    0  502  503 -0.00000000000E+00 -0.00000000000E+00 -0.10553776725E+04  0.10553776725E+04  0.00000000000E+00 0.  1.
    9000010    2    1    2  501    0  0.18981565223E+02 -0.68477709342E+02 -0.38549381231E+03  0.82962287360E+03  0.73117654269E+03 0.  0.
   -9000010    2    1    2    0  503 -0.18981565223E+02  0.68477709342E+02  0.85216089878E+02  0.98085474905E+03  0.97455875157E+03 0.  0.
        -13    1    3    3    0    0 -0.11553938979E+02 -0.31168056597E+03  0.63302631422E+02  0.31825383426E+03  0.10566000000E+00 0.  1.
          4    1    3    3  501    0  0.30535504202E+02  0.24320285663E+03 -0.44879644373E+03  0.51136903934E+03  0.00000000000E+00 0.  1.
         13    1    4    4    0    0 -0.12584406977E+03  0.65976034506E+02 -0.43093265834E+03  0.45375382556E+03  0.10566000000E+00 0. -1.
         -4    1    4    4    0  503  0.10686250455E+03  0.25016748357E+01  0.51614874822E+03  0.52710092349E+03  0.00000000000E+00 0. -1.
<mgrwt>
<rscale>  2 0.90988286E+03</rscale>
<asrwt>0</asrwt>
<pdfrwt beam="1">  1       21 0.11616922E+00 0.97714598E+03</pdfrwt>
<pdfrwt beam="2">  1       21 0.16236580E+00 0.97714598E+03</pdfrwt>
<totfact> 0.78182887E+01</totfact>
</mgrwt>
</event>
<event>
 8    1  0.7208583E-006  0.1006191E+04  0.7818608E-02  0.8774587E-01
         21   -1    0    0  503  502  0.00000000000E+00  0.00000000000E+00  0.56336145027E+03  0.56336145027E+03  0.00000000000E+00 0.  1.
         21   -1    0    0  501  503 -0.00000000000E+00 -0.00000000000E+00 -0.18025740387E+04  0.18025740387E+04  0.00000000000E+00 0.  1.
    9000010    2    1    2  501    0 -0.15521827780E+02  0.20894411873E+02 -0.41715994645E+03  0.10666311526E+04  0.98132669946E+03 0.  0.
   -9000010    2    1    2    0  502  0.15521827780E+02 -0.20894411873E+02 -0.82205264201E+03  0.12993043365E+04  0.10058547156E+04 0.  0.
        -13    1    3    3    0    0 -0.58648734279E+00  0.20922432749E+02 -0.74157607916E+03  0.74187140699E+03  0.10566000000E+00 0.  1.
          4    1    3    3  501    0 -0.14935340437E+02 -0.28020875895E-01  0.32441613271E+03  0.32475974556E+03  0.00000000000E+00 0.  1.
         13    1    4    4    0    0 -0.39713164741E+02 -0.36725193633E+03  0.37165494708E+02  0.37125786908E+03  0.10566000000E+00 0. -1.
         -4    1    4    4    0  502  0.55234992522E+02  0.34635752446E+03 -0.85921813672E+03  0.92804646738E+03  0.00000000000E+00 0. -1.
<mgrwt>
<rscale>  2 0.10000047E+04</rscale>
<asrwt>0</asrwt>
<pdfrwt beam="1">  1       21 0.86670992E-01 0.10061914E+04</pdfrwt>
<pdfrwt beam="2">  1       21 0.27731908E+00 0.10061914E+04</pdfrwt>
<totfact> 0.22223984E+01</totfact>
</mgrwt>
</event>
<event>
 8    1  0.7208583E-006  0.1054764E+04  0.7818608E-02  0.8726323E-01
         21   -1    0    0  503  502  0.00000000000E+00  0.00000000000E+00  0.98929034564E+03  0.98929034564E+03  0.00000000000E+00 0. -1.
         21   -1    0    0  501  503 -0.00000000000E+00 -0.00000000000E+00 -0.16528181927E+04  0.16528181927E+04  0.00000000000E+00 0. -1.
    9000010    2    1    2  501    0  0.24576188176E+03 -0.22964265365E+03 -0.10831183627E+04  0.15069504334E+04  0.99227998573E+03 0.  0.
   -9000010    2    1    2    0  502 -0.24576188176E+03  0.22964265365E+03  0.41959051562E+03  0.11351581050E+04  0.99969648977E+03 0.  0.
        -13    1    3    3    0    0 -0.63675331906E+02  0.16359008761E+03 -0.98057975220E+03  0.99616912532E+03  0.10566000000E+00 0.  1.
          4    1    3    3  501    0  0.30943721367E+03 -0.39323274126E+03 -0.10253861051E+03  0.51078130804E+03  0.00000000000E+00 0.  1.
         13    1    4    4    0    0 -0.13087711029E+03  0.10097605235E+03 -0.32833539497E+03  0.36759913479E+03  0.10566000000E+00 0. -1.
         -4    1    4    4    0  502 -0.11488477148E+03  0.12866660130E+03  0.74792591060E+03  0.76755897021E+03  0.00000000000E+00 0. -1.
<mgrwt>
<rscale>  2 0.10530032E+04</rscale>
<asrwt>0</asrwt>
<pdfrwt beam="1">  1       21 0.15219852E+00 0.10547643E+04</pdfrwt>
<pdfrwt beam="2">  1       21 0.25427972E+00 0.10547643E+04</pdfrwt>
<totfact> 0.67615422E+00</totfact>
</mgrwt>
</event>
<event>
 8    1  0.7208583E-006  0.1066604E+04  0.7818608E-02  0.8718785E-01
         21   -1    0    0  501  502  0.00000000000E+00  0.00000000000E+00  0.74338940615E+03  0.74338940615E+03  0.00000000000E+00 0.  1.
         21   -1    0    0  502  503 -0.00000000000E+00 -0.00000000000E+00 -0.18611940177E+04  0.18611940177E+04  0.00000000000E+00 0.  1.
    9000010    2    1    2  501    0  0.16358673796E+03 -0.24498542309E+03 -0.11268318446E+04  0.15379415020E+04  0.10043582922E+04 0.  0.
   -9000010    2    1    2    0  503 -0.16358673796E+03  0.24498542309E+03  0.90272330290E+01  0.10666419219E+04  0.10251170763E+04 0.  0.
        -13    1    3    3    0    0 -0.24363383516E+02  0.25061749261E+03  0.41314515399E+02  0.25516583314E+03  0.10566000000E+00 0.  1.
          4    1    3    3  501    0  0.18795012147E+03 -0.49560291570E+03 -0.11681463600E+04  0.12827756688E+04  0.00000000000E+00 0.  1.
         13    1    4    4    0    0  0.10028481965E+03 -0.22825048961E+03 -0.34038257995E+03  0.42191900047E+03  0.10566000000E+00 0. -1.
         -4    1    4    4    0  503 -0.26387155761E+03  0.47323591270E+03  0.34940981298E+03  0.64472292141E+03  0.00000000000E+00 0. -1.
<mgrwt>
<rscale>  2 0.10615845E+04</rscale>
<asrwt>0</asrwt>
<pdfrwt beam="1">  1       21 0.11436760E+00 0.10666037E+04</pdfrwt>
<pdfrwt beam="2">  1       21 0.28633754E+00 0.10666037E+04</pdfrwt>
<totfact> 0.91333039E+00</totfact>
</mgrwt>
</event>
<event>
 8    1  0.7208583E-006  0.1043422E+04  0.7818608E-02  0.8735435E-01
         21   -1    0    0  503  502  0.00000000000E+00  0.00000000000E+00  0.16935224576E+04  0.16935224576E+04  0.00000000000E+00 0. -1.
         21   -1    0    0  501  503 -0.00000000000E+00 -0.00000000000E+00 -0.10639697191E+04  0.10639697191E+04  0.00000000000E+00 0. -1.
    9000010    2    1    2  501    0 -0.33581576210E+03 -0.12958530881E+03 -0.55456344131E+03  0.11792464107E+04  0.97648190381E+03 0.  0.
   -9000010    2    1    2    0  502  0.33581576210E+03  0.12958530881E+03  0.11841161799E+04  0.15782457660E+04  0.97936918065E+03 0.  0.
        -13    1    3    3    0    0  0.18814145496E+02 -0.35799556968E+03  0.12478905196E+03  0.37958809074E+03  0.10566000000E+00 0.  1.
          4    1    3    3  501    0 -0.35462990760E+03  0.22841026087E+03 -0.67935249327E+03  0.79965832000E+03  0.00000000000E+00 0.  1.
         13    1    4    4    0    0 -0.58273256816E+02  0.49374074996E+03  0.67704775344E+03  0.83998176899E+03  0.10566000000E+00 0. -1.
         -4    1    4    4    0  502  0.39408901892E+03 -0.36415544115E+03  0.50706842643E+03  0.73826399698E+03  0.00000000000E+00 0. -1.
<mgrwt>
<rscale>  2 0.10427435E+04</rscale>
<asrwt>0</asrwt>
<pdfrwt beam="1">  1       21 0.26054192E+00 0.10434216E+04</pdfrwt>
<pdfrwt beam="2">  1       21 0.16368765E+00 0.10434216E+04</pdfrwt>
<totfact> 0.48544122E+00</totfact>
</mgrwt>
</event>
<event>
 8    1  0.7208583E-006  0.1036611E+04  0.7818608E-02  0.8752257E-01
         21   -1    0    0  503  502  0.00000000000E+00  0.00000000000E+00  0.12180319516E+04  0.12180319516E+04  0.00000000000E+00 0. -1.
         21   -1    0    0  501  503 -0.00000000000E+00 -0.00000000000E+00 -0.95334419513E+03  0.95334419513E+03  0.00000000000E+00 0. -1.
    9000010    2    1    2  501    0 -0.15989044884E+03 -0.16696608041E+03 -0.23753784056E+03  0.10634789337E+04  0.10105051158E+04 0.  0.
   -9000010    2    1    2    0  502  0.15989044884E+03  0.16696608041E+03  0.50222559698E+03  0.11078972130E+04  0.96008492155E+03 0.  0.
        -13    1    3    3    0    0  0.39351009272E+03  0.12126142836E+03 -0.11592535419E+03  0.42777707511E+03  0.10566000000E+00 0.  1.
          4    1    3    3  501    0 -0.55340054156E+03 -0.28822750877E+03 -0.12161248637E+03  0.63570185862E+03  0.00000000000E+00 0.  1.
         13    1    4    4    0    0  0.43394976463E+03 -0.17296418147E+03  0.35095234680E+02  0.46846631998E+03  0.10566000000E+00 0. -1.
         -4    1    4    4    0  502 -0.27405931579E+03  0.33993026188E+03  0.46713036230E+03  0.63943089298E+03  0.00000000000E+00 0. -1.
<mgrwt>
<rscale>  2 0.10241157E+04</rscale>
<asrwt>0</asrwt>
<pdfrwt beam="1">  1       21 0.18738953E+00 0.10366114E+04</pdfrwt>
<pdfrwt beam="2">  1       21 0.14666834E+00 0.10366114E+04</pdfrwt>
<totfact> 0.24390061E+01</totfact>
</mgrwt>
</event>
<event>
 8    1  0.7208583E-006  0.1074413E+04  0.7818608E-02  0.8713679E-01
         21   -1    0    0  503  502  0.00000000000E+00  0.00000000000E+00  0.11311291842E+04  0.11311291842E+04  0.00000000000E+00 0. -1.
         21   -1    0    0  501  503 -0.00000000000E+00 -0.00000000000E+00 -0.12889485297E+04  0.12889485297E+04  0.00000000000E+00 0. -1.
    9000010    2    1    2  501    0  0.19828587399E+03 -0.34481791678E+03 -0.65801587649E+03  0.12598999246E+04  0.99807126133E+03 0.  0.
   -9000010    2    1    2    0  502 -0.19828587399E+03  0.34481791678E+03  0.50019653098E+03  0.11601777892E+04  0.96829708742E+03 0.  0.
        -13    1    3    3    0    0  0.20199349783E+03  0.32172929541E+03 -0.10587647046E+03  0.39436144696E+03  0.10566000000E+00 0.  1.
          4    1    3    3  501    0 -0.37076238433E+01 -0.66654721219E+03 -0.55213940603E+03  0.86553847762E+03  0.00000000000E+00 0.  1.
         13    1    4    4    0    0 -0.22190320150E+03  0.67195368941E+03  0.41862926980E+03  0.82220026043E+03  0.10566000000E+00 0. -1.
         -4    1    4    4    0  502  0.23617327513E+02 -0.32713577263E+03  0.81567261179E+02  0.33797752882E+03  0.00000000000E+00 0. -1.
<mgrwt>
<rscale>  2 0.10674452E+04</rscale>
<asrwt>0</asrwt>
<pdfrwt beam="1">  1       21 0.17401987E+00 0.10744128E+04</pdfrwt>
<pdfrwt beam="2">  1       21 0.19829977E+00 0.10744128E+04</pdfrwt>
<totfact> 0.11502155E+01</totfact>
</mgrwt>
</event>
<event>
 8    1  0.7208583E-006  0.1001595E+04  0.7818608E-02  0.8775426E-01
         21   -1    0    0  503  502  0.00000000000E+00  0.00000000000E+00  0.11165187955E+04  0.11165187955E+04  0.00000000000E+00 0.  1.
         21   -1    0    0  501  503 -0.00000000000E+00 -0.00000000000E+00 -0.15638215447E+04  0.15638215447E+04  0.00000000000E+00 0.  1.
    9000010    2    1    2  501    0 -0.61066787208E+01  0.11894831073E+03 -0.11042166791E+04  0.14908009108E+04  0.99448825493E+03 0.  0.
   -9000010    2    1    2    0  502  0.61066787208E+01 -0.11894831073E+03  0.65691392981E+03  0.11895394294E+04  0.98452127994E+03 0.  0.
        -13    1    3    3    0    0  0.46570332579E+03  0.17078440905E+03 -0.74725547509E+03  0.89690448669E+03  0.10566000000E+00 0.  1.
          4    1    3    3  501    0 -0.47181000451E+03 -0.51836098321E+02 -0.35696120399E+03  0.59389642414E+03  0.00000000000E+00 0.  1.
         13    1    4    4    0    0 -0.43770455808E+03  0.38460498566E+02  0.55475790668E+03  0.70768696208E+03  0.10566000000E+00 0. -1.
         -4    1    4    4    0  502  0.44381123680E+03 -0.15740880930E+03  0.10215602313E+03  0.48185246727E+03  0.00000000000E+00 0. -1.
<mgrwt>
<rscale>  2 0.99911206E+03</rscale>
<asrwt>0</asrwt>
<pdfrwt beam="1">  1       21 0.17177212E+00 0.10015952E+04</pdfrwt>
<pdfrwt beam="2">  1       21 0.24058793E+00 0.10015952E+04</pdfrwt>
<totfact> 0.58575381E+00</totfact>
</mgrwt>
</event>
<event>
 8    1  0.7208583E-006  0.1100412E+04  0.7818608E-02  0.8709902E-01
         21   -1    0    0  501  502  0.00000000000E+00  0.00000000000E+00  0.63562784778E+03  0.63562784778E+03  0.00000000000E+00 0.  1.
         21   -1    0    0  502  503 -0.00000000000E+00 -0.00000000000E+00 -0.19933362287E+04  0.19933362287E+04  0.00000000000E+00 0.  1.
    9000010    2    1    2  501    0  0.51207401918E+02 -0.72164910180E+01 -0.11964553661E+04  0.16255498438E+04  0.10991963317E+04 0.  0.
   -9000010    2    1    2    0  503 -0.51207401918E+02  0.72164910180E+01 -0.16125301475E+03  0.10034142327E+04  0.98902139100E+03 0.  0.
        -13    1    3    3    0    0  0.34758593171E+03 -0.34370072953E+03 -0.19131237433E+03  0.52492533482E+03  0.10566000000E+00 0.  1.
          4    1    3    3  501    0 -0.29637852979E+03  0.33648423851E+03 -0.10051429918E+04  0.11006245089E+04  0.00000000000E+00 0.  1.
         13    1    4    4    0    0 -0.27342742832E+03 -0.37291174353E+03 -0.28856062491E+03  0.54506235646E+03  0.10566000000E+00 0. -1.
         -4    1    4    4    0  503  0.22222002640E+03  0.38012823455E+03  0.12730761016E+03  0.45835187623E+03  0.00000000000E+00 0. -1.
<mgrwt>
<rscale>  2 0.10718060E+04</rscale>
<asrwt>0</asrwt>
<pdfrwt beam="1">  1       21 0.97788902E-01 0.11004121E+04</pdfrwt>
<pdfrwt beam="2">  1       21 0.30666711E+00 0.11004121E+04</pdfrwt>
<totfact> 0.98900383E+00</totfact>
</mgrwt>
</event>
<event>
 8    1  0.7208583E-006  0.1078109E+04  0.7818608E-02  0.8706998E-01
         21   -1    0    0  503  502  0.00000000000E+00  0.00000000000E+00  0.58570533325E+03  0.58570533325E+03  0.00000000000E+00 0. -1.
         21   -1    0    0  501  503 -0.00000000000E+00 -0.00000000000E+00 -0.22200129620E+04  0.22200129620E+04  0.00000000000E+00 0. -1.
    9000010    2    1    2  501    0  0.10725530626E+03  0.33722869074E+03 -0.12984028982E+04  0.16876516705E+04  0.10183767398E+04 0.  0.
   -9000010    2    1    2    0  502 -0.10725530626E+03 -0.33722869074E+03 -0.33590473051E+03  0.11180666248E+04  0.10059891147E+04 0.  0.
        -13    1    3    3    0    0  0.24953183053E+03 -0.18134856315E+03 -0.10517293142E+04  0.10960328450E+04  0.10566000000E+00 0.  1.
          4    1    3    3  501    0 -0.14227652427E+03  0.51857725389E+03 -0.24667358404E+03  0.59161882549E+03  0.00000000000E+00 0.  1.
         13    1    4    4    0    0  0.31809502307E+03  0.20031905141E+02  0.17478611570E+03  0.36350504582E+03  0.10566000000E+00 0. -1.
         -4    1    4    4    0  502 -0.42535032934E+03 -0.35726059588E+03 -0.51069084621E+03  0.75456157896E+03  0.00000000000E+00 0. -1.
<mgrwt>
<rscale>  2 0.10751732E+04</rscale>
<asrwt>0</asrwt>
<pdfrwt beam="1">  1       21 0.90108512E-01 0.10781086E+04</pdfrwt>
<pdfrwt beam="2">  1       21 0.34154046E+00 0.10781086E+04</pdfrwt>
<totfact> 0.69713439E+00</totfact>
</mgrwt>
</event>
<event>
 8    1  0.7208583E-006  0.1098550E+04  0.7818608E-02  0.8688662E-01
         21   -1    0    0  501  502  0.00000000000E+00  0.00000000000E+00  0.11725204073E+04  0.11725204073E+04  0.00000000000E+00 0.  1.
         21   -1    0    0  502  503 -0.00000000000E+00 -0.00000000000E+00 -0.11584021528E+04  0.11584021528E+04  0.00000000000E+00 0. -1.
    9000010    2    1    2  501    0  0.44274916140E+03  0.39697425371E+02  0.40625198922E+03  0.11644831769E+04  0.99668334242E+03 0.  0.
   -9000010    2    1    2    0  503 -0.44274916140E+03 -0.39697425371E+02 -0.39213373468E+03  0.11664393832E+04  0.10045940788E+04 0.  0.
        -13    1    3    3    0    0  0.50150221889E+02 -0.42346858422E+03 -0.13004961143E+02  0.42662609713E+03  0.10566000000E+00 0.  1.
          4    1    3    3  501    0  0.39259893951E+03  0.46316600959E+03  0.41925695037E+03  0.73785707978E+03  0.00000000000E+00 0.  1.
         13    1    4    4    0    0  0.63970028960E+02  0.39589779710E+03 -0.27944662890E+03  0.48879204159E+03  0.10566000000E+00 0. -1.
         -4    1    4    4    0  503 -0.50671919036E+03 -0.43559522247E+03 -0.11268710578E+03  0.67764734156E+03  0.00000000000E+00 0. -1.
<mgrwt>
<rscale>  2 0.10967381E+04</rscale>
<asrwt>0</asrwt>
<pdfrwt beam="1">  1       21 0.18038775E+00 0.10985499E+04</pdfrwt>
<pdfrwt beam="2">  1       21 0.17821572E+00 0.10985499E+04</pdfrwt>
<totfact> 0.14688924E+01</totfact>
</mgrwt>
</event>
<event>
 8    1  0.7208583E-006  0.1113193E+04  0.7818608E-02  0.8675073E-01
         21   -1    0    0  501  502  0.00000000000E+00  0.00000000000E+00  0.10516635498E+04  0.10516635498E+04  0.00000000000E+00 0.  1.
         21   -1    0    0  502  503 -0.00000000000E+00 -0.00000000000E+00 -0.16480362977E+04  0.16480362977E+04  0.00000000000E+00 0.  1.
    9000010    2    1    2  501    0 -0.20993175264E+03 -0.47068124742E+03  0.42293559612E+03  0.11903331386E+04  0.98610662959E+03 0.  0.
   -9000010    2    1    2    0  503  0.20993175264E+03  0.47068124742E+03 -0.10193083440E+04  0.15093667089E+04  0.98670470976E+03 0.  0.
        -13    1    3    3    0    0 -0.91345449253E+02 -0.69642412877E+03  0.56229913162E+03  0.89973934159E+03  0.10566000000E+00 0.  1.
          4    1    3    3  501    0 -0.11858630339E+03  0.22574288134E+03 -0.13936353549E+03  0.29059379700E+03  0.00000000000E+00 0.  1.
         13    1    4    4    0    0  0.25288547495E+03  0.72817922814E+03 -0.97768119167E+03  0.12450126808E+04  0.10566000000E+00 0. -1.
         -4    1    4    4    0  503 -0.42953722308E+02 -0.25749798072E+03 -0.41627152346E+02  0.26435402805E+03  0.00000000000E+00 0. -1.
<mgrwt>
<rscale>  2 0.11130603E+04</rscale>
<asrwt>0</asrwt>
<pdfrwt beam="1">  1       21 0.16179439E+00 0.11131929E+04</pdfrwt>
<pdfrwt beam="2">  1       21 0.25354404E+00 0.11131929E+04</pdfrwt>
<totfact> 0.55681394E+00</totfact>
</mgrwt>
</event>
<event>
 8    1  0.7208583E-006  0.1126103E+04  0.7818608E-02  0.8665526E-01
         21   -1    0    0  503  502  0.00000000000E+00  0.00000000000E+00  0.13616649764E+04  0.13616649764E+04  0.00000000000E+00 0. -1.
         21   -1    0    0  501  503 -0.00000000000E+00 -0.00000000000E+00 -0.10450538489E+04  0.10450538489E+04  0.00000000000E+00 0.  1.
    9000010    2    1    2  501    0  0.31405656452E+03 -0.41923978306E+03 -0.24634319832E+03  0.11527325731E+04  0.99685199118E+03 0.  0.
   -9000010    2    1    2    0  502 -0.31405656452E+03  0.41923978306E+03  0.56295432579E+03  0.12539862523E+04  0.99054047192E+03 0.  0.
        -13    1    3    3    0    0  0.21076860814E+03 -0.37042689200E+03  0.34631933951E+03  0.54915988981E+03  0.10566000000E+00 0.  1.
          4    1    3    3  501    0  0.10328795639E+03 -0.48812891057E+02 -0.59266253783E+03  0.60357268330E+03  0.00000000000E+00 0.  1.
         13    1    4    4    0    0 -0.16076034676E+03  0.74353229222E+03  0.40837276923E+03  0.86339590483E+03  0.10566000000E+00 0. -1.
         -4    1    4    4    0  502 -0.15329621776E+03 -0.32429250916E+03  0.15458155656E+03  0.39059034743E+03  0.00000000000E+00 0. -1.
<mgrwt>
<rscale>  2 0.11247043E+04</rscale>
<asrwt>0</asrwt>
<pdfrwt beam="1">  1       21 0.20948692E+00 0.11261028E+04</pdfrwt>
<pdfrwt beam="2">  1       21 0.16077752E+00 0.11261028E+04</pdfrwt>
<totfact> 0.12050254E+01</totfact>
</mgrwt>
</event>
<event>
 8    1  0.7208583E-006  0.1021154E+04  0.7818608E-02  0.8756891E-01
         21   -1    0    0  503  502  0.00000000000E+00  0.00000000000E+00  0.19654432334E+04  0.19654432334E+04  0.00000000000E+00 0. -1.
         21   -1    0    0  501  503 -0.00000000000E+00 -0.00000000000E+00 -0.69867240535E+03  0.69867240535E+03  0.00000000000E+00 0. -1.
    9000010    2    1    2  501    0 -0.13857699621E+03  0.13971598430E+03 -0.26466687863E+02  0.10214972399E+04  0.10020139647E+04 0.  0.
   -9000010    2    1    2    0  502  0.13857699621E+03 -0.13971598430E+03  0.12932375159E+04  0.16426183989E+04  0.99348265792E+03 0.  0.
        -13    1    3    3    0    0 -0.12049300207E+02  0.56366976406E+03  0.71600968694E+02  0.56832692918E+03  0.10566000000E+00 0.  1.
          4    1    3    3  501    0 -0.12652769601E+03 -0.42395377977E+03 -0.98067656558E+02  0.45317031070E+03  0.00000000000E+00 0.  1.
         13    1    4    4    0    0 -0.12359259221E+03  0.27785599909E+03  0.53950299586E+02  0.30885228034E+03  0.10566000000E+00 0. -1.
         -4    1    4    4    0  502  0.26216958842E+03 -0.41757198339E+03  0.12392872163E+04  0.13337661185E+04  0.00000000000E+00 0. -1.
<mgrwt>
<rscale>  2 0.10190553E+04</rscale>
<asrwt>0</asrwt>
<pdfrwt beam="1">  1       21 0.30237588E+00 0.10211543E+04</pdfrwt>
<pdfrwt beam="2">  1       21 0.10748806E+00 0.10211543E+04</pdfrwt>
<totfact> 0.84118210E+00</totfact>
</mgrwt>
</event>
<event>
 8    1  0.7208583E-006  0.1200771E+04  0.7818608E-02  0.8609687E-01
         21   -1    0    0  503  502  0.00000000000E+00  0.00000000000E+00  0.11468545345E+04  0.11468545345E+04  0.00000000000E+00 0. -1.
         21   -1    0    0  501  503 -0.00000000000E+00 -0.00000000000E+00 -0.14562996313E+04  0.14562996313E+04  0.00000000000E+00 0. -1.
    9000010    2    1    2  501    0 -0.42188105850E+02 -0.64383556455E+03 -0.65887821407E+03  0.13525722518E+04  0.98945799551E+03 0.  0.
   -9000010    2    1    2    0  502  0.42188105850E+02  0.64383556455E+03  0.34943311729E+03  0.12505819140E+04  0.10126932160E+04 0.  0.
        -13    1    3    3    0    0 -0.15529591726E+02 -0.54220287495E+03  0.12913504733E+03  0.55758496881E+03  0.10566000000E+00 0.  1.
          4    1    3    3  501    0 -0.26658514124E+02 -0.10163268960E+03 -0.78801326140E+03  0.79498728299E+03  0.00000000000E+00 0.  1.
         13    1    4    4    0    0  0.11804382145E+03  0.40483025764E+03 -0.32412402184E+03  0.53186302182E+03  0.10566000000E+00 0. -1.
         -4    1    4    4    0  502 -0.75855715604E+02  0.23900530691E+03  0.67355713913E+03  0.71871889219E+03  0.00000000000E+00 0. -1.
<mgrwt>
<rscale>  2 0.11958587E+04</rscale>
<asrwt>0</asrwt>
<pdfrwt beam="1">  1       21 0.17643916E+00 0.12007713E+04</pdfrwt>
<pdfrwt beam="2">  1       21 0.22404610E+00 0.12007713E+04</pdfrwt>
<totfact> 0.67834792E+00</totfact>
</mgrwt>
</event>
<event>
 8    1  0.7208583E-006  0.1083370E+04  0.7818608E-02  0.8705217E-01
         21   -1    0    0  503  502  0.00000000000E+00  0.00000000000E+00  0.80089379678E+03  0.80089379678E+03  0.00000000000E+00 0. -1.
         21   -1    0    0  501  503 -0.00000000000E+00 -0.00000000000E+00 -0.15388982574E+04  0.15388982574E+04  0.00000000000E+00 0. -1.
    9000010    2    1    2  501    0  0.67381629727E+02  0.37915152502E+03 -0.68006227393E+03  0.12791307008E+04  0.10126176428E+04 0.  0.
   -9000010    2    1    2    0  502 -0.67381629727E+02 -0.37915152502E+03 -0.57942186709E+02  0.10606613533E+04  0.98658453592E+03 0.  0.
        -13    1    3    3    0    0 -0.22491277082E+03 -0.23209885683E+03 -0.46880939884E+03  0.56941891207E+03  0.10566000000E+00 0.  1.
          4    1    3    3  501    0  0.29229440054E+03  0.61125038185E+03 -0.21125287509E+03  0.70971178878E+03  0.00000000000E+00 0.  1.
         13    1    4    4    0    0 -0.12615701006E+03 -0.49986456772E+03 -0.42606832387E+03  0.66881567342E+03  0.10566000000E+00 0. -1.
         -4    1    4    4    0  502  0.58775380329E+02  0.12071304269E+03  0.36812613716E+03  0.39184567992E+03  0.00000000000E+00 0. -1.
<mgrwt>
<rscale>  2 0.10772452E+04</rscale>
<asrwt>0</asrwt>
<pdfrwt beam="1">  1       21 0.12321443E+00 0.10833700E+04</pdfrwt>
<pdfrwt beam="2">  1       21 0.23675358E+00 0.10833700E+04</pdfrwt>
<totfact> 0.16855728E+01</totfact>
</mgrwt>
</event>
<event>
 8    1  0.7208583E-006  0.1048284E+04  0.7818608E-02  0.8734734E-01
         21   -1    0    0  503  502  0.00000000000E+00  0.00000000000E+00  0.73575565297E+03  0.73575565297E+03  0.00000000000E+00 0.  1.
         21   -1    0    0  501  503 -0.00000000000E+00 -0.00000000000E+00 -0.15074659791E+04  0.15074659791E+04  0.00000000000E+00 0.  1.
    9000010    2    1    2  501    0 -0.16480128053E+03 -0.29275764339E+02 -0.56672966564E+03  0.11750846630E+04  0.10156893811E+04 0.  0.
   -9000010    2    1    2    0  502  0.16480128053E+03  0.29275764339E+02 -0.20498066049E+03  0.10681369691E+04  0.10348347603E+04 0.  0.
        -13    1    3    3    0    0 -0.38712697923E+03 -0.40994739596E+03 -0.44343630522E+03  0.71732833030E+03  0.10566000000E+00 0.  1.
          4    1    3    3  501    0  0.22232569870E+03  0.38067163162E+03 -0.12329336042E+03  0.45775633272E+03  0.00000000000E+00 0.  1.
         13    1    4    4    0    0 -0.39029884046E+03 -0.19626716227E+03 -0.16721696529E+03  0.46777719963E+03  0.10566000000E+00 0. -1.
         -4    1    4    4    0  502  0.55510012099E+03  0.22554292661E+03 -0.37763695200E+02  0.60035976942E+03  0.00000000000E+00 0. -1.
<mgrwt>
<rscale>  2 0.10435280E+04</rscale>
<asrwt>0</asrwt>
<pdfrwt beam="1">  1       21 0.11319318E+00 0.10482841E+04</pdfrwt>
<pdfrwt beam="2">  1       21 0.23191784E+00 0.10482841E+04</pdfrwt>
<totfact> 0.23352842E+01</totfact>
</mgrwt>
</event>
<event>
 8    1  0.7208583E-006  0.1361904E+04  0.7818608E-02  0.8509015E-01
         21   -1    0    0  503  502  0.00000000000E+00  0.00000000000E+00  0.12212318567E+04  0.12212318567E+04  0.00000000000E+00 0. -1.
         21   -1    0    0  501  503 -0.00000000000E+00 -0.00000000000E+00 -0.20158484930E+04  0.20158484930E+04  0.00000000000E+00 0.  1.
    9000010    2    1    2  501    0  0.64324178496E+03 -0.64535577905E+03 -0.12876816188E+04  0.18742750192E+04  0.10121950508E+04 0.  0.
   -9000010    2    1    2    0  502 -0.64324178496E+03  0.64535577905E+03  0.49306498249E+03  0.13628053305E+04  0.88537066616E+03 0.  0.
        -13    1    3    3    0    0  0.70996806953E+03 -0.10620697528E+02 -0.80949066545E+03  0.10767741674E+04  0.10566000000E+00 0.  1.
          4    1    3    3  501    0 -0.66726284568E+02 -0.63473508152E+03 -0.47819095334E+03  0.79750085180E+03  0.00000000000E+00 0.  1.
         13    1    4    4    0    0 -0.68602708271E+02  0.31958222599E+03  0.60992563784E+03  0.69198874673E+03  0.10566000000E+00 0. -1.
         -4    1    4    4    0  502 -0.57463907669E+03  0.32577355306E+03 -0.11686065535E+03  0.67081658380E+03  0.00000000000E+00 0. -1.
<mgrwt>
<rscale>  2 0.13384497E+04</rscale>
<asrwt>0</asrwt>
<pdfrwt beam="1">  1       21 0.18788183E+00 0.13619041E+04</pdfrwt>
<pdfrwt beam="2">  1       21 0.31013054E+00 0.13619041E+04</pdfrwt>
<totfact> 0.12643565E+00</totfact>
</mgrwt>
</event>
<event>
 8    1  0.7208583E-006  0.1017032E+04  0.7818608E-02  0.8767978E-01
         21   -1    0    0  503  502  0.00000000000E+00  0.00000000000E+00  0.63341249551E+03  0.63341249551E+03  0.00000000000E+00 0.  1.
         21   -1    0    0  501  503 -0.00000000000E+00 -0.00000000000E+00 -0.16738908119E+04  0.16738908119E+04  0.00000000000E+00 0.  1.
    9000010    2    1    2  501    0 -0.86296072735E+02  0.67899657025E+02 -0.81645685446E+03  0.13042069936E+04  0.10110868960E+04 0.  0.
   -9000010    2    1    2    0  502  0.86296072735E+02 -0.67899657025E+02 -0.22402146197E+03  0.10030963139E+04  0.97157563984E+03 0.  0.
        -13    1    3    3    0    0  0.60590789347E+02 -0.46231278431E+03 -0.39656419083E+03  0.61210090909E+03  0.10566000000E+00 0.  1.
          4    1    3    3  501    0 -0.14688686208E+03  0.53021244134E+03 -0.41989266363E+03  0.69210608448E+03  0.00000000000E+00 0.  1.
         13    1    4    4    0    0  0.48842101758E+02 -0.29537696902E+03  0.30416480127E+03  0.42678957605E+03  0.10566000000E+00 0. -1.
         -4    1    4    4    0  502  0.37453970977E+02  0.22747731199E+03 -0.52818626323E+03  0.57630673784E+03  0.00000000000E+00 0. -1.
<mgrwt>
<rscale>  2 0.10070688E+04</rscale>
<asrwt>0</asrwt>
<pdfrwt beam="1">  1       21 0.97448076E-01 0.10170320E+04</pdfrwt>
<pdfrwt beam="2">  1       21 0.25752166E+00 0.10170320E+04</pdfrwt>
<totfact> 0.22774924E+01</totfact>
</mgrwt>
</event>
<event>
 8    1  0.7208583E-006  0.1078882E+04  0.7818608E-02  0.8704288E-01
         21   -1    0    0  501  502  0.00000000000E+00  0.00000000000E+00  0.18886027433E+04  0.18886027433E+04  0.00000000000E+00 0.  1.
         21   -1    0    0  502  503 -0.00000000000E+00 -0.00000000000E+00 -0.20491978774E+04  0.20491978774E+04  0.00000000000E+00 0.  1.
    9000010    2    1    2  501    0  0.39940979023E+02  0.40637192314E+03  0.15668563861E+04  0.19011182647E+04  0.99623205122E+03 0.  0.
   -9000010    2    1    2    0  503 -0.39940979023E+02 -0.40637192314E+03 -0.17274515202E+04  0.20366823561E+04  0.99862547692E+03 0.  0.
        -13    1    3    3    0    0  0.41705311873E+03 -0.11471540896E+03  0.66822893290E+03  0.79600430076E+03  0.10566000000E+00 0.  1.
          4    1    3    3  501    0 -0.37711213971E+03  0.52108733210E+03  0.89862745322E+03  0.11051139639E+04  0.00000000000E+00 0.  1.
         13    1    4    4    0    0  0.35327516888E+03 -0.29588721143E+03 -0.29503870253E+03  0.54717495739E+03  0.10566000000E+00 0. -1.
         -4    1    4    4    0  503 -0.39321614790E+03 -0.11048471171E+03 -0.14324128177E+04  0.14895073987E+04  0.00000000000E+00 0. -1.
<mgrwt>
<rscale>  2 0.10783278E+04</rscale>
<asrwt>0</asrwt>
<pdfrwt beam="1">  1       21 0.29055427E+00 0.10788820E+04</pdfrwt>
<pdfrwt beam="2">  1       21 0.31526121E+00 0.10788820E+04</pdfrwt>
<totfact> 0.21457361E-01</totfact>
</mgrwt>
</event>
<event>
 8    1  0.7208583E-006  0.9698602E+03  0.7818608E-02  0.8809566E-01
         21   -1    0    0  501  502  0.00000000000E+00  0.00000000000E+00  0.83153149608E+03  0.83153149608E+03  0.00000000000E+00 0.  1.
         21   -1    0    0  502  503 -0.00000000000E+00 -0.00000000000E+00 -0.11144299610E+04  0.11144299610E+04  0.00000000000E+00 0.  1.
    9000010    2    1    2  501    0  0.22496967717E+02 -0.38932837775E+02 -0.42400231125E+02  0.97078656716E+03  0.96881726862E+03 0.  0.
   -9000010    2    1    2    0  503 -0.22496967717E+02  0.38932837775E+02 -0.24049823384E+03  0.97517488995E+03  0.94398346707E+03 0.  0.
        -13    1    3    3    0    0 -0.75387184407E+02  0.50228809004E+02 -0.49293969122E+03  0.50119428486E+03  0.10566000000E+00 0.  1.
          4    1    3    3  501    0  0.97884152124E+02 -0.89161646779E+02  0.45053946010E+03  0.46959228230E+03  0.00000000000E+00 0.  1.
         13    1    4    4    0    0  0.17746321577E+03  0.21319014698E+03  0.27803555908E+03  0.39274293755E+03  0.10566000000E+00 0. -1.
         -4    1    4    4    0  503 -0.19996018349E+03 -0.17425730920E+03 -0.51853379291E+03  0.58243195241E+03  0.00000000000E+00 0. -1.
<mgrwt>
<rscale>  2 0.96359820E+03</rscale>
<asrwt>0</asrwt>
<pdfrwt beam="1">  1       21 0.12792792E+00 0.96986019E+03</pdfrwt>
<pdfrwt beam="2">  1       21 0.17145076E+00 0.96986019E+03</pdfrwt>
<totfact> 0.50051652E+01</totfact>
</mgrwt>
</event>
<event>
 8    1  0.7208583E-006  0.1051420E+04  0.7818608E-02  0.8732776E-01
         21   -1    0    0  503  502  0.00000000000E+00  0.00000000000E+00  0.11146134378E+04  0.11146134378E+04  0.00000000000E+00 0.  1.
         21   -1    0    0  501  503 -0.00000000000E+00 -0.00000000000E+00 -0.11520407210E+04  0.11520407210E+04  0.00000000000E+00 0.  1.
    9000010    2    1    2  501    0  0.54402385185E+02  0.25274086631E+03 -0.46827783549E+03  0.11303808297E+04  0.99581078725E+03 0.  0.
   -9000010    2    1    2    0  502 -0.54402385185E+02 -0.25274086631E+03  0.43085055230E+03  0.11362733290E+04  0.10191404784E+04 0.  0.
        -13    1    3    3    0    0 -0.13331275683E+03  0.56330987393E+03 -0.50160545897E+03  0.76596237038E+03  0.10566000000E+00 0.  1.
          4    1    3    3  501    0  0.18771514202E+03 -0.31056900761E+03  0.33327623480E+02  0.36441845936E+03  0.00000000000E+00 0.  1.
         13    1    4    4    0    0 -0.27545283716E+03 -0.56425003868E+03  0.11006254602E+03  0.63746854577E+03  0.10566000000E+00 0. -1.
         -4    1    4    4    0  502  0.22105045197E+03  0.31150917237E+03  0.32078800629E+03  0.49880478322E+03  0.00000000000E+00 0. -1.
<mgrwt>
<rscale>  2 0.10457249E+04</rscale>
<asrwt>0</asrwt>
<pdfrwt beam="1">  1       21 0.17147899E+00 0.10514204E+04</pdfrwt>
<pdfrwt beam="2">  1       21 0.17723703E+00 0.10514204E+04</pdfrwt>
<totfact> 0.17912936E+01</totfact>
</mgrwt>
</event>
<event>
 8    1  0.7208583E-006  0.9954740E+03  0.7818608E-02  0.8779947E-01
         21   -1    0    0  503  502  0.00000000000E+00  0.00000000000E+00  0.94619495623E+03  0.94619495623E+03  0.00000000000E+00 0.  1.
         21   -1    0    0  501  503 -0.00000000000E+00 -0.00000000000E+00 -0.10547131017E+04  0.10547131017E+04  0.00000000000E+00 0.  1.
    9000010    2    1    2  501    0 -0.10993622959E+03 -0.28773355045E+02 -0.16214246315E+03  0.10085923964E+04  0.98896641154E+03 0.  0.
   -9000010    2    1    2    0  502  0.10993622959E+03  0.28773355045E+02  0.53624317698E+02  0.99231566152E+03  0.98432765079E+03 0.  0.
        -13    1    3    3    0    0 -0.76288986263E+02  0.47225523248E+03 -0.16617830277E+03  0.50641904931E+03  0.10566000000E+00 0.  1.
          4    1    3    3  501    0 -0.33647243325E+02 -0.50102858753E+03  0.40358396204E+01  0.50217334707E+03  0.00000000000E+00 0.  1.
         13    1    4    4    0    0  0.51781421538E+03 -0.14320166236E+03  0.10261262668E+03  0.54696219255E+03  0.10566000000E+00 0. -1.
         -4    1    4    4    0  502 -0.40787798580E+03  0.17197501741E+03 -0.48988308978E+02  0.44535346897E+03  0.00000000000E+00 0. -1.
<mgrwt>
<rscale>  2 0.99431990E+03</rscale>
<asrwt>0</asrwt>
<pdfrwt beam="1">  1       21 0.14556845E+00 0.99547398E+03</pdfrwt>
<pdfrwt beam="2">  1       21 0.16226355E+00 0.99547398E+03</pdfrwt>
<totfact> 0.40659919E+01</totfact>
</mgrwt>
</event>
<event>
 8    1  0.7208583E-006  0.1048266E+04  0.7818608E-02  0.8732835E-01
         21   -1    0    0  501  502  0.00000000000E+00  0.00000000000E+00  0.83410711658E+03  0.83410711658E+03  0.00000000000E+00 0. -1.
         21   -1    0    0  502  503 -0.00000000000E+00 -0.00000000000E+00 -0.14839143767E+04  0.14839143767E+04  0.00000000000E+00 0. -1.
    9000010    2    1    2  501    0  0.13447296831E+03  0.21843037675E+03 -0.72945611456E+03  0.12770935636E+04  0.10163990056E+04 0.  0.
   -9000010    2    1    2    0  503 -0.13447296831E+03 -0.21843037675E+03  0.79648854425E+02  0.10409279297E+04  0.10056799720E+04 0.  0.
        -13    1    3    3    0    0 -0.40324496878E+03 -0.37672753599E+02 -0.11422629655E+03  0.42080090209E+03  0.10566000000E+00 0.  1.
          4    1    3    3  501    0  0.53771793709E+03  0.25610313035E+03 -0.61522981800E+03  0.85629266154E+03  0.00000000000E+00 0.  1.
         13    1    4    4    0    0 -0.27586653562E+03 -0.22495335704E+03 -0.40315076643E+03  0.53780750269E+03  0.10566000000E+00 0. -1.
         -4    1    4    4    0  503  0.14139356731E+03  0.65229802905E+01  0.48279962085E+03  0.50312042698E+03  0.00000000000E+00 0. -1.
<mgrwt>
<rscale>  2 0.10456589E+04</rscale>
<asrwt>0</asrwt>
<pdfrwt beam="1">  1       21 0.12832417E+00 0.10482661E+04</pdfrwt>
<pdfrwt beam="2">  1       21 0.22829452E+00 0.10482661E+04</pdfrwt>
<totfact> 0.17479147E+01</totfact>
</mgrwt>
</event>
<event>
 8    1  0.7208583E-006  0.1018559E+04  0.7818608E-02  0.8770013E-01
         21   -1    0    0  501  502  0.00000000000E+00  0.00000000000E+00  0.13196122068E+04  0.13196122068E+04  0.00000000000E+00 0.  1.
         21   -1    0    0  502  503 -0.00000000000E+00 -0.00000000000E+00 -0.94811826016E+03  0.94811826016E+03  0.00000000000E+00 0.  1.
    9000010    2    1    2  501    0  0.11420863523E+03  0.11647248383E+03  0.70599472003E+03  0.11956512074E+04  0.95107508278E+03 0.  0.
   -9000010    2    1    2    0  503 -0.11420863523E+03 -0.11647248383E+03 -0.33450077333E+03  0.10720792596E+04  0.10054122139E+04 0.  0.
        -13    1    3    3    0    0 -0.10456091812E+03  0.50632115022E+03  0.40461087505E+03  0.65650899775E+03  0.10566000000E+00 0.  1.
          4    1    3    3  501    0  0.21876955335E+03 -0.38984866639E+03  0.30138384498E+03  0.53914220960E+03  0.00000000000E+00 0.  1.
         13    1    4    4    0    0 -0.15162305559E+03 -0.36976610831E+03  0.22367405670E+03  0.45798102651E+03  0.10566000000E+00 0. -1.
         -4    1    4    4    0  503  0.37414420362E+02  0.25329362448E+03 -0.55817483004E+03  0.61409823314E+03  0.00000000000E+00 0. -1.
<mgrwt>
<rscale>  2 0.10048874E+04</rscale>
<asrwt>0</asrwt>
<pdfrwt beam="1">  1       21 0.20301726E+00 0.10185594E+04</pdfrwt>
<pdfrwt beam="2">  1       21 0.14586435E+00 0.10185594E+04</pdfrwt>
<totfact> 0.18754923E+01</totfact>
</mgrwt>
</event>
<event>
 8    1  0.7208583E-006  0.1059628E+04  0.7818608E-02  0.8724082E-01
         21   -1    0    0  501  502  0.00000000000E+00  0.00000000000E+00  0.92341299230E+03  0.92341299230E+03  0.00000000000E+00 0. -1.
         21   -1    0    0  502  503 -0.00000000000E+00 -0.00000000000E+00 -0.16538760578E+04  0.16538760578E+04  0.00000000000E+00 0. -1.
    9000010    2    1    2  501    0  0.40558327884E+02  0.31657284689E+03  0.31381524907E+03  0.10895632020E+04  0.99338039810E+03 0.  0.
   -9000010    2    1    2    0  503 -0.40558327884E+02 -0.31657284689E+03 -0.10442783146E+04  0.14877258481E+04  0.10104195442E+04 0.  0.
        -13    1    3    3    0    0 -0.22923435128E+03  0.20853213842E+03  0.60400729028E+03  0.67886586189E+03  0.10566000000E+00 0.  1.
          4    1    3    3  501    0  0.26979267916E+03  0.10804070847E+03 -0.29019204121E+03  0.41069734014E+03  0.00000000000E+00 0.  1.
         13    1    4    4    0    0  0.16914605032E+03  0.14663500084E+03 -0.94308381302E+03  0.96928803736E+03  0.10566000000E+00 0. -1.
         -4    1    4    4    0  503 -0.20970437821E+03 -0.46320784772E+03 -0.10119450155E+03  0.51843781071E+03  0.00000000000E+00 0. -1.
<mgrwt>
<rscale>  2 0.10555454E+04</rscale>
<asrwt>0</asrwt>
<pdfrwt beam="1">  1       21 0.14206354E+00 0.10596278E+04</pdfrwt>
<pdfrwt beam="2">  1       21 0.25444247E+00 0.10596278E+04</pdfrwt>
<totfact> 0.83122688E+00</totfact>
</mgrwt>
</event>
<event>
 8    1  0.7208583E-006  0.1026757E+04  0.7818608E-02  0.8757897E-01
         21   -1    0    0  501  502  0.00000000000E+00  0.00000000000E+00  0.15742245042E+04  0.15742245042E+04  0.00000000000E+00 0. -1.
         21   -1    0    0  502  503 -0.00000000000E+00 -0.00000000000E+00 -0.68876556574E+03  0.68876556574E+03  0.00000000000E+00 0. -1.
    9000010    2    1    2  501    0 -0.60112048694E+02  0.30026132013E+02  0.72775211294E+03  0.12585126314E+04  0.10245564301E+04 0.  0.
   -9000010    2    1    2    0  503  0.60112048694E+02 -0.30026132013E+02  0.15770682547E+03  0.10044774385E+04  0.98974161008E+03 0.  0.
        -13    1    3    3    0    0  0.35694618719E+03 -0.40664077199E+02 -0.60134567501E+02  0.36425310582E+03  0.10566000000E+00 0.  1.
          4    1    3    3  501    0 -0.41705823589E+03  0.70690209211E+02  0.78788668044E+03  0.89425952554E+03  0.00000000000E+00 0.  1.
         13    1    4    4    0    0  0.28964910486E+03  0.13848860166E+03 -0.31682938473E+03  0.45106159993E+03  0.10566000000E+00 0. -1.
         -4    1    4    4    0  503 -0.22953705617E+03 -0.16851473368E+03  0.47453621020E+03  0.55341583860E+03  0.00000000000E+00 0. -1.
<mgrwt>
<rscale>  2 0.10179607E+04</rscale>
<asrwt>0</asrwt>
<pdfrwt beam="1">  1       21 0.24218839E+00 0.10267575E+04</pdfrwt>
<pdfrwt beam="2">  1       21 0.10596393E+00 0.10267575E+04</pdfrwt>
<totfact> 0.23565337E+01</totfact>
</mgrwt>
</event>
<event>
 8    1  0.7208583E-006  0.1010811E+04  0.7818608E-02  0.8765684E-01
         21   -1    0    0  501  502  0.00000000000E+00  0.00000000000E+00  0.13939499659E+04  0.13939499659E+04  0.00000000000E+00 0.  1.
         21   -1    0    0  502  503 -0.00000000000E+00 -0.00000000000E+00 -0.12426659184E+04  0.12426659184E+04  0.00000000000E+00 0.  1.
    9000010    2    1    2  501    0 -0.10731328725E+03  0.26765451937E+02  0.92309084090E+03  0.13688808617E+04  0.10047415498E+04 0.  0.
   -9000010    2    1    2    0  503  0.10731328725E+03 -0.26765451937E+02 -0.77180679343E+03  0.12677350225E+04  0.99961684157E+03 0.  0.
        -13    1    3    3    0    0 -0.24206298263E+03 -0.27378145258E+03  0.96965439520E+03  0.10362337712E+04  0.10566000000E+00 0.  1.
          4    1    3    3  501    0  0.13474969538E+03  0.30054690452E+03 -0.46563554300E+02  0.33264709049E+03  0.00000000000E+00 0.  1.
         13    1    4    4    0    0 -0.44514693553E+03 -0.21671352900E+02 -0.26809701232E+03  0.52009754943E+03  0.10566000000E+00 0. -1.
         -4    1    4    4    0  503  0.55246022278E+03 -0.50940990369E+01 -0.50370978111E+03  0.74763747311E+03  0.00000000000E+00 0. -1.
<mgrwt>
<rscale>  2 0.10095348E+04</rscale>
<asrwt>0</asrwt>
<pdfrwt beam="1">  1       21 0.21445384E+00 0.10108106E+04</pdfrwt>
<pdfrwt beam="2">  1       21 0.19117937E+00 0.10108106E+04</pdfrwt>
<totfact> 0.63636930E+00</totfact>
</mgrwt>
</event>
<event>
 8    1  0.7208583E-006  0.1006800E+04  0.7818608E-02  0.8771855E-01
         21   -1    0    0  501  502  0.00000000000E+00  0.00000000000E+00  0.14285868125E+04  0.14285868125E+04  0.00000000000E+00 0. -1.
         21   -1    0    0  502  503 -0.00000000000E+00 -0.00000000000E+00 -0.80874451641E+03  0.80874451641E+03  0.00000000000E+00 0. -1.
    9000010    2    1    2  501    0  0.12626176982E+03 -0.41155637051E+01  0.72047882920E+03  0.12255142107E+04  0.98327837607E+03 0.  0.
   -9000010    2    1    2    0  503 -0.12626176982E+03  0.41155637051E+01 -0.10063653315E+03  0.10118171182E+04  0.99884292883E+03 0.  0.
        -13    1    3    3    0    0  0.39983796660E+03  0.17888572327E+03  0.77660778833E+03  0.89162221237E+03  0.10566000000E+00 0.  1.
          4    1    3    3  501    0 -0.27357619678E+03 -0.18300128697E+03 -0.56128959139E+02  0.33389199830E+03  0.00000000000E+00 0.  1.
         13    1    4    4    0    0 -0.55183375412E+03  0.10607410864E+03 -0.11662143037E+03  0.57391007823E+03  0.10566000000E+00 0. -1.
         -4    1    4    4    0  503  0.42557198430E+03 -0.10195854493E+03  0.15984897218E+02  0.43790703996E+03  0.00000000000E+00 0. -1.
<mgrwt>
<rscale>  2 0.10029177E+04</rscale>
<asrwt>0</asrwt>
<pdfrwt beam="1">  1       21 0.21978259E+00 0.10068000E+04</pdfrwt>
<pdfrwt beam="2">  1       21 0.12442223E+00 0.10068000E+04</pdfrwt>
<totfact> 0.22323899E+01</totfact>
</mgrwt>
</event>
<event>
 8    1  0.7208583E-006  0.1114338E+04  0.7818608E-02  0.8692424E-01
         21   -1    0    0  503  502  0.00000000000E+00  0.00000000000E+00  0.11698408362E+04  0.11698408362E+04  0.00000000000E+00 0.  1.
         21   -1    0    0  501  503 -0.00000000000E+00 -0.00000000000E+00 -0.11223677851E+04  0.11223677851E+04  0.00000000000E+00 0.  1.
    9000010    2    1    2  501    0 -0.25885497720E+03 -0.31314313388E+03 -0.38129412409E+03  0.11777664752E+04  0.10376339141E+04 0.  0.
   -9000010    2    1    2    0  502  0.25885497720E+03  0.31314313388E+03  0.42876717513E+03  0.11144421461E+04  0.94502671124E+03 0.  0.
        -13    1    3    3    0    0 -0.95117532623E+02 -0.57141402028E+03  0.11903961051E+03  0.59138123712E+03  0.10566000000E+00 0.  1.
          4    1    3    3  501    0 -0.16373744457E+03  0.25827088640E+03 -0.50033373460E+03  0.58638523813E+03  0.00000000000E+00 0.  1.
         13    1    4    4    0    0 -0.19043783042E+02 -0.21214165634E+03 -0.16873489851E+03  0.27173189943E+03  0.10566000000E+00 0. -1.
         -4    1    4    4    0  502  0.27789876024E+03  0.52528479022E+03  0.59750207364E+03  0.84271024664E+03  0.00000000000E+00 0. -1.
<mgrwt>
<rscale>  2 0.10922713E+04</rscale>
<asrwt>0</asrwt>
<pdfrwt beam="1">  1       21 0.17997551E+00 0.11143378E+04</pdfrwt>
<pdfrwt beam="2">  1       21 0.17267197E+00 0.11143378E+04</pdfrwt>
<totfact> 0.16394918E+01</totfact>
</mgrwt>
</event>
<event>
 8    1  0.7208583E-006  0.1010065E+04  0.7818608E-02  0.8773443E-01
         21   -1    0    0  503  502  0.00000000000E+00  0.00000000000E+00  0.92191273896E+03  0.92191273896E+03  0.00000000000E+00 0. -1.
         21   -1    0    0  501  503 -0.00000000000E+00 -0.00000000000E+00 -0.16042347605E+04  0.16042347605E+04  0.00000000000E+00 0. -1.
    9000010    2    1    2  501    0 -0.13091282106E+03 -0.30913799796E+02 -0.10748317556E+04  0.14749558208E+04  0.10010681998E+04 0.  0.
   -9000010    2    1    2    0  502  0.13091282106E+03  0.30913799796E+02  0.39250973414E+03  0.10511916786E+04  0.96583964715E+03 0.  0.
        -13    1    3    3    0    0 -0.49199075707E+03 -0.23174068020E+02 -0.20568609211E+03  0.53375904875E+03  0.10566000000E+00 0.  1.
          4    1    3    3  501    0  0.36107793602E+03 -0.77397317757E+01 -0.86914566354E+03  0.94119677209E+03  0.00000000000E+00 0.  1.
         13    1    4    4    0    0 -0.45172061509E+02  0.43636278328E+03 -0.29988486689E+02  0.43971844886E+03  0.10566000000E+00 0. -1.
         -4    1    4    4    0  502  0.17608488256E+03 -0.40544898348E+03  0.42249822082E+03  0.61147322973E+03  0.00000000000E+00 0. -1.
<mgrwt>
<rscale>  2 0.10012238E+04</rscale>
<asrwt>0</asrwt>
<pdfrwt beam="1">  1       21 0.14183273E+00 0.10100650E+04</pdfrwt>
<pdfrwt beam="2">  1       21 0.24680535E+00 0.10100650E+04</pdfrwt>
<totfact> 0.96064205E+00</totfact>
</mgrwt>
</event>
<event>
 8    1  0.7208583E-006  0.1031336E+04  0.7818608E-02  0.8750073E-01
         21   -1    0    0  501  502  0.00000000000E+00  0.00000000000E+00  0.98021770020E+03  0.98021770020E+03  0.00000000000E+00 0. -1.
         21   -1    0    0  502  503 -0.00000000000E+00 -0.00000000000E+00 -0.12182492111E+04  0.12182492111E+04  0.00000000000E+00 0. -1.
    9000010    2    1    2  501    0 -0.10829791715E+03  0.16763607608E+03  0.27175182097E+03  0.10480176532E+04  0.99230119234E+03 0.  0.
   -9000010    2    1    2    0  503  0.10829791715E+03 -0.16763607608E+03 -0.50978333184E+03  0.11504492581E+04  0.10118419625E+04 0.  0.
        -13    1    3    3    0    0  0.28240272183E+03  0.42545292488E+03  0.27483192310E+03  0.57990868739E+03  0.10566000000E+00 0.  1.
          4    1    3    3  501    0 -0.39070063898E+03 -0.25781684881E+03 -0.30801021246E+01  0.46810896579E+03  0.00000000000E+00 0.  1.
         13    1    4    4    0    0  0.49645323011E+03 -0.12941856256E+02 -0.53734988477E+03  0.73169543606E+03  0.10566000000E+00 0. -1.
         -4    1    4    4    0  503 -0.38815531295E+03 -0.15469421982E+03  0.27566552929E+02  0.41875382202E+03  0.00000000000E+00 0. -1.
<mgrwt>
<rscale>  2 0.10265114E+04</rscale>
<asrwt>0</asrwt>
<pdfrwt beam="1">  1       21 0.15080272E+00 0.10313362E+04</pdfrwt>
<pdfrwt beam="2">  1       21 0.18742295E+00 0.10313362E+04</pdfrwt>
<totfact> 0.22407589E+01</totfact>
</mgrwt>
</event>
<event>
 8    1  0.7208583E-006  0.1185624E+04  0.7818608E-02  0.8620854E-01
         21   -1    0    0  501  502  0.00000000000E+00  0.00000000000E+00  0.20930299536E+04  0.20930299536E+04  0.00000000000E+00 0.  1.
         21   -1    0    0  502  503 -0.00000000000E+00 -0.00000000000E+00 -0.72061975010E+03  0.72061975010E+03  0.00000000000E+00 0.  1.
    9000010    2    1    2  501    0 -0.62562813426E+03 -0.13734428898E+03  0.10932259220E+04  0.16127142651E+04  0.99771256801E+03 0.  0.
   -9000010    2    1    2    0  503  0.62562813426E+03  0.13734428898E+03  0.27918428156E+03  0.12009354386E+04  0.97674359407E+03 0.  0.
        -13    1    3    3    0    0  0.53359263074E+02 -0.30333201363E+03  0.79536360985E+03  0.85291312833E+03  0.10566000000E+00 0.  1.
          4    1    3    3  501    0 -0.67898739733E+03  0.16598772466E+03  0.29786231211E+03  0.75980113678E+03  0.00000000000E+00 0.  1.
         13    1    4    4    0    0  0.44500897964E+03  0.44838441389E+03  0.47594761249E+03  0.79095367473E+03  0.10566000000E+00 0. -1.
         -4    1    4    4    0  503  0.18061915462E+03 -0.31104012491E+03 -0.19676333093E+03  0.40998176388E+03  0.00000000000E+00 0. -1.
<mgrwt>
<rscale>  2 0.11812017E+04</rscale>
<asrwt>0</asrwt>
<pdfrwt beam="1">  1       21 0.32200461E+00 0.11856240E+04</pdfrwt>
<pdfrwt beam="2">  1       21 0.11086458E+00 0.11856240E+04</pdfrwt>
<totfact> 0.54258771E+00</totfact>
</mgrwt>
</event>
<event>
 8    1  0.7208583E-006  0.1004239E+04  0.7818608E-02  0.8770901E-01
         21   -1    0    0  501  502  0.00000000000E+00  0.00000000000E+00  0.10472238497E+04  0.10472238497E+04  0.00000000000E+00 0.  1.
         21   -1    0    0  502  503 -0.00000000000E+00 -0.00000000000E+00 -0.10146310337E+04  0.10146310337E+04  0.00000000000E+00 0.  1.
    9000010    2    1    2  501    0  0.36772119926E+01  0.61153828193E+01  0.25140879663E+03  0.10352308288E+04  0.10042139046E+04 0.  0.
   -9000010    2    1    2    0  503 -0.36772119926E+01 -0.61153828193E+01 -0.21881598063E+03  0.10266240546E+04  0.10030082733E+04 0.  0.
        -13    1    3    3    0    0 -0.46066804150E+03 -0.16210743903E+03  0.23278564515E+03  0.54100187985E+03  0.10566000000E+00 0.  1.
          4    1    3    3  501    0  0.46434525350E+03  0.16822282185E+03  0.18623151481E+02  0.49422894898E+03  0.00000000000E+00 0.  1.
         13    1    4    4    0    0 -0.23092136124E+03 -0.27004589530E+03 -0.47577509600E+03  0.59381092427E+03  0.10566000000E+00 0. -1.
         -4    1    4    4    0  503  0.22724414925E+03  0.26393051248E+03  0.25695911537E+03  0.43281313029E+03  0.00000000000E+00 0. -1.
<mgrwt>
<rscale>  2 0.10039377E+04</rscale>
<asrwt>0</asrwt>
<pdfrwt beam="1">  1       21 0.16111136E+00 0.10042393E+04</pdfrwt>
<pdfrwt beam="2">  1       21 0.15609708E+00 0.10042393E+04</pdfrwt>
<totfact> 0.33466742E+01</totfact>
</mgrwt>
</event>
<event>
 8    1  0.7208583E-006  0.1059483E+04  0.7818608E-02  0.8722699E-01
         21   -1    0    0  503  502  0.00000000000E+00  0.00000000000E+00  0.17252491680E+04  0.17252491680E+04  0.00000000000E+00 0.  1.
         21   -1    0    0  501  503 -0.00000000000E+00 -0.00000000000E+00 -0.69245565920E+03  0.69245565920E+03  0.00000000000E+00 0.  1.
    9000010    2    1    2  501    0  0.38809856651E+02  0.32545897690E+03  0.19730854184E+03  0.10684309177E+04  0.99758920137E+03 0.  0.
   -9000010    2    1    2    0  502 -0.38809856651E+02 -0.32545897690E+03  0.83548496698E+03  0.13492739095E+04  0.10075094055E+04 0.  0.
        -13    1    3    3    0    0  0.28960607724E+03  0.58647574519E+03  0.25471286298E+03  0.70192886634E+03  0.10566000000E+00 0.  1.
          4    1    3    3  501    0 -0.25079622059E+03 -0.26101676829E+03 -0.57404321145E+02  0.36650205140E+03  0.00000000000E+00 0.  1.
         13    1    4    4    0    0 -0.42788852388E+03 -0.74393546586E+02  0.49618920001E+02  0.43713274531E+03  0.10566000000E+00 0. -1.
         -4    1    4    4    0  502  0.38907866723E+03 -0.25106543031E+03  0.78586604698E+03  0.91214116418E+03  0.00000000000E+00 0. -1.
<mgrwt>
<rscale>  2 0.10571182E+04</rscale>
<asrwt>0</asrwt>
<pdfrwt beam="1">  1       21 0.26542295E+00 0.10594833E+04</pdfrwt>
<pdfrwt beam="2">  1       21 0.10653164E+00 0.10594833E+04</pdfrwt>
<totfact> 0.15645153E+01</totfact>
</mgrwt>
</event>
<event>
 8    1  0.7208583E-006  0.1037268E+04  0.7818608E-02  0.8741145E-01
         21   -1    0    0  501  502  0.00000000000E+00  0.00000000000E+00  0.17785668420E+04  0.17785668420E+04  0.00000000000E+00 0. -1.
         21   -1    0    0  502  503 -0.00000000000E+00 -0.00000000000E+00 -0.79300288846E+03  0.79300288846E+03  0.00000000000E+00 0. -1.
    9000010    2    1    2  501    0  0.55860433656E+02 -0.29577218927E+03  0.11230330352E+04  0.15287667226E+04  0.99263433251E+03 0.  0.
   -9000010    2    1    2    0  503 -0.55860433656E+02  0.29577218927E+03 -0.13746908172E+03  0.10428030078E+04  0.98890787670E+03 0.  0.
        -13    1    3    3    0    0 -0.11213045655E+02 -0.65031073488E+03  0.87775455064E+03  0.10924664053E+04  0.10566000000E+00 0.  1.
          4    1    3    3  501    0  0.67073479311E+02  0.35453854561E+03  0.24527848458E+03  0.43630031738E+03  0.00000000000E+00 0.  1.
         13    1    4    4    0    0  0.75350774719E+01 -0.23590204135E+03 -0.38604226988E+03  0.45247673510E+03  0.10566000000E+00 0. -1.
         -4    1    4    4    0  503 -0.63395511128E+02  0.53167423062E+03  0.24857318816E+03  0.59032627267E+03  0.00000000000E+00 0. -1.
<mgrwt>
<rscale>  2 0.10363753E+04</rscale>
<asrwt>0</asrwt>
<pdfrwt beam="1">  1       21 0.27362567E+00 0.10372678E+04</pdfrwt>
<pdfrwt beam="2">  1       21 0.12200044E+00 0.10372678E+04</pdfrwt>
<totfact> 0.94669163E+00</totfact>
</mgrwt>
</event>
<event>
 8    1  0.7208583E-006  0.1055494E+04  0.7818608E-02  0.8728396E-01
         21   -1    0    0  501  502  0.00000000000E+00  0.00000000000E+00  0.81165728304E+03  0.81165728304E+03  0.00000000000E+00 0.  1.
         21   -1    0    0  502  503 -0.00000000000E+00 -0.00000000000E+00 -0.13508135870E+04  0.13508135870E+04  0.00000000000E+00 0.  1.
    9000010    2    1    2  501    0  0.90440319018E+02  0.92690462993E+02 -0.31888516401E+03  0.10842374821E+04  0.10281596163E+04 0.  0.
   -9000010    2    1    2    0  503 -0.90440319018E+02 -0.92690462993E+02 -0.22027113992E+03  0.10782333879E+04  0.10475193986E+04 0.  0.
        -13    1    3    3    0    0 -0.22743214534E+02 -0.31688916607E+03 -0.52369114400E+03  0.61252626299E+03  0.10566000000E+00 0.  1.
          4    1    3    3  501    0  0.11318353355E+03  0.40957962906E+03  0.20480597999E+03  0.47171121913E+03  0.00000000000E+00 0.  1.
         13    1    4    4    0    0  0.29541587097E+03 -0.13199376170E+03  0.29190303961E+03  0.43577549914E+03  0.10566000000E+00 0. -1.
         -4    1    4    4    0  503 -0.38585618999E+03  0.39303298711E+02 -0.51217417954E+03  0.64245788876E+03  0.00000000000E+00 0. -1.
<mgrwt>
<rscale>  2 0.10506583E+04</rscale>
<asrwt>0</asrwt>
<pdfrwt beam="1">  1       21 0.12487035E+00 0.10554941E+04</pdfrwt>
<pdfrwt beam="2">  1       21 0.20781747E+00 0.10554941E+04</pdfrwt>
<totfact> 0.26951330E+01</totfact>
</mgrwt>
</event>
<event>
 8    1  0.7208583E-006  0.1081043E+04  0.7818608E-02  0.8705492E-01
         21   -1    0    0  501  502  0.00000000000E+00  0.00000000000E+00  0.31962341526E+04  0.31962341526E+04  0.00000000000E+00 0. -1.
         21   -1    0    0  502  503 -0.00000000000E+00 -0.00000000000E+00 -0.39582986401E+03  0.39582986401E+03  0.00000000000E+00 0. -1.
    9000010    2    1    2  501    0 -0.16949198268E+03 -0.25710703746E+03  0.87045885035E+03  0.13879312058E+04  0.10362542453E+04 0.  0.
   -9000010    2    1    2    0  503  0.16949198268E+03  0.25710703746E+03  0.19299454382E+04  0.22041328109E+04  0.10191567555E+04 0.  0.
        -13    1    3    3    0    0  0.31062585830E+03 -0.54642785596E+02  0.80275406438E+03  0.86248962713E+03  0.10566000000E+00 0.  1.
          4    1    3    3  501    0 -0.48011784097E+03 -0.20246425186E+03  0.67704785969E+02  0.52544157862E+03  0.00000000000E+00 0.  1.
         13    1    4    4    0    0  0.54493237817E+03  0.36746482737E+03  0.13871730666E+04  0.15350018971E+04  0.10566000000E+00 0. -1.
         -4    1    4    4    0  503 -0.37544039549E+03 -0.11035778992E+03  0.54277237164E+03  0.66913091378E+03  0.00000000000E+00 0. -1.
<mgrwt>
<rscale>  2 0.10769252E+04</rscale>
<asrwt>0</asrwt>
<pdfrwt beam="1">  1       21 0.49172831E+00 0.10810432E+04</pdfrwt>
<pdfrwt beam="2">  1       21 0.60896904E-01 0.10810432E+04</pdfrwt>
<totfact> 0.16153274E+00</totfact>
</mgrwt>
</event>
<event>
 8    1  0.7208583E-006  0.1083729E+04  0.7818608E-02  0.8705134E-01
         21   -1    0    0  501  502  0.00000000000E+00  0.00000000000E+00  0.96528748006E+03  0.96528748006E+03  0.00000000000E+00 0.  1.
         21   -1    0    0  502  503 -0.00000000000E+00 -0.00000000000E+00 -0.16887943340E+04  0.16887943340E+04  0.00000000000E+00 0.  1.
    9000010    2    1    2  501    0  0.34075715960E+03  0.91065552420E+02  0.36354962873E+03  0.11191025268E+04  0.99790468299E+03 0.  0.
   -9000010    2    1    2    0  503 -0.34075715960E+03 -0.91065552420E+02 -0.10870564827E+04  0.15349792872E+04  0.10247249577E+04 0.  0.
        -13    1    3    3    0    0  0.16343675959E+03 -0.15020270104E+02  0.70289187092E+03  0.72179926314E+03  0.10566000000E+00 0.  1.
          4    1    3    3  501    0  0.17732040001E+03  0.10608582252E+03 -0.33934224219E+03  0.39730326369E+03  0.00000000000E+00 0.  1.
         13    1    4    4    0    0 -0.70398194148E+03 -0.11224697468E+03 -0.79997552754E+03  0.10715179948E+04  0.10566000000E+00 0. -1.
         -4    1    4    4    0  503  0.36322478188E+03  0.21181422255E+02 -0.28708095511E+03  0.46346129246E+03  0.00000000000E+00 0. -1.
<mgrwt>
<rscale>  2 0.10773422E+04</rscale>
<asrwt>0</asrwt>
<pdfrwt beam="1">  1       21 0.14850577E+00 0.10837295E+04</pdfrwt>
<pdfrwt beam="2">  1       21 0.25981451E+00 0.10837295E+04</pdfrwt>
<totfact> 0.66058072E+00</totfact>
</mgrwt>
</event>
<event>
 8    1  0.7208583E-006  0.1081508E+04  0.7818608E-02  0.8704086E-01
         21   -1    0    0  503  502  0.00000000000E+00  0.00000000000E+00  0.14164639889E+04  0.14164639889E+04  0.00000000000E+00 0.  1.
         21   -1    0    0  501  503 -0.00000000000E+00 -0.00000000000E+00 -0.10714367786E+04  0.10714367786E+04  0.00000000000E+00 0.  1.
    9000010    2    1    2  501    0 -0.31366739965E+03 -0.27281773643E+03 -0.43315786739E+03  0.11650261755E+04  0.99842050091E+03 0.  0.
   -9000010    2    1    2    0  502  0.31366739965E+03  0.27281773643E+03  0.77818507766E+03  0.13228745920E+04  0.98570199158E+03 0.  0.
        -13    1    3    3    0    0  0.11312459298E+03 -0.46505583370E+03  0.63194342839E+02  0.48277079253E+03  0.10566000000E+00 0.  1.
          4    1    3    3  501    0 -0.42679199263E+03  0.19223809727E+03 -0.49635221023E+03  0.68225538299E+03  0.00000000000E+00 0.  1.
         13    1    4    4    0    0  0.29578887772E+03  0.14386896626E+03 -0.16691581904E+03  0.36884989013E+03  0.10566000000E+00 0. -1.
         -4    1    4    4    0  502  0.17878521929E+02  0.12894877017E+03  0.94510089670E+03  0.95402470189E+03  0.00000000000E+00 0. -1.
<mgrwt>
<rscale>  2 0.10785638E+04</rscale>
<asrwt>0</asrwt>
<pdfrwt beam="1">  1       21 0.21791754E+00 0.10815083E+04</pdfrwt>
<pdfrwt beam="2">  1       21 0.16483643E+00 0.10815083E+04</pdfrwt>
<totfact> 0.96901857E+00</totfact>
</mgrwt>
</event>
<event>
 8    1  0.7208583E-006  0.1103817E+04  0.7818608E-02  0.8688419E-01
         21   -1    0    0  501  502  0.00000000000E+00  0.00000000000E+00  0.14642120734E+04  0.14642120734E+04  0.00000000000E+00 0. -1.
         21   -1    0    0  502  503 -0.00000000000E+00 -0.00000000000E+00 -0.98483522907E+03  0.98483522907E+03  0.00000000000E+00 0. -1.
    9000010    2    1    2  501    0  0.45874340777E+03  0.11498646320E+03 -0.27087122709E+03  0.11365665544E+04  0.99736899389E+03 0.  0.
   -9000010    2    1    2    0  503 -0.45874340777E+03 -0.11498646320E+03  0.75024807139E+03  0.13124807481E+04  0.96750511345E+03 0.  0.
        -13    1    3    3    0    0 -0.13996070566E+03  0.38466052701E+03 -0.24992011114E+03  0.47959649007E+03  0.10566000000E+00 0.  1.
          4    1    3    3  501    0  0.59870411343E+03 -0.26967406381E+03 -0.20951115948E+02  0.65697006431E+03  0.00000000000E+00 0.  1.
         13    1    4    4    0    0 -0.64267624177E+03 -0.13657897998E+03  0.13604627942E+03  0.67096584922E+03  0.10566000000E+00 0. -1.
         -4    1    4    4    0  503  0.18393283400E+03  0.21592516779E+02  0.61420179197E+03  0.64151489886E+03  0.00000000000E+00 0. -1.
<mgrwt>
<rscale>  2 0.10970278E+04</rscale>
<asrwt>0</asrwt>
<pdfrwt beam="1">  1       21 0.22526340E+00 0.11038172E+04</pdfrwt>
<pdfrwt beam="2">  1       21 0.15151311E+00 0.11038172E+04</pdfrwt>
<totfact> 0.11081692E+01</totfact>
</mgrwt>
</event>
<event>
 8    1  0.7208583E-006  0.1183487E+04  0.7818608E-02  0.8625914E-01
         21   -1    0    0  501  502  0.00000000000E+00  0.00000000000E+00  0.24859104568E+04  0.24859104568E+04  0.00000000000E+00 0. -1.
         21   -1    0    0  502  503 -0.00000000000E+00 -0.00000000000E+00 -0.13147534225E+04  0.13147534225E+04  0.00000000000E+00 0.  1.
    9000010    2    1    2  501    0  0.36512972957E+03 -0.45614342160E+03  0.20341378872E+04  0.23359534723E+04  0.98872399602E+03 0.  0.
   -9000010    2    1    2    0  503 -0.36512972957E+03  0.45614342160E+03 -0.86298085287E+03  0.14647104069E+04  0.10292007012E+04 0.  0.
        -13    1    3    3    0    0  0.65294242812E+03 -0.61519436605E+02  0.10660944638E+04  0.12516692344E+04  0.10566000000E+00 0.  1.
          4    1    3    3  501    0 -0.28781269855E+03 -0.39462398500E+03  0.96804342343E+03  0.10842842379E+04  0.00000000000E+00 0.  1.
         13    1    4    4    0    0  0.30558876506E+03 -0.22433855148E+02 -0.56160202228E+02  0.31151524949E+03  0.10566000000E+00 0. -1.
         -4    1    4    4    0  503 -0.67071849463E+03  0.47857727675E+03 -0.80682065064E+03  0.11531951574E+04  0.00000000000E+00 0. -1.
<mgrwt>
<rscale>  2 0.11746312E+04</rscale>
<asrwt>0</asrwt>
<pdfrwt beam="1">  1       21 0.38244776E+00 0.11834866E+04</pdfrwt>
<pdfrwt beam="2">  1       21 0.20226976E+00 0.11834866E+04</pdfrwt>
<totfact> 0.31406341E-01</totfact>
</mgrwt>
</event>
<event>
 8    1  0.7208583E-006  0.1065834E+04  0.7818608E-02  0.8729998E-01
         21   -1    0    0  503  502  0.00000000000E+00  0.00000000000E+00  0.84156765470E+03  0.84156765470E+03  0.00000000000E+00 0.  1.
         21   -1    0    0  501  503 -0.00000000000E+00 -0.00000000000E+00 -0.12888462971E+04  0.12888462971E+04  0.00000000000E+00 0.  1.
    9000010    2    1    2  501    0 -0.13065208404E+03  0.25983449238E+02 -0.36877179425E+03  0.11278273590E+04  0.10574766232E+04 0.  0.
   -9000010    2    1    2    0  502  0.13065208404E+03 -0.25983449238E+02 -0.78506848102E+02  0.10025865928E+04  0.99059146177E+03 0.  0.
        -13    1    3    3    0    0  0.19800995789E+03 -0.37788994325E+03 -0.42733452177E+03  0.60384067211E+03  0.10566000000E+00 0.  1.
          4    1    3    3  501    0 -0.32866204192E+03  0.40387339249E+03  0.58562727513E+02  0.52398668686E+03  0.00000000000E+00 0.  1.
         13    1    4    4    0    0  0.10982038492E+03 -0.45437803089E+03  0.18101059398E+03  0.50128311182E+03  0.10566000000E+00 0. -1.
         -4    1    4    4    0  502  0.20831699111E+02  0.42839458165E+03 -0.25951744208E+03  0.50130348096E+03  0.00000000000E+00 0. -1.
<mgrwt>
<rscale>  2 0.10488508E+04</rscale>
<asrwt>0</asrwt>
<pdfrwt beam="1">  1       21 0.12947195E+00 0.10658339E+04</pdfrwt>
<pdfrwt beam="2">  1       21 0.19828404E+00 0.10658339E+04</pdfrwt>
<totfact> 0.28744152E+01</totfact>
</mgrwt>
</event>
<event>
 8    1  0.7208583E-006  0.1031764E+04  0.7818608E-02  0.8750100E-01
         21   -1    0    0  501  502  0.00000000000E+00  0.00000000000E+00  0.11060758702E+04  0.11060758702E+04  0.00000000000E+00 0.  1.
         21   -1    0    0  502  503 -0.00000000000E+00 -0.00000000000E+00 -0.95022484894E+03  0.95022484894E+03  0.00000000000E+00 0.  1.
    9000010    2    1    2  501    0  0.12230386662E+03 -0.11806324051E+02  0.16844986108E+03  0.10454244239E+04  0.10244214198E+04 0.  0.
   -9000010    2    1    2    0  503 -0.12230386662E+03  0.11806324051E+02 -0.12598839817E+02  0.10108762953E+04  0.10033018133E+04 0.  0.
        -13    1    3    3    0    0  0.53962466959E+03  0.50040816237E+02  0.27866362227E+03  0.60938681711E+03  0.10566000000E+00 0.  1.
          4    1    3    3  501    0 -0.41732080298E+03 -0.61847140288E+02 -0.11021376119E+03  0.43603760677E+03  0.00000000000E+00 0.  1.
         13    1    4    4    0    0 -0.40248682522E+03  0.12743291556E+03 -0.35642970666E+03  0.55251872312E+03  0.10566000000E+00 0. -1.
         -4    1    4    4    0  503  0.28018295860E+03 -0.11562659151E+03  0.34383086684E+03  0.45835757215E+03  0.00000000000E+00 0. -1.
<mgrwt>
<rscale>  2 0.10264820E+04</rscale>
<asrwt>0</asrwt>
<pdfrwt beam="1">  1       21 0.17016552E+00 0.10317640E+04</pdfrwt>
<pdfrwt beam="2">  1       21 0.14618844E+00 0.10317640E+04</pdfrwt>
<totfact> 0.34129754E+01</totfact>
</mgrwt>
</event>
<event>
 8    1  0.7208583E-006  0.1011681E+04  0.7818608E-02  0.8767697E-01
         21   -1    0    0  503  502  0.00000000000E+00  0.00000000000E+00  0.63703930133E+03  0.63703930133E+03  0.00000000000E+00 0.  1.
         21   -1    0    0  501  503 -0.00000000000E+00 -0.00000000000E+00 -0.16260534810E+04  0.16260534810E+04  0.00000000000E+00 0.  1.
    9000010    2    1    2  501    0 -0.16005189618E+03  0.17537123472E+02 -0.68173578477E+03  0.12057761233E+04  0.98143171904E+03 0.  0.
   -9000010    2    1    2    0  502  0.16005189618E+03 -0.17537123472E+02 -0.30727839486E+03  0.10573166590E+04  0.99878643626E+03 0.  0.
        -13    1    3    3    0    0  0.35727115124E+02 -0.42976905107E+03 -0.93459584118E+02  0.44126247183E+03  0.10566000000E+00 0.  1.
          4    1    3    3  501    0 -0.19577901130E+03  0.44730617454E+03 -0.58827620065E+03  0.76451365148E+03  0.00000000000E+00 0.  1.
         13    1    4    4    0    0 -0.13401043469E+03  0.42078640237E+03  0.95292577927E+01  0.44171349418E+03  0.10566000000E+00 0. -1.
         -4    1    4    4    0  502  0.29406233087E+03 -0.43832352584E+03 -0.31680765266E+03  0.61560316481E+03  0.00000000000E+00 0. -1.
<mgrwt>
<rscale>  2 0.10073711E+04</rscale>
<asrwt>0</asrwt>
<pdfrwt beam="1">  1       21 0.98006048E-01 0.10116810E+04</pdfrwt>
<pdfrwt beam="2">  1       21 0.25016207E+00 0.10116810E+04</pdfrwt>
<totfact> 0.25403874E+01</totfact>
</mgrwt>
</event>
<event>
 8    1  0.7208583E-006  0.1032302E+04  0.7818608E-02  0.8745303E-01
         21   -1    0    0  501  502  0.00000000000E+00  0.00000000000E+00  0.11242871415E+04  0.11242871415E+04  0.00000000000E+00 0.  1.
         21   -1    0    0  502  503 -0.00000000000E+00 -0.00000000000E+00 -0.12589236789E+04  0.12589236789E+04  0.00000000000E+00 0.  1.
    9000010    2    1    2  501    0  0.23983971458E+03 -0.64440768924E+01  0.52693442791E+03  0.11571099739E+04  0.10018378041E+04 0.  0.
   -9000010    2    1    2    0  503 -0.23983971458E+03  0.64440768924E+01 -0.66157096537E+03  0.12261008465E+04  0.10040331312E+04 0.  0.
        -13    1    3    3    0    0  0.15908576943E+03 -0.10985009048E+02  0.82910551041E+03  0.84430143374E+03  0.10566000000E+00 0.  1.
          4    1    3    3  501    0  0.80753945154E+02  0.45409321560E+01 -0.30217108250E+03  0.31280854020E+03  0.00000000000E+00 0.  1.
         13    1    4    4    0    0 -0.58435276952E+03 -0.11490408360E+03 -0.61800070891E+03  0.85825170845E+03  0.10566000000E+00 0. -1.
         -4    1    4    4    0  503  0.34451305494E+03  0.12134816049E+03 -0.43570256459E+02  0.36784913800E+03  0.00000000000E+00 0. -1.
<mgrwt>
<rscale>  2 0.10317677E+04</rscale>
<asrwt>0</asrwt>
<pdfrwt beam="1">  1       21 0.17296725E+00 0.10323019E+04</pdfrwt>
<pdfrwt beam="2">  1       21 0.19368057E+00 0.10323019E+04</pdfrwt>
<totfact> 0.12888701E+01</totfact>
</mgrwt>
</event>
<event>
 8    1  0.7208583E-006  0.1054392E+04  0.7818608E-02  0.8727224E-01
         21   -1    0    0  501  502  0.00000000000E+00  0.00000000000E+00  0.11211876532E+04  0.11211876532E+04  0.00000000000E+00 0.  1.
         21   -1    0    0  502  503 -0.00000000000E+00 -0.00000000000E+00 -0.10207636266E+04  0.10207636266E+04  0.00000000000E+00 0.  1.
    9000010    2    1    2  501    0 -0.32621146490E+03  0.22729608755E+02 -0.15673011070E+03  0.10659765469E+04  0.10024026716E+04 0.  0.
   -9000010    2    1    2    0  503  0.32621146490E+03 -0.22729608755E+02  0.25715413723E+03  0.10759747329E+04  0.99230177895E+03 0.  0.
        -13    1    3    3    0    0  0.31867311790E+03 -0.19137604417E+03 -0.95069034060E+02  0.38368669349E+03  0.10566000000E+00 0.  1.
          4    1    3    3  501    0 -0.64488458281E+03  0.21410565293E+03 -0.61661076637E+02  0.68228985346E+03  0.00000000000E+00 0.  1.
         13    1    4    4    0    0  0.29611876449E+02  0.46911594467E+03  0.10113762305E+03  0.48080709513E+03  0.10566000000E+00 0. -1.
         -4    1    4    4    0  503  0.29659958845E+03 -0.49184555343E+03  0.15601651418E+03  0.59516763772E+03  0.00000000000E+00 0. -1.
<mgrwt>
<rscale>  2 0.10519838E+04</rscale>
<asrwt>0</asrwt>
<pdfrwt beam="1">  1       21 0.17249041E+00 0.10543916E+04</pdfrwt>
<pdfrwt beam="2">  1       21 0.15704056E+00 0.10543916E+04</pdfrwt>
<totfact> 0.26016869E+01</totfact>
</mgrwt>
</event>
<event>
 8    1  0.7208583E-006  0.1145075E+04  0.7818608E-02  0.8649823E-01
         21   -1    0    0  501  502  0.00000000000E+00  0.00000000000E+00  0.15221512044E+04  0.15221512044E+04  0.00000000000E+00 0. -1.
         21   -1    0    0  502  503 -0.00000000000E+00 -0.00000000000E+00 -0.10622280745E+04  0.10622280745E+04  0.00000000000E+00 0. -1.
    9000010    2    1    2  501    0 -0.51081397847E+03 -0.21924078495E+03  0.79525501745E+03  0.13912136787E+04  0.99701931507E+03 0.  0.
   -9000010    2    1    2    0  503  0.51081397847E+03  0.21924078495E+03 -0.33533188754E+03  0.11931656002E+04  0.10010990123E+04 0.  0.
        -13    1    3    3    0    0  0.29090622377E+03 -0.16085285109E+03  0.29486250060E+03  0.44434668464E+03  0.10566000000E+00 0.  1.
          4    1    3    3  501    0 -0.80172020224E+03 -0.58387933862E+02  0.50039251685E+03  0.94686699405E+03  0.00000000000E+00 0.  1.
         13    1    4    4    0    0  0.38403300120E+03  0.50287985328E+03 -0.53097197386E+03  0.82601497628E+03  0.10566000000E+00 0. -1.
         -4    1    4    4    0  503  0.12678097727E+03 -0.28363906833E+03  0.19564008633E+03  0.36715062394E+03  0.00000000000E+00 0. -1.
<mgrwt>
<rscale>  2 0.11441827E+04</rscale>
<asrwt>0</asrwt>
<pdfrwt beam="1">  1       21 0.23417711E+00 0.11450750E+04</pdfrwt>
<pdfrwt beam="2">  1       21 0.16341970E+00 0.11450750E+04</pdfrwt>
<totfact> 0.74220933E+00</totfact>
</mgrwt>
</event>
<event>
 8    1  0.7208583E-006  0.1109973E+04  0.7818608E-02  0.8678352E-01
         21   -1    0    0  501  502  0.00000000000E+00  0.00000000000E+00  0.61204502338E+03  0.61204502338E+03  0.00000000000E+00 0.  1.
         21   -1    0    0  502  503 -0.00000000000E+00 -0.00000000000E+00 -0.26229135173E+04  0.26229135173E+04  0.00000000000E+00 0.  1.
    9000010    2    1    2  501    0  0.45478317989E+03 -0.25131867687E+02 -0.22018427419E+03  0.11281623961E+04  0.10083699350E+04 0.  0.
   -9000010    2    1    2    0  503 -0.45478317989E+03  0.25131867687E+02 -0.17906842197E+04  0.21067961446E+04  0.10122157224E+04 0.  0.
        -13    1    3    3    0    0  0.27223519532E+03 -0.48152275487E+03 -0.30142833101E+03  0.62994858118E+03  0.10566000000E+00 0.  1.
          4    1    3    3  501    0  0.18254798457E+03  0.45639088718E+03  0.81244056822E+02  0.49821381488E+03  0.00000000000E+00 0.  1.
         13    1    4    4    0    0  0.28345438902E+03 -0.50824406090E+02 -0.91336006643E+03  0.95768268911E+03  0.10566000000E+00 0. -1.
         -4    1    4    4    0  503 -0.73823756891E+03  0.75956273776E+02 -0.87732415326E+03  0.11491134555E+04  0.00000000000E+00 0. -1.
<mgrwt>
<rscale>  2 0.11090955E+04</rscale>
<asrwt>0</asrwt>
<pdfrwt beam="1">  1       21 0.94160774E-01 0.11099730E+04</pdfrwt>
<pdfrwt beam="2">  1       21 0.40352515E+00 0.11099730E+04</pdfrwt>
<totfact> 0.22774783E+00</totfact>
</mgrwt>
</event>
<event>
 8    1  0.7208583E-006  0.1138416E+04  0.7818608E-02  0.8665521E-01
         21   -1    0    0  503  502  0.00000000000E+00  0.00000000000E+00  0.10954251512E+04  0.10954251512E+04  0.00000000000E+00 0.  1.
         21   -1    0    0  501  503 -0.00000000000E+00 -0.00000000000E+00 -0.20011887076E+04  0.20011887076E+04  0.00000000000E+00 0.  1.
    9000010    2    1    2  501    0  0.54319937745E+03  0.29959328893E+02 -0.14693896534E+04  0.18263126629E+04  0.93826907878E+03 0.  0.
   -9000010    2    1    2    0  502 -0.54319937745E+03 -0.29959328893E+02  0.56362609698E+03  0.12703011959E+04  0.10000138130E+04 0.  0.
        -13    1    3    3    0    0  0.15744815733E+01 -0.32193240563E+03 -0.93217896183E+03  0.98620514135E+03  0.10566000000E+00 0.  1.
          4    1    3    3  501    0  0.54162489587E+03  0.35189173452E+03 -0.53721069154E+03  0.84010752154E+03  0.00000000000E+00 0.  1.
         13    1    4    4    0    0 -0.38666203494E+03  0.39941964854E+03  0.59237561630E+03  0.81237458531E+03  0.10566000000E+00 0. -1.
         -4    1    4    4    0  502 -0.15653734250E+03 -0.42937897743E+03 -0.28749519320E+02  0.45792661063E+03  0.00000000000E+00 0. -1.
<mgrwt>
<rscale>  2 0.11247112E+04</rscale>
<asrwt>0</asrwt>
<pdfrwt beam="1">  1       21 0.16852695E+00 0.11384159E+04</pdfrwt>
<pdfrwt beam="2">  1       21 0.30787518E+00 0.11384159E+04</pdfrwt>
<totfact> 0.19860812E+00</totfact>
</mgrwt>
</event>
<event>
 8    1  0.7208583E-006  0.1004041E+04  0.7818608E-02  0.8775445E-01
         21   -1    0    0  503  502  0.00000000000E+00  0.00000000000E+00  0.11055997723E+04  0.11055997723E+04  0.00000000000E+00 0. -1.
         21   -1    0    0  501  503 -0.00000000000E+00 -0.00000000000E+00 -0.11969160237E+04  0.11969160237E+04  0.00000000000E+00 0. -1.
    9000010    2    1    2  501    0  0.28311407376E+01 -0.54370708088E+02 -0.62441366121E+03  0.11657256891E+04  0.98288339727E+03 0.  0.
   -9000010    2    1    2    0  502 -0.28311407376E+01  0.54370708088E+02  0.53309740986E+03  0.11367901069E+04  0.10025640676E+04 0.  0.
        -13    1    3    3    0    0  0.36311142801E+03  0.29986438418E+03 -0.37648518773E+03  0.60291762770E+03  0.10566000000E+00 0.  1.
          4    1    3    3  501    0 -0.36028028727E+03 -0.35423509227E+03 -0.24792847348E+03  0.56280806138E+03  0.00000000000E+00 0.  1.
         13    1    4    4    0    0  0.27316492474E+03  0.76178927497E+02  0.73914099124E+03  0.79167652561E+03  0.10566000000E+00 0. -1.
         -4    1    4    4    0  502 -0.27599606548E+03 -0.21808219409E+02 -0.20604358138E+03  0.34511358134E+03  0.00000000000E+00 0. -1.
<mgrwt>
<rscale>  2 0.99909202E+03</rscale>
<asrwt>0</asrwt>
<pdfrwt beam="1">  1       21 0.17009227E+00 0.10040413E+04</pdfrwt>
<pdfrwt beam="2">  1       21 0.18414093E+00 0.10040413E+04</pdfrwt>
<totfact> 0.16345037E+01</totfact>
</mgrwt>
</event>
<event>
 8    1  0.7208583E-006  0.1040675E+04  0.7818608E-02  0.8745204E-01
         21   -1    0    0  501  502  0.00000000000E+00  0.00000000000E+00  0.43822685762E+03  0.43822685762E+03  0.00000000000E+00 0. -1.
         21   -1    0    0  502  503 -0.00000000000E+00 -0.00000000000E+00 -0.30842454617E+04  0.30842454617E+04  0.00000000000E+00 0. -1.
    9000010    2    1    2  501    0 -0.16499190410E+03  0.26925455956E+03 -0.46980017520E+03  0.11102263172E+04  0.95507587366E+03 0.  0.
   -9000010    2    1    2    0  503  0.16499190410E+03 -0.26925455956E+03 -0.21762184289E+04  0.24122460022E+04  0.99160666518E+03 0.  0.
        -13    1    3    3    0    0  0.27837066033E+03  0.42841865497E+03 -0.12367352294E+03  0.52566902125E+03  0.10566000000E+00 0.  1.
          4    1    3    3  501    0 -0.44336256443E+03 -0.15916409541E+03 -0.34612665226E+03  0.58455729592E+03  0.00000000000E+00 0.  1.
         13    1    4    4    0    0 -0.62962848496E+02  0.35576651816E+03 -0.96371009611E+03  0.10292090634E+04  0.10566000000E+00 0. -1.
         -4    1    4    4    0  503  0.22795475260E+03 -0.62502107772E+03 -0.12125083328E+04  0.13830369387E+04  0.00000000000E+00 0. -1.
<mgrwt>
<rscale>  2 0.10318771E+04</rscale>
<asrwt>0</asrwt>
<pdfrwt beam="1">  1       21 0.67419514E-01 0.10406748E+04</pdfrwt>
<pdfrwt beam="2">  1       21 0.47449932E+00 0.10406748E+04</pdfrwt>
<totfact> 0.16940018E+00</totfact>
</mgrwt>
</event>
<event>
 8    1  0.7208583E-006  0.1099383E+04  0.7818608E-02  0.8689277E-01
         21   -1    0    0  501  502  0.00000000000E+00  0.00000000000E+00  0.42769093482E+03  0.42769093482E+03  0.00000000000E+00 0. -1.
         21   -1    0    0  502  503 -0.00000000000E+00 -0.00000000000E+00 -0.30245793657E+04  0.30245793657E+04  0.00000000000E+00 0. -1.
    9000010    2    1    2  501    0 -0.36265651092E+03 -0.26474584861E+03 -0.17702156244E+04  0.20767590000E+04  0.98876411650E+03 0.  0.
   -9000010    2    1    2    0  503  0.36265651092E+03  0.26474584861E+03 -0.82667280648E+03  0.13755113005E+04  0.10035104880E+04 0.  0.
        -13    1    3    3    0    0 -0.92665296482E+02 -0.62390033568E+03 -0.11385442307E+04  0.13015842126E+04  0.10566000000E+00 0.  1.
          4    1    3    3  501    0 -0.26999121444E+03  0.35915448708E+03 -0.63167139367E+03  0.77517478742E+03  0.00000000000E+00 0.  1.
         13    1    4    4    0    0  0.63945541343E+03  0.42634488856E+03 -0.49438317402E+03  0.91383145256E+03  0.10566000000E+00 0. -1.
         -4    1    4    4    0  503 -0.27679890251E+03 -0.16159903995E+03 -0.33228963246E+03  0.46167984793E+03  0.00000000000E+00 0. -1.
<mgrwt>
<rscale>  2 0.10960067E+04</rscale>
<asrwt>0</asrwt>
<pdfrwt beam="1">  1       21 0.65798603E-01 0.10993832E+04</pdfrwt>
<pdfrwt beam="2">  1       21 0.46531992E+00 0.10993832E+04</pdfrwt>
<totfact> 0.20528421E+00</totfact>
</mgrwt>
</event>
<event>
 8    1  0.7208583E-006  0.1020750E+04  0.7818608E-02  0.8780675E-01
         21   -1    0    0  503  502  0.00000000000E+00  0.00000000000E+00  0.32511898969E+03  0.32511898969E+03  0.00000000000E+00 0.  1.
         21   -1    0    0  501  503 -0.00000000000E+00 -0.00000000000E+00 -0.30743144575E+04  0.30743144575E+04  0.00000000000E+00 0.  1.
    9000010    2    1    2  501    0  0.15395594566E+03  0.53803432650E+02 -0.18654203271E+04  0.21264345904E+04  0.10076377465E+04 0.  0.
   -9000010    2    1    2    0  502 -0.15395594566E+03 -0.53803432650E+02 -0.88377514070E+03  0.12729988567E+04  0.90159322721E+03 0.  0.
        -13    1    3    3    0    0 -0.12001892787E+03  0.36578259939E+03 -0.15708947667E+04  0.16173780734E+04  0.10566000000E+00 0.  1.
          4    1    3    3  501    0  0.27397487354E+03 -0.31197916674E+03 -0.29452556033E+03  0.50905651700E+03  0.00000000000E+00 0.  1.
         13    1    4    4    0    0 -0.33757460890E+03  0.92605588092E+02 -0.96340085238E+03  0.10250237193E+04  0.10566000000E+00 0. -1.
         -4    1    4    4    0  502  0.18361866323E+03 -0.14640902074E+03  0.79625711678E+02  0.24797513747E+03  0.00000000000E+00 0. -1.
<mgrwt>
<rscale>  2 0.99355088E+03</rscale>
<asrwt>0</asrwt>
<pdfrwt beam="1">  1       21 0.50018305E-01 0.10207502E+04</pdfrwt>
<pdfrwt beam="2">  1       21 0.47297146E+00 0.10207502E+04</pdfrwt>
<totfact> 0.34454253E+00</totfact>
</mgrwt>
</event>
<event>
 8    1  0.7208583E-006  0.1003891E+04  0.7818608E-02  0.8772182E-01
         21   -1    0    0  503  502  0.00000000000E+00  0.00000000000E+00  0.43718980780E+03  0.43718980780E+03  0.00000000000E+00 0.  1.
         21   -1    0    0  501  503 -0.00000000000E+00 -0.00000000000E+00 -0.22988181889E+04  0.22988181889E+04  0.00000000000E+00 0.  1.
    9000010    2    1    2  501    0 -0.56401281476E+02  0.61544538672E+02 -0.86481410042E+03  0.13250283975E+04  0.10004139099E+04 0.  0.
   -9000010    2    1    2    0  502  0.56401281476E+02 -0.61544538672E+02 -0.99681428066E+03  0.14109795992E+04  0.99511601553E+03 0.  0.
        -13    1    3    3    0    0 -0.20022842277E+03  0.35514868711E+03 -0.78086012243E+01  0.40777812185E+03  0.10566000000E+00 0.  1.
          4    1    3    3  501    0  0.14382714129E+03 -0.29360414844E+03 -0.85700549920E+03  0.91725027567E+03  0.00000000000E+00 0.  1.
         13    1    4    4    0    0 -0.12582012065E+03  0.33932567843E+03 -0.48138541841E+02  0.36508896064E+03  0.10566000000E+00 0. -1.
         -4    1    4    4    0  502  0.18222140213E+03 -0.40087021710E+03 -0.94867573882E+03  0.10458906385E+04  0.00000000000E+00 0. -1.
<mgrwt>
<rscale>  2 0.10025684E+04</rscale>
<asrwt>0</asrwt>
<pdfrwt beam="1">  1       21 0.67259969E-01 0.10038908E+04</pdfrwt>
<pdfrwt beam="2">  1       21 0.35366434E+00 0.10038908E+04</pdfrwt>
<totfact> 0.11907564E+01</totfact>
</mgrwt>
</event>
<event>
 8    1  0.7208583E-006  0.1049195E+04  0.7818608E-02  0.8734724E-01
         21   -1    0    0  501  502  0.00000000000E+00  0.00000000000E+00  0.12601740951E+04  0.12601740951E+04  0.00000000000E+00 0. -1.
         21   -1    0    0  502  503 -0.00000000000E+00 -0.00000000000E+00 -0.86878080847E+03  0.86878080847E+03  0.00000000000E+00 0. -1.
    9000010    2    1    2  501    0  0.10639931125E+03 -0.21798584893E+03  0.33204871377E+03  0.11004845153E+04  0.10207698939E+04 0.  0.
   -9000010    2    1    2    0  503 -0.10639931125E+03  0.21798584893E+03  0.59344572875E+02  0.10284703883E+04  0.99769279718E+03 0.  0.
        -13    1    3    3    0    0 -0.22917091309E+03 -0.35360431534E+03 -0.19243764827E+03  0.46323598615E+03  0.10566000000E+00 0.  1.
          4    1    3    3  501    0  0.33557022434E+03  0.13561846641E+03  0.52448636204E+03  0.63724852911E+03  0.00000000000E+00 0.  1.
         13    1    4    4    0    0  0.29092916273E+03  0.25918297172E+03 -0.29954537897E+03  0.49147027965E+03  0.10566000000E+00 0. -1.
         -4    1    4    4    0  503 -0.39732847398E+03 -0.41197122794E+02  0.35888995185E+03  0.53700010866E+03  0.00000000000E+00 0. -1.
<mgrwt>
<rscale>  2 0.10435398E+04</rscale>
<asrwt>0</asrwt>
<pdfrwt beam="1">  1       21 0.19387294E+00 0.10491948E+04</pdfrwt>
<pdfrwt beam="2">  1       21 0.13365859E+00 0.10491948E+04</pdfrwt>
<totfact> 0.28495182E+01</totfact>
</mgrwt>
</event>
<event>
 8    1  0.7208583E-006  0.1098780E+04  0.7818608E-02  0.8706339E-01
         21   -1    0    0  503  502  0.00000000000E+00  0.00000000000E+00  0.10735313711E+04  0.10735313711E+04  0.00000000000E+00 0.  1.
         21   -1    0    0  501  503 -0.00000000000E+00 -0.00000000000E+00 -0.10578670691E+04  0.10578670691E+04  0.00000000000E+00 0.  1.
    9000010    2    1    2  501    0  0.17229423474E+02 -0.43977851459E+02 -0.14559199905E+03  0.11083842123E+04  0.10977648325E+04 0.  0.
   -9000010    2    1    2    0  502 -0.17229423474E+02  0.43977851459E+02  0.16125630101E+03  0.10230142279E+04  0.10091202165E+04 0.  0.
        -13    1    3    3    0    0  0.74658492158E+02 -0.37631168284E+03  0.34305107592E+03  0.51465369420E+03  0.10566000000E+00 0.  1.
          4    1    3    3  501    0 -0.57429068684E+02  0.33233383139E+03 -0.48864307497E+03  0.59373051811E+03  0.00000000000E+00 0.  1.
         13    1    4    4    0    0 -0.51350207901E+02  0.17762681453E+03  0.56598725734E+03  0.59542397981E+03  0.10566000000E+00 0. -1.
         -4    1    4    4    0  502  0.34120784427E+02 -0.13364896307E+03 -0.40473095633E+03  0.42759024810E+03  0.00000000000E+00 0. -1.
<mgrwt>
<rscale>  2 0.10759392E+04</rscale>
<asrwt>0</asrwt>
<pdfrwt beam="1">  1       21 0.16515867E+00 0.10987805E+04</pdfrwt>
<pdfrwt beam="2">  1       21 0.16274878E+00 0.10987805E+04</pdfrwt>
<totfact> 0.26510017E+01</totfact>
</mgrwt>
</event>
<event>
 8    1  0.7208583E-006  0.1023046E+04  0.7818608E-02  0.8763327E-01
         21   -1    0    0  501  502  0.00000000000E+00  0.00000000000E+00  0.13643593231E+04  0.13643593231E+04  0.00000000000E+00 0. -1.
         21   -1    0    0  502  503 -0.00000000000E+00 -0.00000000000E+00 -0.79362979308E+03  0.79362979308E+03  0.00000000000E+00 0. -1.
    9000010    2    1    2  501    0  0.96381166429E+02 -0.21898784414E+03  0.58406173098E+03  0.11780286213E+04  0.99467498298E+03 0.  0.
   -9000010    2    1    2    0  503 -0.96381166429E+02  0.21898784414E+03 -0.13332200937E+02  0.97996049495E+03  0.95021040773E+03 0.  0.
        -13    1    3    3    0    0 -0.37214650447E+03 -0.35904525518E+03  0.19328136125E+03  0.55205453700E+03  0.10566000000E+00 0.  1.
          4    1    3    3  501    0  0.46852767090E+03  0.14005741103E+03  0.39078036973E+03  0.62597408425E+03  0.00000000000E+00 0.  1.
         13    1    4    4    0    0  0.41675300479E+03  0.41856072787E+02  0.87337369104E+02  0.42785841704E+03  0.10566000000E+00 0. -1.
         -4    1    4    4    0  503 -0.51313417122E+03  0.17713177136E+03 -0.10066957004E+03  0.55210207790E+03  0.00000000000E+00 0. -1.
<mgrwt>
<rscale>  2 0.10120769E+04</rscale>
<asrwt>0</asrwt>
<pdfrwt beam="1">  1       21 0.20990144E+00 0.10230461E+04</pdfrwt>
<pdfrwt beam="2">  1       21 0.12209689E+00 0.10230461E+04</pdfrwt>
<totfact> 0.27883091E+01</totfact>
</mgrwt>
</event>
<event>
 8    1  0.7208583E-006  0.1066188E+04  0.7818608E-02  0.8725531E-01
         21   -1    0    0  501  502  0.00000000000E+00  0.00000000000E+00  0.70854074834E+03  0.70854074834E+03  0.00000000000E+00 0. -1.
         21   -1    0    0  502  503 -0.00000000000E+00 -0.00000000000E+00 -0.19691899878E+04  0.19691899878E+04  0.00000000000E+00 0. -1.
    9000010    2    1    2  501    0  0.22157820029E+02 -0.11249946531E+03 -0.12493140106E+04  0.16114822328E+04  0.10114061452E+04 0.  0.
   -9000010    2    1    2    0  503 -0.22157820029E+02  0.11249946531E+03 -0.11335228840E+02  0.10662485034E+04  0.10600048514E+04 0.  0.
        -13    1    3    3    0    0 -0.71948446821E+01 -0.11822268794E+03 -0.14266924864E+04  0.14316004442E+04  0.10566000000E+00 0.  1.
          4    1    3    3  501    0  0.29352664712E+02  0.57232226222E+01  0.17737847577E+03  0.17988178860E+03  0.00000000000E+00 0.  1.
         13    1    4    4    0    0  0.24471444430E+02 -0.38118438683E+03  0.29566228419E+03  0.48302855590E+03  0.10566000000E+00 0. -1.
         -4    1    4    4    0  503 -0.46629264459E+02  0.49368385215E+03 -0.30699751303E+03  0.58321994752E+03  0.00000000000E+00 0. -1.
<mgrwt>
<rscale>  2 0.10539016E+04</rscale>
<asrwt>0</asrwt>
<pdfrwt beam="1">  1       21 0.10900627E+00 0.10661882E+04</pdfrwt>
<pdfrwt beam="2">  1       21 0.30295230E+00 0.10661882E+04</pdfrwt>
<totfact> 0.79401381E+00</totfact>
</mgrwt>
</event>
<event>
 8    1  0.7208583E-006  0.1022496E+04  0.7818608E-02  0.8757863E-01
         21   -1    0    0  501  502  0.00000000000E+00  0.00000000000E+00  0.91242786877E+03  0.91242786877E+03  0.00000000000E+00 0.  1.
         21   -1    0    0  502  503 -0.00000000000E+00 -0.00000000000E+00 -0.11265138747E+04  0.11265138747E+04  0.00000000000E+00 0.  1.
    9000010    2    1    2  501    0  0.98240402625E+02  0.10206844901E+02 -0.13183296693E+03  0.10309602399E+04  0.10177149546E+04 0.  0.
   -9000010    2    1    2    0  503 -0.98240402625E+02 -0.10206844901E+02 -0.82253038960E+02  0.10079815035E+04  0.99975286574E+03 0.  0.
        -13    1    3    3    0    0 -0.20013985083E+03 -0.31073179959E+03  0.25287688797E+03  0.44783584358E+03  0.10566000000E+00 0.  1.
          4    1    3    3  501    0  0.29838025345E+03  0.32093864449E+03 -0.38470985490E+03  0.58312439636E+03  0.00000000000E+00 0.  1.
         13    1    4    4    0    0 -0.51142518760E+03  0.13384233150E+03 -0.18214789289E+03  0.55914878008E+03  0.10566000000E+00 0. -1.
         -4    1    4    4    0  503  0.41318478498E+03 -0.14404917640E+03  0.99894853934E+02  0.44883272341E+03  0.00000000000E+00 0. -1.
<mgrwt>
<rscale>  2 0.10179977E+04</rscale>
<asrwt>0</asrwt>
<pdfrwt beam="1">  1       21 0.14037352E+00 0.10224965E+04</pdfrwt>
<pdfrwt beam="2">  1       21 0.17330983E+00 0.10224965E+04</pdfrwt>
<totfact> 0.36379611E+01</totfact>
</mgrwt>
</event>
<event>
 8    1  0.7208583E-006  0.1045203E+04  0.7818608E-02  0.8734248E-01
         21   -1    0    0  501  502  0.00000000000E+00  0.00000000000E+00  0.90044806261E+03  0.90044806261E+03  0.00000000000E+00 0.  1.
         21   -1    0    0  502  503 -0.00000000000E+00 -0.00000000000E+00 -0.13425935029E+04  0.13425935029E+04  0.00000000000E+00 0.  1.
    9000010    2    1    2  501    0  0.18964311454E+03 -0.24808379732E+03  0.13359591532E+03  0.10537063067E+04  0.99746630559E+03 0.  0.
   -9000010    2    1    2    0  503 -0.18964311454E+03  0.24808379732E+03 -0.57574135562E+03  0.11893352588E+04  0.99273872087E+03 0.  0.
        -13    1    3    3    0    0  0.28069344947E+03 -0.26652624186E+03  0.52452925414E+03  0.65188649303E+03  0.10566000000E+00 0.  1.
          4    1    3    3  501    0 -0.91050334932E+02  0.18442444539E+02 -0.39093333882E+03  0.40181981366E+03  0.00000000000E+00 0.  1.
         13    1    4    4    0    0 -0.25922862566E+03  0.52706340939E+03 -0.66597163771E+03  0.88798285528E+03  0.10566000000E+00 0. -1.
         -4    1    4    4    0  503  0.69585511123E+02 -0.27897961207E+03  0.90230282093E+02  0.30135240353E+03  0.00000000000E+00 0. -1.
<mgrwt>
<rscale>  2 0.10440734E+04</rscale>
<asrwt>0</asrwt>
<pdfrwt beam="1">  1       21 0.13853047E+00 0.10452029E+04</pdfrwt>
<pdfrwt beam="2">  1       21 0.20655285E+00 0.10452029E+04</pdfrwt>
<totfact> 0.20434425E+01</totfact>
</mgrwt>
</event>
<event>
 8    1  0.7208583E-006  0.1073228E+04  0.7818608E-02  0.8710824E-01
         21   -1    0    0  503  502  0.00000000000E+00  0.00000000000E+00  0.88184044321E+03  0.88184044321E+03  0.00000000000E+00 0.  1.
         21   -1    0    0  501  503 -0.00000000000E+00 -0.00000000000E+00 -0.17613370371E+04  0.17613370371E+04  0.00000000000E+00 0.  1.
    9000010    2    1    2  501    0 -0.84022465974E+02  0.32450601338E+03 -0.11219172798E+04  0.15525840699E+04  0.10195366517E+04 0.  0.
   -9000010    2    1    2    0  502  0.84022465974E+02 -0.32450601338E+03  0.24242068590E+03  0.10905934103E+04  0.10090898227E+04 0.  0.
        -13    1    3    3    0    0 -0.49505405548E+03  0.22112532284E+02 -0.28300341156E+03  0.57066489646E+03  0.10566000000E+00 0.  1.
          4    1    3    3  501    0  0.41103158950E+03  0.30239348109E+03 -0.83891386821E+03  0.98191917349E+03  0.00000000000E+00 0.  1.
         13    1    4    4    0    0 -0.96090968809E+02  0.22205677658E+03 -0.23915474671E+03  0.34020242555E+03  0.10566000000E+00 0. -1.
         -4    1    4    4    0  502  0.18011343478E+03 -0.54656278996E+03  0.48157543261E+03  0.75039098479E+03  0.00000000000E+00 0. -1.
<mgrwt>
<rscale>  2 0.10707398E+04</rscale>
<asrwt>0</asrwt>
<pdfrwt beam="1">  1       21 0.13566776E+00 0.10732283E+04</pdfrwt>
<pdfrwt beam="2">  1       21 0.27097492E+00 0.10732283E+04</pdfrwt>
<totfact> 0.72238539E+00</totfact>
</mgrwt>
</event>
<event>
 8    1  0.7208583E-006  0.1066723E+04  0.7818608E-02  0.8749546E-01
         21   -1    0    0  501  502  0.00000000000E+00  0.00000000000E+00  0.99963364328E+03  0.99963364328E+03  0.00000000000E+00 0.  1.
         21   -1    0    0  502  503 -0.00000000000E+00 -0.00000000000E+00 -0.99881208352E+03  0.99881208352E+03  0.00000000000E+00 0.  1.
    9000010    2    1    2  501    0  0.24746633481E+03 -0.26427883097E+03 -0.12111175270E+03  0.92477693442E+03  0.84229533682E+03 0.  0.
   -9000010    2    1    2    0  503 -0.24746633481E+03  0.26427883097E+03  0.12193331246E+03  0.10736687924E+04  0.10034012436E+04 0.  0.
        -13    1    3    3    0    0  0.34116265122E+02 -0.19699738033E+03 -0.46975687169E+03  0.51053248385E+03  0.10566000000E+00 0.  1.
          4    1    3    3  501    0  0.21335006969E+03 -0.67281450638E+02  0.34864511898E+03  0.41424445057E+03  0.00000000000E+00 0.  1.
         13    1    4    4    0    0  0.25123580136E+03  0.38416262754E+03  0.27910933423E+03  0.53721725950E+03  0.10566000000E+00 0. -1.
         -4    1    4    4    0  503 -0.49870213618E+03 -0.11988379657E+03 -0.15717602177E+03  0.53645153288E+03  0.00000000000E+00 0. -1.
<mgrwt>
<rscale>  2 0.10270904E+04</rscale>
<asrwt>0</asrwt>
<pdfrwt beam="1">  1       21 0.15378979E+00 0.10667225E+04</pdfrwt>
<pdfrwt beam="2">  1       21 0.15366340E+00 0.10667225E+04</pdfrwt>
<totfact> 0.40146783E+01</totfact>
</mgrwt>
</event>
<event>
 8    1  0.7208583E-006  0.1092191E+04  0.7818608E-02  0.8703698E-01
         21   -1    0    0  501  502  0.00000000000E+00  0.00000000000E+00  0.12550171503E+04  0.12550171503E+04  0.00000000000E+00 0.  1.
         21   -1    0    0  502  503 -0.00000000000E+00 -0.00000000000E+00 -0.91320612896E+03  0.91320612896E+03  0.00000000000E+00 0.  1.
    9000010    2    1    2  501    0  0.38076478700E+02 -0.25422878910E+03  0.27140721569E+03  0.11254081267E+04  0.10615081156E+04 0.  0.
   -9000010    2    1    2    0  503 -0.38076478700E+02  0.25422878910E+03  0.70403805623E+02  0.10428151525E+04  0.10081788785E+04 0.  0.
        -13    1    3    3    0    0 -0.14648488754E+03  0.30686398904E+03  0.39577815372E+03  0.52178893067E+03  0.10566000000E+00 0.  1.
          4    1    3    3  501    0  0.18456136624E+03 -0.56109277814E+03 -0.12437093802E+03  0.60361919603E+03  0.00000000000E+00 0.  1.
         13    1    4    4    0    0  0.45277045335E+03 -0.44243354732E+02 -0.44048062416E+02  0.45705448344E+03  0.10566000000E+00 0. -1.
         -4    1    4    4    0  503 -0.49084693205E+03  0.29847214383E+03  0.11445186804E+03  0.58576066908E+03  0.00000000000E+00 0. -1.
<mgrwt>
<rscale>  2 0.10790159E+04</rscale>
<asrwt>0</asrwt>
<pdfrwt beam="1">  1       21 0.19307956E+00 0.10921912E+04</pdfrwt>
<pdfrwt beam="2">  1       21 0.14049325E+00 0.10921912E+04</pdfrwt>
<totfact> 0.24712572E+01</totfact>
</mgrwt>
</event>
<event>
 8    1  0.7208583E-006  0.1052067E+04  0.7818608E-02  0.8731508E-01
         21   -1    0    0  501  502  0.00000000000E+00  0.00000000000E+00  0.19539251398E+04  0.19539251398E+04  0.00000000000E+00 0.  1.
         21   -1    0    0  502  503 -0.00000000000E+00 -0.00000000000E+00 -0.67553576653E+03  0.67553576653E+03  0.00000000000E+00 0.  1.
    9000010    2    1    2  501    0  0.33493175265E+03  0.44693509459E+02  0.11971396057E+04  0.15937343399E+04  0.99632781854E+03 0.  0.
   -9000010    2    1    2    0  503 -0.33493175265E+03 -0.44693509459E+02  0.81249767581E+02  0.10357265664E+04  0.97567986907E+03 0.  0.
        -13    1    3    3    0    0  0.22666708736E+03  0.38324688818E+03  0.12244985069E+03  0.46179012862E+03  0.10566000000E+00 0.  1.
          4    1    3    3  501    0  0.10826466529E+03 -0.33855337872E+03  0.10746897550E+04  0.11319442113E+04  0.00000000000E+00 0.  1.
         13    1    4    4    0    0 -0.43656219036E+03 -0.23831976443E+02 -0.36996490299E+03  0.57273776701E+03  0.10566000000E+00 0. -1.
         -4    1    4    4    0  503  0.10163043771E+03 -0.20861533016E+02  0.45121467057E+03  0.46298879940E+03  0.00000000000E+00 0. -1.
<mgrwt>
<rscale>  2 0.10471499E+04</rscale>
<asrwt>0</asrwt>
<pdfrwt beam="1">  1       21 0.30060387E+00 0.10520674E+04</pdfrwt>
<pdfrwt beam="2">  1       21 0.10392858E+00 0.10520674E+04</pdfrwt>
<totfact> 0.94030847E+00</totfact>
</mgrwt>
</event>
<event>
 8    1  0.7208583E-006  0.1059327E+04  0.7818608E-02  0.8730340E-01
         21   -1    0    0  501  502  0.00000000000E+00  0.00000000000E+00  0.10729424742E+04  0.10729424742E+04  0.00000000000E+00 0.  1.
         21   -1    0    0  502  503 -0.00000000000E+00 -0.00000000000E+00 -0.10470216457E+04  0.10470216457E+04  0.00000000000E+00 0.  1.
    9000010    2    1    2  501    0  0.33454283226E+02  0.14227650499E+03  0.22735089199E+03  0.10416558858E+04  0.10059804985E+04 0.  0.
   -9000010    2    1    2    0  503 -0.33454283226E+02 -0.14227650499E+03 -0.20143006357E+03  0.10783082341E+04  0.10491962563E+04 0.  0.
        -13    1    3    3    0    0 -0.48432651207E+03  0.50895548945E+02  0.64593807669E+02  0.49125848425E+03  0.10566000000E+00 0.  1.
          4    1    3    3  501    0  0.51778079530E+03  0.91380956045E+02  0.16275708432E+03  0.55039740153E+03  0.00000000000E+00 0.  1.
         13    1    4    4    0    0 -0.51679199418E+02 -0.59950629089E+03 -0.11278884474E+03  0.61220900609E+03  0.10566000000E+00 0. -1.
         -4    1    4    4    0  503  0.18224916191E+02  0.45722978590E+03 -0.88641218828E+02  0.46609922802E+03  0.00000000000E+00 0. -1.
<mgrwt>
<rscale>  2 0.10484652E+04</rscale>
<asrwt>0</asrwt>
<pdfrwt beam="1">  1       21 0.16506807E+00 0.10593274E+04</pdfrwt>
<pdfrwt beam="2">  1       21 0.16108025E+00 0.10593274E+04</pdfrwt>
<totfact> 0.27682738E+01</totfact>
</mgrwt>
</event>
<event>
 8    1  0.7208583E-006  0.1036602E+04  0.7818608E-02  0.8744067E-01
         21   -1    0    0  503  502  0.00000000000E+00  0.00000000000E+00  0.31441043150E+03  0.31441043150E+03  0.00000000000E+00 0. -1.
         21   -1    0    0  501  503 -0.00000000000E+00 -0.00000000000E+00 -0.34947511155E+04  0.34947511155E+04  0.00000000000E+00 0. -1.
    9000010    2    1    2  501    0  0.20578860686E+03 -0.13013884608E+03 -0.19569598004E+04  0.22145507600E+04  0.10076002869E+04 0.  0.
   -9000010    2    1    2    0  502 -0.20578860686E+03  0.13013884608E+03 -0.12233808836E+04  0.15946107870E+04  0.99339705343E+03 0.  0.
        -13    1    3    3    0    0  0.53590860785E+03  0.19192323891E+03 -0.11997890035E+04  0.13279782489E+04  0.10566000000E+00 0.  1.
          4    1    3    3  501    0 -0.33012000099E+03 -0.32206208499E+03 -0.75717079690E+03  0.88657251103E+03  0.00000000000E+00 0.  1.
         13    1    4    4    0    0  0.38741511074E+02  0.46714691133E+03 -0.23979882270E+03  0.52652694896E+03  0.10566000000E+00 0. -1.
         -4    1    4    4    0  502 -0.24453011793E+03 -0.33700806525E+03 -0.98358206092E+03  0.10680838381E+04  0.00000000000E+00 0. -1.
<mgrwt>
<rscale>  2 0.10331344E+04</rscale>
<asrwt>0</asrwt>
<pdfrwt beam="1">  1       21 0.48370835E-01 0.10366019E+04</pdfrwt>
<pdfrwt beam="2">  1       21 0.53765402E+00 0.10366019E+04</pdfrwt>
<totfact> 0.13009806E+00</totfact>
</mgrwt>
</event>
<event>
 8    1  0.7208583E-006  0.1043685E+04  0.7818608E-02  0.8735103E-01
         21   -1    0    0  501  502  0.00000000000E+00  0.00000000000E+00  0.10877696152E+04  0.10877696152E+04  0.00000000000E+00 0. -1.
         21   -1    0    0  502  503 -0.00000000000E+00 -0.00000000000E+00 -0.10943065200E+04  0.10943065200E+04  0.00000000000E+00 0. -1.
    9000010    2    1    2  501    0  0.30335928482E+03 -0.13711074292E+02  0.31836990353E+03  0.10911634347E+04  0.99853061874E+03 0.  0.
   -9000010    2    1    2    0  503 -0.30335928482E+03  0.13711074292E+02 -0.32490680838E+03  0.10909127005E+04  0.99614820020E+03 0.  0.
        -13    1    3    3    0    0  0.13477236772E+03  0.20196490335E+03 -0.31701649041E+03  0.39931551390E+03  0.10566000000E+00 0.  1.
          4    1    3    3  501    0  0.16858691710E+03 -0.21567597764E+03  0.63538639394E+03  0.69184792083E+03  0.00000000000E+00 0.  1.
         13    1    4    4    0    0  0.14266497488E+03 -0.17290715890E+03 -0.52253613514E+03  0.56858966254E+03  0.10566000000E+00 0. -1.
         -4    1    4    4    0  503 -0.44602425970E+03  0.18661823320E+03  0.19762932676E+03  0.52232303797E+03  0.00000000000E+00 0. -1.
<mgrwt>
<rscale>  2 0.10431147E+04</rscale>
<asrwt>0</asrwt>
<pdfrwt beam="1">  1       21 0.16734917E+00 0.10436849E+04</pdfrwt>
<pdfrwt beam="2">  1       21 0.16835485E+00 0.10436849E+04</pdfrwt>
<totfact> 0.23041421E+01</totfact>
</mgrwt>
</event>
<event>
 8    1  0.7208583E-006  0.1028573E+04  0.7818608E-02  0.8750651E-01
         21   -1    0    0  501  502  0.00000000000E+00  0.00000000000E+00  0.73866139218E+03  0.73866139218E+03  0.00000000000E+00 0. -1.
         21   -1    0    0  502  503 -0.00000000000E+00 -0.00000000000E+00 -0.14837128317E+04  0.14837128317E+04  0.00000000000E+00 0. -1.
    9000010    2    1    2  501    0  0.21638666981E+03  0.14927659277E+03 -0.60565876883E+03  0.11843989583E+04  0.98329632165E+03 0.  0.
   -9000010    2    1    2    0  503 -0.21638666981E+03 -0.14927659277E+03 -0.13939267066E+03  0.10379752655E+04  0.99441220991E+03 0.  0.
        -13    1    3    3    0    0 -0.16492945007E+03 -0.35587086272E+02 -0.72482000726E+03  0.74419904481E+03  0.10566000000E+00 0.  1.
          4    1    3    3  501    0  0.38131611987E+03  0.18486367904E+03  0.11916123843E+03  0.44019991350E+03  0.00000000000E+00 0.  1.
         13    1    4    4    0    0 -0.11295263345E+03 -0.54988673947E+03 -0.24260566648E+03  0.61154823540E+03  0.10566000000E+00 0. -1.
         -4    1    4    4    0  503 -0.10343403636E+03  0.40061014671E+03  0.10321299582E+03  0.42642703014E+03  0.00000000000E+00 0. -1.
<mgrwt>
<rscale>  2 0.10258767E+04</rscale>
<asrwt>0</asrwt>
<pdfrwt beam="1">  1       21 0.11364021E+00 0.10285730E+04</pdfrwt>
<pdfrwt beam="2">  1       21 0.22826351E+00 0.10285730E+04</pdfrwt>
<totfact> 0.24700933E+01</totfact>
</mgrwt>
</event>
<event>
 8    1  0.7208583E-006  0.1074651E+04  0.7818608E-02  0.8715031E-01
         21   -1    0    0  501  502  0.00000000000E+00  0.00000000000E+00  0.20604466859E+04  0.20604466859E+04  0.00000000000E+00 0.  1.
         21   -1    0    0  502  503 -0.00000000000E+00 -0.00000000000E+00 -0.64102097301E+03  0.64102097301E+03  0.00000000000E+00 0.  1.
    9000010    2    1    2  501    0  0.64701890568E+02 -0.35984639334E+03  0.12291261118E+04  0.16100972797E+04  0.97364597776E+03 0.  0.
   -9000010    2    1    2    0  503 -0.64701890568E+02  0.35984639334E+03  0.19029960109E+03  0.10913703792E+04  0.10105442123E+04 0.  0.
        -13    1    3    3    0    0 -0.44333550900E+03 -0.15349642449E+03  0.73495405027E+03  0.87193175939E+03  0.10566000000E+00 0.  1.
          4    1    3    3  501    0  0.50803739957E+03 -0.20634996886E+03  0.49417206157E+03  0.73816552035E+03  0.00000000000E+00 0.  1.
         13    1    4    4    0    0 -0.30877533321E+03 -0.23439841318E+03 -0.77558814975E+02  0.39534820532E+03  0.10566000000E+00 0. -1.
         -4    1    4    4    0  503  0.24407344264E+03  0.59424480653E+03  0.26785841607E+03  0.69602217389E+03  0.00000000000E+00 0. -1.
<mgrwt>
<rscale>  2 0.10658894E+04</rscale>
<asrwt>0</asrwt>
<pdfrwt beam="1">  1       21 0.31699179E+00 0.10746513E+04</pdfrwt>
<pdfrwt beam="2">  1       21 0.98618613E-01 0.10746513E+04</pdfrwt>
<totfact> 0.82328565E+00</totfact>
</mgrwt>
</event>
<event>
 8    1  0.7208583E-006  0.1035962E+04  0.7818608E-02  0.8746118E-01
         21   -1    0    0  503  502  0.00000000000E+00  0.00000000000E+00  0.72199701481E+03  0.72199701481E+03  0.00000000000E+00 0.  1.
         21   -1    0    0  501  503 -0.00000000000E+00 -0.00000000000E+00 -0.14811506716E+04  0.14811506716E+04  0.00000000000E+00 0.  1.
    9000010    2    1    2  501    0 -0.14647727623E+03 -0.14485762848E+03 -0.51487350349E+03  0.11387746217E+04  0.99462233505E+03 0.  0.
   -9000010    2    1    2    0  502  0.14647727623E+03  0.14485762848E+03 -0.24428015333E+03  0.10643730648E+04  0.10152723293E+04 0.  0.
        -13    1    3    3    0    0 -0.50291047208E+03 -0.27963138543E+03 -0.49190161546E+03  0.75702038619E+03  0.10566000000E+00 0.  1.
          4    1    3    3  501    0  0.35643319585E+03  0.13477375695E+03 -0.22971888035E+02  0.38175423548E+03  0.00000000000E+00 0.  1.
         13    1    4    4    0    0 -0.24774375713E+03  0.16371576657E+03  0.28000193666E+03  0.40814325563E+03  0.10566000000E+00 0. -1.
         -4    1    4    4    0  502  0.39422103336E+03 -0.18858138089E+02 -0.52428208999E+03  0.65622980913E+03  0.00000000000E+00 0. -1.
<mgrwt>
<rscale>  2 0.10308672E+04</rscale>
<asrwt>0</asrwt>
<pdfrwt beam="1">  1       21 0.11107646E+00 0.10359620E+04</pdfrwt>
<pdfrwt beam="2">  1       21 0.22786933E+00 0.10359620E+04</pdfrwt>
<totfact> 0.26425545E+01</totfact>
</mgrwt>
</event>
<event>
 8    1  0.7208583E-006  0.1050524E+04  0.7818608E-02  0.8732409E-01
         21   -1    0    0  501  502  0.00000000000E+00  0.00000000000E+00  0.19937596902E+04  0.19937596902E+04  0.00000000000E+00 0. -1.
         21   -1    0    0  502  503 -0.00000000000E+00 -0.00000000000E+00 -0.58730493296E+03  0.58730493296E+03  0.00000000000E+00 0. -1.
    9000010    2    1    2  501    0  0.15145214809E+03  0.28601180253E+03  0.10575732478E+04  0.14906583928E+04  0.99943022022E+03 0.  0.
   -9000010    2    1    2    0  503 -0.15145214809E+03 -0.28601180253E+03  0.34888150941E+03  0.10904062304E+04  0.98108457093E+03 0.  0.
        -13    1    3    3    0    0 -0.22906083395E+03  0.54345248527E+03  0.55680411644E+03  0.81107355070E+03  0.10566000000E+00 0.  1.
          4    1    3    3  501    0  0.38051298204E+03 -0.25744068274E+03  0.50076913139E+03  0.67958484208E+03  0.00000000000E+00 0.  1.
         13    1    4    4    0    0  0.33785583222E+03 -0.10916128258E+02  0.40354132375E+03  0.52641365518E+03  0.10566000000E+00 0. -1.
         -4    1    4    4    0  503 -0.48930798031E+03 -0.27509567427E+03 -0.54659814337E+02  0.56399257521E+03  0.00000000000E+00 0. -1.
<mgrwt>
<rscale>  2 0.10461374E+04</rscale>
<asrwt>0</asrwt>
<pdfrwt beam="1">  1       21 0.30673226E+00 0.10505243E+04</pdfrwt>
<pdfrwt beam="2">  1       21 0.90354606E-01 0.10505243E+04</pdfrwt>
<totfact> 0.12232343E+01</totfact>
</mgrwt>
</event>
<event>
 8    1  0.7208583E-006  0.1040403E+04  0.7818608E-02  0.8738149E-01
         21   -1    0    0  501  502  0.00000000000E+00  0.00000000000E+00  0.12852847405E+04  0.12852847405E+04  0.00000000000E+00 0. -1.
         21   -1    0    0  502  503 -0.00000000000E+00 -0.00000000000E+00 -0.11198811933E+04  0.11198811933E+04  0.00000000000E+00 0. -1.
    9000010    2    1    2  501    0 -0.21733338099E+03  0.18454967368E+03  0.68404169624E+03  0.12451307882E+04  0.10005724647E+04 0.  0.
   -9000010    2    1    2    0  503  0.21733338099E+03 -0.18454967368E+03 -0.51863814909E+03  0.11600351456E+04  0.99769916747E+03 0.  0.
        -13    1    3    3    0    0  0.44780963979E+02 -0.23618976358E+03  0.70914932811E+03  0.74878816756E+03  0.10566000000E+00 0.  1.
          4    1    3    3  501    0 -0.26211434497E+03  0.42073943725E+03 -0.25107631877E+02  0.49634262066E+03  0.00000000000E+00 0.  1.
         13    1    4    4    0    0  0.18249042202E+03  0.84297922726E+02  0.26397357476E+03  0.33179956787E+03  0.10566000000E+00 0. -1.
         -4    1    4    4    0  503  0.34842958975E+02 -0.26884759640E+03 -0.78261172385E+03  0.82823557772E+03  0.00000000000E+00 0. -1.
<mgrwt>
<rscale>  2 0.10397112E+04</rscale>
<asrwt>0</asrwt>
<pdfrwt beam="1">  1       21 0.19773612E+00 0.10404026E+04</pdfrwt>
<pdfrwt beam="2">  1       21 0.17228941E+00 0.10404026E+04</pdfrwt>
<totfact> 0.12107884E+01</totfact>
</mgrwt>
</event>
<event>
 8    1  0.7208583E-006  0.1094226E+04  0.7818608E-02  0.8693863E-01
         21   -1    0    0  503  502  0.00000000000E+00  0.00000000000E+00  0.13041738610E+04  0.13041738610E+04  0.00000000000E+00 0.  1.
         21   -1    0    0  501  503 -0.00000000000E+00 -0.00000000000E+00 -0.94732835996E+03  0.94732835996E+03  0.00000000000E+00 0.  1.
    9000010    2    1    2  501    0 -0.39651148776E+03  0.12722148877E+03  0.41497179149E+03  0.11702704678E+04  0.10118916508E+04 0.  0.
   -9000010    2    1    2    0  502  0.39651148776E+03 -0.12722148877E+03 -0.58126290456E+02  0.10812317531E+04  0.99613090063E+03 0.  0.
        -13    1    3    3    0    0 -0.52252122916E+03  0.29919704593E+03  0.62720428662E+03  0.86944380815E+03  0.10566000000E+00 0.  1.
          4    1    3    3  501    0  0.12600974140E+03 -0.17197555717E+03 -0.21223249513E+03  0.30082665969E+03  0.00000000000E+00 0.  1.
         13    1    4    4    0    0  0.48866803398E+03 -0.20152022386E+03  0.36466955369E+03  0.64217656653E+03  0.10566000000E+00 0. -1.
         -4    1    4    4    0  502 -0.92156546213E+02  0.74298735093E+02 -0.42279584414E+03  0.43905518659E+03  0.00000000000E+00 0. -1.
<mgrwt>
<rscale>  2 0.10905685E+04</rscale>
<asrwt>0</asrwt>
<pdfrwt beam="1">  1       21 0.20064213E+00 0.10942264E+04</pdfrwt>
<pdfrwt beam="2">  1       21 0.14574282E+00 0.10942264E+04</pdfrwt>
<totfact> 0.19286275E+01</totfact>
</mgrwt>
</event>
<event>
 8    1  0.7208583E-006  0.1000218E+04  0.7818608E-02  0.8775757E-01
         21   -1    0    0  501  502  0.00000000000E+00  0.00000000000E+00  0.13235782048E+04  0.13235782048E+04  0.00000000000E+00 0. -1.
         21   -1    0    0  502  503 -0.00000000000E+00 -0.00000000000E+00 -0.75785383899E+03  0.75785383899E+03  0.00000000000E+00 0. -1.
    9000010    2    1    2  501    0 -0.46365537325E+02 -0.28234009184E+02  0.18815909260E+03  0.10177618396E+04  0.99874340838E+03 0.  0.
   -9000010    2    1    2    0  503  0.46365537325E+02  0.28234009184E+02  0.37756527324E+03  0.10636702042E+04  0.99292086561E+03 0.  0.
        -13    1    3    3    0    0 -0.24060578670E+03 -0.15744776812E+03 -0.33706877950E+03  0.44305340260E+03  0.10566000000E+00 0.  1.
          4    1    3    3  501    0  0.19424024938E+03  0.12921375894E+03  0.52522787210E+03  0.57470843704E+03  0.00000000000E+00 0.  1.
         13    1    4    4    0    0  0.25915723708E+03 -0.42104949049E+03  0.22859025817E+03  0.54470052714E+03  0.10566000000E+00 0. -1.
         -4    1    4    4    0  503 -0.21279169975E+03  0.44928349967E+03  0.14897501507E+03  0.51896967703E+03  0.00000000000E+00 0. -1.
<mgrwt>
<rscale>  2 0.99876098E+03</rscale>
<asrwt>0</asrwt>
<pdfrwt beam="1">  1       21 0.20362742E+00 0.10002176E+04</pdfrwt>
<pdfrwt beam="2">  1       21 0.11659290E+00 0.10002176E+04</pdfrwt>
<totfact> 0.35622366E+01</totfact>
</mgrwt>
</event>
<event>
 8    1  0.7208583E-006  0.1050166E+04  0.7818608E-02  0.8732806E-01
         21   -1    0    0  503  502  0.00000000000E+00  0.00000000000E+00  0.16173857660E+04  0.16173857660E+04  0.00000000000E+00 0. -1.
         21   -1    0    0  501  503 -0.00000000000E+00 -0.00000000000E+00 -0.92084520379E+03  0.92084520379E+03  0.00000000000E+00 0. -1.
    9000010    2    1    2  501    0  0.16724721183E+03  0.16414691494E+03 -0.31144049018E+03  0.10953733582E+04  0.10236853889E+04 0.  0.
   -9000010    2    1    2    0  502 -0.16724721183E+03 -0.16414691494E+03  0.10079810524E+04  0.14428576116E+04  0.10054334617E+04 0.  0.
        -13    1    3    3    0    0 -0.63855261223E+02  0.24863949836E+02  0.36276322524E+03  0.36917865477E+03  0.10566000000E+00 0.  1.
          4    1    3    3  501    0  0.23110247305E+03  0.13928296510E+03 -0.67420371542E+03  0.72619470344E+03  0.00000000000E+00 0.  1.
         13    1    4    4    0    0  0.21549731597E+03 -0.92363040250E+02 -0.11001265764E+03  0.25898420878E+03  0.10566000000E+00 0. -1.
         -4    1    4    4    0  502 -0.38274452780E+03 -0.71783874688E+02  0.11179937100E+04  0.11838734028E+04  0.00000000000E+00 0. -1.
<mgrwt>
<rscale>  2 0.10456911E+04</rscale>
<asrwt>0</asrwt>
<pdfrwt beam="1">  1       21 0.24882858E+00 0.10501655E+04</pdfrwt>
<pdfrwt beam="2">  1       21 0.14166849E+00 0.10501655E+04</pdfrwt>
<totfact> 0.92275118E+00</totfact>
</mgrwt>
</event>
<event>
 8    1  0.7208583E-006  0.1177046E+04  0.7818608E-02  0.8624840E-01
         21   -1    0    0  503  502  0.00000000000E+00  0.00000000000E+00  0.10267363962E+04  0.10267363962E+04  0.00000000000E+00 0. -1.
         21   -1    0    0  501  503 -0.00000000000E+00 -0.00000000000E+00 -0.14805737729E+04  0.14805737729E+04  0.00000000000E+00 0. -1.
    9000010    2    1    2  501    0  0.18071959024E+03 -0.57433592961E+03 -0.60637332136E+03  0.13204215821E+04  0.10066296336E+04 0.  0.
   -9000010    2    1    2    0  502 -0.18071959024E+03  0.57433592961E+03  0.15253594466E+03  0.11868885871E+04  0.10113930855E+04 0.  0.
        -13    1    3    3    0    0 -0.10231860134E+03 -0.80249368820E+03 -0.43458803962E+03  0.91833109014E+03  0.10566000000E+00 0.  1.
          4    1    3    3  501    0  0.28303819157E+03  0.22815775859E+03 -0.17178528174E+03  0.40209049195E+03  0.00000000000E+00 0.  1.
         13    1    4    4    0    0  0.13884308768E+03  0.77724896904E+03  0.34246158653E+02  0.79029499139E+03  0.10566000000E+00 0. -1.
         -4    1    4    4    0  502 -0.31956267792E+03 -0.20291303943E+03  0.11828978600E+03  0.39659359571E+03  0.00000000000E+00 0. -1.
<mgrwt>
<rscale>  2 0.11760220E+04</rscale>
<asrwt>0</asrwt>
<pdfrwt beam="1">  1       21 0.15795945E+00 0.11770460E+04</pdfrwt>
<pdfrwt beam="2">  1       21 0.22778058E+00 0.11770460E+04</pdfrwt>
<totfact> 0.91679996E+00</totfact>
</mgrwt>
</event>
<event>
 8    1  0.7208583E-006  0.1037072E+04  0.7818608E-02  0.8743193E-01
         21   -1    0    0  503  502  0.00000000000E+00  0.00000000000E+00  0.60273481847E+03  0.60273481847E+03  0.00000000000E+00 0. -1.
         21   -1    0    0  501  503 -0.00000000000E+00 -0.00000000000E+00 -0.19131314546E+04  0.19131314546E+04  0.00000000000E+00 0. -1.
    9000010    2    1    2  501    0  0.15682634674E+03 -0.20928397715E+03 -0.10028174593E+04  0.14341437484E+04  0.99132797206E+03 0.  0.
   -9000010    2    1    2    0  502 -0.15682634674E+03  0.20928397715E+03 -0.30757917683E+03  0.10817225247E+04  0.10035558701E+04 0.  0.
        -13    1    3    3    0    0  0.56603344741E+03 -0.18300626734E+02 -0.64220606560E+03  0.85624612021E+03  0.10566000000E+00 0.  1.
          4    1    3    3  501    0 -0.40920710067E+03 -0.19098335041E+03 -0.36061139375E+03  0.57789762819E+03  0.00000000000E+00 0.  1.
         13    1    4    4    0    0 -0.44128727508E+03  0.44840389080E+03 -0.32810191865E+03  0.70954308440E+03  0.10566000000E+00 0. -1.
         -4    1    4    4    0  502  0.28446092834E+03 -0.23911991365E+03  0.20522741817E+02  0.37217944031E+03  0.00000000000E+00 0. -1.
<mgrwt>
<rscale>  2 0.10341024E+04</rscale>
<asrwt>0</asrwt>
<pdfrwt beam="1">  1       21 0.92728433E-01 0.10370722E+04</pdfrwt>
<pdfrwt beam="2">  1       21 0.29432792E+00 0.10370722E+04</pdfrwt>
<totfact> 0.14056209E+01</totfact>
</mgrwt>
</event>
<event>
 8    1  0.7208583E-006  0.9977627E+03  0.7818608E-02  0.8791958E-01
         21   -1    0    0  503  502  0.00000000000E+00  0.00000000000E+00  0.12316122269E+04  0.12316122269E+04  0.00000000000E+00 0. -1.
         21   -1    0    0  501  503 -0.00000000000E+00 -0.00000000000E+00 -0.77965188571E+03  0.77965188571E+03  0.00000000000E+00 0. -1.
    9000010    2    1    2  501    0  0.81559655643E+02  0.22782306475E+02  0.52787199123E+02  0.93661551666E+03  0.93128466472E+03 0.  0.
   -9000010    2    1    2    0  502 -0.81559655643E+02 -0.22782306475E+02  0.39917314202E+03  0.10746485959E+04  0.99416266096E+03 0.  0.
        -13    1    3    3    0    0  0.71233007122E+01  0.20298509767E+03  0.45023082877E+03  0.49392459103E+03  0.10566000000E+00 0.  1.
          4    1    3    3  501    0  0.74436354931E+02 -0.18020279120E+03 -0.39744362964E+03  0.44269092563E+03  0.00000000000E+00 0.  1.
         13    1    4    4    0    0 -0.25035082862E+03 -0.45905402413E+03  0.27439414122E+03  0.59050680806E+03  0.10566000000E+00 0. -1.
         -4    1    4    4    0  502  0.16879117298E+03  0.43627171765E+03  0.12477900079E+03  0.48414178785E+03  0.00000000000E+00 0. -1.
<mgrwt>
<rscale>  2 0.98172099E+03</rscale>
<asrwt>0</asrwt>
<pdfrwt beam="1">  1       21 0.18947880E+00 0.99776270E+03</pdfrwt>
<pdfrwt beam="2">  1       21 0.11994644E+00 0.99776270E+03</pdfrwt>
<totfact> 0.42552042E+01</totfact>
</mgrwt>
</event>
<event>
 8    1  0.7208583E-006  0.1032149E+04  0.7818608E-02  0.8751433E-01
         21   -1    0    0  501  502  0.00000000000E+00  0.00000000000E+00  0.22042179283E+04  0.22042179283E+04  0.00000000000E+00 0.  1.
         21   -1    0    0  502  503 -0.00000000000E+00 -0.00000000000E+00 -0.53708786891E+03  0.53708786891E+03  0.00000000000E+00 0.  1.
    9000010    2    1    2  501    0  0.76503465988E+02 -0.11208485922E+03  0.13071513718E+04  0.16481833772E+04  0.99470997792E+03 0.  0.
   -9000010    2    1    2    0  503 -0.76503465988E+02  0.11208485922E+03  0.35997868761E+03  0.10931224200E+04  0.10231892169E+04 0.  0.
        -13    1    3    3    0    0 -0.29206507395E+03 -0.33534641737E+03  0.10644772875E+04  0.11536338821E+04  0.10566000000E+00 0.  1.
          4    1    3    3  501    0  0.36856853994E+03  0.22326155815E+03  0.24267408430E+03  0.49454949517E+03  0.00000000000E+00 0.  1.
         13    1    4    4    0    0 -0.14073348656E+03 -0.42209019979E+03 -0.15136297285E+01  0.44493634740E+03  0.10566000000E+00 0. -1.
         -4    1    4    4    0  503  0.64230020571E+02  0.53417505902E+03  0.36149231734E+03  0.64818607260E+03  0.00000000000E+00 0. -1.
<mgrwt>
<rscale>  2 0.10250194E+04</rscale>
<asrwt>0</asrwt>
<pdfrwt beam="1">  1       21 0.33911045E+00 0.10321492E+04</pdfrwt>
<pdfrwt beam="2">  1       21 0.82628904E-01 0.10321492E+04</pdfrwt>
<totfact> 0.91250406E+00</totfact>
</mgrwt>
</event>
<event>
 8    1  0.7208583E-006  0.1024642E+04  0.7818608E-02  0.8752709E-01
         21   -1    0    0  503  502  0.00000000000E+00  0.00000000000E+00  0.11589784432E+04  0.11589784432E+04  0.00000000000E+00 0.  1.
         21   -1    0    0  501  503 -0.00000000000E+00 -0.00000000000E+00 -0.94843340799E+03  0.94843340799E+03  0.00000000000E+00 0.  1.
    9000010    2    1    2  501    0 -0.15969936835E+03  0.22380093922E+03  0.33792961374E+03  0.10789290173E+04  0.98706669069E+03 0.  0.
   -9000010    2    1    2    0  502  0.15969936835E+03 -0.22380093922E+03 -0.12738457852E+03  0.10284828339E+04  0.98283231539E+03 0.  0.
        -13    1    3    3    0    0 -0.25396689202E+03 -0.13731555679E+02  0.63679056165E+03  0.68570399476E+03  0.10566000000E+00 0.  1.
          4    1    3    3  501    0  0.94267523672E+02  0.23753249490E+03 -0.29886094791E+03  0.39322502253E+03  0.00000000000E+00 0.  1.
         13    1    4    4    0    0 -0.39723851985E+03 -0.21569958722E+03 -0.13393287221E+03  0.47144753579E+03  0.10566000000E+00 0. -1.
         -4    1    4    4    0  502  0.55693788820E+03 -0.81013520066E+01  0.65482936947E+01  0.55703529813E+03  0.00000000000E+00 0. -1.
<mgrwt>
<rscale>  2 0.10236209E+04</rscale>
<asrwt>0</asrwt>
<pdfrwt beam="1">  1       21 0.17830438E+00 0.10246421E+04</pdfrwt>
<pdfrwt beam="2">  1       21 0.14591283E+00 0.10246421E+04</pdfrwt>
<totfact> 0.29435225E+01</totfact>
</mgrwt>
</event>
<event>
 8    1  0.7208583E-006  0.1077040E+04  0.7818608E-02  0.8717882E-01
         21   -1    0    0  503  502  0.00000000000E+00  0.00000000000E+00  0.97961310380E+03  0.97961310380E+03  0.00000000000E+00 0. -1.
         21   -1    0    0  501  503 -0.00000000000E+00 -0.00000000000E+00 -0.13426468812E+04  0.13426468812E+04  0.00000000000E+00 0. -1.
    9000010    2    1    2  501    0  0.36585769741E+03 -0.17616215960E+03 -0.64712215625E+03  0.12083835922E+04  0.93623654045E+03 0.  0.
   -9000010    2    1    2    0  502 -0.36585769741E+03  0.17616215960E+03  0.28408837886E+03  0.11138763927E+04  0.99756175252E+03 0.  0.
        -13    1    3    3    0    0  0.61988459227E+02 -0.13870557279E+03 -0.83530298318E+03  0.84900700226E+03  0.10566000000E+00 0.  1.
          4    1    3    3  501    0  0.30386923818E+03 -0.37456586809E+02  0.18818082693E+03  0.35937658999E+03  0.00000000000E+00 0.  1.
         13    1    4    4    0    0  0.19975443526E+03 -0.19374406808E+03 -0.14454590546E+03  0.31357954058E+03  0.10566000000E+00 0. -1.
         -4    1    4    4    0  502 -0.56561213266E+03  0.36990622768E+03  0.42863428432E+03  0.80029685217E+03  0.00000000000E+00 0. -1.
<mgrwt>
<rscale>  2 0.10626181E+04</rscale>
<asrwt>0</asrwt>
<pdfrwt beam="1">  1       21 0.15070971E+00 0.10770397E+04</pdfrwt>
<pdfrwt beam="2">  1       21 0.20656106E+00 0.10770397E+04</pdfrwt>
<totfact> 0.15717278E+01</totfact>
</mgrwt>
</event>
<event>
 8    1  0.7208583E-006  0.1066877E+04  0.7818608E-02  0.8719972E-01
         21   -1    0    0  501  502  0.00000000000E+00  0.00000000000E+00  0.59061592212E+03  0.59061592212E+03  0.00000000000E+00 0.  1.
         21   -1    0    0  502  503 -0.00000000000E+00 -0.00000000000E+00 -0.22288488919E+04  0.22288488919E+04  0.00000000000E+00 0.  1.
    9000010    2    1    2  501    0  0.21537623497E+03  0.24096248346E+03 -0.25270162968E+03  0.10707730370E+04  0.98906366936E+03 0.  0.
   -9000010    2    1    2    0  503 -0.21537623497E+03 -0.24096248346E+03 -0.13855313401E+04  0.17486917770E+04  0.10167477542E+04 0.  0.
        -13    1    3    3    0    0 -0.15788770444E+03  0.26880073422E+03  0.28046610559E+03  0.41933710720E+03  0.10566000000E+00 0.  1.
          4    1    3    3  501    0  0.37326393940E+03 -0.27838250764E+02 -0.53316773527E+03  0.65143592977E+03  0.00000000000E+00 0.  1.
         13    1    4    4    0    0 -0.88286514788E+02 -0.34528490903E+03 -0.29883272775E+01  0.35640583380E+03  0.10566000000E+00 0. -1.
         -4    1    4    4    0  503 -0.12708972018E+03  0.10432242558E+03 -0.13825430128E+04  0.13922859432E+04  0.00000000000E+00 0. -1.
<mgrwt>
<rscale>  2 0.10602274E+04</rscale>
<asrwt>0</asrwt>
<pdfrwt beam="1">  1       21 0.90863987E-01 0.10668767E+04</pdfrwt>
<pdfrwt beam="2">  1       21 0.34289983E+00 0.10668767E+04</pdfrwt>
<totfact> 0.66921852E+00</totfact>
</mgrwt>
</event>
<event>
 8    1  0.7208583E-006  0.1073041E+04  0.7818608E-02  0.8710822E-01
         21   -1    0    0  501  502  0.00000000000E+00  0.00000000000E+00  0.53820681778E+03  0.53820681778E+03  0.00000000000E+00 0. -1.
         21   -1    0    0  502  503 -0.00000000000E+00 -0.00000000000E+00 -0.25246626219E+04  0.25246626219E+04  0.00000000000E+00 0. -1.
    9000010    2    1    2  501    0  0.33785748259E+03 -0.54961735846E+02 -0.37738276661E+03  0.11288236387E+04  0.10073016350E+04 0.  0.
   -9000010    2    1    2    0  503 -0.33785748259E+03  0.54961735846E+02 -0.16090730375E+04  0.19340458010E+04  0.10169801617E+04 0.  0.
        -13    1    3    3    0    0  0.45461704896E+03  0.19309973338E+03  0.16527004571E+03  0.52084389927E+03  0.10566000000E+00 0.  1.
          4    1    3    3  501    0 -0.11675956637E+03 -0.24806146922E+03 -0.54265281232E+03  0.60797973944E+03  0.00000000000E+00 0.  1.
         13    1    4    4    0    0  0.13079619493E+03  0.35096667862E+03 -0.21053203567E+03  0.42966149853E+03  0.10566000000E+00 0. -1.
         -4    1    4    4    0  503 -0.46865367752E+03 -0.29600494278E+03 -0.13985410018E+04  0.15043843024E+04  0.00000000000E+00 0. -1.
<mgrwt>
<rscale>  2 0.10707416E+04</rscale>
<asrwt>0</asrwt>
<pdfrwt beam="1">  1       21 0.82801048E-01 0.10730411E+04</pdfrwt>
<pdfrwt beam="2">  1       21 0.38840964E+00 0.10730411E+04</pdfrwt>
<totfact> 0.40576702E+00</totfact>
</mgrwt>
</event>
<event>
 8    1  0.7208583E-006  0.1042580E+04  0.7818608E-02  0.8745140E-01
         21   -1    0    0  501  502  0.00000000000E+00  0.00000000000E+00  0.92190160490E+03  0.92190160490E+03  0.00000000000E+00 0. -1.
         21   -1    0    0  502  503 -0.00000000000E+00 -0.00000000000E+00 -0.11455826369E+04  0.11455826369E+04  0.00000000000E+00 0. -1.
    9000010    2    1    2  501    0 -0.23825609226E+03  0.17603353112E+03 -0.22434801614E+01  0.10425824117E+04  0.99960956496E+03 0.  0.
   -9000010    2    1    2    0  503  0.23825609226E+03 -0.17603353112E+03 -0.22143755180E+03  0.10249018301E+04  0.95584277074E+03 0.  0.
        -13    1    3    3    0    0 -0.16546367046E+03 -0.21721066750E+03  0.39415166784E+03  0.47949374213E+03  0.10566000000E+00 0.  1.
          4    1    3    3  501    0 -0.72792421798E+02  0.39324419862E+03 -0.39639514800E+03  0.56308866955E+03  0.00000000000E+00 0.  1.
         13    1    4    4    0    0 -0.36062904680E+03 -0.88627120497E+02 -0.19416853857E+03  0.41905788194E+03  0.10566000000E+00 0. -1.
         -4    1    4    4    0  503  0.59888513906E+03 -0.87406410624E+02 -0.27269013231E+02  0.60584394814E+03  0.00000000000E+00 0. -1.
<mgrwt>
<rscale>  2 0.10319470E+04</rscale>
<asrwt>0</asrwt>
<pdfrwt beam="1">  1       21 0.14183102E+00 0.10425800E+04</pdfrwt>
<pdfrwt beam="2">  1       21 0.17624348E+00 0.10425800E+04</pdfrwt>
<totfact> 0.33207050E+01</totfact>
</mgrwt>
</event>
<event>
 8    1  0.7208583E-006  0.1154025E+04  0.7818608E-02  0.8646953E-01
         21   -1    0    0  503  502  0.00000000000E+00  0.00000000000E+00  0.17054540391E+04  0.17054540391E+04  0.00000000000E+00 0.  1.
         21   -1    0    0  501  503 -0.00000000000E+00 -0.00000000000E+00 -0.80494418894E+03  0.80494418894E+03  0.00000000000E+00 0.  1.
    9000010    2    1    2  501    0  0.91280976038E+02 -0.52229191829E+03  0.16335104024E+03  0.11410272700E+04  0.99706499486E+03 0.  0.
   -9000010    2    1    2    0  502 -0.91280976038E+02  0.52229191829E+03  0.73715880995E+03  0.13693709581E+04  0.10250134854E+04 0.  0.
        -13    1    3    3    0    0  0.27323030404E+03 -0.76551573842E+03  0.19426858969E+03  0.83570894510E+03  0.10566000000E+00 0.  1.
          4    1    3    3  501    0 -0.18194932800E+03  0.24322382013E+03 -0.30917549458E+02  0.30531832487E+03  0.00000000000E+00 0.  1.
         13    1    4    4    0    0 -0.42223680561E+03  0.59073182140E+02  0.67270524363E+03  0.79643324694E+03  0.10566000000E+00 0. -1.
         -4    1    4    4    0  502  0.33095582957E+03  0.46321873615E+03  0.64453566319E+02  0.57293771115E+03  0.00000000000E+00 0. -1.
<mgrwt>
<rscale>  2 0.11477868E+04</rscale>
<asrwt>0</asrwt>
<pdfrwt beam="1">  1       21 0.26237754E+00 0.11540250E+04</pdfrwt>
<pdfrwt beam="2">  1       21 0.12383757E+00 0.11540250E+04</pdfrwt>
<totfact> 0.10647120E+01</totfact>
</mgrwt>
</event>
<event>
 8    1  0.7208583E-006  0.1017603E+04  0.7818608E-02  0.8762746E-01
         21   -1    0    0  503  502  0.00000000000E+00  0.00000000000E+00  0.20989161366E+04  0.20989161366E+04  0.00000000000E+00 0.  1.
         21   -1    0    0  501  503 -0.00000000000E+00 -0.00000000000E+00 -0.51574878775E+03  0.51574878775E+03  0.00000000000E+00 0.  1.
    9000010    2    1    2  501    0  0.44630498729E+02  0.15496486491E+03  0.47425428399E+03  0.11226897607E+04  0.10047433415E+04 0.  0.
   -9000010    2    1    2    0  502 -0.44630498729E+02 -0.15496486491E+03  0.11089130649E+04  0.14919751637E+04  0.98503589413E+03 0.  0.
        -13    1    3    3    0    0 -0.50240270620E+02  0.48885278337E+03 -0.49975354766E+02  0.49396222108E+03  0.10566000000E+00 0.  1.
          4    1    3    3  501    0  0.94870769349E+02 -0.33388791846E+03  0.52422963876E+03  0.62872753965E+03  0.00000000000E+00 0.  1.
         13    1    4    4    0    0 -0.51001211731E+03 -0.93829476610E+02  0.47526938840E+03  0.70341832020E+03  0.10566000000E+00 0. -1.
         -4    1    4    4    0  502  0.46538161858E+03 -0.61135388304E+02  0.63364367650E+03  0.78855684347E+03  0.00000000000E+00 0. -1.
<mgrwt>
<rscale>  2 0.10127040E+04</rscale>
<asrwt>0</asrwt>
<pdfrwt beam="1">  1       21 0.32291017E+00 0.10176027E+04</pdfrwt>
<pdfrwt beam="2">  1       21 0.79345968E-01 0.10176027E+04</pdfrwt>
<totfact> 0.13141366E+01</totfact>
</mgrwt>
</event>
<event>
 8    1  0.7208583E-006  0.1103746E+04  0.7818608E-02  0.8686301E-01
         21   -1    0    0  501  502  0.00000000000E+00  0.00000000000E+00  0.75712494745E+03  0.75712494745E+03  0.00000000000E+00 0.  1.
         21   -1    0    0  502  503 -0.00000000000E+00 -0.00000000000E+00 -0.17163434477E+04  0.17163434477E+04  0.00000000000E+00 0.  1.
    9000010    2    1    2  501    0 -0.43633956289E+03 -0.14619405280E+03 -0.14065255159E+03  0.11126719910E+04  0.10032402026E+04 0.  0.
   -9000010    2    1    2    0  503  0.43633956289E+03  0.14619405280E+03 -0.81856594867E+03  0.13607964041E+04  0.98486127245E+03 0.  0.
        -13    1    3    3    0    0  0.24392910503E+03 -0.25914779239E+03  0.11984219151E+03  0.37552782668E+03  0.10566000000E+00 0.  1.
          4    1    3    3  501    0 -0.68026866792E+03  0.11295373960E+03 -0.26049474310E+03  0.73714416434E+03  0.00000000000E+00 0.  1.
         13    1    4    4    0    0  0.44654121436E+02  0.41065827345E+03  0.28903174337E+01  0.41308906209E+03  0.10566000000E+00 0. -1.
         -4    1    4    4    0  503  0.39168544145E+03 -0.26446422066E+03 -0.82145626610E+03  0.94770734205E+03  0.00000000000E+00 0. -1.
<mgrwt>
<rscale>  2 0.10995528E+04</rscale>
<asrwt>0</asrwt>
<pdfrwt beam="1">  1       21 0.11648076E+00 0.11037463E+04</pdfrwt>
<pdfrwt beam="2">  1       21 0.26405283E+00 0.11037463E+04</pdfrwt>
<totfact> 0.12426631E+01</totfact>
</mgrwt>
</event>
<event>
 8    1  0.7208583E-006  0.1037902E+04  0.7818608E-02  0.8745644E-01
         21   -1    0    0  501  502  0.00000000000E+00  0.00000000000E+00  0.75584430788E+03  0.75584430788E+03  0.00000000000E+00 0. -1.
         21   -1    0    0  502  503 -0.00000000000E+00 -0.00000000000E+00 -0.14026239679E+04  0.14026239679E+04  0.00000000000E+00 0. -1.
    9000010    2    1    2  501    0  0.15191857058E+03  0.17728133365E+03 -0.42172455209E+03  0.10964465677E+04  0.98480229216E+03 0.  0.
   -9000010    2    1    2    0  503 -0.15191857058E+03 -0.17728133365E+03 -0.22505510796E+03  0.10620217081E+04  0.10113023205E+04 0.  0.
        -13    1    3    3    0    0  0.28862023556E+03  0.85457345085E+02  0.25837768902E+03  0.39669086144E+03  0.10566000000E+00 0.  1.
          4    1    3    3  501    0 -0.13670166499E+03  0.91823988566E+02 -0.68010224111E+03  0.69975570626E+03  0.00000000000E+00 0.  1.
         13    1    4    4    0    0 -0.89793360056E+01 -0.50044265502E+03 -0.42446822945E+03  0.65627491832E+03  0.10566000000E+00 0. -1.
         -4    1    4    4    0  503 -0.14293923457E+03  0.32316132137E+03  0.19941312149E+03  0.40574678980E+03  0.00000000000E+00 0. -1.
<mgrwt>
<rscale>  2 0.10313900E+04</rscale>
<asrwt>0</asrwt>
<pdfrwt beam="1">  1       21 0.11628374E+00 0.10379019E+04</pdfrwt>
<pdfrwt beam="2">  1       21 0.21578830E+00 0.10379019E+04</pdfrwt>
<totfact> 0.28712093E+01</totfact>
</mgrwt>
</event>
<event>
 8    1  0.7208583E-006  0.9909498E+03  0.7818608E-02  0.8793368E-01
         21   -1    0    0  501  502  0.00000000000E+00  0.00000000000E+00  0.13629338108E+04  0.13629338108E+04  0.00000000000E+00 0. -1.
         21   -1    0    0  502  503 -0.00000000000E+00 -0.00000000000E+00 -0.89930716747E+03  0.89930716747E+03  0.00000000000E+00 0. -1.
    9000010    2    1    2  501    0 -0.19767581994E+03 -0.36669873794E+02  0.78099252831E+03  0.12617174532E+04  0.97034076128E+03 0.  0.
   -9000010    2    1    2    0  503  0.19767581994E+03  0.36669873794E+02 -0.31736588498E+03  0.10005235251E+04  0.92731106424E+03 0.  0.
        -13    1    3    3    0    0  0.37936045341E+03  0.93060526156E+02  0.22944703891E+03  0.45301277020E+03  0.10566000000E+00 0.  1.
          4    1    3    3  501    0 -0.57703627334E+03 -0.12973039995E+03  0.55154548941E+03  0.80870468300E+03  0.00000000000E+00 0.  1.
         13    1    4    4    0    0  0.34191242360E+03  0.88916345663E+02  0.23693861808E+03  0.42538234782E+03  0.10566000000E+00 0. -1.
         -4    1    4    4    0  503 -0.14423660366E+03 -0.52246471869E+02 -0.55430450306E+03  0.57514117725E+03  0.00000000000E+00 0. -1.
<mgrwt>
<rscale>  2 0.98025427E+03</rscale>
<asrwt>0</asrwt>
<pdfrwt beam="1">  1       21 0.20968212E+00 0.99094985E+03</pdfrwt>
<pdfrwt beam="2">  1       21 0.13835495E+00 0.99094985E+03</pdfrwt>
<totfact> 0.19654438E+01</totfact>
</mgrwt>
</event>
<event>
 8    1  0.7208583E-006  0.1091086E+04  0.7818608E-02  0.8695745E-01
         21   -1    0    0  501  502  0.00000000000E+00  0.00000000000E+00  0.19954146958E+04  0.19954146958E+04  0.00000000000E+00 0. -1.
         21   -1    0    0  502  503 -0.00000000000E+00 -0.00000000000E+00 -0.72951275674E+03  0.72951275674E+03  0.00000000000E+00 0. -1.
    9000010    2    1    2  501    0 -0.38206219166E+03 -0.18995614240E+03  0.12248041862E+04  0.16330681105E+04  0.99232620878E+03 0.  0.
   -9000010    2    1    2    0  503  0.38206219166E+03  0.18995614240E+03  0.41097752849E+02  0.10918593420E+04  0.10041976614E+04 0.  0.
        -13    1    3    3    0    0 -0.44505461128E+03 -0.50460346835E+03  0.49335037282E+03  0.83432180171E+03  0.10566000000E+00 0.  1.
          4    1    3    3  501    0  0.62992419617E+02  0.31464732595E+03  0.73145381342E+03  0.79874630881E+03  0.00000000000E+00 0.  1.
         13    1    4    4    0    0 -0.32187945910E+03  0.20515380737E+02  0.15679798674E+03  0.35862638895E+03  0.10566000000E+00 0. -1.
         -4    1    4    4    0  503  0.70394165076E+03  0.16944076166E+03 -0.11570023389E+03  0.73323295310E+03  0.00000000000E+00 0. -1.
<mgrwt>
<rscale>  2 0.10883463E+04</rscale>
<asrwt>0</asrwt>
<pdfrwt beam="1">  1       21 0.30698687E+00 0.10910856E+04</pdfrwt>
<pdfrwt beam="2">  1       21 0.11223273E+00 0.10910856E+04</pdfrwt>
<totfact> 0.68295950E+00</totfact>
</mgrwt>
</event>
<event>
 8    1  0.7208583E-006  0.1005763E+04  0.7818608E-02  0.8770739E-01
         21   -1    0    0  503  502  0.00000000000E+00  0.00000000000E+00  0.13325915526E+04  0.13325915526E+04  0.00000000000E+00 0.  1.
         21   -1    0    0  501  503 -0.00000000000E+00 -0.00000000000E+00 -0.10046021131E+04  0.10046021131E+04  0.00000000000E+00 0.  1.
    9000010    2    1    2  501    0 -0.61945220678E+02 -0.86491738216E+02 -0.41911320000E+03  0.10895938618E+04  0.10001204318E+04 0.  0.
   -9000010    2    1    2    0  502  0.61945220678E+02  0.86491738216E+02  0.74710263955E+03  0.12475998039E+04  0.99349126088E+03 0.  0.
        -13    1    3    3    0    0 -0.43297392117E+03  0.25139999612E+03 -0.25317843149E+03  0.56104162395E+03  0.10566000000E+00 0.  1.
          4    1    3    3  501    0  0.37102870050E+03 -0.33789173433E+03 -0.16593476851E+03  0.52855223784E+03  0.00000000000E+00 0.  1.
         13    1    4    4    0    0  0.17723148470E+03  0.15015580862E+03  0.96523622790E+03  0.99279340894E+03  0.10566000000E+00 0. -1.
         -4    1    4    4    0  502 -0.11528626402E+03 -0.63664070408E+02 -0.21813358834E+03  0.25480639493E+03  0.00000000000E+00 0. -1.
<mgrwt>
<rscale>  2 0.10041108E+04</rscale>
<asrwt>0</asrwt>
<pdfrwt beam="1">  1       21 0.20501408E+00 0.10057628E+04</pdfrwt>
<pdfrwt beam="2">  1       21 0.15455417E+00 0.10057628E+04</pdfrwt>
<totfact> 0.15190539E+01</totfact>
</mgrwt>
</event>
<event>
 8    1  0.7208583E-006  0.1090460E+04  0.7818608E-02  0.8707141E-01
         21   -1    0    0  501  502  0.00000000000E+00  0.00000000000E+00  0.17657591387E+04  0.17657591387E+04  0.00000000000E+00 0. -1.
         21   -1    0    0  502  503 -0.00000000000E+00 -0.00000000000E+00 -0.65541023489E+03  0.65541023489E+03  0.00000000000E+00 0. -1.
    9000010    2    1    2  501    0 -0.33519406663E+03 -0.25371702874E+03  0.33463560374E+03  0.10829484698E+04  0.94024943922E+03 0.  0.
   -9000010    2    1    2    0  503  0.33519406663E+03  0.25371702874E+03  0.77571330004E+03  0.13382209038E+04  0.10061693051E+04 0.  0.
        -13    1    3    3    0    0  0.72705328681E+02 -0.53099229469E+03  0.15312883794E+03  0.55739333868E+03  0.10566000000E+00 0.  1.
          4    1    3    3  501    0 -0.40789939531E+03  0.27727526595E+03  0.18150676580E+03  0.52555513111E+03  0.00000000000E+00 0.  1.
         13    1    4    4    0    0  0.47496319907E+03  0.42549473844E+03  0.12362357784E+03  0.64955262533E+03  0.10566000000E+00 0. -1.
         -4    1    4    4    0  503 -0.13976913244E+03 -0.17177770970E+03  0.65208972220E+03  0.68866827844E+03  0.00000000000E+00 0. -1.
<mgrwt>
<rscale>  2 0.10750074E+04</rscale>
<asrwt>0</asrwt>
<pdfrwt beam="1">  1       21 0.27165525E+00 0.10904605E+04</pdfrwt>
<pdfrwt beam="2">  1       21 0.10083234E+00 0.10904605E+04</pdfrwt>
<totfact> 0.16220315E+01</totfact>
</mgrwt>
</event>
<event>
 8    1  0.7208583E-006  0.1097321E+04  0.7818608E-02  0.8692051E-01
         21   -1    0    0  503  502  0.00000000000E+00  0.00000000000E+00  0.23664679394E+04  0.23664679394E+04  0.00000000000E+00 0.  1.
         21   -1    0    0  501  503 -0.00000000000E+00 -0.00000000000E+00 -0.52187340741E+03  0.52187340741E+03  0.00000000000E+00 0.  1.
    9000010    2    1    2  501    0  0.25623628434E+03  0.27109984332E+03  0.12229131090E+04  0.16430547384E+04  0.10319691093E+04 0.  0.
   -9000010    2    1    2    0  502 -0.25623628434E+03 -0.27109984332E+03  0.62168142298E+03  0.12452866085E+04  0.10124716229E+04 0.  0.
        -13    1    3    3    0    0  0.44295856573E+03  0.43909065993E+03  0.12433877150E+04  0.13910520909E+04  0.10566000000E+00 0.  1.
          4    1    3    3  501    0 -0.18672228139E+03 -0.16799081661E+03 -0.20474605975E+02  0.25200264745E+03  0.00000000000E+00 0.  1.
         13    1    4    4    0    0 -0.41247787797E+03 -0.42595089809E+03  0.75896748868E+01  0.59298379550E+03  0.10566000000E+00 0. -1.
         -4    1    4    4    0  502  0.15624159363E+03  0.15485105477E+03  0.61409174809E+03  0.65230281298E+03  0.00000000000E+00 0. -1.
<mgrwt>
<rscale>  2 0.10927126E+04</rscale>
<asrwt>0</asrwt>
<pdfrwt beam="1">  1       21 0.36407199E+00 0.10973206E+04</pdfrwt>
<pdfrwt beam="2">  1       21 0.80288218E-01 0.10973206E+04</pdfrwt>
<totfact> 0.64515981E+00</totfact>
</mgrwt>
</event>
<event>
 8    1  0.7208583E-006  0.1012732E+04  0.7818608E-02  0.8764009E-01
         21   -1    0    0  501  502  0.00000000000E+00  0.00000000000E+00  0.12191723469E+04  0.12191723469E+04  0.00000000000E+00 0.  1.
         21   -1    0    0  502  503 -0.00000000000E+00 -0.00000000000E+00 -0.83754813529E+03  0.83754813529E+03  0.00000000000E+00 0.  1.
    9000010    2    1    2  501    0  0.95451785040E+02  0.18335192597E+03  0.15639849724E+03  0.10192462763E+04  0.98573500997E+03 0.  0.
   -9000010    2    1    2    0  503 -0.95451785040E+02 -0.18335192597E+03  0.22522571441E+03  0.10374742059E+04  0.99141168715E+03 0.  0.
        -13    1    3    3    0    0 -0.10137112563E+03  0.43442790027E+03 -0.24306719419E+03  0.50802104060E+03  0.10566000000E+00 0.  1.
          4    1    3    3  501    0  0.19682291067E+03 -0.25107597429E+03  0.39946569143E+03  0.51122523574E+03  0.00000000000E+00 0.  1.
         13    1    4    4    0    0 -0.30477409616E+03  0.32787169024E+03  0.19755862864E+02  0.44808191241E+03  0.10566000000E+00 0. -1.
         -4    1    4    4    0  503  0.20932231112E+03 -0.51122361621E+03  0.20546985155E+03  0.58939229347E+03  0.00000000000E+00 0. -1.
<mgrwt>
<rscale>  2 0.10113400E+04</rscale>
<asrwt>0</asrwt>
<pdfrwt beam="1">  1       21 0.18756498E+00 0.10127320E+04</pdfrwt>
<pdfrwt beam="2">  1       21 0.12885356E+00 0.10127320E+04</pdfrwt>
<totfact> 0.35853123E+01</totfact>
</mgrwt>
</event>
<event>
 8    1  0.7208583E-006  0.1200945E+04  0.7818608E-02  0.8607740E-01
         21   -1    0    0  501  502  0.00000000000E+00  0.00000000000E+00  0.31335747084E+04  0.31335747084E+04  0.00000000000E+00 0.  1.
         21   -1    0    0  502  503 -0.00000000000E+00 -0.00000000000E+00 -0.80680310472E+03  0.80680310472E+03  0.00000000000E+00 0.  1.
    9000010    2    1    2  501    0 -0.59587870924E+03 -0.23525595542E+03  0.24589550363E+04  0.27321801354E+04  0.10039579779E+04 0.  0.
   -9000010    2    1    2    0  503  0.59587870924E+03  0.23525595542E+03 -0.13218343265E+03  0.12081976776E+04  0.10158013426E+04 0.  0.
        -13    1    3    3    0    0 -0.83382643834E+03  0.27646601401E+02  0.17974434328E+04  0.19816240231E+04  0.10566000000E+00 0.  1.
          4    1    3    3  501    0  0.23794772910E+03 -0.26290255682E+03  0.66151160349E+03  0.75055611230E+03  0.00000000000E+00 0.  1.
         13    1    4    4    0    0  0.75352968832E+03 -0.84440302347E+02 -0.29845688690E+03  0.81487034573E+03  0.10566000000E+00 0. -1.
         -4    1    4    4    0  503 -0.15765097908E+03  0.31969625777E+03  0.16627345425E+03  0.39332733190E+03  0.00000000000E+00 0. -1.
<mgrwt>
<rscale>  2 0.11984371E+04</rscale>
<asrwt>0</asrwt>
<pdfrwt beam="1">  1       21 0.48208841E+00 0.12009451E+04</pdfrwt>
<pdfrwt beam="2">  1       21 0.12412356E+00 0.12009451E+04</pdfrwt>
<totfact> 0.30241122E-01</totfact>
</mgrwt>
</event>
<event>
 8    1  0.7208583E-006  0.1008119E+04  0.7818608E-02  0.8784746E-01
         21   -1    0    0  501  502  0.00000000000E+00  0.00000000000E+00  0.54478271228E+03  0.54478271228E+03  0.00000000000E+00 0.  1.
         21   -1    0    0  502  503 -0.00000000000E+00 -0.00000000000E+00 -0.17380900470E+04  0.17380900470E+04  0.00000000000E+00 0.  1.
    9000010    2    1    2  501    0  0.31485237872E+02 -0.82942903546E+02 -0.50826009737E+03  0.10640238439E+04  0.93056303838E+03 0.  0.
   -9000010    2    1    2    0  503 -0.31485237872E+02  0.82942903546E+02 -0.68504723738E+03  0.12188489154E+04  0.10042072075E+04 0.  0.
        -13    1    3    3    0    0  0.20589864490E+03  0.23301516973E+03  0.12500627009E+03  0.33513713614E+03  0.10566000000E+00 0.  1.
          4    1    3    3  501    0 -0.17441340702E+03 -0.31595807328E+03 -0.63326636747E+03  0.72888670778E+03  0.00000000000E+00 0.  1.
         13    1    4    4    0    0  0.26885239546E+03  0.43198924213E+03 -0.52562597781E+03  0.73155929054E+03  0.10566000000E+00 0. -1.
         -4    1    4    4    0  503 -0.30033763333E+03 -0.34904633859E+03 -0.15942125956E+03  0.48728962484E+03  0.00000000000E+00 0. -1.
<mgrwt>
<rscale>  2 0.98926204E+03</rscale>
<asrwt>0</asrwt>
<pdfrwt beam="1">  1       21 0.83812726E-01 0.10081185E+04</pdfrwt>
<pdfrwt beam="2">  1       21 0.26739847E+00 0.10081185E+04</pdfrwt>
<totfact> 0.28460305E+01</totfact>
</mgrwt>
</event>
<event>
 8    1  0.7208583E-006  0.1021483E+04  0.7818608E-02  0.8757389E-01
         21   -1    0    0  501  502  0.00000000000E+00  0.00000000000E+00  0.85980689554E+03  0.85980689554E+03  0.00000000000E+00 0. -1.
         21   -1    0    0  502  503 -0.00000000000E+00 -0.00000000000E+00 -0.12882344561E+04  0.12882344561E+04  0.00000000000E+00 0. -1.
    9000010    2    1    2  501    0  0.68360098656E+02 -0.17056317153E+03  0.68744884552E+02  0.10119919746E+04  0.99279252565E+03 0.  0.
   -9000010    2    1    2    0  503 -0.68360098656E+02  0.17056317153E+03 -0.49717244508E+03  0.11360493770E+04  0.10048198088E+04 0.  0.
        -13    1    3    3    0    0 -0.23190986400E+02 -0.35246504754E+03  0.45459762989E+03  0.57569822638E+03  0.10566000000E+00 0.  1.
          4    1    3    3  501    0  0.91551085056E+02  0.18190187601E+03 -0.38585274534E+03  0.43629374825E+03  0.00000000000E+00 0.  1.
         13    1    4    4    0    0 -0.29933816845E+03  0.50907269950E+03 -0.40476395332E+03  0.71595546058E+03  0.10566000000E+00 0. -1.
         -4    1    4    4    0  503  0.23097806979E+03 -0.33850952797E+03 -0.92408491761E+02  0.42009391640E+03  0.00000000000E+00 0. -1.
<mgrwt>
<rscale>  2 0.10185130E+04</rscale>
<asrwt>0</asrwt>
<pdfrwt beam="1">  1       21 0.13227798E+00 0.10214831E+04</pdfrwt>
<pdfrwt beam="2">  1       21 0.19818992E+00 0.10214831E+04</pdfrwt>
<totfact> 0.27328636E+01</totfact>
</mgrwt>
</event>
<event>
 8    1  0.7208583E-006  0.1031557E+04  0.7818608E-02  0.8753140E-01
         21   -1    0    0  501  502  0.00000000000E+00  0.00000000000E+00  0.71673868350E+03  0.71673868350E+03  0.00000000000E+00 0.  1.
         21   -1    0    0  502  503 -0.00000000000E+00 -0.00000000000E+00 -0.27703054375E+04  0.27703054375E+04  0.00000000000E+00 0.  1.
    9000010    2    1    2  501    0 -0.21574050517E+03  0.10312888496E+03  0.17387445117E+03  0.10461077691E+04  0.10034588220E+04 0.  0.
   -9000010    2    1    2    0  503  0.21574050517E+03 -0.10312888496E+03 -0.22274412052E+04  0.24409363519E+04  0.96927623459E+03 0.  0.
        -13    1    3    3    0    0  0.20921660173E+03  0.29389644342E+03 -0.23146448346E+03  0.42862865532E+03  0.10566000000E+00 0.  1.
          4    1    3    3  501    0 -0.42495710690E+03 -0.19076755845E+03  0.40533893463E+03  0.61747911381E+03  0.00000000000E+00 0.  1.
         13    1    4    4    0    0  0.31701910544E+02  0.36345939508E+03 -0.38070592006E+03  0.52729948960E+03  0.10566000000E+00 0. -1.
         -4    1    4    4    0  503  0.18403859463E+03 -0.46658828004E+03 -0.18467352851E+04  0.19136368623E+04  0.00000000000E+00 0. -1.
<mgrwt>
<rscale>  2 0.10231494E+04</rscale>
<asrwt>0</asrwt>
<pdfrwt beam="1">  1       21 0.11026749E+00 0.10315567E+04</pdfrwt>
<pdfrwt beam="2">  1       21 0.42620083E+00 0.10315567E+04</pdfrwt>
<totfact> 0.10668938E+00</totfact>
</mgrwt>
</event>
<event>
 8    1  0.7208583E-006  0.1026408E+04  0.7818608E-02  0.8755212E-01
         21   -1    0    0  501  502  0.00000000000E+00  0.00000000000E+00  0.41975623963E+03  0.41975623963E+03  0.00000000000E+00 0.  1.
         21   -1    0    0  502  503 -0.00000000000E+00 -0.00000000000E+00 -0.24772346026E+04  0.24772346026E+04  0.00000000000E+00 0.  1.
    9000010    2    1    2  501    0  0.15859385600E+03 -0.11964157395E+03 -0.11501572927E+04  0.15270473259E+04  0.98465507672E+03 0.  0.
   -9000010    2    1    2    0  503 -0.15859385600E+03  0.11964157395E+03 -0.90732107025E+03  0.13699435164E+04  0.10069993029E+04 0.  0.
        -13    1    3    3    0    0 -0.82698807375E+02  0.95345515333E+02 -0.11942306432E+04  0.12008816346E+04  0.10566000000E+00 0.  1.
          4    1    3    3  501    0  0.24129266337E+03 -0.21498708928E+03  0.44073350451E+02  0.32616569129E+03  0.00000000000E+00 0.  1.
         13    1    4    4    0    0  0.39915475411E+03 -0.12348626107E+03 -0.38101018293E+03  0.56545746530E+03  0.10566000000E+00 0. -1.
         -4    1    4    4    0  503 -0.55774861010E+03  0.24312783502E+03 -0.52631088732E+03  0.80448605105E+03  0.00000000000E+00 0. -1.
<mgrwt>
<rscale>  2 0.10208857E+04</rscale>
<asrwt>0</asrwt>
<pdfrwt beam="1">  1       21 0.64577884E-01 0.10264082E+04</pdfrwt>
<pdfrwt beam="2">  1       21 0.38111301E+00 0.10264082E+04</pdfrwt>
<totfact> 0.83641433E+00</totfact>
</mgrwt>
</event>
<event>
 8    1  0.7208583E-006  0.1042294E+04  0.7818608E-02  0.8745137E-01
         21   -1    0    0  501  502  0.00000000000E+00  0.00000000000E+00  0.10265151323E+04  0.10265151323E+04  0.00000000000E+00 0.  1.
         21   -1    0    0  502  503 -0.00000000000E+00 -0.00000000000E+00 -0.14707099282E+04  0.14707099282E+04  0.00000000000E+00 0.  1.
    9000010    2    1    2  501    0  0.17721655270E+03  0.13962537113E+03  0.47412750282E+03  0.11080916081E+04  0.97579156191E+03 0.  0.
   -9000010    2    1    2    0  503 -0.17721655270E+03 -0.13962537113E+03 -0.91832229874E+03  0.13891334524E+04  0.10175828976E+04 0.  0.
        -13    1    3    3    0    0 -0.18938064720E+03  0.43575702192E+03  0.41923117875E+03  0.63364343608E+03  0.10566000000E+00 0.  1.
          4    1    3    3  501    0  0.36659719990E+03 -0.29613165079E+03  0.54896324069E+02  0.47444817206E+03  0.00000000000E+00 0.  1.
         13    1    4    4    0    0  0.28356361091E+03  0.29463803238E+03 -0.34713287467E+03  0.53639643492E+03  0.10566000000E+00 0. -1.
         -4    1    4    4    0  503 -0.46078016361E+03 -0.43426340351E+03 -0.57118942408E+03  0.85273701748E+03  0.00000000000E+00 0. -1.
<mgrwt>
<rscale>  2 0.10319507E+04</rscale>
<asrwt>0</asrwt>
<pdfrwt beam="1">  1       21 0.15792540E+00 0.10422936E+04</pdfrwt>
<pdfrwt beam="2">  1       21 0.22626307E+00 0.10422936E+04</pdfrwt>
<totfact> 0.97063283E+00</totfact>
</mgrwt>
</event>
<event>
 8    1  0.7208583E-006  0.1169440E+04  0.7818608E-02  0.8634761E-01
         21   -1    0    0  501  502  0.00000000000E+00  0.00000000000E+00  0.85259289473E+03  0.85259289473E+03  0.00000000000E+00 0.  1.
         21   -1    0    0  502  503 -0.00000000000E+00 -0.00000000000E+00 -0.18641797344E+04  0.18641797344E+04  0.00000000000E+00 0.  1.
    9000010    2    1    2  501    0  0.56341146721E+03  0.52334103190E+02  0.28792809349E+02  0.11697944414E+04  0.10234347412E+04 0.  0.
   -9000010    2    1    2    0  503 -0.56341146721E+03 -0.52334103190E+02 -0.10403796491E+04  0.15469781878E+04  0.99527903601E+03 0.  0.
        -13    1    3    3    0    0  0.72107476095E+03  0.24864407642E+03 -0.24182780882E+03  0.80015835176E+03  0.10566000000E+00 0.  1.
          4    1    3    3  501    0 -0.15766329374E+03 -0.19630997323E+03  0.27062061817E+03  0.36963608964E+03  0.00000000000E+00 0.  1.
         13    1    4    4    0    0  0.12481966851E+02  0.38435734942E+03 -0.55936017997E+03  0.67880055513E+03  0.10566000000E+00 0. -1.
         -4    1    4    4    0  503 -0.57589343406E+03 -0.43669145261E+03 -0.48101946910E+03  0.86817763264E+03  0.00000000000E+00 0. -1.
<mgrwt>
<rscale>  2 0.11632512E+04</rscale>
<asrwt>0</asrwt>
<pdfrwt beam="1">  1       21 0.13116814E+00 0.11694400E+04</pdfrwt>
<pdfrwt beam="2">  1       21 0.28679688E+00 0.11694400E+04</pdfrwt>
<totfact> 0.60169707E+00</totfact>
</mgrwt>
</event>
<event>
 8    1  0.7208583E-006  0.9774895E+03  0.7818608E-02  0.8800640E-01
         21   -1    0    0  503  502  0.00000000000E+00  0.00000000000E+00  0.10296481126E+04  0.10296481126E+04  0.00000000000E+00 0.  1.
         21   -1    0    0  501  503 -0.00000000000E+00 -0.00000000000E+00 -0.91053537029E+03  0.91053537029E+03  0.00000000000E+00 0.  1.
    9000010    2    1    2  501    0  0.10242514239E+03 -0.10350337436E+03  0.39698210974E+02  0.97829531885E+03  0.96658260104E+03 0.  0.
   -9000010    2    1    2    0  502 -0.10242514239E+03  0.10350337436E+03  0.79414531389E+02  0.96188816408E+03  0.94747998085E+03 0.  0.
        -13    1    3    3    0    0  0.22458286990E+03  0.35025152457E+03  0.22518826080E+03  0.47309973566E+03  0.10566000000E+00 0.  1.
          4    1    3    3  501    0 -0.12215772751E+03 -0.45375489893E+03 -0.18549004982E+03  0.50519558319E+03  0.00000000000E+00 0.  1.
         13    1    4    4    0    0  0.16163060722E+03  0.46567989555E+03 -0.49739883052E+02  0.49543545032E+03  0.10566000000E+00 0. -1.
         -4    1    4    4    0  502 -0.26405574961E+03 -0.36217652119E+03  0.12915441444E+03  0.46645271376E+03  0.00000000000E+00 0. -1.
<mgrwt>
<rscale>  2 0.97273362E+03</rscale>
<asrwt>0</asrwt>
<pdfrwt beam="1">  1       21 0.15840740E+00 0.97748953E+03</pdfrwt>
<pdfrwt beam="2">  1       21 0.14008236E+00 0.97748953E+03</pdfrwt>
<totfact> 0.49466643E+01</totfact>
</mgrwt>
</event>
<event>
 8    1  0.7208583E-006  0.1080794E+04  0.7818608E-02  0.8705274E-01
         21   -1    0    0  503  502  0.00000000000E+00  0.00000000000E+00  0.69722261271E+03  0.69722261271E+03  0.00000000000E+00 0.  1.
         21   -1    0    0  501  503 -0.00000000000E+00 -0.00000000000E+00 -0.19795791043E+04  0.19795791043E+04  0.00000000000E+00 0.  1.
    9000010    2    1    2  501    0 -0.38339817313E+03 -0.33513596784E+01 -0.11882483308E+04  0.16062534780E+04  0.10105002471E+04 0.  0.
   -9000010    2    1    2    0  502  0.38339817313E+03  0.33513596784E+01 -0.94108160812E+02  0.10705482390E+04  0.99509386255E+03 0.  0.
        -13    1    3    3    0    0  0.16775571889E+03 -0.30563504282E+03 -0.78628705617E+03  0.86011749574E+03  0.10566000000E+00 0.  1.
          4    1    3    3  501    0 -0.55115389202E+03  0.30228368314E+03 -0.40196127462E+03  0.74613598229E+03  0.00000000000E+00 0.  1.
         13    1    4    4    0    0  0.14427998237E+03  0.10667834635E+03  0.44061567876E+03  0.47575116440E+03  0.10566000000E+00 0. -1.
         -4    1    4    4    0  502  0.23911819077E+03 -0.10332698667E+03 -0.53472383957E+03  0.59479707459E+03  0.00000000000E+00 0. -1.
<mgrwt>
<rscale>  2 0.10771785E+04</rscale>
<asrwt>0</asrwt>
<pdfrwt beam="1">  1       21 0.10726502E+00 0.10807942E+04</pdfrwt>
<pdfrwt beam="2">  1       21 0.30455063E+00 0.10807942E+04</pdfrwt>
<totfact> 0.80518360E+00</totfact>
</mgrwt>
</event>
<event>
 8    1  0.7208583E-006  0.1014405E+04  0.7818608E-02  0.8765136E-01
         21   -1    0    0  503  502  0.00000000000E+00  0.00000000000E+00  0.14561226510E+04  0.14561226510E+04  0.00000000000E+00 0. -1.
         21   -1    0    0  501  503 -0.00000000000E+00 -0.00000000000E+00 -0.70541324464E+03  0.70541324464E+03  0.00000000000E+00 0. -1.
    9000010    2    1    2  501    0  0.35641255322E+02  0.58648794109E+01  0.50426911838E+03  0.11176247107E+04  0.99674116717E+03 0.  0.
   -9000010    2    1    2    0  502 -0.35641255322E+02 -0.58648794109E+01  0.24644028803E+03  0.10439111850E+04  0.10137618313E+04 0.  0.
        -13    1    3    3    0    0  0.11829361920E+03  0.20808299931E+03 -0.24179754579E+03  0.34023224312E+03  0.10566000000E+00 0.  1.
          4    1    3    3  501    0 -0.82652363881E+02 -0.20221811990E+03  0.74606666417E+03  0.77739246758E+03  0.00000000000E+00 0.  1.
         13    1    4    4    0    0 -0.14095463036E+03 -0.49409113675E+03  0.10016111825E+03  0.52347542445E+03  0.10566000000E+00 0. -1.
         -4    1    4    4    0  502  0.10531337504E+03  0.48822625734E+03  0.14627916978E+03  0.52043576052E+03  0.00000000000E+00 0. -1.
<mgrwt>
<rscale>  2 0.10101257E+04</rscale>
<asrwt>0</asrwt>
<pdfrwt beam="1">  1       21 0.22401887E+00 0.10144051E+04</pdfrwt>
<pdfrwt beam="2">  1       21 0.10852512E+00 0.10144051E+04</pdfrwt>
<totfact> 0.30212764E+01</totfact>
</mgrwt>
</event>
<event>
 8    1  0.7208583E-006  0.1034333E+04  0.7818608E-02  0.8744619E-01
         21   -1    0    0  501  502  0.00000000000E+00  0.00000000000E+00  0.21062470784E+04  0.21062470784E+04  0.00000000000E+00 0.  1.
         21   -1    0    0  502  503 -0.00000000000E+00 -0.00000000000E+00 -0.52958248703E+03  0.52958248703E+03  0.00000000000E+00 0.  1.
    9000010    2    1    2  501    0  0.17711300131E+03  0.14645460783E+03  0.49831984577E+03  0.11416167115E+04  0.10010734638E+04 0.  0.
   -9000010    2    1    2    0  503 -0.17711300131E+03 -0.14645460783E+03  0.10783447456E+04  0.14942128539E+04  0.10084774143E+04 0.  0.
        -13    1    3    3    0    0  0.43314880284E+03 -0.12057981151E+03  0.60759864051E+03  0.75586605656E+03  0.10566000000E+00 0.  1.
          4    1    3    3  501    0 -0.25603580154E+03  0.26703441934E+03 -0.10927879474E+03  0.38575065491E+03  0.00000000000E+00 0.  1.
         13    1    4    4    0    0  0.22722148495E+03 -0.45812470098E+03  0.42409247864E+03  0.66435102655E+03  0.10566000000E+00 0. -1.
         -4    1    4    4    0  503 -0.40433448626E+03  0.31167009316E+03  0.65425226695E+03  0.82986182739E+03  0.00000000000E+00 0. -1.
<mgrwt>
<rscale>  2 0.10325238E+04</rscale>
<asrwt>0</asrwt>
<pdfrwt beam="1">  1       21 0.32403801E+00 0.10343330E+04</pdfrwt>
<pdfrwt beam="2">  1       21 0.81474230E-01 0.10343330E+04</pdfrwt>
<totfact> 0.12048698E+01</totfact>
</mgrwt>
</event>
<event>
 8    1  0.7208583E-006  0.1049419E+04  0.7818608E-02  0.8732392E-01
         21   -1    0    0  503  502  0.00000000000E+00  0.00000000000E+00  0.90451584626E+03  0.90451584626E+03  0.00000000000E+00 0.  1.
         21   -1    0    0  501  503 -0.00000000000E+00 -0.00000000000E+00 -0.17772324014E+04  0.17772324014E+04  0.00000000000E+00 0.  1.
    9000010    2    1    2  501    0  0.47779974593E+02  0.23286256844E+03 -0.11970177649E+04  0.15833620671E+04  0.10087992884E+04 0.  0.
   -9000010    2    1    2    0  502 -0.47779974593E+02 -0.23286256844E+03  0.32430120975E+03  0.10983861806E+04  0.10221413920E+04 0.  0.
        -13    1    3    3    0    0 -0.29969010726E+03  0.36349350999E+03 -0.11045250493E+04  0.12007986042E+04  0.10566000000E+00 0.  1.
          4    1    3    3  501    0  0.34747008185E+03 -0.13063094154E+03 -0.92492715573E+02  0.38256346285E+03  0.00000000000E+00 0.  1.
         13    1    4    4    0    0  0.11902852817E+03 -0.57660883718E+03  0.39611443914E+03  0.70961412168E+03  0.10566000000E+00 0. -1.
         -4    1    4    4    0  502 -0.16680850276E+03  0.34374626874E+03 -0.71813229388E+02  0.38877205890E+03  0.00000000000E+00 0. -1.
<mgrwt>
<rscale>  2 0.10461564E+04</rscale>
<asrwt>0</asrwt>
<pdfrwt beam="1">  1       21 0.13915629E+00 0.10494193E+04</pdfrwt>
<pdfrwt beam="2">  1       21 0.27342037E+00 0.10494193E+04</pdfrwt>
<totfact> 0.64721959E+00</totfact>
</mgrwt>
</event>
<event>
 8    1  0.7208583E-006  0.1007986E+04  0.7818608E-02  0.8771106E-01
         21   -1    0    0  501  502  0.00000000000E+00  0.00000000000E+00  0.53399270051E+03  0.53399270051E+03  0.00000000000E+00 0. -1.
         21   -1    0    0  502  503 -0.00000000000E+00 -0.00000000000E+00 -0.22765142022E+04  0.22765142022E+04  0.00000000000E+00 0. -1.
    9000010    2    1    2  501    0 -0.36656076203E+02 -0.72970856185E+02 -0.14705382224E+04  0.17828402543E+04  0.10046732280E+04 0.  0.
   -9000010    2    1    2    0  503  0.36656076203E+02  0.72970856185E+02 -0.27198327937E+03  0.10276666485E+04  0.98765146804E+03 0.  0.
        -13    1    3    3    0    0 -0.32443602621E+03 -0.42510191690E+03 -0.96182196530E+03  0.11004871099E+04  0.10566000000E+00 0.  1.
          4    1    3    3  501    0  0.28777995000E+03  0.35213106071E+03 -0.50871625706E+03  0.68235314445E+03  0.00000000000E+00 0.  1.
         13    1    4    4    0    0  0.38556542731E+03 -0.26997273056E+03 -0.26122487059E+03  0.53831628079E+03  0.10566000000E+00 0. -1.
         -4    1    4    4    0  503 -0.34890935111E+03  0.34294358675E+03 -0.10758408784E+02  0.48935036767E+03  0.00000000000E+00 0. -1.
<mgrwt>
<rscale>  2 0.10037182E+04</rscale>
<asrwt>0</asrwt>
<pdfrwt beam="1">  1       21 0.82152724E-01 0.10079865E+04</pdfrwt>
<pdfrwt beam="2">  1       21 0.35023295E+00 0.10079865E+04</pdfrwt>
<totfact> 0.77781300E+00</totfact>
</mgrwt>
</event>
<event>
 8    1  0.7208583E-006  0.1038956E+04  0.7818608E-02  0.8745847E-01
         21   -1    0    0  501  502  0.00000000000E+00  0.00000000000E+00  0.10015482993E+04  0.10015482993E+04  0.00000000000E+00 0.  1.
         21   -1    0    0  502  503 -0.00000000000E+00 -0.00000000000E+00 -0.11806249184E+04  0.11806249184E+04  0.00000000000E+00 0.  1.
    9000010    2    1    2  501    0 -0.22634384905E+02  0.99797576547E+02 -0.45669740138E+03  0.11067654618E+04  0.10029383827E+04 0.  0.
   -9000010    2    1    2    0  503  0.22634384905E+02 -0.99797576547E+02  0.27762078226E+03  0.10754077558E+04  0.10339036081E+04 0.  0.
        -13    1    3    3    0    0  0.47790369444E+03  0.11440682964E+03 -0.32442198150E+03  0.58883826054E+03  0.10566000000E+00 0.  1.
          4    1    3    3  501    0 -0.50053807935E+03 -0.14609253093E+02 -0.13227541987E+03  0.51792720131E+03  0.00000000000E+00 0.  1.
         13    1    4    4    0    0  0.40851452789E+03 -0.18018142697E+03  0.46003690603E+03  0.64107989533E+03  0.10566000000E+00 0. -1.
         -4    1    4    4    0  503 -0.38588014299E+03  0.80383850423E+02 -0.18241612376E+03  0.43432786046E+03  0.00000000000E+00 0. -1.
<mgrwt>
<rscale>  2 0.10311658E+04</rscale>
<asrwt>0</asrwt>
<pdfrwt beam="1">  1       21 0.15408435E+00 0.10389555E+04</pdfrwt>
<pdfrwt beam="2">  1       21 0.18163460E+00 0.10389555E+04</pdfrwt>
<totfact> 0.23302255E+01</totfact>
</mgrwt>
</event>
<event>
 8    1  0.7208583E-006  0.1022234E+04  0.7818608E-02  0.8757134E-01
         21   -1    0    0  503  502  0.00000000000E+00  0.00000000000E+00  0.13718943082E+04  0.13718943082E+04  0.00000000000E+00 0.  1.
         21   -1    0    0  501  503 -0.00000000000E+00 -0.00000000000E+00 -0.78776053572E+03  0.78776053572E+03  0.00000000000E+00 0.  1.
    9000010    2    1    2  501    0 -0.75951473783E+02 -0.17747584171E+03  0.62331302133E+02  0.10241323431E+04  0.10038404078E+04 0.  0.
   -9000010    2    1    2    0  502  0.75951473783E+02  0.17747584171E+03  0.52180247032E+03  0.11355225008E+04  0.98988243290E+03 0.  0.
        -13    1    3    3    0    0  0.27302903239E+03  0.14143891036E+03 -0.29916312537E+03  0.42900863003E+03  0.10566000000E+00 0.  1.
          4    1    3    3  501    0 -0.34898050618E+03 -0.31891475207E+03  0.36149442750E+03  0.59512371310E+03  0.00000000000E+00 0.  1.
         13    1    4    4    0    0  0.46700481325E+03  0.16591635578E+03  0.55357278219E+03  0.74301047708E+03  0.10566000000E+00 0. -1.
         -4    1    4    4    0  502 -0.39105333947E+03  0.11559485932E+02 -0.31770311870E+02  0.39251202369E+03  0.00000000000E+00 0. -1.
<mgrwt>
<rscale>  2 0.10187906E+04</rscale>
<asrwt>0</asrwt>
<pdfrwt beam="1">  1       21 0.21106066E+00 0.10222338E+04</pdfrwt>
<pdfrwt beam="2">  1       21 0.12119393E+00 0.10222338E+04</pdfrwt>
<totfact> 0.27899908E+01</totfact>
</mgrwt>
</event>
<event>
 8    1  0.7208583E-006  0.1025930E+04  0.7818608E-02  0.8831923E-01
         21   -1    0    0  503  502  0.00000000000E+00  0.00000000000E+00  0.67686859142E+03  0.67686859142E+03  0.00000000000E+00 0. -1.
         21   -1    0    0  501  503 -0.00000000000E+00 -0.00000000000E+00 -0.11362688458E+04  0.11362688458E+04  0.00000000000E+00 0. -1.
    9000010    2    1    2  501    0 -0.12909027505E+03 -0.90090392537E+02 -0.30467921661E+03  0.10702159157E+04  0.10137810923E+04 0.  0.
   -9000010    2    1    2    0  502  0.12909027505E+03  0.90090392537E+02 -0.15472103777E+03  0.74292152154E+03  0.70937522489E+03 0.  0.
        -13    1    3    3    0    0  0.27545488774E+03  0.16144884022E+03  0.19957818610E+03  0.37652700663E+03  0.10566000000E+00 0.  1.
          4    1    3    3  501    0 -0.40454516279E+03 -0.25153923276E+03 -0.50425740271E+03  0.69368890905E+03  0.00000000000E+00 0.  1.
         13    1    4    4    0    0  0.73396277976E+02  0.31543373885E+02  0.28492429069E+03  0.29591191366E+03  0.10566000000E+00 0. -1.
         -4    1    4    4    0  502  0.55693997076E+02  0.58547018651E+02 -0.43964532845E+03  0.44700960788E+03  0.00000000000E+00 0. -1.
<mgrwt>
<rscale>  2 0.94116756E+03</rscale>
<asrwt>0</asrwt>
<pdfrwt beam="1">  1       21 0.10413363E+00 0.10259302E+04</pdfrwt>
<pdfrwt beam="2">  1       21 0.17481059E+00 0.10259302E+04</pdfrwt>
<totfact> 0.81752832E+01</totfact>
</mgrwt>
</event>
<event>
 8    1  0.7208583E-006  0.1168563E+04  0.7818608E-02  0.8635498E-01
         21   -1    0    0  503  502  0.00000000000E+00  0.00000000000E+00  0.60075089014E+03  0.60075089014E+03  0.00000000000E+00 0.  1.
         21   -1    0    0  501  503 -0.00000000000E+00 -0.00000000000E+00 -0.28943968491E+04  0.28943968491E+04  0.00000000000E+00 0.  1.
    9000010    2    1    2  501    0 -0.22823886848E+03 -0.49114758432E+03 -0.19777237302E+04  0.22846331946E+04  0.10073920539E+04 0.  0.
   -9000010    2    1    2    0  502  0.22823886848E+03  0.49114758432E+03 -0.31592222877E+03  0.12105145446E+04  0.10354804090E+04 0.  0.
        -13    1    3    3    0    0  0.42960470526E+02 -0.75295894273E+03 -0.11517200903E+04  0.13766814987E+04  0.10566000000E+00 0.  1.
          4    1    3    3  501    0 -0.27119933901E+03  0.26181135842E+03 -0.82600363997E+03  0.90795169591E+03  0.00000000000E+00 0.  1.
         13    1    4    4    0    0 -0.12907069949E+03  0.49377966961E+03  0.22859573833E+03  0.55922592066E+03  0.10566000000E+00 0. -1.
         -4    1    4    4    0  502  0.35730956797E+03 -0.26320852948E+01 -0.54451796710E+03  0.65128862398E+03  0.00000000000E+00 0. -1.
<mgrwt>
<rscale>  2 0.11623087E+04</rscale>
<asrwt>0</asrwt>
<pdfrwt beam="1">  1       21 0.92423215E-01 0.11685626E+04</pdfrwt>
<pdfrwt beam="2">  1       21 0.44529182E+00 0.11685626E+04</pdfrwt>
<totfact> 0.12138281E+00</totfact>
</mgrwt>
</event>
<event>
 8    1  0.7208583E-006  0.1006796E+04  0.7818608E-02  0.8805789E-01
         21   -1    0    0  503  502  0.00000000000E+00  0.00000000000E+00  0.88742787109E+03  0.88742787109E+03  0.00000000000E+00 0.  1.
         21   -1    0    0  501  503 -0.00000000000E+00 -0.00000000000E+00 -0.99185767962E+03  0.99185767962E+03  0.00000000000E+00 0.  1.
    9000010    2    1    2  501    0  0.10848296162E+03  0.10328684963E+03 -0.15021946537E+03  0.87144837979E+03  0.84523349709E+03 0.  0.
   -9000010    2    1    2    0  502 -0.10848296162E+03 -0.10328684963E+03  0.45789656842E+02  0.10078371709E+04  0.99559145443E+03 0.  0.
        -13    1    3    3    0    0 -0.37151052233E+03  0.53848604239E+02 -0.51317697689E+02  0.37888422723E+03  0.10566000000E+00 0.  1.
          4    1    3    3  501    0  0.47999348395E+03  0.49438245391E+02 -0.98901767682E+02  0.49256415256E+03  0.00000000000E+00 0.  1.
         13    1    4    4    0    0  0.10761945225E+03  0.28344428348E+03 -0.31447607752E+03  0.43682699417E+03  0.10566000000E+00 0. -1.
         -4    1    4    4    0  502 -0.21610241387E+03 -0.38673113311E+03  0.36026573436E+03  0.57101017675E+03  0.00000000000E+00 0. -1.
<mgrwt>
<rscale>  2 0.96745129E+03</rscale>
<asrwt>0</asrwt>
<pdfrwt beam="1">  1       21 0.13652736E+00 0.10067964E+04</pdfrwt>
<pdfrwt beam="2">  1       21 0.15259349E+00 0.10067964E+04</pdfrwt>
<totfact> 0.59621004E+01</totfact>
</mgrwt>
</event>
<event>
 8    1  0.7208583E-006  0.1015180E+04  0.7818608E-02  0.8768258E-01
         21   -1    0    0  503  502  0.00000000000E+00  0.00000000000E+00  0.54508401631E+03  0.54508401631E+03  0.00000000000E+00 0. -1.
         21   -1    0    0  501  503 -0.00000000000E+00 -0.00000000000E+00 -0.18651187627E+04  0.18651187627E+04  0.00000000000E+00 0. -1.
    9000010    2    1    2  501    0  0.25547717068E+02  0.59349006776E+02 -0.50384312121E+03  0.11333348925E+04  0.10131214623E+04 0.  0.
   -9000010    2    1    2    0  502 -0.25547717068E+02 -0.59349006776E+02 -0.81619162518E+03  0.12768678865E+04  0.97982031014E+03 0.  0.
        -13    1    3    3    0    0  0.89327372757E+02 -0.47165937205E+03 -0.25234030565E+03  0.54232608622E+03  0.10566000000E+00 0.  1.
          4    1    3    3  501    0 -0.63779655689E+02  0.53100837883E+03 -0.25150281556E+03  0.59100880628E+03  0.00000000000E+00 0.  1.
         13    1    4    4    0    0 -0.43380911873E+03 -0.25410433943E+03 -0.28036418288E+03  0.57564177491E+03  0.10566000000E+00 0. -1.
         -4    1    4    4    0  502  0.40826140166E+03  0.19475533266E+03 -0.53582744230E+03  0.70122611161E+03  0.00000000000E+00 0. -1.
<mgrwt>
<rscale>  2 0.10067680E+04</rscale>
<asrwt>0</asrwt>
<pdfrwt beam="1">  1       21 0.83859080E-01 0.10151798E+04</pdfrwt>
<pdfrwt beam="2">  1       21 0.28694135E+00 0.10151798E+04</pdfrwt>
<totfact> 0.20584563E+01</totfact>
</mgrwt>
</event>
<event>
 8    1  0.7208583E-006  0.9999736E+03  0.7818608E-02  0.8778366E-01
         21   -1    0    0  501  502  0.00000000000E+00  0.00000000000E+00  0.17362652696E+04  0.17362652696E+04  0.00000000000E+00 0.  1.
         21   -1    0    0  502  503 -0.00000000000E+00 -0.00000000000E+00 -0.11594471680E+04  0.11594471680E+04  0.00000000000E+00 0.  1.
    9000010    2    1    2  501    0  0.13664668082E+03 -0.45135586886E+02  0.13246225495E+04  0.16596903369E+04  0.98956433799E+03 0.  0.
   -9000010    2    1    2    0  503 -0.13664668082E+03  0.45135586886E+02 -0.74780444797E+03  0.12360221007E+04  0.97356540839E+03 0.  0.
        -13    1    3    3    0    0 -0.21016099899E+03 -0.34303129393E+03  0.10545889150E+04  0.11287142707E+04  0.10566000000E+00 0.  1.
          4    1    3    3  501    0  0.34680767981E+03  0.29789570705E+03  0.27003363451E+03  0.53097606614E+03  0.00000000000E+00 0.  1.
         13    1    4    4    0    0  0.91886791237E+02 -0.35840447508E+03 -0.16871120702E+02  0.37038033970E+03  0.10566000000E+00 0. -1.
         -4    1    4    4    0  503 -0.22853347206E+03  0.40354006196E+03 -0.73093332726E+03  0.86564176099E+03  0.00000000000E+00 0. -1.
<mgrwt>
<rscale>  2 0.99599242E+03</rscale>
<asrwt>0</asrwt>
<pdfrwt beam="1">  1       21 0.26711773E+00 0.99997356E+03</pdfrwt>
<pdfrwt beam="2">  1       21 0.17837649E+00 0.99997356E+03</pdfrwt>
<totfact> 0.33193024E+00</totfact>
</mgrwt>
</event>
<event>
 8    1  0.7208583E-006  0.1018367E+04  0.7818608E-02  0.8758110E-01
         21   -1    0    0  501  502  0.00000000000E+00  0.00000000000E+00  0.11894295380E+04  0.11894295380E+04  0.00000000000E+00 0. -1.
         21   -1    0    0  502  503 -0.00000000000E+00 -0.00000000000E+00 -0.93458342960E+03  0.93458342960E+03  0.00000000000E+00 0. -1.
    9000010    2    1    2  501    0  0.10864294080E+03 -0.21126416897E+03  0.40733947066E+03  0.10968118824E+04  0.99027017690E+03 0.  0.
   -9000010    2    1    2    0  503 -0.10864294080E+03  0.21126416897E+03 -0.15249336227E+03  0.10272010852E+04  0.98764973867E+03 0.  0.
        -13    1    3    3    0    0  0.16538664683E+02  0.13427948822E+03  0.65046364394E+03  0.66438503267E+03  0.10566000000E+00 0.  1.
          4    1    3    3  501    0  0.92104276114E+02 -0.34554365719E+03 -0.24312417328E+03  0.43242684969E+03  0.00000000000E+00 0.  1.
         13    1    4    4    0    0 -0.48218496187E+03 -0.12596003171E+03 -0.16149064702E+03  0.52387737810E+03  0.10566000000E+00 0. -1.
         -4    1    4    4    0  503  0.37354202107E+03  0.33722420068E+03  0.89972847447E+01  0.50332370713E+03  0.00000000000E+00 0. -1.
<mgrwt>
<rscale>  2 0.10177292E+04</rscale>
<asrwt>0</asrwt>
<pdfrwt beam="1">  1       21 0.18298916E+00 0.10183668E+04</pdfrwt>
<pdfrwt beam="2">  1       21 0.14378207E+00 0.10183668E+04</pdfrwt>
<totfact> 0.28227703E+01</totfact>
</mgrwt>
</event>
<event>
 8    1  0.7208583E-006  0.1065692E+04  0.7818608E-02  0.8715534E-01
         21   -1    0    0  503  502  0.00000000000E+00  0.00000000000E+00  0.60494431883E+03  0.60494431883E+03  0.00000000000E+00 0. -1.
         21   -1    0    0  501  503 -0.00000000000E+00 -0.00000000000E+00 -0.19501520477E+04  0.19501520477E+04  0.00000000000E+00 0. -1.
    9000010    2    1    2  501    0 -0.31583336803E+03  0.17810875951E+03 -0.42174966478E+03  0.11461118688E+04  0.10021108668E+04 0.  0.
   -9000010    2    1    2    0  502  0.31583336803E+03 -0.17810875951E+03 -0.92345806406E+03  0.14089844977E+04  0.10004944139E+04 0.  0.
        -13    1    3    3    0    0  0.75772695249E+02 -0.14916981954E+02  0.29605318429E+03  0.30595999213E+03  0.10566000000E+00 0.  1.
          4    1    3    3  501    0 -0.39160606328E+03  0.19302574146E+03 -0.71780284907E+03  0.84015187662E+03  0.00000000000E+00 0.  1.
         13    1    4    4    0    0 -0.17144121644E+03  0.31478780806E+03 -0.42097546444E+03  0.55290488118E+03  0.10566000000E+00 0. -1.
         -4    1    4    4    0  502  0.48727458447E+03 -0.49289656757E+03 -0.50248259962E+03  0.85607961657E+03  0.00000000000E+00 0. -1.
<mgrwt>
<rscale>  2 0.10653119E+04</rscale>
<asrwt>0</asrwt>
<pdfrwt beam="1">  1       21 0.93068357E-01 0.10656921E+04</pdfrwt>
<pdfrwt beam="2">  1       21 0.30002339E+00 0.10656921E+04</pdfrwt>
<totfact> 0.12608092E+01</totfact>
</mgrwt>
</event>
<event>
 8    1  0.7208583E-006  0.1052907E+04  0.7818608E-02  0.8727663E-01
         21   -1    0    0  503  502  0.00000000000E+00  0.00000000000E+00  0.19840235506E+04  0.19840235506E+04  0.00000000000E+00 0. -1.
         21   -1    0    0  501  503 -0.00000000000E+00 -0.00000000000E+00 -0.57132412250E+03  0.57132412250E+03  0.00000000000E+00 0. -1.
    9000010    2    1    2  501    0  0.20908093588E+03 -0.24005173940E+03  0.49736087970E+03  0.11644658992E+04  0.10036300666E+04 0.  0.
   -9000010    2    1    2    0  502 -0.20908093588E+03  0.24005173940E+03  0.91533854841E+03  0.13908817739E+04  0.99768119927E+03 0.  0.
        -13    1    3    3    0    0  0.23115212009E+03 -0.17197870971E+03  0.80166246208E+03  0.85186307203E+03  0.10566000000E+00 0.  1.
          4    1    3    3  501    0 -0.22071184206E+02 -0.68073029687E+02 -0.30430158238E+03  0.31260282721E+03  0.00000000000E+00 0.  1.
         13    1    4    4    0    0 -0.50438471153E+03 -0.21544431553E+02  0.14476407321E+03  0.52519020156E+03  0.10566000000E+00 0. -1.
         -4    1    4    4    0  502  0.29530377565E+03  0.26159617095E+03  0.77057447520E+03  0.86569157232E+03  0.00000000000E+00 0. -1.
<mgrwt>
<rscale>  2 0.10514868E+04</rscale>
<asrwt>0</asrwt>
<pdfrwt beam="1">  1       21 0.30523439E+00 0.10529069E+04</pdfrwt>
<pdfrwt beam="2">  1       21 0.87896020E-01 0.10529069E+04</pdfrwt>
<totfact> 0.13448356E+01</totfact>
</mgrwt>
</event>
<event>
 8    1  0.7208583E-006  0.1022630E+04  0.7818608E-02  0.8764264E-01
         21   -1    0    0  503  502  0.00000000000E+00  0.00000000000E+00  0.15018672048E+04  0.15018672048E+04  0.00000000000E+00 0. -1.
         21   -1    0    0  501  503 -0.00000000000E+00 -0.00000000000E+00 -0.10546665557E+04  0.10546665557E+04  0.00000000000E+00 0. -1.
    9000010    2    1    2  501    0 -0.14310053783E+03  0.38987998610E+02 -0.55577403716E+03  0.11241474636E+04  0.96582861394E+03 0.  0.
   -9000010    2    1    2    0  502  0.14310053783E+03 -0.38987998610E+02  0.10029746862E+04  0.14323862970E+04  0.10118174018E+04 0.  0.
        -13    1    3    3    0    0  0.13954068100E+03  0.28674116060E+03  0.12820789391E+03  0.34369953457E+03  0.10566000000E+00 0.  1.
          4    1    3    3  501    0 -0.28264121882E+03 -0.24775316199E+03 -0.68398193107E+03  0.78044792900E+03  0.00000000000E+00 0.  1.
         13    1    4    4    0    0 -0.16915279391E+03  0.39925782130E+03  0.23080624144E+03  0.49121381069E+03  0.10566000000E+00 0. -1.
         -4    1    4    4    0  502  0.31225333174E+03 -0.43824581991E+03  0.77216844478E+03  0.94117248630E+03  0.00000000000E+00 0. -1.
<mgrwt>
<rscale>  2 0.10110654E+04</rscale>
<asrwt>0</asrwt>
<pdfrwt beam="1">  1       21 0.23105649E+00 0.10226301E+04</pdfrwt>
<pdfrwt beam="2">  1       21 0.16225639E+00 0.10226301E+04</pdfrwt>
<totfact> 0.82429276E+00</totfact>
</mgrwt>
</event>
<event>
 8    1  0.7208583E-006  0.1051331E+04  0.7818608E-02  0.8729316E-01
         21   -1    0    0  503  502  0.00000000000E+00  0.00000000000E+00  0.69460044968E+03  0.69460044968E+03  0.00000000000E+00 0.  1.
         21   -1    0    0  501  503 -0.00000000000E+00 -0.00000000000E+00 -0.17498098664E+04  0.17498098664E+04  0.00000000000E+00 0.  1.
    9000010    2    1    2  501    0 -0.26738468851E+02  0.34794335232E+03 -0.14638212138E+03  0.10547113898E+04  0.98448406192E+03 0.  0.
   -9000010    2    1    2    0  502  0.26738468851E+02 -0.34794335232E+03 -0.90882729529E+03  0.13896989262E+04  0.99172401945E+03 0.  0.
        -13    1    3    3    0    0  0.96138912027E+01 -0.34765573586E+03 -0.39870369990E+02  0.35006655817E+03  0.10566000000E+00 0.  1.
          4    1    3    3  501    0 -0.36352360053E+02  0.69559908818E+03 -0.10651175139E+03  0.70464483163E+03  0.00000000000E+00 0.  1.
         13    1    4    4    0    0  0.37864156682E+03  0.16143625916E+03 -0.50065621770E+03  0.64814177568E+03  0.10566000000E+00 0. -1.
         -4    1    4    4    0  502 -0.35190309797E+03 -0.50937961148E+03 -0.40817107759E+03  0.74155715055E+03  0.00000000000E+00 0. -1.
<mgrwt>
<rscale>  2 0.10496198E+04</rscale>
<asrwt>0</asrwt>
<pdfrwt beam="1">  1       21 0.10686161E+00 0.10513306E+04</pdfrwt>
<pdfrwt beam="2">  1       21 0.26920152E+00 0.10513306E+04</pdfrwt>
<totfact> 0.14604122E+01</totfact>
</mgrwt>
</event>
<event>
 8    1  0.7208583E-006  0.9994282E+03  0.7818608E-02  0.8779566E-01
         21   -1    0    0  503  502  0.00000000000E+00  0.00000000000E+00  0.13317247200E+04  0.13317247200E+04  0.00000000000E+00 0. -1.
         21   -1    0    0  501  503 -0.00000000000E+00 -0.00000000000E+00 -0.73643288409E+03  0.73643288409E+03  0.00000000000E+00 0. -1.
    9000010    2    1    2  501    0 -0.41049039391E+02  0.18089937169E+01  0.27797268001E+03  0.10373646737E+04  0.99858317601E+03 0.  0.
   -9000010    2    1    2    0  502  0.41049039391E+02 -0.18089937169E+01  0.31731915585E+03  0.10307929303E+04  0.97987464626E+03 0.  0.
        -13    1    3    3    0    0 -0.46549083150E+03  0.64568368523E+02  0.37051492379E+03  0.59844139925E+03  0.10566000000E+00 0.  1.
          4    1    3    3  501    0  0.42444179211E+03 -0.62759374806E+02 -0.92542243781E+02  0.43892327450E+03  0.00000000000E+00 0.  1.
         13    1    4    4    0    0  0.29506243845E+03 -0.31457470569E+03  0.43344815615E+03  0.61147068882E+03  0.10566000000E+00 0. -1.
         -4    1    4    4    0  502 -0.25401339906E+03  0.31276571197E+03 -0.11612900030E+03  0.41932224148E+03  0.00000000000E+00 0. -1.
<mgrwt>
<rscale>  2 0.99472192E+03</rscale>
<asrwt>0</asrwt>
<pdfrwt beam="1">  1       21 0.20488073E+00 0.99942816E+03</pdfrwt>
<pdfrwt beam="2">  1       21 0.11329737E+00 0.99942816E+03</pdfrwt>
<totfact> 0.37701344E+01</totfact>
</mgrwt>
</event>
<event>
 8    1  0.7208583E-006  0.1123569E+04  0.7818608E-02  0.8668920E-01
         21   -1    0    0  501  502  0.00000000000E+00  0.00000000000E+00  0.17902607618E+04  0.17902607618E+04  0.00000000000E+00 0. -1.
         21   -1    0    0  502  503 -0.00000000000E+00 -0.00000000000E+00 -0.77866973191E+03  0.77866973191E+03  0.00000000000E+00 0. -1.
    9000010    2    1    2  501    0  0.48175739668E+03 -0.15408619780E+03  0.91775000170E+03  0.14414495566E+04  0.98978735753E+03 0.  0.
   -9000010    2    1    2    0  503 -0.48175739668E+03  0.15408619780E+03  0.93841028183E+02  0.11274809370E+04  0.10032818045E+04 0.  0.
        -13    1    3    3    0    0  0.78856934700E+03 -0.76542189920E+02  0.70102100157E+03  0.10578897758E+04  0.10566000000E+00 0.  1.
          4    1    3    3  501    0 -0.30681195032E+03 -0.77544007884E+02  0.21672900013E+03  0.38355978089E+03  0.00000000000E+00 0.  1.
         13    1    4    4    0    0 -0.10113031917E+03  0.35986703253E+03 -0.34680830414E+03  0.50990943661E+03  0.10566000000E+00 0. -1.
         -4    1    4    4    0  503 -0.38062707751E+03 -0.20578083473E+03  0.44064933232E+03  0.61757150044E+03  0.00000000000E+00 0. -1.
<mgrwt>
<rscale>  2 0.11205485E+04</rscale>
<asrwt>0</asrwt>
<pdfrwt beam="1">  1       21 0.27542473E+00 0.11235689E+04</pdfrwt>
<pdfrwt beam="2">  1       21 0.11979534E+00 0.11235689E+04</pdfrwt>
<totfact> 0.94852962E+00</totfact>
</mgrwt>
</event>
<event>
 8    1  0.7208583E-006  0.1017377E+04  0.7818608E-02  0.8783301E-01
         21   -1    0    0  503  502  0.00000000000E+00  0.00000000000E+00  0.11016116172E+04  0.11016116172E+04  0.00000000000E+00 0.  1.
         21   -1    0    0  501  503 -0.00000000000E+00 -0.00000000000E+00 -0.97387454047E+03  0.97387454047E+03  0.00000000000E+00 0.  1.
    9000010    2    1    2  501    0 -0.20005969564E+02 -0.24559343667E+02  0.43430178513E+03  0.10129243954E+04  0.91454600217E+03 0.  0.
   -9000010    2    1    2    0  502  0.20005969564E+02  0.24559343667E+02 -0.30656470841E+03  0.10625617622E+04  0.10168835617E+04 0.  0.
        -13    1    3    3    0    0  0.18889228550E+03 -0.19041743263E+03  0.62826533816E+03  0.68312256621E+03  0.10566000000E+00 0.  1.
          4    1    3    3  501    0 -0.20889825506E+03  0.16585808896E+03 -0.19396355303E+03  0.32980182920E+03  0.00000000000E+00 0.  1.
         13    1    4    4    0    0  0.44888051356E+03  0.22944083561E+03 -0.30117099583E+03  0.58723146407E+03  0.10566000000E+00 0. -1.
         -4    1    4    4    0  502 -0.42887454400E+03 -0.20488149194E+03 -0.53937125797E+01  0.47533029818E+03  0.00000000000E+00 0. -1.
<mgrwt>
<rscale>  2 0.99078142E+03</rscale>
<asrwt>0</asrwt>
<pdfrwt beam="1">  1       21 0.16947871E+00 0.10173768E+04</pdfrwt>
<pdfrwt beam="2">  1       21 0.14982685E+00 0.10173768E+04</pdfrwt>
<totfact> 0.32180167E+01</totfact>
</mgrwt>
</event>
<event>
 8    1  0.7208583E-006  0.1060706E+04  0.7818608E-02  0.8754985E-01
         21   -1    0    0  501  502  0.00000000000E+00  0.00000000000E+00  0.15991067056E+04  0.15991067056E+04  0.00000000000E+00 0.  1.
         21   -1    0    0  502  503 -0.00000000000E+00 -0.00000000000E+00 -0.74485571423E+03  0.74485571423E+03  0.00000000000E+00 0.  1.
    9000010    2    1    2  501    0 -0.13515701995E+02  0.41542801031E+03  0.90219064112E+03  0.12821733897E+04  0.81071421742E+03 0.  0.
   -9000010    2    1    2    0  503  0.13515701995E+02 -0.41542801031E+03 -0.47939649715E+02  0.10617890302E+04  0.97587633881E+03 0.  0.
        -13    1    3    3    0    0 -0.19723708149E+03  0.55661025601E+03  0.35764281345E+03  0.69038093585E+03  0.10566000000E+00 0.  1.
          4    1    3    3  501    0  0.18372137949E+03 -0.14118224570E+03  0.54454782767E+03  0.59179245383E+03  0.00000000000E+00 0.  1.
         13    1    4    4    0    0 -0.36384693431E+03 -0.53836028609E+03  0.54009582359E+02  0.65202257276E+03  0.10566000000E+00 0. -1.
         -4    1    4    4    0  503  0.37736263630E+03  0.12293227577E+03 -0.10194923207E+03  0.40976645742E+03  0.00000000000E+00 0. -1.
<mgrwt>
<rscale>  2 0.10211333E+04</rscale>
<asrwt>0</asrwt>
<pdfrwt beam="1">  1       21 0.24601642E+00 0.10607062E+04</pdfrwt>
<pdfrwt beam="2">  1       21 0.11459319E+00 0.10607062E+04</pdfrwt>
<totfact> 0.17732127E+01</totfact>
</mgrwt>
</event>
<event>
 8    1  0.7208583E-006  0.1090879E+04  0.7818608E-02  0.8706555E-01
         21   -1    0    0  501  502  0.00000000000E+00  0.00000000000E+00  0.69164556053E+03  0.69164556053E+03  0.00000000000E+00 0.  1.
         21   -1    0    0  502  503 -0.00000000000E+00 -0.00000000000E+00 -0.16943289648E+04  0.16943289648E+04  0.00000000000E+00 0.  1.
    9000010    2    1    2  501    0  0.25420433351E+03  0.54645554326E+02 -0.72381259929E+03  0.12600147472E+04  0.99806137316E+03 0.  0.
   -9000010    2    1    2    0  503 -0.25420433351E+03 -0.54645554326E+02 -0.27887080501E+03  0.11259597781E+04  0.10594387742E+04 0.  0.
        -13    1    3    3    0    0  0.35124396407E+02  0.24966918956E+03 -0.88853677442E+03  0.92361574158E+03  0.10566000000E+00 0.  1.
          4    1    3    3  501    0  0.21907993710E+03 -0.19502363524E+03  0.16472417512E+03  0.33639900566E+03  0.00000000000E+00 0.  1.
         13    1    4    4    0    0 -0.22725109304E+03 -0.43911811844E+03  0.18047028569E+03  0.52634334461E+03  0.10566000000E+00 0. -1.
         -4    1    4    4    0  503 -0.26953240467E+02  0.38447256412E+03 -0.45934109070E+03  0.59961643351E+03  0.00000000000E+00 0. -1.
<mgrwt>
<rscale>  2 0.10756882E+04</rscale>
<asrwt>0</asrwt>
<pdfrwt beam="1">  1       21 0.10640701E+00 0.10908788E+04</pdfrwt>
<pdfrwt beam="2">  1       21 0.26066600E+00 0.10908788E+04</pdfrwt>
<totfact> 0.16864042E+01</totfact>
</mgrwt>
</event>
<event>
 8    1  0.7208583E-006  0.1022491E+04  0.7818608E-02  0.8757251E-01
         21   -1    0    0  503  502  0.00000000000E+00  0.00000000000E+00  0.10258048988E+04  0.10258048988E+04  0.00000000000E+00 0. -1.
         21   -1    0    0  501  503 -0.00000000000E+00 -0.00000000000E+00 -0.12957648059E+04  0.12957648059E+04  0.00000000000E+00 0. -1.
    9000010    2    1    2  501    0  0.26161474231E+02 -0.23282169259E+03 -0.68493362496E+03  0.12180796623E+04  0.97963954082E+03 0.  0.
   -9000010    2    1    2    0  502 -0.26161474231E+02  0.23282169259E+03  0.41497371791E+03  0.11034900423E+04  0.99528725687E+03 0.  0.
        -13    1    3    3    0    0 -0.36017102121E+03 -0.18838835456E+03  0.26470120099E+02  0.40732544124E+03  0.10566000000E+00 0.  1.
          4    1    3    3  501    0  0.38633249544E+03 -0.44433338029E+02 -0.71140374506E+03  0.81075422111E+03  0.00000000000E+00 0.  1.
         13    1    4    4    0    0 -0.54059562463E+02  0.10402990852E+03 -0.32831022393E+03  0.34861479093E+03  0.10566000000E+00 0. -1.
         -4    1    4    4    0  502  0.27898088232E+02  0.12879178407E+03  0.74328394184E+03  0.75487525140E+03  0.00000000000E+00 0. -1.
<mgrwt>
<rscale>  2 0.10186629E+04</rscale>
<asrwt>0</asrwt>
<pdfrwt beam="1">  1       21 0.15781614E+00 0.10224906E+04</pdfrwt>
<pdfrwt beam="2">  1       21 0.19934843E+00 0.10224906E+04</pdfrwt>
<totfact> 0.15680129E+01</totfact>
</mgrwt>
</event>
<event>
 8    1  0.7208583E-006  0.1031095E+04  0.7818608E-02  0.8746363E-01
         21   -1    0    0  503  502  0.00000000000E+00  0.00000000000E+00  0.10624963534E+04  0.10624963534E+04  0.00000000000E+00 0. -1.
         21   -1    0    0  501  503 -0.00000000000E+00 -0.00000000000E+00 -0.10624839012E+04  0.10624839012E+04  0.00000000000E+00 0. -1.
    9000010    2    1    2  501    0  0.21870738742E+03  0.13299522120E+03  0.26035736623E+03  0.10634584084E+04  0.99881789039E+03 0.  0.
   -9000010    2    1    2    0  502 -0.21870738742E+03 -0.13299522120E+03 -0.26034491405E+03  0.10615218461E+04  0.99675900065E+03 0.  0.
        -13    1    3    3    0    0  0.38045750817E+03  0.49143691838E+03  0.66558883295E+02  0.62505060306E+03  0.10566000000E+00 0.  1.
          4    1    3    3  501    0 -0.16175012075E+03 -0.35844169718E+03  0.19379848294E+03  0.43840780539E+03  0.00000000000E+00 0.  1.
         13    1    4    4    0    0 -0.38149197953E+03  0.26997867370E+03  0.12161141213E+03  0.48292231406E+03  0.10566000000E+00 0. -1.
         -4    1    4    4    0  502  0.16278459210E+03 -0.40297389491E+03 -0.38195632619E+03  0.57859953207E+03  0.00000000000E+00 0. -1.
<mgrwt>
<rscale>  2 0.10305965E+04</rscale>
<asrwt>0</asrwt>
<pdfrwt beam="1">  1       21 0.16346098E+00 0.10310955E+04</pdfrwt>
<pdfrwt beam="2">  1       21 0.16345906E+00 0.10310955E+04</pdfrwt>
<totfact> 0.27429853E+01</totfact>
</mgrwt>
</event>
<event>
 8    1  0.7208583E-006  0.1049960E+04  0.7818608E-02  0.8785823E-01
         21   -1    0    0  501  502  0.00000000000E+00  0.00000000000E+00  0.18736790451E+04  0.18736790451E+04  0.00000000000E+00 0. -1.
         21   -1    0    0  502  503 -0.00000000000E+00 -0.00000000000E+00 -0.48382709463E+03  0.48382709463E+03  0.00000000000E+00 0. -1.
    9000010    2    1    2  501    0  0.26499088893E+03 -0.12844614046E+03  0.56708256620E+03  0.11933142309E+04  0.10078182547E+04 0.  0.
   -9000010    2    1    2    0  503 -0.26499088893E+03  0.12844614046E+03  0.82276938432E+03  0.11641919089E+04  0.76920397732E+03 0.  0.
        -13    1    3    3    0    0  0.43045230733E+03 -0.47631627334E+03  0.47114532097E+03  0.79633178121E+03  0.10566000000E+00 0.  1.
          4    1    3    3  501    0 -0.16546141840E+03  0.34787013288E+03  0.95937245228E+02  0.39698244967E+03  0.00000000000E+00 0.  1.
         13    1    4    4    0    0  0.22455973203E+03  0.76744865029E+02  0.41717845001E+02  0.24095069477E+03  0.10566000000E+00 0. -1.
         -4    1    4    4    0  503 -0.48955062096E+03  0.51701275432E+02  0.78105153932E+03  0.92324121411E+03  0.00000000000E+00 0. -1.
<mgrwt>
<rscale>  2 0.98813161E+03</rscale>
<asrwt>0</asrwt>
<pdfrwt beam="1">  1       21 0.28825831E+00 0.10499601E+04</pdfrwt>
<pdfrwt beam="2">  1       21 0.74434939E-01 0.10499601E+04</pdfrwt>
<totfact> 0.26730966E+01</totfact>
</mgrwt>
</event>
<event>
 8    1  0.7208583E-006  0.1000787E+04  0.7818608E-02  0.8775483E-01
         21   -1    0    0  503  502  0.00000000000E+00  0.00000000000E+00  0.11735530079E+04  0.11735530079E+04  0.00000000000E+00 0.  1.
         21   -1    0    0  501  503 -0.00000000000E+00 -0.00000000000E+00 -0.10073991383E+04  0.10073991383E+04  0.00000000000E+00 0.  1.
    9000010    2    1    2  501    0  0.33098101812E+02 -0.69577776335E+02 -0.35104430862E+03  0.10605686869E+04  0.99781625653E+03 0.  0.
   -9000010    2    1    2    0  502 -0.33098101812E+02  0.69577776335E+02  0.51719817821E+03  0.11203834593E+04  0.99087264019E+03 0.  0.
        -13    1    3    3    0    0  0.33862650775E+03 -0.16854345404E+03 -0.56119310773E+03  0.67676622476E+03  0.10566000000E+00 0.  1.
          4    1    3    3  501    0 -0.30552840594E+03  0.98965677705E+02  0.21014879911E+03  0.38380246217E+03  0.00000000000E+00 0.  1.
         13    1    4    4    0    0  0.27986099250E+03  0.19201977707E+03  0.67011888906E+03  0.75116782848E+03  0.10566000000E+00 0. -1.
         -4    1    4    4    0  502 -0.31295909431E+03 -0.12244200074E+03 -0.15292071085E+03  0.36921563084E+03  0.00000000000E+00 0. -1.
<mgrwt>
<rscale>  2 0.99905138E+03</rscale>
<asrwt>0</asrwt>
<pdfrwt beam="1">  1       21 0.18054662E+00 0.10007866E+04</pdfrwt>
<pdfrwt beam="2">  1       21 0.15498448E+00 0.10007866E+04</pdfrwt>
<totfact> 0.23561135E+01</totfact>
</mgrwt>
</event>
<event>
 8    1  0.7208583E-006  0.1047606E+04  0.7818608E-02  0.8747564E-01
         21   -1    0    0  503  502  0.00000000000E+00  0.00000000000E+00  0.12959416209E+04  0.12959416209E+04  0.00000000000E+00 0. -1.
         21   -1    0    0  501  503 -0.00000000000E+00 -0.00000000000E+00 -0.92538195094E+03  0.92538195094E+03  0.00000000000E+00 0. -1.
    9000010    2    1    2  501    0  0.15686145865E+03  0.22555563473E+03 -0.23357457252E+03  0.10733291618E+04  0.10109389433E+04 0.  0.
   -9000010    2    1    2    0  502 -0.15686145865E+03 -0.22555563473E+03  0.60413424249E+03  0.11479944100E+04  0.93671346787E+03 0.  0.
        -13    1    3    3    0    0 -0.35812436628E+03 -0.38728177739E+02 -0.32759828098E+03  0.48690202129E+03  0.10566000000E+00 0.  1.
          4    1    3    3  501    0  0.51498582493E+03  0.26428381247E+03  0.94023708455E+02  0.58642714054E+03  0.00000000000E+00 0.  1.
         13    1    4    4    0    0 -0.31179724495E+03  0.19895211906E+03 -0.28025453645E+02  0.37092439236E+03  0.10566000000E+00 0. -1.
         -4    1    4    4    0  502  0.15493578630E+03 -0.42450775379E+03  0.63215969613E+03  0.77707001764E+03  0.00000000000E+00 0. -1.
<mgrwt>
<rscale>  2 0.10292720E+04</rscale>
<asrwt>0</asrwt>
<pdfrwt beam="1">  1       21 0.19937563E+00 0.10476060E+04</pdfrwt>
<pdfrwt beam="2">  1       21 0.14236646E+00 0.10476060E+04</pdfrwt>
<totfact> 0.21397639E+01</totfact>
</mgrwt>
</event>
<event>
 8    1  0.7208583E-006  0.1015613E+04  0.7818608E-02  0.8766948E-01
         21   -1    0    0  501  502  0.00000000000E+00  0.00000000000E+00  0.16059069136E+04  0.16059069136E+04  0.00000000000E+00 0. -1.
         21   -1    0    0  502  503 -0.00000000000E+00 -0.00000000000E+00 -0.62805454485E+03  0.62805454485E+03  0.00000000000E+00 0. -1.
    9000010    2    1    2  501    0 -0.89955270153E+02 -0.11420252285E+02  0.40438316413E+03  0.10931581340E+04  0.10115565183E+04 0.  0.
   -9000010    2    1    2    0  503  0.89955270153E+02  0.11420252285E+02  0.57346920458E+03  0.11408033244E+04  0.98200963523E+03 0.  0.
        -13    1    3    3    0    0 -0.21771745392E+02  0.19463595755E+03 -0.29878608264E+03  0.35725383022E+03  0.10566000000E+00 0.  1.
          4    1    3    3  501    0 -0.68183524761E+02 -0.20605620983E+03  0.70316924677E+03  0.73590430374E+03  0.00000000000E+00 0.  1.
         13    1    4    4    0    0  0.37774200553E+03  0.28682769288E+03  0.41337026719E+02  0.47609653337E+03  0.10566000000E+00 0. -1.
         -4    1    4    4    0  503 -0.28778673538E+03 -0.27540744060E+03  0.53213217786E+03  0.66470679108E+03  0.00000000000E+00 0. -1.
<mgrwt>
<rscale>  2 0.10081750E+04</rscale>
<asrwt>0</asrwt>
<pdfrwt beam="1">  1       21 0.24706260E+00 0.10156126E+04</pdfrwt>
<pdfrwt beam="2">  1       21 0.96623777E-01 0.10156126E+04</pdfrwt>
<totfact> 0.27732704E+01</totfact>
</mgrwt>
</event>
<event>
 8    1  0.7208583E-006  0.1055695E+04  0.7818608E-02  0.8728064E-01
         21   -1    0    0  501  502  0.00000000000E+00  0.00000000000E+00  0.12706760843E+04  0.12706760843E+04  0.00000000000E+00 0.  1.
         21   -1    0    0  502  503 -0.00000000000E+00 -0.00000000000E+00 -0.11552104058E+04  0.11552104058E+04  0.00000000000E+00 0.  1.
    9000010    2    1    2  501    0  0.10063644869E+03 -0.22949299183E+03  0.66942304034E+03  0.12500475716E+04  0.10255227916E+04 0.  0.
   -9000010    2    1    2    0  503 -0.10063644869E+03  0.22949299183E+03 -0.55395736184E+03  0.11758389186E+04  0.10064460620E+04 0.  0.
        -13    1    3    3    0    0 -0.64887928511E+02 -0.39045655734E+03 -0.13104986783E+03  0.41694225675E+03  0.10566000000E+00 0.  1.
          4    1    3    3  501    0  0.16552437720E+03  0.16096356551E+03  0.80047290818E+03  0.83310531483E+03  0.00000000000E+00 0.  1.
         13    1    4    4    0    0  0.79979166382E+02  0.42164870342E+03  0.12538310909E+03  0.44710762839E+03  0.10566000000E+00 0. -1.
         -4    1    4    4    0  503 -0.18061561507E+03 -0.19215571160E+03 -0.67934047093E+03  0.72873129022E+03  0.00000000000E+00 0. -1.
<mgrwt>
<rscale>  2 0.10510337E+04</rscale>
<asrwt>0</asrwt>
<pdfrwt beam="1">  1       21 0.19548863E+00 0.10556949E+04</pdfrwt>
<pdfrwt beam="2">  1       21 0.17772468E+00 0.10556949E+04</pdfrwt>
<totfact> 0.11329511E+01</totfact>
</mgrwt>
</event>
<event>
 8    1  0.7208583E-006  0.1079435E+04  0.7818608E-02  0.8708203E-01
         21   -1    0    0  503  502  0.00000000000E+00  0.00000000000E+00  0.12166088203E+04  0.12166088203E+04  0.00000000000E+00 0.  1.
         21   -1    0    0  501  503 -0.00000000000E+00 -0.00000000000E+00 -0.21485481688E+04  0.21485481688E+04  0.00000000000E+00 0.  1.
    9000010    2    1    2  501    0  0.12770594765E+03  0.31593911538E+03 -0.17268254267E+04  0.20246258389E+04  0.10005285602E+04 0.  0.
   -9000010    2    1    2    0  502 -0.12770594765E+03 -0.31593911538E+03  0.79488607816E+03  0.13405311501E+04  0.10242331538E+04 0.  0.
        -13    1    3    3    0    0  0.97793161024E+02  0.35769863045E+03 -0.83003923487E+02  0.38000194085E+03  0.10566000000E+00 0.  1.
          4    1    3    3  501    0  0.29912786622E+02 -0.41759515068E+02 -0.16438215032E+04  0.16446238981E+04  0.00000000000E+00 0.  1.
         13    1    4    4    0    0 -0.31109850713E+03 -0.59874551250E+03  0.73577988853E+03  0.99832385797E+03  0.10566000000E+00 0. -1.
         -4    1    4    4    0  502  0.18339255948E+03  0.28280639712E+03  0.59106189631E+02  0.34220729211E+03  0.00000000000E+00 0. -1.
<mgrwt>
<rscale>  2 0.10737741E+04</rscale>
<asrwt>0</asrwt>
<pdfrwt beam="1">  1       21 0.18717059E+00 0.10794350E+04</pdfrwt>
<pdfrwt beam="2">  1       21 0.33054587E+00 0.10794350E+04</pdfrwt>
<totfact> 0.98096366E-01</totfact>
</mgrwt>
</event>
<event>
 8    1  0.7208583E-006  0.1221392E+04  0.7818608E-02  0.8591662E-01
         21   -1    0    0  503  502  0.00000000000E+00  0.00000000000E+00  0.14650138360E+04  0.14650138360E+04  0.00000000000E+00 0. -1.
         21   -1    0    0  501  503 -0.00000000000E+00 -0.00000000000E+00 -0.11756923600E+04  0.11756923600E+04  0.00000000000E+00 0. -1.
    9000010    2    1    2  501    0  0.62391001590E+03  0.23378470225E+03 -0.34587171188E+03  0.12640185814E+04  0.10169546391E+04 0.  0.
   -9000010    2    1    2    0  502 -0.62391001590E+03 -0.23378470225E+03  0.63519318790E+03  0.13766876146E+04  0.10236598103E+04 0.  0.
        -13    1    3    3    0    0  0.50713549991E+03 -0.17352751907E+03 -0.57187051151E+03  0.78379468500E+03  0.10566000000E+00 0.  1.
          4    1    3    3  501    0  0.11677451599E+03  0.40731222132E+03  0.22599879963E+03  0.48022389639E+03  0.00000000000E+00 0.  1.
         13    1    4    4    0    0  0.10624071018E+03 -0.44251015651E+03  0.30971622736E+03  0.55047840990E+03  0.10566000000E+00 0. -1.
         -4    1    4    4    0  502 -0.73015072608E+03  0.20872545425E+03  0.32547696054E+03  0.82620920468E+03  0.00000000000E+00 0. -1.
<mgrwt>
<rscale>  2 0.12199860E+04</rscale>
<asrwt>0</asrwt>
<pdfrwt beam="1">  1       21 0.22538674E+00 0.12213920E+04</pdfrwt>
<pdfrwt beam="2">  1       21 0.18087575E+00 0.12213920E+04</pdfrwt>
<totfact> 0.60689884E+00</totfact>
</mgrwt>
</event>
<event>
 8    1  0.7208583E-006  0.1060743E+04  0.7818608E-02  0.8722499E-01
         21   -1    0    0  501  502  0.00000000000E+00  0.00000000000E+00  0.63275526555E+03  0.63275526555E+03  0.00000000000E+00 0. -1.
         21   -1    0    0  502  503 -0.00000000000E+00 -0.00000000000E+00 -0.20676340140E+04  0.20676340140E+04  0.00000000000E+00 0. -1.
    9000010    2    1    2  501    0  0.10124527183E+03  0.33035462260E+03 -0.18904194464E+03  0.10641482606E+04  0.98857972971E+03 0.  0.
   -9000010    2    1    2    0  503 -0.10124527183E+03 -0.33035462260E+03 -0.12458368039E+04  0.16362410190E+04  0.10028910951E+04 0.  0.
        -13    1    3    3    0    0  0.35243569745E+02  0.51849559396E+03  0.25390141516E+03  0.57839928246E+03  0.10566000000E+00 0.  1.
          4    1    3    3  501    0  0.66001702086E+02 -0.18814097137E+03 -0.44294335980E+03  0.48574897815E+03  0.00000000000E+00 0.  1.
         13    1    4    4    0    0  0.40047114119E+03 -0.84480384670E+02 -0.21163563321E+03  0.46076428109E+03  0.10566000000E+00 0. -1.
         -4    1    4    4    0  503 -0.50171641302E+03 -0.24587423793E+03 -0.10342011706E+04  0.11754767379E+04  0.00000000000E+00 0. -1.
<mgrwt>
<rscale>  2 0.10573464E+04</rscale>
<asrwt>0</asrwt>
<pdfrwt beam="1">  1       21 0.97346965E-01 0.10607428E+04</pdfrwt>
<pdfrwt beam="2">  1       21 0.31809754E+00 0.10607428E+04</pdfrwt>
<totfact> 0.83897535E+00</totfact>
</mgrwt>
</event>
<event>
 8    1  0.7208583E-006  0.1017069E+04  0.7818608E-02  0.8759773E-01
         21   -1    0    0  503  502  0.00000000000E+00  0.00000000000E+00  0.14691464736E+04  0.14691464736E+04  0.00000000000E+00 0.  1.
         21   -1    0    0  501  503 -0.00000000000E+00 -0.00000000000E+00 -0.85409660941E+03  0.85409660941E+03  0.00000000000E+00 0.  1.
    9000010    2    1    2  501    0  0.95355349651E+02 -0.89888584646E+02  0.79886074453E+03  0.12896980302E+04  0.10039770514E+04 0.  0.
   -9000010    2    1    2    0  502 -0.95355349651E+02  0.89888584646E+02 -0.18381088030E+03  0.10335450528E+04  0.10085912632E+04 0.  0.
        -13    1    3    3    0    0  0.53177100928E+03 -0.12449539702E+03  0.28977367308E+03  0.61826232537E+03  0.10566000000E+00 0.  1.
          4    1    3    3  501    0 -0.43641565963E+03  0.34606812372E+02  0.50908707145E+03  0.67143570485E+03  0.00000000000E+00 0.  1.
         13    1    4    4    0    0  0.10476208212E+03 -0.43488420373E+03 -0.14637380760E+03  0.47066407046E+03  0.10566000000E+00 0. -1.
         -4    1    4    4    0  502 -0.20011743177E+03  0.52477278837E+03 -0.37437072692E+02  0.56288098238E+03  0.00000000000E+00 0. -1.
<mgrwt>
<rscale>  2 0.10159230E+04</rscale>
<asrwt>0</asrwt>
<pdfrwt beam="1">  1       21 0.22602253E+00 0.10170688E+04</pdfrwt>
<pdfrwt beam="2">  1       21 0.13139948E+00 0.10170688E+04</pdfrwt>
<totfact> 0.17097970E+01</totfact>
</mgrwt>
</event>
<event>
 8    1  0.7208583E-006  0.1011978E+04  0.7818608E-02  0.8765827E-01
         21   -1    0    0  503  502  0.00000000000E+00  0.00000000000E+00  0.99658407644E+03  0.99658407644E+03  0.00000000000E+00 0. -1.
         21   -1    0    0  501  503 -0.00000000000E+00 -0.00000000000E+00 -0.10226332220E+04  0.10226332220E+04  0.00000000000E+00 0. -1.
    9000010    2    1    2  501    0  0.22489914679E+02  0.85683750818E+02  0.61103385032E+02  0.10034933361E+04  0.99770624456E+03 0.  0.
   -9000010    2    1    2    0  502 -0.22489914679E+02 -0.85683750818E+02 -0.87152530587E+02  0.10157239624E+04  0.10080933006E+04 0.  0.
        -13    1    3    3    0    0 -0.87877461069E+02  0.39066483663E+03 -0.31309246241E+03  0.50829948252E+03  0.10566000000E+00 0.  1.
          4    1    3    3  501    0  0.11036737575E+03 -0.30498108581E+03  0.37419584745E+03  0.49519385353E+03  0.00000000000E+00 0.  1.
         13    1    4    4    0    0 -0.28900347812E+03  0.37877329842E+03 -0.46112259312E+02  0.47866331966E+03  0.10566000000E+00 0. -1.
         -4    1    4    4    0  502  0.26651356344E+03 -0.46445704924E+03 -0.41040271275E+02  0.53706064272E+03  0.00000000000E+00 0. -1.
<mgrwt>
<rscale>  2 0.10093814E+04</rscale>
<asrwt>0</asrwt>
<pdfrwt beam="1">  1       21 0.15332063E+00 0.10119781E+04</pdfrwt>
<pdfrwt beam="2">  1       21 0.15732819E+00 0.10119781E+04</pdfrwt>
<totfact> 0.38098643E+01</totfact>
</mgrwt>
</event>
<event>
 8    1  0.7208583E-006  0.1010810E+04  0.7818608E-02  0.8766224E-01
         21   -1    0    0  501  502  0.00000000000E+00  0.00000000000E+00  0.66052526833E+03  0.66052526833E+03  0.00000000000E+00 0.  1.
         21   -1    0    0  502  503 -0.00000000000E+00 -0.00000000000E+00 -0.15808578438E+04  0.15808578438E+04  0.00000000000E+00 0.  1.
    9000010    2    1    2  501    0  0.49994797263E+02  0.15169647245E+03 -0.65154632989E+03  0.12026011971E+04  0.99811107590E+03 0.  0.
   -9000010    2    1    2    0  503 -0.49994797263E+02 -0.15169647245E+03 -0.26878624554E+03  0.10387819150E+04  0.99061118586E+03 0.  0.
        -13    1    3    3    0    0  0.15577160990E+03 -0.18442649179E+03 -0.78844038179E+03  0.82457029544E+03  0.10566000000E+00 0.  1.
          4    1    3    3  501    0 -0.10577681264E+03  0.33612296424E+03  0.13689405191E+03  0.37803090168E+03  0.00000000000E+00 0.  1.
         13    1    4    4    0    0 -0.48548292855E+03 -0.53658435436E+02  0.48912799629E+02  0.49088224122E+03  0.10566000000E+00 0. -1.
         -4    1    4    4    0  503  0.43548813129E+03 -0.98038037009E+02 -0.31769904516E+03  0.54789967375E+03  0.00000000000E+00 0. -1.
<mgrwt>
<rscale>  2 0.10089537E+04</rscale>
<asrwt>0</asrwt>
<pdfrwt beam="1">  1       21 0.10161927E+00 0.10108101E+04</pdfrwt>
<pdfrwt beam="2">  1       21 0.24320890E+00 0.10108101E+04</pdfrwt>
<totfact> 0.25976094E+01</totfact>
</mgrwt>
</event>
<event>
 8    1  0.7208583E-006  0.1137226E+04  0.7818608E-02  0.8657332E-01
         21   -1    0    0  503  502  0.00000000000E+00  0.00000000000E+00  0.90613745894E+03  0.90613745894E+03  0.00000000000E+00 0. -1.
         21   -1    0    0  501  503 -0.00000000000E+00 -0.00000000000E+00 -0.14452500807E+04  0.14452500807E+04  0.00000000000E+00 0. -1.
    9000010    2    1    2  501    0 -0.41420658316E+03 -0.30180591361E+03 -0.43790333918E+03  0.12096671443E+04  0.10044308650E+04 0.  0.
   -9000010    2    1    2    0  502  0.41420658316E+03  0.30180591361E+03 -0.10120928262E+03  0.11417203953E+04  0.10151986206E+04 0.  0.
        -13    1    3    3    0    0 -0.94685306133E+02 -0.56386307580E+03  0.45667575415E+02  0.57357860321E+03  0.10566000000E+00 0.  1.
          4    1    3    3  501    0 -0.31952127703E+03  0.26205716219E+03 -0.48357091459E+03  0.63608854114E+03  0.00000000000E+00 0.  1.
         13    1    4    4    0    0 -0.52446185427E+02 -0.33964357338E+03 -0.18140816371E+02  0.34414743888E+03  0.10566000000E+00 0. -1.
         -4    1    4    4    0  502  0.46665276859E+03  0.64144948699E+03 -0.83068466252E+02  0.79757295646E+03  0.00000000000E+00 0. -1.
<mgrwt>
<rscale>  2 0.11348175E+04</rscale>
<asrwt>0</asrwt>
<pdfrwt beam="1">  1       21 0.13940576E+00 0.11372256E+04</pdfrwt>
<pdfrwt beam="2">  1       21 0.22234617E+00 0.11372256E+04</pdfrwt>
<totfact> 0.14903189E+01</totfact>
</mgrwt>
</event>
<event>
 8    1  0.7208583E-006  0.1029399E+04  0.7818608E-02  0.8749513E-01
         21   -1    0    0  503  502  0.00000000000E+00  0.00000000000E+00  0.26389530196E+04  0.26389530196E+04  0.00000000000E+00 0. -1.
         21   -1    0    0  501  503 -0.00000000000E+00 -0.00000000000E+00 -0.52049902520E+03  0.52049902520E+03  0.00000000000E+00 0. -1.
    9000010    2    1    2  501    0 -0.13146507292E+03  0.21286430276E+03  0.29650806624E+03  0.10712509948E+04  0.99853261526E+03 0.  0.
   -9000010    2    1    2    0  502  0.13146507292E+03 -0.21286430276E+03  0.18219459282E+04  0.20882010500E+04  0.98919279377E+03 0.  0.
        -13    1    3    3    0    0 -0.22629048284E+03  0.57227745818E+03  0.34271278360E+02  0.61634682075E+03  0.10566000000E+00 0.  1.
          4    1    3    3  501    0  0.94825409920E+02 -0.35941315542E+03  0.26223678788E+03  0.45490417405E+03  0.00000000000E+00 0.  1.
         13    1    4    4    0    0  0.25661386140E+03 -0.30980852718E+03  0.18355748974E+03  0.44218249692E+03  0.10566000000E+00 0. -1.
         -4    1    4    4    0  502 -0.12514878849E+03  0.96944224413E+02  0.16383884384E+04  0.16460185531E+04  0.00000000000E+00 0. -1.
<mgrwt>
<rscale>  2 0.10271269E+04</rscale>
<asrwt>0</asrwt>
<pdfrwt beam="1">  1       21 0.40599277E+00 0.10293987E+04</pdfrwt>
<pdfrwt beam="2">  1       21 0.80076774E-01 0.10293987E+04</pdfrwt>
<totfact> 0.33560582E+00</totfact>
</mgrwt>
</event>
<event>
 8    1  0.7208583E-006  0.1290646E+04  0.7818608E-02  0.8571331E-01
         21   -1    0    0  503  502  0.00000000000E+00  0.00000000000E+00  0.16371712631E+04  0.16371712631E+04  0.00000000000E+00 0. -1.
         21   -1    0    0  501  503 -0.00000000000E+00 -0.00000000000E+00 -0.10109462871E+04  0.10109462871E+04  0.00000000000E+00 0.  1.
    9000010    2    1    2  501    0  0.66274021196E+03  0.21729525753E+03 -0.15627847109E+03  0.11387873196E+04  0.88655049555E+03 0.  0.
   -9000010    2    1    2    0  502 -0.66274021196E+03 -0.21729525753E+03  0.78250344702E+03  0.15093302306E+04  0.10859669806E+04 0.  0.
        -13    1    3    3    0    0  0.88206177712E+03  0.18611095709E+03 -0.82288377257E+02  0.90523016697E+03  0.10566000000E+00 0.  1.
          4    1    3    3  501    0 -0.21932156516E+03  0.31184300446E+02 -0.73990093832E+02  0.23355715259E+03  0.00000000000E+00 0.  1.
         13    1    4    4    0    0 -0.60308987398E+03  0.34661451412E+03  0.27383664472E+03  0.74755972113E+03  0.10566000000E+00 0. -1.
         -4    1    4    4    0  502 -0.59650337976E+02 -0.56390977166E+03  0.50866680230E+03  0.76177050951E+03  0.00000000000E+00 0. -1.
<mgrwt>
<rscale>  2 0.12479115E+04</rscale>
<asrwt>0</asrwt>
<pdfrwt beam="1">  1       21 0.25187250E+00 0.12906456E+04</pdfrwt>
<pdfrwt beam="2">  1       21 0.15553020E+00 0.12906456E+04</pdfrwt>
<totfact> 0.62521876E+00</totfact>
</mgrwt>
</event>
<event>
 8    1  0.7208583E-006  0.1156575E+04  0.7818608E-02  0.8650199E-01
         21   -1    0    0  503  502  0.00000000000E+00  0.00000000000E+00  0.27875981855E+04  0.27875981855E+04  0.00000000000E+00 0.  1.
         21   -1    0    0  501  503 -0.00000000000E+00 -0.00000000000E+00 -0.66913237700E+03  0.66913237700E+03  0.00000000000E+00 0.  1.
    9000010    2    1    2  501    0  0.49944577202E+03 -0.20714276940E+03  0.74808805112E+02  0.11084974893E+04  0.96478812195E+03 0.  0.
   -9000010    2    1    2    0  502 -0.49944577202E+03  0.20714276940E+03  0.20436570034E+04  0.23482330733E+04  0.10224042316E+04 0.  0.
        -13    1    3    3    0    0 -0.17353451407E+03 -0.17348708078E+03 -0.25878023866E+03  0.35662195369E+03  0.10566000000E+00 0.  1.
          4    1    3    3  501    0  0.67298028609E+03 -0.33655688622E+02  0.33358904377E+03  0.75187553556E+03  0.00000000000E+00 0.  1.
         13    1    4    4    0    0 -0.11574993853E+03 -0.25691697485E+03  0.77952693699E+02  0.29237136292E+03  0.10566000000E+00 0. -1.
         -4    1    4    4    0  502 -0.38369583350E+03  0.46405974426E+03  0.19657043097E+04  0.20558617103E+04  0.00000000000E+00 0. -1.
<mgrwt>
<rscale>  2 0.11437104E+04</rscale>
<asrwt>0</asrwt>
<pdfrwt beam="1">  1       21 0.42886125E+00 0.11565745E+04</pdfrwt>
<pdfrwt beam="2">  1       21 0.10294344E+00 0.11565745E+04</pdfrwt>
<totfact> 0.11952570E+00</totfact>
</mgrwt>
</event>
<event>
 8    1  0.7208583E-006  0.1048801E+04  0.7818608E-02  0.8730305E-01
         21   -1    0    0  501  502  0.00000000000E+00  0.00000000000E+00  0.15984186991E+04  0.15984186991E+04  0.00000000000E+00 0.  1.
         21   -1    0    0  502  503 -0.00000000000E+00 -0.00000000000E+00 -0.76291972670E+03  0.76291972670E+03  0.00000000000E+00 0.  1.
    9000010    2    1    2  501    0 -0.23746947841E+03  0.22259774310E+03  0.78944152715E+03  0.13127076705E+04  0.99701654700E+03 0.  0.
   -9000010    2    1    2    0  503  0.23746947841E+03 -0.22259774310E+03  0.46057445269E+02  0.10486307553E+04  0.99577289796E+03 0.  0.
        -13    1    3    3    0    0 -0.92894701498E+02 -0.38263991574E+03  0.15250384049E+03  0.42225603987E+03  0.10566000000E+00 0.  1.
          4    1    3    3  501    0 -0.14457477691E+03  0.60523765884E+03  0.63693768667E+03  0.89045163063E+03  0.00000000000E+00 0.  1.
         13    1    4    4    0    0 -0.18001543551E+03  0.31472876447E+03  0.62808311129E+02  0.36797370466E+03  0.10566000000E+00 0. -1.
         -4    1    4    4    0  503  0.41748491392E+03 -0.53732650758E+03 -0.16750865860E+02  0.68065705065E+03  0.00000000000E+00 0. -1.
<mgrwt>
<rscale>  2 0.10485053E+04</rscale>
<asrwt>0</asrwt>
<pdfrwt beam="1">  1       21 0.24591057E+00 0.10488010E+04</pdfrwt>
<pdfrwt beam="2">  1       21 0.11737227E+00 0.10488010E+04</pdfrwt>
<totfact> 0.16671657E+01</totfact>
</mgrwt>
</event>
<event>
 8    1  0.7208583E-006  0.1020069E+04  0.7818608E-02  0.8757945E-01
         21   -1    0    0  503  502  0.00000000000E+00  0.00000000000E+00  0.14296532468E+04  0.14296532468E+04  0.00000000000E+00 0. -1.
         21   -1    0    0  501  503 -0.00000000000E+00 -0.00000000000E+00 -0.83926273426E+03  0.83926273426E+03  0.00000000000E+00 0. -1.
    9000010    2    1    2  501    0  0.69335602367E+02 -0.15804476395E+03 -0.12833366001E+03  0.10281103238E+04  0.10053634847E+04 0.  0.
   -9000010    2    1    2    0  502 -0.69335602367E+02  0.15804476395E+03  0.71872417252E+03  0.12408056573E+04  0.99661861801E+03 0.  0.
        -13    1    3    3    0    0  0.48701404420E+03 -0.25761709009E+03 -0.21257775926E+03  0.59054090396E+03  0.10566000000E+00 0.  1.
          4    1    3    3  501    0 -0.41767844183E+03  0.99572326137E+02  0.84244099255E+02  0.43756941982E+03  0.00000000000E+00 0.  1.
         13    1    4    4    0    0  0.18496220168E+03  0.51060602589E+03  0.55442216288E+03  0.77608857457E+03  0.10566000000E+00 0. -1.
         -4    1    4    4    0  502 -0.25429780405E+03 -0.35256126194E+03  0.16430200964E+03  0.46471708269E+03  0.00000000000E+00 0. -1.
<mgrwt>
<rscale>  2 0.10179080E+04</rscale>
<asrwt>0</asrwt>
<pdfrwt beam="1">  1       21 0.21994665E+00 0.10200693E+04</pdfrwt>
<pdfrwt beam="2">  1       21 0.12911734E+00 0.10200693E+04</pdfrwt>
<totfact> 0.19962008E+01</totfact>
</mgrwt>
</event>
<event>
 8    1  0.7208583E-006  0.1013389E+04  0.7818608E-02  0.8763312E-01
         21   -1    0    0  501  502  0.00000000000E+00  0.00000000000E+00  0.14523307757E+04  0.14523307757E+04  0.00000000000E+00 0.  1.
         21   -1    0    0  502  503 -0.00000000000E+00 -0.00000000000E+00 -0.80000104185E+03  0.80000104185E+03  0.00000000000E+00 0.  1.
    9000010    2    1    2  501    0 -0.90016772808E+02  0.11209680362E+03 -0.64226533664E+02  0.10154224853E+04  0.10031396031E+04 0.  0.
   -9000010    2    1    2    0  503  0.90016772808E+02 -0.11209680362E+03  0.71655626753E+03  0.12369093323E+04  0.99790936411E+03 0.  0.
        -13    1    3    3    0    0 -0.53127281660E+03 -0.64723456076E+02  0.37997165477E+01  0.53521433131E+03  0.10566000000E+00 0.  1.
          4    1    3    3  501    0  0.44125604380E+03  0.17682025969E+03 -0.68026250212E+02  0.48020815397E+03  0.00000000000E+00 0.  1.
         13    1    4    4    0    0  0.41947795681E+03 -0.39176183007E+03  0.36916135899E+03  0.68243622990E+03  0.10566000000E+00 0. -1.
         -4    1    4    4    0  503 -0.32946118400E+03  0.27966502645E+03  0.34739490854E+03  0.55447310238E+03  0.00000000000E+00 0. -1.
<mgrwt>
<rscale>  2 0.10120925E+04</rscale>
<asrwt>0</asrwt>
<pdfrwt beam="1">  1       21 0.22343550E+00 0.10133893E+04</pdfrwt>
<pdfrwt beam="2">  1       21 0.12307708E+00 0.10133893E+04</pdfrwt>
<totfact> 0.21577660E+01</totfact>
</mgrwt>
</event>
<event>
 8    1  0.7208583E-006  0.1009754E+04  0.7818608E-02  0.8766025E-01
         21   -1    0    0  501  502  0.00000000000E+00  0.00000000000E+00  0.28530933899E+03  0.28530933899E+03  0.00000000000E+00 0.  1.
         21   -1    0    0  502  503 -0.00000000000E+00 -0.00000000000E+00 -0.36225764617E+04  0.36225764617E+04  0.00000000000E+00 0.  1.
    9000010    2    1    2  501    0  0.17427465799E+03 -0.60174084200E+02 -0.19160272722E+04  0.21658169920E+04  0.99277900763E+03 0.  0.
   -9000010    2    1    2    0  503 -0.17427465799E+03  0.60174084200E+02 -0.14212398505E+04  0.17420688087E+04  0.99039812443E+03 0.  0.
        -13    1    3    3    0    0 -0.51358427468E+02  0.44613324169E+03 -0.73805917091E+03  0.86394670457E+03  0.10566000000E+00 0.  1.
          4    1    3    3  501    0  0.22563308546E+03 -0.50630732589E+03 -0.11779681013E+04  0.13018702874E+04  0.00000000000E+00 0.  1.
         13    1    4    4    0    0  0.26347927209E+03  0.24488284873E+03 -0.11274642453E+04  0.11834545078E+04  0.10566000000E+00 0. -1.
         -4    1    4    4    0  503 -0.43775393008E+03 -0.18470876453E+03 -0.29377560519E+03  0.55861430093E+03  0.00000000000E+00 0. -1.
<mgrwt>
<rscale>  2 0.10091681E+04</rscale>
<asrwt>0</asrwt>
<pdfrwt beam="1">  1       21 0.43893745E-01 0.10097538E+04</pdfrwt>
<pdfrwt beam="2">  1       21 0.55731945E+00 0.10097538E+04</pdfrwt>
<totfact> 0.11653166E+00</totfact>
</mgrwt>
</event>
<event>
 8    1  0.7208583E-006  0.1001624E+04  0.7818608E-02  0.8773613E-01
         21   -1    0    0  503  502  0.00000000000E+00  0.00000000000E+00  0.15216602342E+04  0.15216602342E+04  0.00000000000E+00 0. -1.
         21   -1    0    0  501  503 -0.00000000000E+00 -0.00000000000E+00 -0.69323690924E+03  0.69323690924E+03  0.00000000000E+00 0. -1.
    9000010    2    1    2  501    0  0.15157634521E+03  0.13986567654E+01  0.16422096488E+03  0.10149974016E+04  0.99008780185E+03 0.  0.
   -9000010    2    1    2    0  502 -0.15157634521E+03 -0.13986567654E+01  0.66420236004E+03  0.11998997418E+04  0.98773340053E+03 0.  0.
        -13    1    3    3    0    0  0.27412730483E+03 -0.36606118044E+03 -0.18512771867E+03  0.49337495930E+03  0.10566000000E+00 0.  1.
          4    1    3    3  501    0 -0.12255095961E+03  0.36745983721E+03  0.34934868355E+03  0.52162244235E+03  0.00000000000E+00 0.  1.
         13    1    4    4    0    0  0.13115006122E+03  0.30335889938E+03  0.70854743658E+03  0.78183530327E+03  0.10566000000E+00 0. -1.
         -4    1    4    4    0  502 -0.28272640644E+03 -0.30475755614E+03 -0.44345076535E+02  0.41806443850E+03  0.00000000000E+00 0. -1.
<mgrwt>
<rscale>  2 0.10010420E+04</rscale>
<asrwt>0</asrwt>
<pdfrwt beam="1">  1       21 0.23410157E+00 0.10016243E+04</pdfrwt>
<pdfrwt beam="2">  1       21 0.10665183E+00 0.10016243E+04</pdfrwt>
<totfact> 0.26714325E+01</totfact>
</mgrwt>
</event>
<event>
 8    1  0.7208583E-006  0.1064126E+04  0.7818608E-02  0.8718240E-01
         21   -1    0    0  501  502  0.00000000000E+00  0.00000000000E+00  0.25700139714E+04  0.25700139714E+04  0.00000000000E+00 0.  1.
         21   -1    0    0  502  503 -0.00000000000E+00 -0.00000000000E+00 -0.63303615855E+03  0.63303615855E+03  0.00000000000E+00 0.  1.
    9000010    2    1    2  501    0 -0.14095122136E+03 -0.32923854422E+03  0.18562870232E+04  0.21358692336E+04  0.99391679980E+03 0.  0.
   -9000010    2    1    2    0  503  0.14095122136E+03  0.32923854422E+03  0.80690789658E+02  0.10671808963E+04  0.10020473023E+04 0.  0.
        -13    1    3    3    0    0  0.75715084781E+02 -0.30605741443E+03  0.53293930309E+02  0.31975642162E+03  0.10566000000E+00 0.  1.
          4    1    3    3  501    0 -0.21666630614E+03 -0.23181129790E+02  0.18029930929E+04  0.18161128120E+04  0.00000000000E+00 0.  1.
         13    1    4    4    0    0  0.37078237971E+03 -0.20865100503E+03 -0.13092111697E+03  0.44514622882E+03  0.10566000000E+00 0. -1.
         -4    1    4    4    0  503 -0.22983115835E+03  0.53788954925E+03  0.21161190663E+03  0.62203466750E+03  0.00000000000E+00 0. -1.
<mgrwt>
<rscale>  2 0.10622076E+04</rscale>
<asrwt>0</asrwt>
<pdfrwt beam="1">  1       21 0.39538676E+00 0.10641260E+04</pdfrwt>
<pdfrwt beam="2">  1       21 0.97390180E-01 0.10641260E+04</pdfrwt>
<totfact> 0.24030517E+00</totfact>
</mgrwt>
</event>
<event>
 8    1  0.7208583E-006  0.1061353E+04  0.7818608E-02  0.8721970E-01
         21   -1    0    0  503  502  0.00000000000E+00  0.00000000000E+00  0.12386335837E+04  0.12386335837E+04  0.00000000000E+00 0.  1.
         21   -1    0    0  501  503 -0.00000000000E+00 -0.00000000000E+00 -0.11695523302E+04  0.11695523302E+04  0.00000000000E+00 0.  1.
    9000010    2    1    2  501    0 -0.21103758554E+02 -0.35856083954E+03 -0.54562016457E+03  0.11933868787E+04  0.99872900933E+03 0.  0.
   -9000010    2    1    2    0  502  0.21103758554E+02  0.35856083954E+03  0.61470141800E+03  0.12147990351E+04  0.98431073255E+03 0.  0.
        -13    1    3    3    0    0  0.19377312405E+03  0.39075972621E+02  0.22530921949E+03  0.29973189818E+03  0.10566000000E+00 0.  1.
          4    1    3    3  501    0 -0.21487688260E+03 -0.39763681216E+03 -0.77092938405E+03  0.89365498055E+03  0.00000000000E+00 0.  1.
         13    1    4    4    0    0  0.46695777861E+03  0.63890109697E+02  0.45963004516E+03  0.65832461803E+03  0.10566000000E+00 0. -1.
         -4    1    4    4    0  502 -0.44585402006E+03  0.29467072985E+03  0.15507137284E+03  0.55647441712E+03  0.00000000000E+00 0. -1.
<mgrwt>
<rscale>  2 0.10579479E+04</rscale>
<asrwt>0</asrwt>
<pdfrwt beam="1">  1       21 0.19055901E+00 0.10613533E+04</pdfrwt>
<pdfrwt beam="2">  1       21 0.17993113E+00 0.10613533E+04</pdfrwt>
<totfact> 0.11874371E+01</totfact>
</mgrwt>
</event>
<event>
 8    1  0.7208583E-006  0.1095971E+04  0.7818608E-02  0.8691775E-01
         21   -1    0    0  503  502  0.00000000000E+00  0.00000000000E+00  0.62576191506E+03  0.62576191506E+03  0.00000000000E+00 0. -1.
         21   -1    0    0  501  503 -0.00000000000E+00 -0.00000000000E+00 -0.20053307475E+04  0.20053307475E+04  0.00000000000E+00 0. -1.
    9000010    2    1    2  501    0  0.45444173712E+03  0.21372503699E+02 -0.98905811893E+03  0.14676277572E+04  0.98423635110E+03 0.  0.
   -9000010    2    1    2    0  502 -0.45444173712E+03 -0.21372503699E+02 -0.39051071352E+03  0.11634649053E+04  0.99708469662E+03 0.  0.
        -13    1    3    3    0    0  0.64968080987E+03  0.50932117061E+02 -0.24239434597E+03  0.69529437319E+03  0.10566000000E+00 0.  1.
          4    1    3    3  501    0 -0.19523907275E+03 -0.29559613362E+02 -0.74666377295E+03  0.77233338405E+03  0.00000000000E+00 0.  1.
         13    1    4    4    0    0 -0.73270688418E+03 -0.17694917938E+03 -0.16135327324E+03  0.77084711853E+03  0.10566000000E+00 0. -1.
         -4    1    4    4    0  502  0.27826514705E+03  0.15557667568E+03 -0.22915744028E+03  0.39261778681E+03  0.00000000000E+00 0. -1.
<mgrwt>
<rscale>  2 0.10930401E+04</rscale>
<asrwt>0</asrwt>
<pdfrwt beam="1">  1       21 0.96271065E-01 0.10959708E+04</pdfrwt>
<pdfrwt beam="2">  1       21 0.30851242E+00 0.10959708E+04</pdfrwt>
<totfact> 0.10002693E+01</totfact>
</mgrwt>
</event>
<event>
 8    1  0.7208583E-006  0.1008903E+04  0.7818608E-02  0.8767204E-01
         21   -1    0    0  501  502  0.00000000000E+00  0.00000000000E+00  0.11639697467E+04  0.11639697467E+04  0.00000000000E+00 0.  1.
         21   -1    0    0  502  503 -0.00000000000E+00 -0.00000000000E+00 -0.94852440466E+03  0.94852440466E+03  0.00000000000E+00 0.  1.
    9000010    2    1    2  501    0  0.13256944213E+02 -0.14991170512E+03  0.40944356463E+03  0.10851092535E+04  0.99356368365E+03 0.  0.
   -9000010    2    1    2    0  503 -0.13256944213E+02  0.14991170512E+03 -0.19399822255E+03  0.10273848979E+04  0.99761473135E+03 0.  0.
        -13    1    3    3    0    0  0.16435454493E+03  0.39227489680E+03  0.27484862833E+03  0.50639292131E+03  0.10566000000E+00 0.  1.
          4    1    3    3  501    0 -0.15109760072E+03 -0.54218660192E+03  0.13459493630E+03  0.57871633217E+03  0.00000000000E+00 0.  1.
         13    1    4    4    0    0  0.45816575205E+02  0.15868284600E+03 -0.59728479859E+03  0.61970036789E+03  0.10566000000E+00 0. -1.
         -4    1    4    4    0  503 -0.59073519418E+02 -0.87711408742E+01  0.40328657604E+03  0.40768453003E+03  0.00000000000E+00 0. -1.
<mgrwt>
<rscale>  2 0.10078997E+04</rscale>
<asrwt>0</asrwt>
<pdfrwt beam="1">  1       21 0.17907227E+00 0.10089026E+04</pdfrwt>
<pdfrwt beam="2">  1       21 0.14592683E+00 0.10089026E+04</pdfrwt>
<totfact> 0.29108615E+01</totfact>
</mgrwt>
</event>
<event>
 8    1  0.7208583E-006  0.1107248E+04  0.7818608E-02  0.8693426E-01
         21   -1    0    0  501  502  0.00000000000E+00  0.00000000000E+00  0.10198850612E+04  0.10198850612E+04  0.00000000000E+00 0. -1.
         21   -1    0    0  502  503 -0.00000000000E+00 -0.00000000000E+00 -0.14244619735E+04  0.14244619735E+04  0.00000000000E+00 0. -1.
    9000010    2    1    2  501    0  0.28034709270E+03 -0.36826129618E+02  0.34428887239E+03  0.11595397237E+04  0.10705357944E+04 0.  0.
   -9000010    2    1    2    0  503 -0.28034709270E+03  0.36826129618E+02 -0.74886578460E+03  0.12848073110E+04  0.10049772170E+04 0.  0.
        -13    1    3    3    0    0  0.61475577213E+03 -0.29772579710E+03  0.20713329022E+03  0.71377133643E+03  0.10566000000E+00 0.  1.
          4    1    3    3  501    0 -0.33440867944E+03  0.26089966749E+03  0.13715558217E+03  0.44576838728E+03  0.00000000000E+00 0.  1.
         13    1    4    4    0    0  0.34632587459E+02  0.98662414677E+02  0.23107551856E+03  0.25363279485E+03  0.10566000000E+00 0. -1.
         -4    1    4    4    0  503 -0.31497968016E+03 -0.61836285059E+02 -0.97994130316E+03  0.10311745161E+04  0.00000000000E+00 0. -1.
<mgrwt>
<rscale>  2 0.10910846E+04</rscale>
<asrwt>0</asrwt>
<pdfrwt beam="1">  1       21 0.15690539E+00 0.11072477E+04</pdfrwt>
<pdfrwt beam="2">  1       21 0.21914800E+00 0.11072477E+04</pdfrwt>
<totfact> 0.11037372E+01</totfact>
</mgrwt>
</event>
<event>
 8    1  0.7208583E-006  0.1019127E+04  0.7818608E-02  0.8757851E-01
         21   -1    0    0  503  502  0.00000000000E+00  0.00000000000E+00  0.14694819879E+04  0.14694819879E+04  0.00000000000E+00 0.  1.
         21   -1    0    0  501  503 -0.00000000000E+00 -0.00000000000E+00 -0.82915582455E+03  0.82915582455E+03  0.00000000000E+00 0.  1.
    9000010    2    1    2  501    0 -0.15542956065E+03 -0.89402790200E+02 -0.12748677937E+03  0.10226456294E+04  0.99869915249E+03 0.  0.
   -9000010    2    1    2    0  502  0.15542956065E+03  0.89402790200E+02  0.76781294271E+03  0.12759921831E+04  0.10032288518E+04 0.  0.
        -13    1    3    3    0    0  0.21715922844E+03 -0.39404476835E+03 -0.26492799039E+03  0.52212667162E+03  0.10566000000E+00 0.  1.
          4    1    3    3  501    0 -0.37258878909E+03  0.30464197815E+03  0.13744121102E+03  0.50051895777E+03  0.00000000000E+00 0.  1.
         13    1    4    4    0    0  0.61490179671E+02 -0.25936651937E+02 -0.24417451240E+03  0.25313031383E+03  0.10566000000E+00 0. -1.
         -4    1    4    4    0  502  0.93939380979E+02  0.11533944214E+03  0.10119874551E+04  0.10228618692E+04  0.00000000000E+00 0. -1.
<mgrwt>
<rscale>  2 0.10180102E+04</rscale>
<asrwt>0</asrwt>
<pdfrwt beam="1">  1       21 0.22607415E+00 0.10191268E+04</pdfrwt>
<pdfrwt beam="2">  1       21 0.12756244E+00 0.10191268E+04</pdfrwt>
<totfact> 0.18595666E+01</totfact>
</mgrwt>
</event>
<event>
 8    1  0.7208583E-006  0.1101389E+04  0.7818608E-02  0.8687608E-01
         21   -1    0    0  501  502  0.00000000000E+00  0.00000000000E+00  0.15442075237E+04  0.15442075237E+04  0.00000000000E+00 0. -1.
         21   -1    0    0  502  503 -0.00000000000E+00 -0.00000000000E+00 -0.83243946037E+03  0.83243946037E+03  0.00000000000E+00 0. -1.
    9000010    2    1    2  501    0 -0.32854567142E+03  0.25664304187E+03  0.44261601827E+02  0.10887721740E+04  0.10048173209E+04 0.  0.
   -9000010    2    1    2    0  503  0.32854567142E+03 -0.25664304187E+03  0.66750646147E+03  0.12878748100E+04  0.10194355012E+04 0.  0.
        -13    1    3    3    0    0  0.30669072020E+03 -0.25396383615E+02 -0.18237425953E+03  0.35772133828E+03  0.10566000000E+00 0.  1.
          4    1    3    3  501    0 -0.63523639162E+03  0.28203942548E+03  0.22663586136E+03  0.73105083573E+03  0.00000000000E+00 0.  1.
         13    1    4    4    0    0  0.37294662870E+03 -0.62637376280E+03  0.44391887302E+03  0.85352050682E+03  0.10566000000E+00 0. -1.
         -4    1    4    4    0  503 -0.44400957282E+02  0.36973072093E+03  0.22358758845E+03  0.43435430321E+03  0.00000000000E+00 0. -1.
<mgrwt>
<rscale>  2 0.10979938E+04</rscale>
<asrwt>0</asrwt>
<pdfrwt beam="1">  1       21 0.23757039E+00 0.11013885E+04</pdfrwt>
<pdfrwt beam="2">  1       21 0.12806761E+00 0.11013885E+04</pdfrwt>
<totfact> 0.14829518E+01</totfact>
</mgrwt>
</event>
<event>
 8    1  0.7208583E-006  0.1016827E+04  0.7818608E-02  0.8759829E-01
         21   -1    0    0  501  502  0.00000000000E+00  0.00000000000E+00  0.11851793508E+04  0.11851793508E+04  0.00000000000E+00 0.  1.
         21   -1    0    0  502  503 -0.00000000000E+00 -0.00000000000E+00 -0.89645955863E+03  0.89645955863E+03  0.00000000000E+00 0.  1.
    9000010    2    1    2  501    0  0.10788211730E+03  0.13519816920E+03  0.32650302260E+03  0.10679617571E+04  0.10020084804E+04 0.  0.
   -9000010    2    1    2    0  503 -0.10788211730E+03 -0.13519816920E+03 -0.37783230411E+02  0.10136771523E+04  0.99809653862E+03 0.  0.
        -13    1    3    3    0    0 -0.30890609690E+03 -0.24508124056E+03  0.31325481308E+03  0.50360339579E+03  0.10566000000E+00 0.  1.
          4    1    3    3  501    0  0.41678821419E+03  0.38027940976E+03  0.13248209516E+02  0.56435836135E+03  0.00000000000E+00 0.  1.
         13    1    4    4    0    0 -0.20524249055E+03 -0.61800730571E+02 -0.49556634696E+03  0.53993501982E+03  0.10566000000E+00 0. -1.
         -4    1    4    4    0  503  0.97360373253E+02 -0.73397438627E+02  0.45778311655E+03  0.47374213247E+03  0.00000000000E+00 0. -1.
<mgrwt>
<rscale>  2 0.10158624E+04</rscale>
<asrwt>0</asrwt>
<pdfrwt beam="1">  1       21 0.18233528E+00 0.10168275E+04</pdfrwt>
<pdfrwt beam="2">  1       21 0.13791686E+00 0.10168275E+04</pdfrwt>
<totfact> 0.32372101E+01</totfact>
</mgrwt>
</event>
<event>
 8    1  0.7208583E-006  0.1068901E+04  0.7818608E-02  0.8718993E-01
         21   -1    0    0  501  502  0.00000000000E+00  0.00000000000E+00  0.12565798158E+04  0.12565798158E+04  0.00000000000E+00 0. -1.
         21   -1    0    0  502  503 -0.00000000000E+00 -0.00000000000E+00 -0.10080123556E+04  0.10080123556E+04  0.00000000000E+00 0. -1.
    9000010    2    1    2  501    0  0.34054968144E+03 -0.40285846328E+02  0.52295387944E+03  0.11899710168E+04  0.10123997362E+04 0.  0.
   -9000010    2    1    2    0  503 -0.34054968144E+03  0.40285846328E+02 -0.27438641932E+03  0.10746211546E+04  0.98077810123E+03 0.  0.
        -13    1    3    3    0    0 -0.91028431593E+02 -0.44692215192E+03  0.11546997999E+03  0.47048795168E+03  0.10566000000E+00 0.  1.
          4    1    3    3  501    0  0.43157811303E+03  0.40663630559E+03  0.40748389945E+03  0.71948306511E+03  0.00000000000E+00 0.  1.
         13    1    4    4    0    0 -0.25986510511E+03 -0.36835791196E+02  0.35160182219E+03  0.43876030005E+03  0.10566000000E+00 0. -1.
         -4    1    4    4    0  503 -0.80684576326E+02  0.77121637524E+02 -0.62598824151E+03  0.63586085454E+03  0.00000000000E+00 0. -1.
<mgrwt>
<rscale>  2 0.10613466E+04</rscale>
<asrwt>0</asrwt>
<pdfrwt beam="1">  1       21 0.19331997E+00 0.10689014E+04</pdfrwt>
<pdfrwt beam="2">  1       21 0.15507882E+00 0.10689014E+04</pdfrwt>
<totfact> 0.18281240E+01</totfact>
</mgrwt>
</event>
<event>
 8    1  0.7208583E-006  0.1064153E+04  0.7818608E-02  0.8722235E-01
         21   -1    0    0  501  502  0.00000000000E+00  0.00000000000E+00  0.10460455033E+04  0.10460455033E+04  0.00000000000E+00 0. -1.
         21   -1    0    0  502  503 -0.00000000000E+00 -0.00000000000E+00 -0.10994862616E+04  0.10994862616E+04  0.00000000000E+00 0. -1.
    9000010    2    1    2  501    0  0.29480220893E+03 -0.48568883578E+02 -0.23914403671E+03  0.10906927561E+04  0.10213488822E+04 0.  0.
   -9000010    2    1    2    0  503 -0.29480220893E+03  0.48568883578E+02  0.18570327840E+03  0.10548390087E+04  0.99445077695E+03 0.  0.
        -13    1    3    3    0    0 -0.33196867112E+02 -0.88728687444E+02  0.37851687976E+03  0.39019206987E+03  0.10566000000E+00 0.  1.
          4    1    3    3  501    0  0.32799907604E+03  0.40159803866E+02 -0.61766091647E+03  0.70050068627E+03  0.00000000000E+00 0.  1.
         13    1    4    4    0    0 -0.83713129277E+02  0.19477496488E+03 -0.37912986644E+03  0.43437845452E+03  0.10566000000E+00 0. -1.
         -4    1    4    4    0  503 -0.21108907965E+03 -0.14620608131E+03  0.56483314484E+03  0.62046055416E+03  0.00000000000E+00 0. -1.
<mgrwt>
<rscale>  2 0.10576460E+04</rscale>
<asrwt>0</asrwt>
<pdfrwt beam="1">  1       21 0.16093008E+00 0.10641526E+04</pdfrwt>
<pdfrwt beam="2">  1       21 0.16915173E+00 0.10641526E+04</pdfrwt>
<totfact> 0.25618500E+01</totfact>
</mgrwt>
</event>
<event>
 8    1  0.7208583E-006  0.1025798E+04  0.7818608E-02  0.8751445E-01
         21   -1    0    0  501  502  0.00000000000E+00  0.00000000000E+00  0.67706559508E+03  0.67706559508E+03  0.00000000000E+00 0.  1.
         21   -1    0    0  502  503 -0.00000000000E+00 -0.00000000000E+00 -0.18015550705E+04  0.18015550705E+04  0.00000000000E+00 0.  1.
    9000010    2    1    2  501    0 -0.18692769483E+03 -0.55412040211E+02 -0.10251866798E+04  0.14480268546E+04  0.10038732917E+04 0.  0.
   -9000010    2    1    2    0  503  0.18692769483E+03  0.55412040211E+02 -0.99302795626E+02  0.10305938110E+04  0.10070998465E+04 0.  0.
        -13    1    3    3    0    0 -0.38222242737E+03 -0.17369321741E+03 -0.23332630518E+02  0.42048512526E+03  0.10566000000E+00 0.  1.
          4    1    3    3  501    0  0.19529473254E+03  0.11828117720E+03 -0.10018540493E+04  0.10275417293E+04  0.00000000000E+00 0.  1.
         13    1    4    4    0    0  0.46870366595E+03 -0.30212877630E+03  0.26597056623E+02  0.55827622063E+03  0.10566000000E+00 0. -1.
         -4    1    4    4    0  503 -0.28177597112E+03  0.35754081651E+03 -0.12589985225E+03  0.47231759036E+03  0.00000000000E+00 0. -1.
<mgrwt>
<rscale>  2 0.10250057E+04</rscale>
<asrwt>0</asrwt>
<pdfrwt beam="1">  1       21 0.10416394E+00 0.10257985E+04</pdfrwt>
<pdfrwt beam="2">  1       21 0.27716232E+00 0.10257985E+04</pdfrwt>
<totfact> 0.13793800E+01</totfact>
</mgrwt>
</event>
<event>
 8    1  0.7208583E-006  0.1034665E+04  0.7818608E-02  0.8751369E-01
         21   -1    0    0  503  502  0.00000000000E+00  0.00000000000E+00  0.81748098210E+03  0.81748098210E+03  0.00000000000E+00 0.  1.
         21   -1    0    0  501  503 -0.00000000000E+00 -0.00000000000E+00 -0.12649417136E+04  0.12649417136E+04  0.00000000000E+00 0.  1.
    9000010    2    1    2  501    0  0.10908386900E+03 -0.13588616906E+03 -0.26827782108E+03  0.10323568076E+04  0.98154126125E+03 0.  0.
   -9000010    2    1    2    0  502 -0.10908386900E+03  0.13588616906E+03 -0.17918291043E+03  0.10500658881E+04  0.10198860292E+04 0.  0.
        -13    1    3    3    0    0 -0.17556112521E+02 -0.53012059194E+03 -0.31299315865E+03  0.61587400303E+03  0.10566000000E+00 0.  1.
          4    1    3    3  501    0  0.12663998152E+03  0.39423442288E+03  0.44715337568E+02  0.41648280459E+03  0.00000000000E+00 0.  1.
         13    1    4    4    0    0 -0.18135743043E+03  0.43598970398E+03 -0.44039165729E+03  0.64569525515E+03  0.10566000000E+00 0. -1.
         -4    1    4    4    0  502  0.72273561430E+02 -0.30010353492E+03  0.26120874686E+03  0.40437063294E+03  0.00000000000E+00 0. -1.
<mgrwt>
<rscale>  2 0.10250889E+04</rscale>
<asrwt>0</asrwt>
<pdfrwt beam="1">  1       21 0.12576631E+00 0.10346651E+04</pdfrwt>
<pdfrwt beam="2">  1       21 0.19460642E+00 0.10346651E+04</pdfrwt>
<totfact> 0.33620159E+01</totfact>
</mgrwt>
</event>
<event>
 8    1  0.7208583E-006  0.1049970E+04  0.7818608E-02  0.8729865E-01
         21   -1    0    0  503  502  0.00000000000E+00  0.00000000000E+00  0.19133500826E+04  0.19133500826E+04  0.00000000000E+00 0.  1.
         21   -1    0    0  501  503 -0.00000000000E+00 -0.00000000000E+00 -0.74457148431E+03  0.74457148431E+03  0.00000000000E+00 0.  1.
    9000010    2    1    2  501    0  0.30179895438E+03 -0.10711791775E+03 -0.50749980297E+02  0.10511961064E+04  0.99994041643E+03 0.  0.
   -9000010    2    1    2    0  502 -0.30179895438E+03  0.10711791775E+03  0.12195285786E+04  0.16067254605E+04  0.99587142460E+03 0.  0.
        -13    1    3    3    0    0  0.58564095688E+02  0.33642140220E+03 -0.32872730624E+03  0.47399447908E+03  0.10566000000E+00 0.  1.
          4    1    3    3  501    0  0.24323485869E+03 -0.44353931995E+03  0.27797732595E+03  0.57720162730E+03  0.00000000000E+00 0.  1.
         13    1    4    4    0    0 -0.63246401915E+03  0.25182176663E+03  0.86548991968E+03  0.11011347556E+04  0.10566000000E+00 0. -1.
         -4    1    4    4    0  502  0.33066506477E+03 -0.14470384888E+03  0.35403865891E+03  0.50559070497E+03  0.00000000000E+00 0. -1.
<mgrwt>
<rscale>  2 0.10490004E+04</rscale>
<asrwt>0</asrwt>
<pdfrwt beam="1">  1       21 0.29436155E+00 0.10499703E+04</pdfrwt>
<pdfrwt beam="2">  1       21 0.11454946E+00 0.10499703E+04</pdfrwt>
<totfact> 0.80087428E+00</totfact>
</mgrwt>
</event>
<event>
 8    1  0.7208583E-006  0.1036017E+04  0.7818608E-02  0.8744675E-01
         21   -1    0    0  503  502  0.00000000000E+00  0.00000000000E+00  0.53494598169E+03  0.53494598169E+03  0.00000000000E+00 0. -1.
         21   -1    0    0  501  503 -0.00000000000E+00 -0.00000000000E+00 -0.22099787255E+04  0.22099787255E+04  0.00000000000E+00 0. -1.
    9000010    2    1    2  501    0  0.28599681074E+03  0.61972470421E+02 -0.12862529460E+04  0.16515987610E+04  0.99382949404E+03 0.  0.
   -9000010    2    1    2    0  502 -0.28599681074E+03 -0.61972470421E+02 -0.38877979774E+03  0.10933259462E+04  0.97906952287E+03 0.  0.
        -13    1    3    3    0    0 -0.26928385873E+03  0.28674029079E+03 -0.75316643360E+03  0.84970199412E+03  0.10566000000E+00 0.  1.
          4    1    3    3  501    0  0.55528066947E+03 -0.22476782037E+03 -0.53308651244E+03  0.80189676687E+03  0.00000000000E+00 0.  1.
         13    1    4    4    0    0  0.10201449225E+02  0.37552576345E+03  0.83321713701E+02  0.38479369501E+03  0.10566000000E+00 0. -1.
         -4    1    4    4    0  502 -0.29619825997E+03 -0.43749823387E+03 -0.47210151145E+03  0.70853225118E+03  0.00000000000E+00 0. -1.
<mgrwt>
<rscale>  2 0.10324614E+04</rscale>
<asrwt>0</asrwt>
<pdfrwt beam="1">  1       21 0.82299380E-01 0.10360173E+04</pdfrwt>
<pdfrwt beam="2">  1       21 0.33999673E+00 0.10360173E+04</pdfrwt>
<totfact> 0.90767928E+00</totfact>
</mgrwt>
</event>
<event>
 8    1  0.7208583E-006  0.1094768E+04  0.7818608E-02  0.8691067E-01
         21   -1    0    0  501  502  0.00000000000E+00  0.00000000000E+00  0.86618702295E+03  0.86618702295E+03  0.00000000000E+00 0.  1.
         21   -1    0    0  502  503 -0.00000000000E+00 -0.00000000000E+00 -0.15558301888E+04  0.15558301888E+04  0.00000000000E+00 0.  1.
    9000010    2    1    2  501    0 -0.37161472070E+03  0.23669919506E+03  0.62728152053E+02  0.10965633966E+04  0.10021938196E+04 0.  0.
   -9000010    2    1    2    0  503  0.37161472070E+03 -0.23669919506E+03 -0.75237131786E+03  0.13254538151E+04  0.99831919069E+03 0.  0.
        -13    1    3    3    0    0  0.17429382605E+02 -0.36321846760E+03  0.11019849297E+03  0.37996731123E+03  0.10566000000E+00 0.  1.
          4    1    3    3  501    0 -0.38904410331E+03  0.59991766266E+03 -0.47470340913E+02  0.71659608536E+03  0.00000000000E+00 0.  1.
         13    1    4    4    0    0 -0.25306933879E+03  0.12374200534E+02 -0.57741569559E+03  0.63056015395E+03  0.10566000000E+00 0. -1.
         -4    1    4    4    0  503  0.62468405949E+03 -0.24907339559E+03 -0.17495562227E+03  0.69489366117E+03  0.00000000000E+00 0. -1.
<mgrwt>
<rscale>  2 0.10938802E+04</rscale>
<asrwt>0</asrwt>
<pdfrwt beam="1">  1       21 0.13325954E+00 0.10947678E+04</pdfrwt>
<pdfrwt beam="2">  1       21 0.23935849E+00 0.10947678E+04</pdfrwt>
<totfact> 0.12842289E+01</totfact>
</mgrwt>
</event>
<event>
 8    1  0.7208583E-006  0.1022955E+04  0.7818608E-02  0.8754317E-01
         21   -1    0    0  503  502  0.00000000000E+00  0.00000000000E+00  0.14708591277E+04  0.14708591277E+04  0.00000000000E+00 0. -1.
         21   -1    0    0  501  503 -0.00000000000E+00 -0.00000000000E+00 -0.71253574971E+03  0.71253574971E+03  0.00000000000E+00 0. -1.
    9000010    2    1    2  501    0 -0.40323771071E+02  0.20325115619E+03  0.29693813650E+03  0.10651803419E+04  0.10017484040E+04 0.  0.
   -9000010    2    1    2    0  502  0.40323771071E+02 -0.20325115619E+03  0.46138524149E+03  0.11182145355E+04  0.99729151575E+03 0.  0.
        -13    1    3    3    0    0 -0.49554785727E+02  0.59952901966E+03  0.29216000932E+03  0.66876618067E+03  0.10566000000E+00 0.  1.
          4    1    3    3  501    0  0.92310146556E+01 -0.39627786347E+03  0.47781271852E+01  0.39641416121E+03  0.00000000000E+00 0.  1.
         13    1    4    4    0    0 -0.27968223794E+03  0.28196039262E+03  0.37662033657E+02  0.39892638064E+03  0.10566000000E+00 0. -1.
         -4    1    4    4    0  502  0.32000600901E+03 -0.48521154881E+03  0.42372320784E+03  0.71928815489E+03  0.00000000000E+00 0. -1.
<mgrwt>
<rscale>  2 0.10218622E+04</rscale>
<asrwt>0</asrwt>
<pdfrwt beam="1">  1       21 0.22628602E+00 0.10229550E+04</pdfrwt>
<pdfrwt beam="2">  1       21 0.10962088E+00 0.10229550E+04</pdfrwt>
<totfact> 0.28224895E+01</totfact>
</mgrwt>
</event>
<event>
 8    1  0.7208583E-006  0.1065919E+04  0.7818608E-02  0.8725834E-01
         21   -1    0    0  503  502  0.00000000000E+00  0.00000000000E+00  0.14644425321E+04  0.14644425321E+04  0.00000000000E+00 0.  1.
         21   -1    0    0  501  503 -0.00000000000E+00 -0.00000000000E+00 -0.77192503086E+03  0.77192503086E+03  0.00000000000E+00 0.  1.
    9000010    2    1    2  501    0  0.54022051410E+02  0.63419799075E+02  0.57818559995E+03  0.12126343911E+04  0.10626585178E+04 0.  0.
   -9000010    2    1    2    0  502 -0.54022051410E+02 -0.63419799075E+02  0.11433190128E+03  0.10237331719E+04  0.10139119146E+04 0.  0.
        -13    1    3    3    0    0 -0.12923871550E+03 -0.44068170086E+03  0.48552632953E+03  0.66831043302E+03  0.10566000000E+00 0.  1.
          4    1    3    3  501    0  0.18326076691E+03  0.50410149993E+03  0.92659270418E+02  0.54432395806E+03  0.00000000000E+00 0.  1.
         13    1    4    4    0    0  0.46151613256E+03 -0.12139562465E+03  0.15904949262E+03  0.50302166014E+03  0.10566000000E+00 0. -1.
         -4    1    4    4    0  502 -0.51553818397E+03  0.57975825574E+02 -0.44717591335E+02  0.52071151174E+03  0.00000000000E+00 0. -1.
<mgrwt>
<rscale>  2 0.10535582E+04</rscale>
<asrwt>0</asrwt>
<pdfrwt beam="1">  1       21 0.22529885E+00 0.10659191E+04</pdfrwt>
<pdfrwt beam="2">  1       21 0.11875770E+00 0.10659191E+04</pdfrwt>
<totfact> 0.22824171E+01</totfact>
</mgrwt>
</event>
<event>
 8    1  0.7208583E-006  0.1043372E+04  0.7818608E-02  0.8743815E-01
         21   -1    0    0  501  502  0.00000000000E+00  0.00000000000E+00  0.91875770869E+03  0.91875770869E+03  0.00000000000E+00 0.  1.
         21   -1    0    0  502  503 -0.00000000000E+00 -0.00000000000E+00 -0.11826521596E+04  0.11826521596E+04  0.00000000000E+00 0.  1.
    9000010    2    1    2  501    0 -0.33982315749E+02  0.37752882065E+02  0.63434385440E+02  0.10452983398E+04  0.10421346458E+04 0.  0.
   -9000010    2    1    2    0  503  0.33982315749E+02 -0.37752882065E+02 -0.32732883638E+03  0.10561115285E+04  0.10028196825E+04 0.  0.
        -13    1    3    3    0    0  0.50615194663E+02  0.40838262377E+03 -0.30784398178E+03  0.51391263228E+03  0.10566000000E+00 0.  1.
          4    1    3    3  501    0 -0.84597510412E+02 -0.37062974171E+03  0.37127836722E+03  0.53138570753E+03  0.00000000000E+00 0.  1.
         13    1    4    4    0    0 -0.22112434315E+03  0.16131400871E+03  0.26511611846E+03  0.38105741296E+03  0.10566000000E+00 0. -1.
         -4    1    4    4    0  503  0.25510665890E+03 -0.19906689077E+03 -0.59244495484E+03  0.67505411555E+03  0.00000000000E+00 0. -1.
<mgrwt>
<rscale>  2 0.10334135E+04</rscale>
<asrwt>0</asrwt>
<pdfrwt beam="1">  1       21 0.14134734E+00 0.10433718E+04</pdfrwt>
<pdfrwt beam="2">  1       21 0.18194649E+00 0.10433718E+04</pdfrwt>
<totfact> 0.30127843E+01</totfact>
</mgrwt>
</event>
<event>
 8    1  0.7208583E-006  0.1023985E+04  0.7818608E-02  0.8753572E-01
         21   -1    0    0  501  502  0.00000000000E+00  0.00000000000E+00  0.89489698247E+03  0.89489698247E+03  0.00000000000E+00 0.  1.
         21   -1    0    0  502  503 -0.00000000000E+00 -0.00000000000E+00 -0.13188024125E+04  0.13188024125E+04  0.00000000000E+00 0.  1.
    9000010    2    1    2  501    0  0.82961409724E+02 -0.18746303336E+03  0.16466322811E+03  0.10371399145E+04  0.10032548226E+04 0.  0.
   -9000010    2    1    2    0  503 -0.82961409724E+02  0.18746303336E+03 -0.58856865813E+03  0.11765594805E+04  0.99792492773E+03 0.  0.
        -13    1    3    3    0    0 -0.36772320973E+03  0.17939247482E+03 -0.61143196168E+02  0.41369133493E+03  0.10566000000E+00 0.  1.
          4    1    3    3  501    0  0.45068461946E+03 -0.36685550818E+03  0.22580642428E+03  0.62344857955E+03  0.00000000000E+00 0.  1.
         13    1    4    4    0    0  0.87403360615E+02 -0.33449622383E+03  0.32900707734E+02  0.34728884079E+03  0.10566000000E+00 0. -1.
         -4    1    4    4    0  503 -0.17036477034E+03  0.52195925719E+03 -0.62146936587E+03  0.82927063969E+03  0.00000000000E+00 0. -1.
<mgrwt>
<rscale>  2 0.10226771E+04</rscale>
<asrwt>0</asrwt>
<pdfrwt beam="1">  1       21 0.13767646E+00 0.10239850E+04</pdfrwt>
<pdfrwt beam="2">  1       21 0.20289268E+00 0.10239850E+04</pdfrwt>
<totfact> 0.22321232E+01</totfact>
</mgrwt>
</event>
<event>
 8    1  0.7208583E-006  0.1059193E+04  0.7818608E-02  0.8726137E-01
         21   -1    0    0  503  502  0.00000000000E+00  0.00000000000E+00  0.18219792158E+04  0.18219792158E+04  0.00000000000E+00 0. -1.
         21   -1    0    0  501  503 -0.00000000000E+00 -0.00000000000E+00 -0.68935120960E+03  0.68935120960E+03  0.00000000000E+00 0. -1.
    9000010    2    1    2  501    0  0.17502549666E+03 -0.10768411283E+03  0.10187513963E+04  0.14696070513E+04  0.10390672188E+04 0.  0.
   -9000010    2    1    2    0  502 -0.17502549666E+03  0.10768411283E+03  0.11387660997E+03  0.10417233741E+04  0.10148841871E+04 0.  0.
        -13    1    3    3    0    0  0.44329133901E+03 -0.91823878900E+02  0.10994617884E+04  0.11890143276E+04  0.10566000000E+00 0.  1.
          4    1    3    3  501    0 -0.26826584235E+03 -0.15860233925E+02 -0.80710392132E+02  0.28059272370E+03  0.00000000000E+00 0.  1.
         13    1    4    4    0    0  0.27902744832E+03 -0.23747446366E+03  0.26440871745E+03  0.45184335652E+03  0.10566000000E+00 0. -1.
         -4    1    4    4    0  502 -0.45405294498E+03  0.34515857648E+03 -0.15053210748E+03  0.58988001759E+03  0.00000000000E+00 0. -1.
<mgrwt>
<rscale>  2 0.10532147E+04</rscale>
<asrwt>0</asrwt>
<pdfrwt beam="1">  1       21 0.28030449E+00 0.10591933E+04</pdfrwt>
<pdfrwt beam="2">  1       21 0.10605403E+00 0.10591933E+04</pdfrwt>
<totfact> 0.12392736E+01</totfact>
</mgrwt>
</event>
<event>
 8    1  0.7208583E-006  0.1027229E+04  0.7818608E-02  0.8759667E-01
         21   -1    0    0  503  502  0.00000000000E+00  0.00000000000E+00  0.12304562830E+04  0.12304562830E+04  0.00000000000E+00 0. -1.
         21   -1    0    0  501  503 -0.00000000000E+00 -0.00000000000E+00 -0.86010465279E+03  0.86010465279E+03  0.00000000000E+00 0. -1.
    9000010    2    1    2  501    0  0.42778187744E+02  0.23288149547E+03 -0.40970312666E+02  0.98404114171E+03  0.95425082540E+03 0.  0.
   -9000010    2    1    2    0  502 -0.42778187744E+02 -0.23288149547E+03  0.41132194286E+03  0.11065197941E+04  0.99956818162E+03 0.  0.
        -13    1    3    3    0    0 -0.79020457886E+02  0.59158655275E+03  0.34262208164E+02  0.59782337880E+03  0.10566000000E+00 0.  1.
          4    1    3    3  501    0  0.12179864563E+03 -0.35870505728E+03 -0.75232520830E+02  0.38621776291E+03  0.00000000000E+00 0.  1.
         13    1    4    4    0    0  0.23279527195E+03 -0.48299232489E+03 -0.20377652013E+02  0.53655426977E+03  0.10566000000E+00 0. -1.
         -4    1    4    4    0  502 -0.27557345969E+03  0.25011082942E+03  0.43169959488E+03  0.56996552430E+03  0.00000000000E+00 0. -1.
<mgrwt>
<rscale>  2 0.10160375E+04</rscale>
<asrwt>0</asrwt>
<pdfrwt beam="1">  1       21 0.18930097E+00 0.10272294E+04</pdfrwt>
<pdfrwt beam="2">  1       21 0.13232379E+00 0.10272294E+04</pdfrwt>
<totfact> 0.32054160E+01</totfact>
</mgrwt>
</event>
<event>
 8    1  0.7208583E-006  0.1151006E+04  0.7818608E-02  0.8647883E-01
         21   -1    0    0  501  502  0.00000000000E+00  0.00000000000E+00  0.92772096193E+03  0.92772096193E+03  0.00000000000E+00 0. -1.
         21   -1    0    0  502  503 -0.00000000000E+00 -0.00000000000E+00 -0.24243571054E+04  0.24243571054E+04  0.00000000000E+00 0. -1.
    9000010    2    1    2  501    0 -0.51980609718E+03 -0.46027380019E+01  0.33436920692E+03  0.11985902550E+04  0.10269353772E+04 0.  0.
   -9000010    2    1    2    0  503  0.51980609718E+03  0.46027380019E+01 -0.18310053504E+04  0.21534878123E+04  0.10073279510E+04 0.  0.
        -13    1    3    3    0    0  0.16962808575E+03  0.32766038590E+03  0.14898886550E+02  0.36926549249E+03  0.10566000000E+00 0.  1.
          4    1    3    3  501    0 -0.68943418293E+03 -0.33226312390E+03  0.31947032037E+03  0.82932476250E+03  0.00000000000E+00 0.  1.
         13    1    4    4    0    0  0.66798193279E+03  0.29983737954E+03 -0.86894428823E+03  0.11362950778E+04  0.10566000000E+00 0. -1.
         -4    1    4    4    0  503 -0.14817583561E+03 -0.29523464154E+03 -0.96206106215E+03  0.10171927345E+04  0.00000000000E+00 0. -1.
<mgrwt>
<rscale>  2 0.11466166E+04</rscale>
<asrwt>0</asrwt>
<pdfrwt beam="1">  1       21 0.14272630E+00 0.11510064E+04</pdfrwt>
<pdfrwt beam="2">  1       21 0.37297801E+00 0.11510064E+04</pdfrwt>
<totfact> 0.11642979E+00</totfact>
</mgrwt>
</event>
<event>
 8    1  0.7208583E-006  0.1174088E+04  0.7818608E-02  0.8660036E-01
         21   -1    0    0  503  502  0.00000000000E+00  0.00000000000E+00  0.86153668611E+03  0.86153668611E+03  0.00000000000E+00 0.  1.
         21   -1    0    0  501  503 -0.00000000000E+00 -0.00000000000E+00 -0.17627968926E+04  0.17627968926E+04  0.00000000000E+00 0.  1.
    9000010    2    1    2  501    0  0.94314992289E+02 -0.98900568892E+01 -0.10808724599E+04  0.15958597107E+04  0.11702520287E+04 0.  0.
   -9000010    2    1    2    0  502 -0.94314992289E+02  0.98900568892E+01  0.17961225341E+03  0.10284738680E+04  0.10082186294E+04 0.  0.
        -13    1    3    3    0    0  0.50371628721E+03  0.20218623023E+03 -0.15977300027E+03  0.56580632064E+03  0.10566000000E+00 0.  1.
          4    1    3    3  501    0 -0.40940129492E+03 -0.21207628712E+03 -0.92109945962E+03  0.10300533901E+04  0.00000000000E+00 0.  1.
         13    1    4    4    0    0 -0.45587483295E+02 -0.30158965651E+03  0.49570803664E+03  0.58203179320E+03  0.10566000000E+00 0. -1.
         -4    1    4    4    0  502 -0.48727508994E+02  0.31147971340E+03 -0.31609578323E+03  0.44644207482E+03  0.00000000000E+00 0. -1.
<mgrwt>
<rscale>  2 0.11314683E+04</rscale>
<asrwt>0</asrwt>
<pdfrwt beam="1">  1       21 0.13254411E+00 0.11740881E+04</pdfrwt>
<pdfrwt beam="2">  1       21 0.27119952E+00 0.11740881E+04</pdfrwt>
<totfact> 0.75349603E+00</totfact>
</mgrwt>
</event>
<event>
 8    1  0.7208583E-006  0.1060113E+04  0.7818608E-02  0.8726140E-01
         21   -1    0    0  503  502  0.00000000000E+00  0.00000000000E+00  0.83458031932E+03  0.83458031932E+03  0.00000000000E+00 0.  1.
         21   -1    0    0  501  503 -0.00000000000E+00 -0.00000000000E+00 -0.13574722669E+04  0.13574722669E+04  0.00000000000E+00 0.  1.
    9000010    2    1    2  501    0 -0.28086743460E+03  0.11496803819E+03 -0.45853204903E+03  0.11299876969E+04  0.98717596681E+03 0.  0.
   -9000010    2    1    2    0  502  0.28086743460E+03 -0.11496803819E+03 -0.64359898566E+02  0.10620648894E+04  0.10157437999E+04 0.  0.
        -13    1    3    3    0    0  0.36819600969E+03 -0.20621423673E+02 -0.14106836447E+03  0.39483393887E+03  0.10566000000E+00 0.  1.
          4    1    3    3  501    0 -0.64906344428E+03  0.13558946187E+03 -0.31746368457E+03  0.73515375799E+03  0.00000000000E+00 0.  1.
         13    1    4    4    0    0 -0.32121942146E+03  0.20106295364E+03 -0.46945958064E+02  0.38185358738E+03  0.10566000000E+00 0. -1.
         -4    1    4    4    0  502  0.60208685606E+03 -0.31603099184E+03 -0.17413940503E+02  0.68021130200E+03  0.00000000000E+00 0. -1.
<mgrwt>
<rscale>  2 0.10532110E+04</rscale>
<asrwt>0</asrwt>
<pdfrwt beam="1">  1       21 0.12839697E+00 0.10601130E+04</pdfrwt>
<pdfrwt beam="2">  1       21 0.20884188E+00 0.10601130E+04</pdfrwt>
<totfact> 0.24415814E+01</totfact>
</mgrwt>
</event>
<event>
 8    1  0.7208583E-006  0.1116349E+04  0.7818608E-02  0.8684800E-01
         21   -1    0    0  503  502  0.00000000000E+00  0.00000000000E+00  0.22373424852E+04  0.22373424852E+04  0.00000000000E+00 0.  1.
         21   -1    0    0  501  503 -0.00000000000E+00 -0.00000000000E+00 -0.83706164303E+03  0.83706164303E+03  0.00000000000E+00 0.  1.
    9000010    2    1    2  501    0 -0.37322704878E+03 -0.24766171565E+03 -0.22166619528E+03  0.11381438560E+04  0.10225462236E+04 0.  0.
   -9000010    2    1    2    0  502  0.37322704878E+03  0.24766171565E+03  0.16219470374E+04  0.19362602722E+04  0.95799629140E+03 0.  0.
        -13    1    3    3    0    0  0.38879248515E+02 -0.55838082084E+03 -0.26677889484E+03  0.62005784162E+03  0.10566000000E+00 0.  1.
          4    1    3    3  501    0 -0.41210629730E+03  0.31071910519E+03  0.45112699568E+02  0.51808601435E+03  0.00000000000E+00 0.  1.
         13    1    4    4    0    0  0.53087592982E+03  0.32556607813E+01  0.15475191072E+04  0.16360486699E+04  0.10566000000E+00 0. -1.
         -4    1    4    4    0  502 -0.15764888103E+03  0.24440605487E+03  0.74427930228E+02  0.30021160229E+03  0.00000000000E+00 0. -1.
<mgrwt>
<rscale>  2 0.11013473E+04</rscale>
<asrwt>0</asrwt>
<pdfrwt beam="1">  1       21 0.34420653E+00 0.11163492E+04</pdfrwt>
<pdfrwt beam="2">  1       21 0.12877872E+00 0.11163492E+04</pdfrwt>
<totfact> 0.25287263E+00</totfact>
</mgrwt>
</event>
<event>
 8    1  0.7208583E-006  0.1022878E+04  0.7818608E-02  0.8770352E-01
         21   -1    0    0  503  502  0.00000000000E+00  0.00000000000E+00  0.54076701663E+03  0.54076701663E+03  0.00000000000E+00 0. -1.
         21   -1    0    0  501  503 -0.00000000000E+00 -0.00000000000E+00 -0.19612372100E+04  0.19612372100E+04  0.00000000000E+00 0. -1.
    9000010    2    1    2  501    0 -0.11076210338E+03  0.13266435730E+03 -0.10428680861E+04  0.14116546455E+04  0.93558907530E+03 0.  0.
   -9000010    2    1    2    0  502  0.11076210338E+03 -0.13266435730E+03 -0.37760210727E+03  0.10903495812E+04  0.10081720005E+04 0.  0.
        -13    1    3    3    0    0 -0.23621147462E+03  0.45523711290E+02 -0.11812807387E+04  0.12055258039E+04  0.10566000000E+00 0.  1.
          4    1    3    3  501    0  0.12544937123E+03  0.87140646014E+02  0.13841265260E+03  0.20612884158E+03  0.00000000000E+00 0.  1.
         13    1    4    4    0    0  0.13074295585E+03  0.14422212758E+03  0.30026277052E+03  0.35784282180E+03  0.10566000000E+00 0. -1.
         -4    1    4    4    0  502 -0.19980852464E+02 -0.27688648488E+03 -0.67786487780E+03  0.73250675937E+03  0.00000000000E+00 0. -1.
<mgrwt>
<rscale>  2 0.10045246E+04</rscale>
<asrwt>0</asrwt>
<pdfrwt beam="1">  1       21 0.83194923E-01 0.10228777E+04</pdfrwt>
<pdfrwt beam="2">  1       21 0.30172881E+00 0.10228777E+04</pdfrwt>
<totfact> 0.16468178E+01</totfact>
</mgrwt>
</event>
<event>
 8    1  0.7208583E-006  0.1109040E+04  0.7818608E-02  0.8680090E-01
         21   -1    0    0  501  502  0.00000000000E+00  0.00000000000E+00  0.13699155878E+04  0.13699155878E+04  0.00000000000E+00 0. -1.
         21   -1    0    0  502  503 -0.00000000000E+00 -0.00000000000E+00 -0.89542311044E+03  0.89542311044E+03  0.00000000000E+00 0. -1.
    9000010    2    1    2  501    0  0.37170763775E+03 -0.33418792375E+03  0.31526107025E+03  0.11529784908E+04  0.99001097037E+03 0.  0.
   -9000010    2    1    2    0  503 -0.37170763775E+03  0.33418792375E+03  0.15923140712E+03  0.11123602075E+04  0.98088860417E+03 0.  0.
        -13    1    3    3    0    0  0.41768546041E+03 -0.40244333724E+03 -0.21333997259E+03  0.61800949717E+03  0.10566000000E+00 0.  1.
          4    1    3    3  501    0 -0.45977822663E+02  0.68255413485E+02  0.52860104283E+03  0.53496899362E+03  0.00000000000E+00 0.  1.
         13    1    4    4    0    0 -0.32164370013E+03 -0.84748190019E+02 -0.32847801978E+03  0.46747700071E+03  0.10566000000E+00 0. -1.
         -4    1    4    4    0  503 -0.50063937611E+02  0.41893611377E+03  0.48770942690E+03  0.64488320675E+03  0.00000000000E+00 0. -1.
<mgrwt>
<rscale>  2 0.11070005E+04</rscale>
<asrwt>0</asrwt>
<pdfrwt beam="1">  1       21 0.21075624E+00 0.11090401E+04</pdfrwt>
<pdfrwt beam="2">  1       21 0.13775740E+00 0.11090401E+04</pdfrwt>
<totfact> 0.19017890E+01</totfact>
</mgrwt>
</event>
<event>
 8    1  0.7208583E-006  0.1029482E+04  0.7818608E-02  0.8749694E-01
         21   -1    0    0  501  502  0.00000000000E+00  0.00000000000E+00  0.24338040123E+04  0.24338040123E+04  0.00000000000E+00 0. -1.
         21   -1    0    0  502  503 -0.00000000000E+00 -0.00000000000E+00 -0.44774453923E+03  0.44774453923E+03  0.00000000000E+00 0. -1.
    9000010    2    1    2  501    0 -0.62215274685E+02 -0.21630471065E+03  0.12654942316E+04  0.16249467987E+04  0.99414183092E+03 0.  0.
   -9000010    2    1    2    0  503  0.62215274685E+02  0.21630471065E+03  0.72056524145E+03  0.12566017529E+04  0.10045771398E+04 0.  0.
        -13    1    3    3    0    0 -0.74580825367E+02 -0.11224824192E+02 -0.16413305703E+03  0.18063213381E+03  0.10566000000E+00 0.  1.
          4    1    3    3  501    0  0.12365550682E+02 -0.20507988646E+03  0.14296272886E+04  0.14443146648E+04  0.00000000000E+00 0.  1.
         13    1    4    4    0    0 -0.17103640247E+03  0.57578321885E+03  0.40528412383E+03  0.72459298801E+03  0.10566000000E+00 0. -1.
         -4    1    4    4    0  503  0.23325167716E+03 -0.35947850820E+03  0.31528111763E+03  0.53200876486E+03  0.00000000000E+00 0. -1.
<mgrwt>
<rscale>  2 0.10269277E+04</rscale>
<asrwt>0</asrwt>
<pdfrwt beam="1">  1       21 0.37443138E+00 0.10294822E+04</pdfrwt>
<pdfrwt beam="2">  1       21 0.68883777E-01 0.10294822E+04</pdfrwt>
<totfact> 0.80004896E+00</totfact>
</mgrwt>
</event>
<event>
 8    1  0.7208583E-006  0.1026345E+04  0.7818608E-02  0.8783297E-01
         21   -1    0    0  503  502  0.00000000000E+00  0.00000000000E+00  0.16361299394E+04  0.16361299394E+04  0.00000000000E+00 0. -1.
         21   -1    0    0  501  503 -0.00000000000E+00 -0.00000000000E+00 -0.73366298608E+03  0.73366298608E+03  0.00000000000E+00 0. -1.
    9000010    2    1    2  501    0  0.15108124741E+03 -0.84944831734E+02 -0.96633748630E+02  0.10308836824E+04  0.10116036365E+04 0.  0.
   -9000010    2    1    2    0  502 -0.15108124741E+03  0.84944831734E+02  0.99910070195E+03  0.13389092431E+04  0.87431949588E+03 0.  0.
        -13    1    3    3    0    0  0.21405576938E+03  0.33606909434E+03  0.25980218965E+03  0.47566742319E+03  0.10566000000E+00 0.  1.
          4    1    3    3  501    0 -0.62974521964E+02 -0.42101392607E+03 -0.35643593828E+03  0.55521625918E+03  0.00000000000E+00 0.  1.
         13    1    4    4    0    0 -0.33176625192E+03 -0.97865896719E+02  0.42645382162E+02  0.34851860702E+03  0.10566000000E+00 0. -1.
         -4    1    4    4    0  502  0.18068500451E+03  0.18281072845E+03  0.95645531978E+03  0.99039063608E+03  0.00000000000E+00 0. -1.
<mgrwt>
<rscale>  2 0.99078622E+03</rscale>
<asrwt>0</asrwt>
<pdfrwt beam="1">  1       21 0.25171230E+00 0.10263445E+04</pdfrwt>
<pdfrwt beam="2">  1       21 0.11287123E+00 0.10263445E+04</pdfrwt>
<totfact> 0.16932572E+01</totfact>
</mgrwt>
</event>
<event>
 8    1  0.7208583E-006  0.1039682E+04  0.7818608E-02  0.8743670E-01
         21   -1    0    0  503  502  0.00000000000E+00  0.00000000000E+00  0.10258577307E+04  0.10258577307E+04  0.00000000000E+00 0.  1.
         21   -1    0    0  501  503 -0.00000000000E+00 -0.00000000000E+00 -0.11475410649E+04  0.11475410649E+04  0.00000000000E+00 0.  1.
    9000010    2    1    2  501    0 -0.19982078054E+03 -0.82054548073E+02 -0.40901350679E+03  0.10947438387E+04  0.99222514099E+03 0.  0.
   -9000010    2    1    2    0  502  0.19982078054E+03  0.82054548073E+02  0.28733017259E+03  0.10786549569E+04  0.10169939010E+04 0.  0.
        -13    1    3    3    0    0  0.26452688746E+03 -0.18855920000E+03 -0.51292131106E+03  0.60713864034E+03  0.10566000000E+00 0.  1.
          4    1    3    3  501    0 -0.46434766800E+03  0.10650465193E+03  0.10390780427E+03  0.48760519834E+03  0.00000000000E+00 0.  1.
         13    1    4    4    0    0  0.32067107495E+03 -0.27871744123E+03 -0.19236656558E+03  0.46638852588E+03  0.10566000000E+00 0. -1.
         -4    1    4    4    0  502 -0.12085029441E+03  0.36077198930E+03  0.47969673816E+03  0.61226643100E+03  0.00000000000E+00 0. -1.
<mgrwt>
<rscale>  2 0.10335742E+04</rscale>
<asrwt>0</asrwt>
<pdfrwt beam="1">  1       21 0.15782427E+00 0.10396816E+04</pdfrwt>
<pdfrwt beam="2">  1       21 0.17654478E+00 0.10396816E+04</pdfrwt>
<totfact> 0.23783494E+01</totfact>
</mgrwt>
</event>
<event>
 8    1  0.7208583E-006  0.1029431E+04  0.7818608E-02  0.8754532E-01
         21   -1    0    0  503  502  0.00000000000E+00  0.00000000000E+00  0.66939168483E+03  0.66939168483E+03  0.00000000000E+00 0. -1.
         21   -1    0    0  501  503 -0.00000000000E+00 -0.00000000000E+00 -0.16732143519E+04  0.16732143519E+04  0.00000000000E+00 0. -1.
    9000010    2    1    2  501    0 -0.59905487929E+02  0.78367453026E+02 -0.15953269941E+03  0.10112332207E+04  0.99368597620E+03 0.  0.
   -9000010    2    1    2    0  502  0.59905487929E+02 -0.78367453026E+02 -0.84428996766E+03  0.13313728160E+04  0.10246940522E+04 0.  0.
        -13    1    3    3    0    0  0.44458651747E+03  0.56276201769E+01 -0.22330902707E+03  0.49754977074E+03  0.10566000000E+00 0.  1.
          4    1    3    3  501    0 -0.50449200540E+03  0.72739832849E+02  0.63776327661E+02  0.51368344996E+03  0.00000000000E+00 0.  1.
         13    1    4    4    0    0  0.36420221923E+03  0.93965552704E+02 -0.90168256204E+03  0.97698732614E+03  0.10566000000E+00 0. -1.
         -4    1    4    4    0  502 -0.30429673131E+03 -0.17233300573E+03  0.57392594382E+02  0.35438548988E+03  0.00000000000E+00 0. -1.
<mgrwt>
<rscale>  2 0.10216274E+04</rscale>
<asrwt>0</asrwt>
<pdfrwt beam="1">  1       21 0.10298334E+00 0.10294309E+04</pdfrwt>
<pdfrwt beam="2">  1       21 0.25741759E+00 0.10294309E+04</pdfrwt>
<totfact> 0.19684536E+01</totfact>
</mgrwt>
</event>
<event>
 8    1  0.7208583E-006  0.1006895E+04  0.7818608E-02  0.8769530E-01
         21   -1    0    0  503  502  0.00000000000E+00  0.00000000000E+00  0.87413355932E+03  0.87413355932E+03  0.00000000000E+00 0.  1.
         21   -1    0    0  501  503 -0.00000000000E+00 -0.00000000000E+00 -0.13879337495E+04  0.13879337495E+04  0.00000000000E+00 0.  1.
    9000010    2    1    2  501    0  0.34079250839E+02 -0.99611965397E+02 -0.72161939816E+03  0.12339490029E+04  0.99539522146E+03 0.  0.
   -9000010    2    1    2    0  502 -0.34079250839E+02  0.99611965397E+02  0.20781920800E+03  0.10281183059E+04  0.10013762973E+04 0.  0.
        -13    1    3    3    0    0 -0.13797109868E+03  0.23708557536E+03  0.12896300495E+03  0.30311229260E+03  0.10566000000E+00 0.  1.
          4    1    3    3  501    0  0.17205034952E+03 -0.33669754076E+03 -0.85058240311E+03  0.93083671028E+03  0.00000000000E+00 0.  1.
         13    1    4    4    0    0 -0.43741812217E+03  0.92268010681E+02 -0.16723382200E+03  0.47729986568E+03  0.10566000000E+00 0. -1.
         -4    1    4    4    0  502  0.40333887133E+03  0.73439547155E+01  0.37505303000E+03  0.55081844024E+03  0.00000000000E+00 0. -1.
<mgrwt>
<rscale>  2 0.10054051E+04</rscale>
<asrwt>0</asrwt>
<pdfrwt beam="1">  1       21 0.13448209E+00 0.10068954E+04</pdfrwt>
<pdfrwt beam="2">  1       21 0.21352827E+00 0.10068954E+04</pdfrwt>
<totfact> 0.19898340E+01</totfact>
</mgrwt>
</event>
<event>
 8    1  0.7208583E-006  0.1013513E+04  0.7818608E-02  0.8762704E-01
         21   -1    0    0  501  502  0.00000000000E+00  0.00000000000E+00  0.10096665572E+04  0.10096665572E+04  0.00000000000E+00 0.  1.
         21   -1    0    0  502  503 -0.00000000000E+00 -0.00000000000E+00 -0.10610391457E+04  0.10610391457E+04  0.00000000000E+00 0.  1.
    9000010    2    1    2  501    0 -0.99342903862E+02  0.60235066930E+02  0.19154406065E+03  0.10314542792E+04  0.10068324225E+04 0.  0.
   -9000010    2    1    2    0  503  0.99342903862E+02 -0.60235066930E+02 -0.24291664914E+03  0.10392514236E+04  0.10037617981E+04 0.  0.
        -13    1    3    3    0    0 -0.24867457324E+03  0.32787173599E+03  0.46484175565E+03  0.62081944847E+03  0.10566000000E+00 0.  1.
          4    1    3    3  501    0  0.14933166938E+03 -0.26763666907E+03 -0.27329769500E+03  0.41063483072E+03  0.00000000000E+00 0.  1.
         13    1    4    4    0    0  0.45621032718E+03  0.11225780895E+03  0.13784830381E+03  0.48962418683E+03  0.10566000000E+00 0. -1.
         -4    1    4    4    0  503 -0.35686742332E+03 -0.17249287588E+03 -0.38076495295E+03  0.54962723682E+03  0.00000000000E+00 0. -1.
<mgrwt>
<rscale>  2 0.10127497E+04</rscale>
<asrwt>0</asrwt>
<pdfrwt beam="1">  1       21 0.15533332E+00 0.10135131E+04</pdfrwt>
<pdfrwt beam="2">  1       21 0.16323679E+00 0.10135131E+04</pdfrwt>
<totfact> 0.32518934E+01</totfact>
</mgrwt>
</event>
<event>
 8    1  0.7208583E-006  0.1042035E+04  0.7818608E-02  0.8738097E-01
         21   -1    0    0  503  502  0.00000000000E+00  0.00000000000E+00  0.11173484290E+04  0.11173484290E+04  0.00000000000E+00 0.  1.
         21   -1    0    0  501  503 -0.00000000000E+00 -0.00000000000E+00 -0.99607237950E+03  0.99607237950E+03  0.00000000000E+00 0.  1.
    9000010    2    1    2  501    0  0.43045208787E+02  0.30700665331E+03 -0.13103443865E+03  0.10412743283E+04  0.98538125996E+03 0.  0.
   -9000010    2    1    2    0  502 -0.43045208787E+02 -0.30700665331E+03  0.25231048813E+03  0.10721464802E+04  0.99485251036E+03 0.  0.
        -13    1    3    3    0    0  0.20377619570E+03  0.15196851532E+03  0.39504070966E+03  0.46976200467E+03  0.10566000000E+00 0.  1.
          4    1    3    3  501    0 -0.16073098692E+03  0.15503813799E+03 -0.52607514831E+03  0.57151232363E+03  0.00000000000E+00 0.  1.
         13    1    4    4    0    0  0.45051354036E+03 -0.88360133881E+02 -0.35365422249E+02  0.46045704204E+03  0.10566000000E+00 0. -1.
         -4    1    4    4    0  502 -0.49355874915E+03 -0.21864651943E+03  0.28767591037E+03  0.61168943814E+03  0.00000000000E+00 0. -1.
<mgrwt>
<rscale>  2 0.10397682E+04</rscale>
<asrwt>0</asrwt>
<pdfrwt beam="1">  1       21 0.17189976E+00 0.10420353E+04</pdfrwt>
<pdfrwt beam="2">  1       21 0.15324190E+00 0.10420353E+04</pdfrwt>
<totfact> 0.28486653E+01</totfact>
</mgrwt>
</event>
<event>
 8    1  0.7208583E-006  0.1009175E+04  0.7818608E-02  0.8770228E-01
         21   -1    0    0  503  502  0.00000000000E+00  0.00000000000E+00  0.10475936053E+04  0.10475936053E+04  0.00000000000E+00 0.  1.
         21   -1    0    0  501  503 -0.00000000000E+00 -0.00000000000E+00 -0.10255932047E+04  0.10255932047E+04  0.00000000000E+00 0.  1.
    9000010    2    1    2  501    0 -0.14273102766E+03  0.35954516656E+02 -0.26113889307E+03  0.10250446134E+04  0.98023367852E+03 0.  0.
   -9000010    2    1    2    0  502  0.14273102766E+03 -0.35954516656E+02  0.28313929370E+03  0.10481421966E+04  0.99838335878E+03 0.  0.
        -13    1    3    3    0    0  0.16777325532E+03 -0.37092729511E+03 -0.30884654826E+03  0.51100012230E+03  0.10566000000E+00 0.  1.
          4    1    3    3  501    0 -0.31050428298E+03  0.40688181176E+03  0.47707655186E+02  0.51404449112E+03  0.00000000000E+00 0.  1.
         13    1    4    4    0    0 -0.16917409438E+03  0.40762982824E+03  0.11137064995E+02  0.44148159244E+03  0.10566000000E+00 0. -1.
         -4    1    4    4    0  502  0.31190512203E+03 -0.44358434490E+03  0.27200222870E+03  0.60666060414E+03  0.00000000000E+00 0. -1.
<mgrwt>
<rscale>  2 0.10046567E+04</rscale>
<asrwt>0</asrwt>
<pdfrwt beam="1">  1       21 0.16116825E+00 0.10091750E+04</pdfrwt>
<pdfrwt beam="2">  1       21 0.15778357E+00 0.10091750E+04</pdfrwt>
<totfact> 0.32281732E+01</totfact>
</mgrwt>
</event>
<event>
 8    1  0.7208583E-006  0.1004367E+04  0.7818608E-02  0.8776558E-01
         21   -1    0    0  503  502  0.00000000000E+00  0.00000000000E+00  0.80743118385E+03  0.80743118385E+03  0.00000000000E+00 0.  1.
         21   -1    0    0  501  503 -0.00000000000E+00 -0.00000000000E+00 -0.13106127248E+04  0.13106127248E+04  0.00000000000E+00 0.  1.
    9000010    2    1    2  501    0 -0.69330213339E+02  0.15304512848E+02  0.27314436732E+02  0.10047382218E+04  0.10018542356E+04 0.  0.
   -9000010    2    1    2    0  502  0.69330213339E+02 -0.15304512848E+02 -0.53049597765E+03  0.11133056868E+04  0.97620830942E+03 0.  0.
        -13    1    3    3    0    0 -0.45055340054E+03  0.14352046969E+03 -0.23146663044E+03  0.52647251033E+03  0.10566000000E+00 0.  1.
          4    1    3    3  501    0  0.38122318720E+03 -0.12821595685E+03  0.25878106717E+03  0.47826571148E+03  0.00000000000E+00 0.  1.
         13    1    4    4    0    0  0.83896645789E+02 -0.22144901814E+02 -0.81938613751E+03  0.82396765553E+03  0.10566000000E+00 0. -1.
         -4    1    4    4    0  502 -0.14566432450E+02  0.68403889653E+01  0.28889015987E+03  0.28933803128E+03  0.00000000000E+00 0. -1.
<mgrwt>
<rscale>  2 0.99790985E+03</rscale>
<asrwt>0</asrwt>
<pdfrwt beam="1">  1       21 0.12422018E+00 0.10043669E+04</pdfrwt>
<pdfrwt beam="2">  1       21 0.20163273E+00 0.10043669E+04</pdfrwt>
<totfact> 0.30888547E+01</totfact>
</mgrwt>
</event>
<event>
 8    1  0.7208583E-006  0.1039037E+04  0.7818608E-02  0.8738921E-01
         21   -1    0    0  501  502  0.00000000000E+00  0.00000000000E+00  0.12442931629E+04  0.12442931629E+04  0.00000000000E+00 0.  1.
         21   -1    0    0  502  503 -0.00000000000E+00 -0.00000000000E+00 -0.90754277272E+03  0.90754277272E+03  0.00000000000E+00 0.  1.
    9000010    2    1    2  501    0  0.10235200599E+03  0.25777663708E+03  0.39568258581E+03  0.11111294927E+04  0.10005595000E+04 0.  0.
   -9000010    2    1    2    0  503 -0.10235200599E+03 -0.25777663708E+03 -0.58932195627E+02  0.10407064429E+04  0.10013351931E+04 0.  0.
        -13    1    3    3    0    0  0.16442338650E+03  0.17037789767E+03 -0.31407187307E+03  0.39332534963E+03  0.10566000000E+00 0.  1.
          4    1    3    3  501    0 -0.62071380515E+02  0.87398739402E+02  0.70975445888E+03  0.71780414308E+03  0.00000000000E+00 0.  1.
         13    1    4    4    0    0  0.37380006566E+03 -0.55262562656E+02  0.23562673459E+03  0.44530934095E+03  0.10566000000E+00 0. -1.
         -4    1    4    4    0  503 -0.47615207165E+03 -0.20251407442E+03 -0.29455893021E+03  0.59539710197E+03  0.00000000000E+00 0. -1.
<mgrwt>
<rscale>  2 0.10388496E+04</rscale>
<asrwt>0</asrwt>
<pdfrwt beam="1">  1       21 0.19142972E+00 0.10390365E+04</pdfrwt>
<pdfrwt beam="2">  1       21 0.13962196E+00 0.10390365E+04</pdfrwt>
<totfact> 0.26248833E+01</totfact>
</mgrwt>
</event>
<event>
 8    1  0.7208583E-006  0.1119529E+04  0.7818608E-02  0.8670977E-01
         21   -1    0    0  503  502  0.00000000000E+00  0.00000000000E+00  0.20630513682E+04  0.20630513682E+04  0.00000000000E+00 0.  1.
         21   -1    0    0  501  503 -0.00000000000E+00 -0.00000000000E+00 -0.67391831666E+03  0.67391831666E+03  0.00000000000E+00 0.  1.
    9000010    2    1    2  501    0 -0.35831724455E+02  0.48849287217E+03  0.25304770404E+03  0.11419667776E+04  0.10000728883E+04 0.  0.
   -9000010    2    1    2    0  502  0.35831724455E+02 -0.48849287217E+03  0.11360853475E+04  0.15950029073E+04  0.10066951668E+04 0.  0.
        -13    1    3    3    0    0 -0.25819810862E+03 -0.13620673976E+03  0.36721805493E+03  0.46911368588E+03  0.10566000000E+00 0.  1.
          4    1    3    3  501    0  0.22236638416E+03  0.62469961193E+03 -0.11417035089E+03  0.67285309167E+03  0.00000000000E+00 0.  1.
         13    1    4    4    0    0  0.81689503996E+02 -0.73953040928E+03  0.46586498223E+03  0.87784314895E+03  0.10566000000E+00 0. -1.
         -4    1    4    4    0  502 -0.45857779542E+02  0.25103753711E+03  0.67022036523E+03  0.71715975832E+03  0.00000000000E+00 0. -1.
<mgrwt>
<rscale>  2 0.11180379E+04</rscale>
<asrwt>0</asrwt>
<pdfrwt beam="1">  1       21 0.31739251E+00 0.11195286E+04</pdfrwt>
<pdfrwt beam="2">  1       21 0.10367974E+00 0.11195286E+04</pdfrwt>
<totfact> 0.70987975E+00</totfact>
</mgrwt>
</event>
<event>
 8    1  0.7208583E-006  0.1020709E+04  0.7818608E-02  0.8758276E-01
         21   -1    0    0  503  502  0.00000000000E+00  0.00000000000E+00  0.90818479727E+03  0.90818479727E+03  0.00000000000E+00 0. -1.
         21   -1    0    0  501  503 -0.00000000000E+00 -0.00000000000E+00 -0.11534573603E+04  0.11534573603E+04  0.00000000000E+00 0. -1.
    9000010    2    1    2  501    0 -0.46877170235E+02  0.75902041381E+02 -0.26040479460E+03  0.10534029897E+04  0.10168031336E+04 0.  0.
   -9000010    2    1    2    0  502  0.46877170235E+02 -0.75902041381E+02  0.15132231564E+02  0.10082391679E+04  0.10041706261E+04 0.  0.
        -13    1    3    3    0    0 -0.19704893975E+03 -0.32143161637E+03 -0.45100304076E+03  0.58783528526E+03  0.10566000000E+00 0.  1.
          4    1    3    3  501    0  0.15017176951E+03  0.39733365775E+03  0.19059824616E+03  0.46556770440E+03  0.00000000000E+00 0.  1.
         13    1    4    4    0    0  0.38764735147E+02  0.14810972812E+03 -0.45896159341E+03  0.48382326489E+03  0.10566000000E+00 0. -1.
         -4    1    4    4    0  502  0.81124350883E+01 -0.22401176950E+03  0.47409382498E+03  0.52441590304E+03  0.00000000000E+00 0. -1.
<mgrwt>
<rscale>  2 0.10175486E+04</rscale>
<asrwt>0</asrwt>
<pdfrwt beam="1">  1       21 0.13972074E+00 0.10207092E+04</pdfrwt>
<pdfrwt beam="2">  1       21 0.17745498E+00 0.10207092E+04</pdfrwt>
<totfact> 0.34105746E+01</totfact>
</mgrwt>
</event>
<event>
 8    1  0.7208583E-006  0.1012457E+04  0.7818608E-02  0.8763097E-01
         21   -1    0    0  501  502  0.00000000000E+00  0.00000000000E+00  0.14576669369E+04  0.14576669369E+04  0.00000000000E+00 0.  1.
         21   -1    0    0  502  503 -0.00000000000E+00 -0.00000000000E+00 -0.75029331836E+03  0.75029331836E+03  0.00000000000E+00 0.  1.
    9000010    2    1    2  501    0 -0.49473442731E+02 -0.84252241568E+02  0.63118339629E+03  0.11926405958E+04  0.10072006003E+04 0.  0.
   -9000010    2    1    2    0  503  0.49473442731E+02  0.84252241568E+02  0.76190222285E+02  0.10153196595E+04  0.10077316107E+04 0.  0.
        -13    1    3    3    0    0  0.36378724850E+03  0.28093599120E+03  0.26341205069E+03  0.52976609267E+03  0.10566000000E+00 0.  1.
          4    1    3    3  501    0 -0.41326069124E+03 -0.36518823277E+03  0.36777134560E+03  0.66287450314E+03  0.00000000000E+00 0.  1.
         13    1    4    4    0    0  0.52079729877E+03  0.13317860773E+03  0.17481022133E+02  0.53784009265E+03  0.10566000000E+00 0. -1.
         -4    1    4    4    0  503 -0.47132385604E+03 -0.48926366159E+02  0.58709200152E+02  0.47747956685E+03  0.00000000000E+00 0. -1.
<mgrwt>
<rscale>  2 0.10123248E+04</rscale>
<asrwt>0</asrwt>
<pdfrwt beam="1">  1       21 0.22425645E+00 0.10124569E+04</pdfrwt>
<pdfrwt beam="2">  1       21 0.11542974E+00 0.10124569E+04</pdfrwt>
<totfact> 0.25443057E+01</totfact>
</mgrwt>
</event>
<event>
 8    1  0.7208583E-006  0.1050696E+04  0.7818608E-02  0.8729236E-01
         21   -1    0    0  503  502  0.00000000000E+00  0.00000000000E+00  0.24248035930E+04  0.24248035930E+04  0.00000000000E+00 0.  1.
         21   -1    0    0  501  503 -0.00000000000E+00 -0.00000000000E+00 -0.74654689468E+03  0.74654689468E+03  0.00000000000E+00 0.  1.
    9000010    2    1    2  501    0  0.26281785481E+03  0.19515013621E+03 -0.15517117418E+03  0.10581963453E+04  0.99425580783E+03 0.  0.
   -9000010    2    1    2    0  502 -0.26281785481E+03 -0.19515013621E+03  0.18334278725E+04  0.21131541424E+04  0.99840165537E+03 0.  0.
        -13    1    3    3    0    0  0.54147312851E+02 -0.99189143325E+02 -0.52765372337E+03  0.53961919961E+03  0.10566000000E+00 0.  1.
          4    1    3    3  501    0  0.20867054196E+03  0.29433927954E+03  0.37248254919E+03  0.51857714567E+03  0.00000000000E+00 0.  1.
         13    1    4    4    0    0 -0.12030714047E+03 -0.78179900244E+02 -0.97482977581E+02  0.17346137015E+03  0.10566000000E+00 0. -1.
         -4    1    4    4    0  502 -0.14251071433E+03 -0.11697023597E+03  0.19309108501E+04  0.19396927723E+04  0.00000000000E+00 0. -1.
<mgrwt>
<rscale>  2 0.10497102E+04</rscale>
<asrwt>0</asrwt>
<pdfrwt beam="1">  1       21 0.37304670E+00 0.10506963E+04</pdfrwt>
<pdfrwt beam="2">  1       21 0.11485337E+00 0.10506963E+04</pdfrwt>
<totfact> 0.22241996E+00</totfact>
</mgrwt>
</event>
<event>
 8    1  0.7208583E-006  0.1051636E+04  0.7818608E-02  0.8733563E-01
         21   -1    0    0  503  502  0.00000000000E+00  0.00000000000E+00  0.11645612718E+04  0.11645612718E+04  0.00000000000E+00 0. -1.
         21   -1    0    0  501  503 -0.00000000000E+00 -0.00000000000E+00 -0.11822834685E+04  0.11822834685E+04  0.00000000000E+00 0. -1.
    9000010    2    1    2  501    0  0.13551480326E+03 -0.18278409976E+03 -0.55558242710E+03  0.11656457782E+04  0.99914161049E+03 0.  0.
   -9000010    2    1    2    0  502 -0.13551480326E+03  0.18278409976E+03  0.53786023039E+03  0.11811989621E+04  0.10267244380E+04 0.  0.
        -13    1    3    3    0    0 -0.42505145232E+03 -0.14809388469E+03 -0.33983802176E+03  0.56399506026E+03  0.10566000000E+00 0.  1.
          4    1    3    3  501    0  0.56056625558E+03 -0.34690215073E+02 -0.21574440534E+03  0.60165071790E+03  0.00000000000E+00 0.  1.
         13    1    4    4    0    0  0.27762936910E+03 -0.12320666095E+03  0.59085574516E+03  0.66435568082E+03  0.10566000000E+00 0. -1.
         -4    1    4    4    0  502 -0.41314417236E+03  0.30599076071E+03 -0.52995514772E+02  0.51684328126E+03  0.00000000000E+00 0. -1.
<mgrwt>
<rscale>  2 0.10448420E+04</rscale>
<asrwt>0</asrwt>
<pdfrwt beam="1">  1       21 0.17916327E+00 0.10516356E+04</pdfrwt>
<pdfrwt beam="2">  1       21 0.18188976E+00 0.10516356E+04</pdfrwt>
<totfact> 0.14178365E+01</totfact>
</mgrwt>
</event>
<event>
 8    1  0.7208583E-006  0.1107603E+04  0.7818608E-02  0.8688434E-01
         21   -1    0    0  501  502  0.00000000000E+00  0.00000000000E+00  0.14197206340E+04  0.14197206340E+04  0.00000000000E+00 0. -1.
         21   -1    0    0  502  503 -0.00000000000E+00 -0.00000000000E+00 -0.90655009084E+03  0.90655009084E+03  0.00000000000E+00 0. -1.
    9000010    2    1    2  501    0 -0.39883525230E+03  0.10491018593E+02  0.59499747076E+03  0.12573015274E+04  0.10332499797E+04 0.  0.
   -9000010    2    1    2    0  503  0.39883525230E+03 -0.10491018593E+02 -0.81826927626E+02  0.10689691974E+04  0.98834198483E+03 0.  0.
        -13    1    3    3    0    0 -0.70765406762E+03  0.20621934892E+03  0.34122580301E+03  0.81224119515E+03  0.10566000000E+00 0.  1.
          4    1    3    3  501    0  0.30881881532E+03 -0.19572833033E+03  0.25377166775E+03  0.44506033225E+03  0.00000000000E+00 0.  1.
         13    1    4    4    0    0  0.40372295254E+03  0.42677644397E+03 -0.19191415275E+03  0.61803026522E+03  0.10566000000E+00 0. -1.
         -4    1    4    4    0  503 -0.48877002379E+01 -0.43726746257E+03  0.11008722512E+03  0.45093893219E+03  0.00000000000E+00 0. -1.
<mgrwt>
<rscale>  2 0.10970097E+04</rscale>
<asrwt>0</asrwt>
<pdfrwt beam="1">  1       21 0.21841856E+00 0.11076033E+04</pdfrwt>
<pdfrwt beam="2">  1       21 0.13946924E+00 0.11076033E+04</pdfrwt>
<totfact> 0.16035263E+01</totfact>
</mgrwt>
</event>
<event>
 8    1  0.7208583E-006  0.1037947E+04  0.7818608E-02  0.8744692E-01
         21   -1    0    0  501  502  0.00000000000E+00  0.00000000000E+00  0.11292538724E+04  0.11292538724E+04  0.00000000000E+00 0.  1.
         21   -1    0    0  502  503 -0.00000000000E+00 -0.00000000000E+00 -0.10455538169E+04  0.10455538169E+04  0.00000000000E+00 0.  1.
    9000010    2    1    2  501    0  0.15607310384E+03  0.15709257765E+03  0.39654004537E+03  0.10907401790E+04  0.99168202502E+03 0.  0.
   -9000010    2    1    2    0  503 -0.15607310384E+03 -0.15709257765E+03 -0.31283998990E+03  0.10840675103E+04  0.10140496122E+04 0.  0.
        -13    1    3    3    0    0 -0.41523698399E+03 -0.18301905697E+02  0.20293149641E+03  0.46253423227E+03  0.10566000000E+00 0.  1.
          4    1    3    3  501    0  0.57131008783E+03  0.17539448334E+03  0.19360854896E+03  0.62820594670E+03  0.00000000000E+00 0.  1.
         13    1    4    4    0    0 -0.33503413586E+03  0.26996115623E+02 -0.60686239752E+03  0.69372807579E+03  0.10566000000E+00 0. -1.
         -4    1    4    4    0  503  0.17896103202E+03 -0.18408869327E+03  0.29402240762E+03  0.39033943454E+03  0.00000000000E+00 0. -1.
<mgrwt>
<rscale>  2 0.10324428E+04</rscale>
<asrwt>0</asrwt>
<pdfrwt beam="1">  1       21 0.17373136E+00 0.10379468E+04</pdfrwt>
<pdfrwt beam="2">  1       21 0.16085443E+00 0.10379468E+04</pdfrwt>
<totfact> 0.23631230E+01</totfact>
</mgrwt>
</event>
<event>
 8    1  0.7208583E-006  0.1060416E+04  0.7818608E-02  0.8722929E-01
         21   -1    0    0  501  502  0.00000000000E+00  0.00000000000E+00  0.96462005449E+03  0.96462005449E+03  0.00000000000E+00 0. -1.
         21   -1    0    0  502  503 -0.00000000000E+00 -0.00000000000E+00 -0.11935551015E+04  0.11935551015E+04  0.00000000000E+00 0. -1.
    9000010    2    1    2  501    0  0.10321255550E+03 -0.33242629992E+03  0.91924098171E+02  0.10502792874E+04  0.98664910943E+03 0.  0.
   -9000010    2    1    2    0  503 -0.10321255550E+03  0.33242629992E+03 -0.32085914518E+03  0.11078958686E+04  0.10016599164E+04 0.  0.
        -13    1    3    3    0    0 -0.84339383400E+02 -0.65876191325E+03  0.11124862107E+03  0.67339190431E+03  0.10566000000E+00 0.  1.
          4    1    3    3  501    0  0.18755193890E+03  0.32633561333E+03 -0.19324522901E+02  0.37688738305E+03  0.00000000000E+00 0.  1.
         13    1    4    4    0    0 -0.11737406487E+03 -0.35443200764E+03 -0.11815010197E+03  0.39160972524E+03  0.10566000000E+00 0. -1.
         -4    1    4    4    0  503  0.14161509371E+02  0.68685830756E+03 -0.20270904321E+03  0.71628614339E+03  0.00000000000E+00 0. -1.
<mgrwt>
<rscale>  2 0.10568565E+04</rscale>
<asrwt>0</asrwt>
<pdfrwt beam="1">  1       21 0.14840308E+00 0.10604163E+04</pdfrwt>
<pdfrwt beam="2">  1       21 0.18362386E+00 0.10604163E+04</pdfrwt>
<totfact> 0.25098533E+01</totfact>
</mgrwt>
</event>
<event>
 8    1  0.7208583E-006  0.1019143E+04  0.7818608E-02  0.8757153E-01
         21   -1    0    0  503  502  0.00000000000E+00  0.00000000000E+00  0.51799820083E+03  0.51799820083E+03  0.00000000000E+00 0. -1.
         21   -1    0    0  501  503 -0.00000000000E+00 -0.00000000000E+00 -0.22604539265E+04  0.22604539265E+04  0.00000000000E+00 0. -1.
    9000010    2    1    2  501    0  0.91289406128E+02  0.16488968169E+02 -0.40222082519E+03  0.10956429049E+04  0.10149118884E+04 0.  0.
   -9000010    2    1    2    0  502 -0.91289406128E+02 -0.16488968169E+02 -0.13402349005E+04  0.16828092224E+04  0.10134158321E+04 0.  0.
        -13    1    3    3    0    0 -0.22447861600E+03  0.37860618583E+03 -0.42874424069E+03  0.61445498458E+03  0.10566000000E+00 0.  1.
          4    1    3    3  501    0  0.31576802213E+03 -0.36211721766E+03  0.26523415495E+02  0.48118792036E+03  0.00000000000E+00 0.  1.
         13    1    4    4    0    0 -0.50312144885E+03  0.28468878597E+02 -0.36201435457E+03  0.62048051816E+03  0.10566000000E+00 0. -1.
         -4    1    4    4    0  502  0.41183204272E+03 -0.44957846766E+02 -0.97822054588E+03  0.10623287042E+04  0.00000000000E+00 0. -1.
<mgrwt>
<rscale>  2 0.10187700E+04</rscale>
<asrwt>0</asrwt>
<pdfrwt beam="1">  1       21 0.79692031E-01 0.10191427E+04</pdfrwt>
<pdfrwt beam="2">  1       21 0.34776214E+00 0.10191427E+04</pdfrwt>
<totfact> 0.86984966E+00</totfact>
</mgrwt>
</event>
<event>
 8    1  0.7208583E-006  0.1037710E+04  0.7818608E-02  0.8740521E-01
         21   -1    0    0  503  502  0.00000000000E+00  0.00000000000E+00  0.11835718745E+04  0.11835718745E+04  0.00000000000E+00 0.  1.
         21   -1    0    0  501  503 -0.00000000000E+00 -0.00000000000E+00 -0.10675280063E+04  0.10675280063E+04  0.00000000000E+00 0.  1.
    9000010    2    1    2  501    0  0.20179323211E+03  0.25716413107E+03 -0.37759662589E+03  0.11042742359E+04  0.98487993046E+03 0.  0.
   -9000010    2    1    2    0  502 -0.20179323211E+03 -0.25716413107E+03  0.49364049410E+03  0.11468256449E+04  0.98217830542E+03 0.  0.
        -13    1    3    3    0    0  0.52021892283E+03  0.60318871499E+02  0.61447753531E+02  0.52729681538E+03  0.10566000000E+00 0.  1.
          4    1    3    3  501    0 -0.31842569072E+03  0.19684525957E+03 -0.43904437942E+03  0.57697742055E+03  0.00000000000E+00 0.  1.
         13    1    4    4    0    0  0.19232696402E+03 -0.43950186311E+03 -0.12527273519E+02  0.47990467024E+03  0.10566000000E+00 0. -1.
         -4    1    4    4    0  502 -0.39412019613E+03  0.18233773204E+03  0.50616776762E+03  0.66692097470E+03  0.00000000000E+00 0. -1.
<mgrwt>
<rscale>  2 0.10370686E+04</rscale>
<asrwt>0</asrwt>
<pdfrwt beam="1">  1       21 0.18208798E+00 0.10377102E+04</pdfrwt>
<pdfrwt beam="2">  1       21 0.16423508E+00 0.10377102E+04</pdfrwt>
<totfact> 0.18879277E+01</totfact>
</mgrwt>
</event>
<event>
 8    1  0.7208583E-006  0.1002643E+04  0.7818608E-02  0.8776538E-01
         21   -1    0    0  501  502  0.00000000000E+00  0.00000000000E+00  0.10963478224E+04  0.10963478224E+04  0.00000000000E+00 0.  1.
         21   -1    0    0  502  503 -0.00000000000E+00 -0.00000000000E+00 -0.94836622606E+03  0.94836622606E+03  0.00000000000E+00 0.  1.
    9000010    2    1    2  501    0 -0.45481264201E+02  0.50277432944E+02 -0.15642860896E+03  0.10147721311E+04  0.10003480408E+04 0.  0.
   -9000010    2    1    2    0  503  0.45481264201E+02 -0.50277432944E+02  0.30441020535E+03  0.10299419174E+04  0.98158973837E+03 0.  0.
        -13    1    3    3    0    0  0.44001230121E+03 -0.38638379564E+02 -0.25704297656E+03  0.51105269059E+03  0.10566000000E+00 0.  1.
          4    1    3    3  501    0 -0.48549356541E+03  0.88915812508E+02  0.10061436760E+03  0.50371944050E+03  0.00000000000E+00 0.  1.
         13    1    4    4    0    0  0.25812943585E+03  0.21560513838E+03  0.52555905938E+03  0.62396211215E+03  0.10566000000E+00 0. -1.
         -4    1    4    4    0  503 -0.21264817165E+03 -0.26588257132E+03 -0.22114885403E+03  0.40597980526E+03  0.00000000000E+00 0. -1.
<mgrwt>
<rscale>  2 0.99793104E+03</rscale>
<asrwt>0</asrwt>
<pdfrwt beam="1">  1       21 0.16866889E+00 0.10026428E+04</pdfrwt>
<pdfrwt beam="2">  1       21 0.14590250E+00 0.10026428E+04</pdfrwt>
<totfact> 0.35572823E+01</totfact>
</mgrwt>
</event>
<event>
 8    1  0.7208583E-006  0.1040796E+04  0.7818608E-02  0.8739356E-01
         21   -1    0    0  501  502  0.00000000000E+00  0.00000000000E+00  0.11813032764E+04  0.11813032764E+04  0.00000000000E+00 0.  1.
         21   -1    0    0  502  503 -0.00000000000E+00 -0.00000000000E+00 -0.11245001910E+04  0.11245001910E+04  0.00000000000E+00 0.  1.
    9000010    2    1    2  501    0 -0.19547891036E+03 -0.15637499184E+03  0.53380947635E+03  0.11697047406E+04  0.10102432780E+04 0.  0.
   -9000010    2    1    2    0  503  0.19547891036E+03  0.15637499184E+03 -0.47700639097E+03  0.11360987268E+04  0.10002600050E+04 0.  0.
        -13    1    3    3    0    0 -0.10362492425E+03  0.37917200537E+03  0.48480012295E+03  0.62413196117E+03  0.10566000000E+00 0.  1.
          4    1    3    3  501    0 -0.91853986115E+02 -0.53554699721E+03  0.49009353400E+02  0.54557277948E+03  0.00000000000E+00 0.  1.
         13    1    4    4    0    0  0.14252267986E+03  0.34762733110E+01 -0.77983059691E+03  0.79275505031E+03  0.10566000000E+00 0. -1.
         -4    1    4    4    0  503  0.52956230501E+02  0.15289871853E+03  0.30282420595E+03  0.34334367649E+03  0.00000000000E+00 0. -1.
<mgrwt>
<rscale>  2 0.10383658E+04</rscale>
<asrwt>0</asrwt>
<pdfrwt beam="1">  1       21 0.18173897E+00 0.10407961E+04</pdfrwt>
<pdfrwt beam="2">  1       21 0.17300003E+00 0.10407961E+04</pdfrwt>
<totfact> 0.16024131E+01</totfact>
</mgrwt>
</event>
<event>
 8    1  0.7208583E-006  0.1124456E+04  0.7818608E-02  0.8680643E-01
         21   -1    0    0  503  502  0.00000000000E+00  0.00000000000E+00  0.12383566807E+04  0.12383566807E+04  0.00000000000E+00 0.  1.
         21   -1    0    0  501  503 -0.00000000000E+00 -0.00000000000E+00 -0.11502341142E+04  0.11502341142E+04  0.00000000000E+00 0.  1.
    9000010    2    1    2  501    0  0.60244803616E+02  0.33991768444E+03 -0.44541460901E+03  0.11439774647E+04  0.99554849068E+03 0.  0.
   -9000010    2    1    2    0  502 -0.60244803616E+02 -0.33991768444E+03  0.53353717552E+03  0.12446133302E+04  0.10701527720E+04 0.  0.
        -13    1    3    3    0    0 -0.42646292230E+03  0.36967067290E+03 -0.27134385375E+03  0.62622242744E+03  0.10566000000E+00 0.  1.
          4    1    3    3  501    0  0.48670772592E+03 -0.29752988457E+02 -0.17407075526E+03  0.51775503728E+03  0.00000000000E+00 0.  1.
         13    1    4    4    0    0 -0.97638387163E+02 -0.72774595017E+03  0.36722030623E+03  0.82097392596E+03  0.10566000000E+00 0. -1.
         -4    1    4    4    0  502  0.37393583547E+02  0.38782826573E+03  0.16631686929E+03  0.42363940421E+03  0.00000000000E+00 0. -1.
<mgrwt>
<rscale>  2 0.11063341E+04</rscale>
<asrwt>0</asrwt>
<pdfrwt beam="1">  1       21 0.19051641E+00 0.11244556E+04</pdfrwt>
<pdfrwt beam="2">  1       21 0.17695909E+00 0.11244556E+04</pdfrwt>
<totfact> 0.12391743E+01</totfact>
</mgrwt>
</event>
<event>
 8    1  0.7208583E-006  0.1061800E+04  0.7818608E-02  0.8721927E-01
         21   -1    0    0  501  502  0.00000000000E+00  0.00000000000E+00  0.83067202576E+03  0.83067202576E+03  0.00000000000E+00 0.  1.
         21   -1    0    0  502  503 -0.00000000000E+00 -0.00000000000E+00 -0.22618395295E+04  0.22618395295E+04  0.00000000000E+00 0.  1.
    9000010    2    1    2  501    0  0.29011260605E+03  0.13102068777E+03  0.26958882376E+03  0.10954891596E+04  0.10129593378E+04 0.  0.
   -9000010    2    1    2    0  503 -0.29011260605E+03 -0.13102068777E+03 -0.17007563275E+04  0.19970223958E+04  0.99709308424E+03 0.  0.
        -13    1    3    3    0    0  0.19172558276E+03  0.14247167659E+03  0.65518742888E+03  0.69737182037E+03  0.10566000000E+00 0.  1.
          4    1    3    3  501    0  0.98387023285E+02 -0.11450988816E+02 -0.38559860512E+03  0.39811733919E+03  0.00000000000E+00 0.  1.
         13    1    4    4    0    0 -0.31605965450E+03 -0.53117202909E+03 -0.12449114035E+04  0.13899071348E+04  0.10566000000E+00 0. -1.
         -4    1    4    4    0  503  0.25947048452E+02  0.40015134132E+03 -0.45584492409E+03  0.60711526097E+03  0.00000000000E+00 0. -1.
<mgrwt>
<rscale>  2 0.10579978E+04</rscale>
<asrwt>0</asrwt>
<pdfrwt beam="1">  1       21 0.12779570E+00 0.10617996E+04</pdfrwt>
<pdfrwt beam="2">  1       21 0.34797531E+00 0.10617996E+04</pdfrwt>
<totfact> 0.24639723E+00</totfact>
</mgrwt>
</event>
<event>
 8    1  0.7208583E-006  0.1112409E+04  0.7818608E-02  0.8690456E-01
         21   -1    0    0  503  502  0.00000000000E+00  0.00000000000E+00  0.11234723727E+04  0.11234723727E+04  0.00000000000E+00 0.  1.
         21   -1    0    0  501  503 -0.00000000000E+00 -0.00000000000E+00 -0.11704647234E+04  0.11704647234E+04  0.00000000000E+00 0.  1.
    9000010    2    1    2  501    0 -0.41198732907E+02 -0.28948029368E+03  0.36773355746E+03  0.11716149332E+04  0.10732927869E+04 0.  0.
   -9000010    2    1    2    0  502  0.41198732907E+02  0.28948029368E+03 -0.41472590815E+03  0.11223221629E+04  0.10010560836E+04 0.  0.
        -13    1    3    3    0    0  0.26551254731E+01 -0.69914309096E+03  0.25817616422E+03  0.74529393817E+03  0.10566000000E+00 0.  1.
          4    1    3    3  501    0 -0.43853858380E+02  0.40966279728E+03  0.10955739324E+03  0.42632099501E+03  0.00000000000E+00 0.  1.
         13    1    4    4    0    0  0.41580658424E+03  0.15814618364E+03  0.11583141964E+03  0.45969800939E+03  0.10566000000E+00 0. -1.
         -4    1    4    4    0  502 -0.37460785134E+03  0.13133411004E+03 -0.53055732778E+03  0.66262415351E+03  0.00000000000E+00 0. -1.
<mgrwt>
<rscale>  2 0.10946051E+04</rscale>
<asrwt>0</asrwt>
<pdfrwt beam="1">  1       21 0.17284190E+00 0.11124089E+04</pdfrwt>
<pdfrwt beam="2">  1       21 0.18007150E+00 0.11124089E+04</pdfrwt>
<totfact> 0.16318815E+01</totfact>
</mgrwt>
</event>
<event>
 8    1  0.7208583E-006  0.1095959E+04  0.7818608E-02  0.8689985E-01
         21   -1    0    0  501  502  0.00000000000E+00  0.00000000000E+00  0.70742605241E+03  0.70742605241E+03  0.00000000000E+00 0. -1.
         21   -1    0    0  502  503 -0.00000000000E+00 -0.00000000000E+00 -0.22257312520E+04  0.22257312520E+04  0.00000000000E+00 0. -1.
    9000010    2    1    2  501    0 -0.24672769724E+03 -0.37193753011E+03 -0.14775116429E+04  0.18396104097E+04  0.10009564035E+04 0.  0.
   -9000010    2    1    2    0  503  0.24672769724E+03  0.37193753011E+03 -0.40793556696E+02  0.10935468947E+04  0.99748113452E+03 0.  0.
        -13    1    3    3    0    0 -0.24266645500E+03  0.28935253984E+03 -0.84032923530E+03  0.92128450305E+03  0.10566000000E+00 0.  1.
          4    1    3    3  501    0 -0.40612422471E+01 -0.66129006995E+03 -0.63718240757E+03  0.91832590665E+03  0.00000000000E+00 0.  1.
         13    1    4    4    0    0  0.29716869451E+03  0.59286437558E+03 -0.31802327202E+03  0.73548365961E+03  0.10566000000E+00 0. -1.
         -4    1    4    4    0  503 -0.50440997264E+02 -0.22092684547E+03  0.27722971533E+03  0.35806323508E+03  0.00000000000E+00 0. -1.
<mgrwt>
<rscale>  2 0.10951647E+04</rscale>
<asrwt>0</asrwt>
<pdfrwt beam="1">  1       21 0.10883478E+00 0.10959589E+04</pdfrwt>
<pdfrwt beam="2">  1       21 0.34242020E+00 0.10959589E+04</pdfrwt>
<totfact> 0.41806088E+00</totfact>
</mgrwt>
</event>
<event>
 8    1  0.7208583E-006  0.1006965E+04  0.7818608E-02  0.8775779E-01
         21   -1    0    0  501  502  0.00000000000E+00  0.00000000000E+00  0.16820953550E+04  0.16820953550E+04  0.00000000000E+00 0. -1.
         21   -1    0    0  502  503 -0.00000000000E+00 -0.00000000000E+00 -0.85613394723E+03  0.85613394723E+03  0.00000000000E+00 0. -1.
    9000010    2    1    2  501    0  0.30951972119E+02  0.34734028267E+02  0.11337060281E+04  0.15163335414E+04  0.10058894439E+04 0.  0.
   -9000010    2    1    2    0  503 -0.30951972119E+02 -0.34734028267E+02 -0.30774462031E+03  0.10218957609E+04  0.97334460364E+03 0.  0.
        -13    1    3    3    0    0  0.16887025474E+03 -0.38978639448E+03  0.17618175179E+03  0.45988109016E+03  0.10566000000E+00 0.  1.
          4    1    3    3  501    0 -0.13791828262E+03  0.42452042275E+03  0.95752427633E+03  0.10564524513E+04  0.00000000000E+00 0.  1.
         13    1    4    4    0    0 -0.39160662559E+01 -0.36338496488E+03  0.20125434001E+03  0.41541219146E+03  0.10566000000E+00 0. -1.
         -4    1    4    4    0  503 -0.27035905863E+02  0.32865093661E+03 -0.50899896033E+03  0.60648356940E+03  0.00000000000E+00 0. -1.
<mgrwt>
<rscale>  2 0.99873725E+03</rscale>
<asrwt>0</asrwt>
<pdfrwt beam="1">  1       21 0.25878390E+00 0.10069648E+04</pdfrwt>
<pdfrwt beam="2">  1       21 0.13171292E+00 0.10069648E+04</pdfrwt>
<totfact> 0.97917836E+00</totfact>
</mgrwt>
</event>
<event>
 8    1  0.7208583E-006  0.1030465E+04  0.7818608E-02  0.8750163E-01
         21   -1    0    0  503  502  0.00000000000E+00  0.00000000000E+00  0.39758935110E+03  0.39758935110E+03  0.00000000000E+00 0.  1.
         21   -1    0    0  501  503 -0.00000000000E+00 -0.00000000000E+00 -0.27207642362E+04  0.27207642362E+04  0.00000000000E+00 0.  1.
    9000010    2    1    2  501    0 -0.99680941486E+02  0.20629744738E+03 -0.14565398300E+04  0.17841991161E+04  0.10046707336E+04 0.  0.
   -9000010    2    1    2    0  502  0.99680941486E+02 -0.20629744738E+03 -0.86663505510E+03  0.13341544711E+04  0.98813810128E+03 0.  0.
        -13    1    3    3    0    0 -0.94793504406E+02  0.56207305471E+03 -0.48113472476E+03  0.74592396519E+03  0.10566000000E+00 0.  1.
          4    1    3    3  501    0 -0.48874370800E+01 -0.35577560733E+03 -0.97540510521E+03  0.10382751509E+04  0.00000000000E+00 0.  1.
         13    1    4    4    0    0  0.69376269112E+02  0.13579706493E+03 -0.96495005539E+03  0.97692503813E+03  0.10566000000E+00 0. -1.
         -4    1    4    4    0  502  0.30304672374E+02 -0.34209451230E+03  0.98315000291E+02  0.35722943300E+03  0.00000000000E+00 0. -1.
<mgrwt>
<rscale>  2 0.10264132E+04</rscale>
<asrwt>0</asrwt>
<pdfrwt beam="1">  1       21 0.61167591E-01 0.10304650E+04</pdfrwt>
<pdfrwt beam="2">  1       21 0.41857912E+00 0.10304650E+04</pdfrwt>
<totfact> 0.52024046E+00</totfact>
</mgrwt>
</event>
<event>
 8    1  0.7208583E-006  0.1018222E+04  0.7818608E-02  0.8760123E-01
         21   -1    0    0  501  502  0.00000000000E+00  0.00000000000E+00  0.11672985793E+04  0.11672985793E+04  0.00000000000E+00 0.  1.
         21   -1    0    0  502  503 -0.00000000000E+00 -0.00000000000E+00 -0.12724036692E+04  0.12724036692E+04  0.00000000000E+00 0.  1.
    9000010    2    1    2  501    0 -0.10844157145E+03 -0.10471528375E+03  0.62600670992E+03  0.11861872698E+04  0.99620829804E+03 0.  0.
   -9000010    2    1    2    0  503  0.10844157145E+03  0.10471528375E+03 -0.73111179986E+03  0.12535149787E+04  0.10070007313E+04 0.  0.
        -13    1    3    3    0    0  0.21082011584E+03 -0.42514473514E+03  0.86868090452E+02  0.48243055807E+03  0.10566000000E+00 0.  1.
          4    1    3    3  501    0 -0.31926168729E+03  0.32042945139E+03  0.53913861947E+03  0.70375671172E+03  0.00000000000E+00 0.  1.
         13    1    4    4    0    0  0.12708946882E+03  0.46322570959E+03 -0.49172448475E+02  0.48285373765E+03  0.10566000000E+00 0. -1.
         -4    1    4    4    0  503 -0.18647897371E+02 -0.35851042584E+03 -0.68193935139E+03  0.77066124107E+03  0.00000000000E+00 0. -1.
<mgrwt>
<rscale>  2 0.10155430E+04</rscale>
<asrwt>0</asrwt>
<pdfrwt beam="1">  1       21 0.17958440E+00 0.10182217E+04</pdfrwt>
<pdfrwt beam="2">  1       21 0.19575441E+00 0.10182217E+04</pdfrwt>
<totfact> 0.10985352E+01</totfact>
</mgrwt>
</event>
<event>
 8    1  0.7208583E-006  0.1012814E+04  0.7818608E-02  0.8766452E-01
         21   -1    0    0  501  502  0.00000000000E+00  0.00000000000E+00  0.69790090998E+03  0.69790090998E+03  0.00000000000E+00 0.  1.
         21   -1    0    0  502  503 -0.00000000000E+00 -0.00000000000E+00 -0.14619333879E+04  0.14619333879E+04  0.00000000000E+00 0.  1.
    9000010    2    1    2  501    0 -0.46653852398E+02 -0.70047524615E+02 -0.26703177541E+03  0.10316489610E+04  0.99293019497E+03 0.  0.
   -9000010    2    1    2    0  503  0.46653852398E+02  0.70047524615E+02 -0.49700070256E+03  0.11281853369E+04  0.10093112594E+04 0.  0.
        -13    1    3    3    0    0  0.34377267322E+02  0.43968153538E+03 -0.26694297244E+03  0.51551936022E+03  0.10566000000E+00 0.  1.
          4    1    3    3  501    0 -0.81031119720E+02 -0.50972905999E+03 -0.88802965891E-01  0.51612960082E+03  0.00000000000E+00 0.  1.
         13    1    4    4    0    0  0.43368930602E+03 -0.21957762447E+03 -0.85956616376E+02  0.49364896272E+03  0.10566000000E+00 0. -1.
         -4    1    4    4    0  503 -0.38703545363E+03  0.28962514909E+03 -0.41104408618E+03  0.63453637416E+03  0.00000000000E+00 0. -1.
<mgrwt>
<rscale>  2 0.10087084E+04</rscale>
<asrwt>0</asrwt>
<pdfrwt beam="1">  1       21 0.10736937E+00 0.10128141E+04</pdfrwt>
<pdfrwt beam="2">  1       21 0.22491283E+00 0.10128141E+04</pdfrwt>
<totfact> 0.30629788E+01</totfact>
</mgrwt>
</event>
<event>
 8    1  0.7208583E-006  0.1028564E+04  0.7818608E-02  0.8752998E-01
         21   -1    0    0  503  502  0.00000000000E+00  0.00000000000E+00  0.11026790493E+04  0.11026790493E+04  0.00000000000E+00 0. -1.
         21   -1    0    0  501  503 -0.00000000000E+00 -0.00000000000E+00 -0.98997092619E+03  0.98997092619E+03  0.00000000000E+00 0. -1.
    9000010    2    1    2  501    0 -0.99050120088E+01  0.12772599838E+03 -0.17912748139E+03  0.10234854909E+04  0.99951180857E+03 0.  0.
   -9000010    2    1    2    0  502  0.99050120088E+01 -0.12772599838E+03  0.29183560448E+03  0.10691644846E+04  0.10205550623E+04 0.  0.
        -13    1    3    3    0    0  0.13109934518E+03  0.40510651415E+03  0.24973976808E+03  0.49362768261E+03  0.10566000000E+00 0.  1.
          4    1    3    3  501    0 -0.14100435719E+03 -0.27738051577E+03 -0.42886724948E+03  0.52985780824E+03  0.00000000000E+00 0.  1.
         13    1    4    4    0    0 -0.24437662100E+03  0.73890125193E+02  0.58093152550E+03  0.63455585410E+03  0.10566000000E+00 0. -1.
         -4    1    4    4    0  502  0.25428163301E+03 -0.20161612357E+03 -0.28909592102E+03  0.43460863051E+03  0.00000000000E+00 0. -1.
<mgrwt>
<rscale>  2 0.10233052E+04</rscale>
<asrwt>0</asrwt>
<pdfrwt beam="1">  1       21 0.16964293E+00 0.10285644E+04</pdfrwt>
<pdfrwt beam="2">  1       21 0.15230322E+00 0.10285644E+04</pdfrwt>
<totfact> 0.30416809E+01</totfact>
</mgrwt>
</event>
<event>
 8    1  0.7208583E-006  0.1008772E+04  0.7818608E-02  0.8766704E-01
         21   -1    0    0  503  502  0.00000000000E+00  0.00000000000E+00  0.94079300831E+03  0.94079300831E+03  0.00000000000E+00 0. -1.
         21   -1    0    0  501  503 -0.00000000000E+00 -0.00000000000E+00 -0.14167674655E+04  0.14167674655E+04  0.00000000000E+00 0. -1.
    9000010    2    1    2  501    0 -0.98544296956E+02 -0.72431390985E+01 -0.81238004739E+03  0.12941741117E+04  0.10025776022E+04 0.  0.
   -9000010    2    1    2    0  502  0.98544296956E+02  0.72431390985E+01  0.33640559016E+03  0.10633863622E+04  0.10039215072E+04 0.  0.
        -13    1    3    3    0    0  0.27506235096E+03  0.11772110993E+03 -0.84740077065E+03  0.89866881214E+03  0.10566000000E+00 0.  1.
          4    1    3    3  501    0 -0.37360664792E+03 -0.12496424903E+03  0.35020723263E+02  0.39550529953E+03  0.00000000000E+00 0.  1.
         13    1    4    4    0    0  0.28976708886E+03  0.92305581021E+01 -0.28902543373E+03  0.40937254609E+03  0.10566000000E+00 0. -1.
         -4    1    4    4    0  502 -0.19122279190E+03 -0.19874190036E+01  0.62543102389E+03  0.65401381608E+03  0.00000000000E+00 0. -1.
<mgrwt>
<rscale>  2 0.10084379E+04</rscale>
<asrwt>0</asrwt>
<pdfrwt beam="1">  1       21 0.14473739E+00 0.10087724E+04</pdfrwt>
<pdfrwt beam="2">  1       21 0.21796423E+00 0.10087724E+04</pdfrwt>
<totfact> 0.14791171E+01</totfact>
</mgrwt>
</event>
<event>
 8    1  0.7208583E-006  0.1089225E+04  0.7818608E-02  0.8699231E-01
         21   -1    0    0  503  502  0.00000000000E+00  0.00000000000E+00  0.13107784905E+04  0.13107784905E+04  0.00000000000E+00 0.  1.
         21   -1    0    0  501  503 -0.00000000000E+00 -0.00000000000E+00 -0.11119607474E+04  0.11119607474E+04  0.00000000000E+00 0.  1.
    9000010    2    1    2  501    0  0.17109402787E+03 -0.38499738218E+03 -0.44403314690E+03  0.11579592837E+04  0.98295885803E+03 0.  0.
   -9000010    2    1    2    0  502 -0.17109402787E+03  0.38499738218E+03  0.64285089007E+03  0.12647799542E+04  0.10044475670E+04 0.  0.
        -13    1    3    3    0    0  0.48872020220E+03  0.84672883123E+02 -0.14401008537E+03  0.51648412273E+03  0.10566000000E+00 0.  1.
          4    1    3    3  501    0 -0.31762617434E+03 -0.46967026531E+03 -0.30002306153E+03  0.64147516101E+03  0.00000000000E+00 0.  1.
         13    1    4    4    0    0  0.40532194516E+03  0.48939550272E+02  0.34320597010E+03  0.53335851722E+03  0.10566000000E+00 0. -1.
         -4    1    4    4    0  502 -0.57641597302E+03  0.33605783191E+03  0.29964491997E+03  0.73142143694E+03  0.00000000000E+00 0. -1.
<mgrwt>
<rscale>  2 0.10842450E+04</rscale>
<asrwt>0</asrwt>
<pdfrwt beam="1">  1       21 0.20165823E+00 0.10892250E+04</pdfrwt>
<pdfrwt beam="2">  1       21 0.17107088E+00 0.10892250E+04</pdfrwt>
<totfact> 0.11420121E+01</totfact>
</mgrwt>
</event>
<event>
 8    1  0.7208583E-006  0.1118510E+04  0.7818608E-02  0.8676242E-01
         21   -1    0    0  503  502  0.00000000000E+00  0.00000000000E+00  0.22256958150E+04  0.22256958150E+04  0.00000000000E+00 0. -1.
         21   -1    0    0  501  503 -0.00000000000E+00 -0.00000000000E+00 -0.60655940426E+03  0.60655940426E+03  0.00000000000E+00 0. -1.
    9000010    2    1    2  501    0 -0.12173153521E+03 -0.41515616992E+03  0.12386169745E+04  0.16507902822E+04  0.10018799001E+04 0.  0.
   -9000010    2    1    2    0  502  0.12173153521E+03  0.41515616992E+03  0.38051943619E+03  0.11814649370E+04  0.10314509896E+04 0.  0.
        -13    1    3    3    0    0 -0.46592873692E+03 -0.41250377146E+03  0.38843815576E+03  0.73357560031E+03  0.10566000000E+00 0.  1.
          4    1    3    3  501    0  0.34419720170E+03 -0.26523984514E+01  0.85017881874E+03  0.91721468191E+03  0.00000000000E+00 0.  1.
         13    1    4    4    0    0  0.22969241120E+03 -0.40020291507E+02  0.61534152971E+03  0.65803148621E+03  0.10566000000E+00 0. -1.
         -4    1    4    4    0  502 -0.10796087599E+03  0.45517646142E+03 -0.23482209352E+03  0.52343345077E+03  0.00000000000E+00 0. -1.
<mgrwt>
<rscale>  2 0.11116446E+04</rscale>
<asrwt>0</asrwt>
<pdfrwt beam="1">  1       21 0.34241474E+00 0.11185099E+04</pdfrwt>
<pdfrwt beam="2">  1       21 0.93316833E-01 0.11185099E+04</pdfrwt>
<totfact> 0.62301248E+00</totfact>
</mgrwt>
</event>
<event>
 8    1  0.7208583E-006  0.1030556E+04  0.7818608E-02  0.8747437E-01
         21   -1    0    0  501  502  0.00000000000E+00  0.00000000000E+00  0.17971402339E+04  0.17971402339E+04  0.00000000000E+00 0.  1.
         21   -1    0    0  502  503 -0.00000000000E+00 -0.00000000000E+00 -0.69315845631E+03  0.69315845631E+03  0.00000000000E+00 0.  1.
    9000010    2    1    2  501    0  0.68717179834E+02 -0.24666297590E+03  0.10351296641E+04  0.14574456299E+04  0.99352386389E+03 0.  0.
   -9000010    2    1    2    0  503 -0.68717179834E+02  0.24666297590E+03  0.68852113439E+02  0.10328530603E+04  0.99823852665E+03 0.  0.
        -13    1    3    3    0    0 -0.77059349958E+01 -0.61700413966E+03  0.46214312154E+03  0.77092786027E+03  0.10566000000E+00 0.  1.
          4    1    3    3  501    0  0.76423114830E+02  0.37034116376E+03  0.57298654259E+03  0.68651776965E+03  0.00000000000E+00 0.  1.
         13    1    4    4    0    0 -0.38146623370E+03 -0.18011421133E+03 -0.16681904762E+03  0.45363666341E+03  0.10566000000E+00 0. -1.
         -4    1    4    4    0  503  0.31274905387E+03  0.42677718722E+03  0.23567116106E+03  0.57921639686E+03  0.00000000000E+00 0. -1.
<mgrwt>
<rscale>  2 0.10294122E+04</rscale>
<asrwt>0</asrwt>
<pdfrwt beam="1">  1       21 0.27648311E+00 0.10305556E+04</pdfrwt>
<pdfrwt beam="2">  1       21 0.10663976E+00 0.10305556E+04</pdfrwt>
<totfact> 0.13087992E+01</totfact>
</mgrwt>
</event>
<event>
 8    1  0.7208583E-006  0.1010028E+04  0.7818608E-02  0.8817089E-01
         21   -1    0    0  503  502  0.00000000000E+00  0.00000000000E+00  0.12703579185E+04  0.12703579185E+04  0.00000000000E+00 0.  1.
         21   -1    0    0  501  503 -0.00000000000E+00 -0.00000000000E+00 -0.82205585648E+03  0.82205585648E+03  0.00000000000E+00 0.  1.
    9000010    2    1    2  501    0  0.24240410639E+03 -0.25631051923E+02 -0.22952330826E+03  0.10357788241E+04  0.98017351617E+03 0.  0.
   -9000010    2    1    2    0  502 -0.24240410639E+03  0.25631051923E+02  0.67782537025E+03  0.10566349509E+04  0.77305464569E+03 0.  0.
        -13    1    3    3    0    0  0.56642077809E+03  0.81297590832E+02 -0.35366022384E+03  0.67269410672E+03  0.10566000000E+00 0.  1.
          4    1    3    3  501    0 -0.32401667170E+03 -0.10692864276E+03  0.12413691558E+03  0.36308471738E+03  0.00000000000E+00 0.  1.
         13    1    4    4    0    0 -0.42833421288E+03  0.16240512019E+03  0.15244845689E+03  0.48278997934E+03  0.10566000000E+00 0. -1.
         -4    1    4    4    0  502  0.18593010649E+03 -0.13677406826E+03  0.52537691336E+03  0.57384497152E+03  0.00000000000E+00 0. -1.
<mgrwt>
<rscale>  2 0.95597881E+03</rscale>
<asrwt>0</asrwt>
<pdfrwt beam="1">  1       21 0.19543968E+00 0.10100281E+04</pdfrwt>
<pdfrwt beam="2">  1       21 0.12647013E+00 0.10100281E+04</pdfrwt>
<totfact> 0.32772433E+01</totfact>
</mgrwt>
</event>
<event>
 8    1  0.7208583E-006  0.1145099E+04  0.7818608E-02  0.8674896E-01
         21   -1    0    0  503  502  0.00000000000E+00  0.00000000000E+00  0.11818018243E+04  0.11818018243E+04  0.00000000000E+00 0. -1.
         21   -1    0    0  501  503 -0.00000000000E+00 -0.00000000000E+00 -0.11896812094E+04  0.11896812094E+04  0.00000000000E+00 0. -1.
    9000010    2    1    2  501    0 -0.28413197868E+02  0.55501534649E+03 -0.48389748883E+03  0.12431441568E+04  0.10011999153E+04 0.  0.
   -9000010    2    1    2    0  502  0.28413197868E+02 -0.55501534649E+03  0.47601810379E+03  0.11283388769E+04  0.85889815537E+03 0.  0.
        -13    1    3    3    0    0 -0.32269575633E+03 -0.16464080976E+03 -0.21043953212E+03  0.41895579150E+03  0.10566000000E+00 0.  1.
          4    1    3    3  501    0  0.29428255846E+03  0.71965615625E+03 -0.27345795671E+03  0.82418836532E+03  0.00000000000E+00 0.  1.
         13    1    4    4    0    0 -0.83482424628E+02 -0.63949819456E+03  0.64272754024E+03  0.91050862610E+03  0.10566000000E+00 0. -1.
         -4    1    4    4    0  502  0.11189562250E+03  0.84482848072E+02 -0.16670943645E+03  0.21783025077E+03  0.00000000000E+00 0. -1.
<mgrwt>
<rscale>  2 0.11132749E+04</rscale>
<asrwt>0</asrwt>
<pdfrwt beam="1">  1       21 0.18181567E+00 0.11450985E+04</pdfrwt>
<pdfrwt beam="2">  1       21 0.18302788E+00 0.11450985E+04</pdfrwt>
<totfact> 0.12933880E+01</totfact>
</mgrwt>
</event>
<event>
 8    1  0.7208583E-006  0.1008081E+04  0.7818608E-02  0.8770394E-01
         21   -1    0    0  501  502  0.00000000000E+00  0.00000000000E+00  0.68702995378E+03  0.68702995378E+03  0.00000000000E+00 0.  1.
         21   -1    0    0  502  503 -0.00000000000E+00 -0.00000000000E+00 -0.15032813681E+04  0.15032813681E+04  0.00000000000E+00 0.  1.
    9000010    2    1    2  501    0 -0.10608271896E+03  0.77220557039E+01 -0.21567355911E+03  0.10168884273E+04  0.98804545246E+03 0.  0.
   -9000010    2    1    2    0  503  0.10608271896E+03 -0.77220557039E+01 -0.60057785518E+03  0.11734228945E+04  0.10024541665E+04 0.  0.
        -13    1    3    3    0    0 -0.44552282508E+03  0.53290456643E+02  0.18887948753E+03  0.48683255069E+03  0.10566000000E+00 0.  1.
          4    1    3    3  501    0  0.33944010612E+03 -0.45568400939E+02 -0.40455304665E+03  0.53005587664E+03  0.00000000000E+00 0.  1.
         13    1    4    4    0    0 -0.20685013676E+03 -0.36763583798E+02 -0.78255210556E+03  0.81026313581E+03  0.10566000000E+00 0. -1.
         -4    1    4    4    0  503  0.31293285572E+03  0.29041528094E+02  0.18197425039E+03  0.36315975871E+03  0.00000000000E+00 0. -1.
<mgrwt>
<rscale>  2 0.10044801E+04</rscale>
<asrwt>0</asrwt>
<pdfrwt beam="1">  1       21 0.10569692E+00 0.10080811E+04</pdfrwt>
<pdfrwt beam="2">  1       21 0.23127405E+00 0.10080811E+04</pdfrwt>
<totfact> 0.28673269E+01</totfact>
</mgrwt>
</event>
<event>
 8    1  0.7208583E-006  0.1023187E+04  0.7818608E-02  0.8757472E-01
         21   -1    0    0  501  502  0.00000000000E+00  0.00000000000E+00  0.39839293548E+03  0.39839293548E+03  0.00000000000E+00 0. -1.
         21   -1    0    0  502  503 -0.00000000000E+00 -0.00000000000E+00 -0.30743075415E+04  0.30743075415E+04  0.00000000000E+00 0. -1.
    9000010    2    1    2  501    0  0.94728225222E+02 -0.11394411303E+03 -0.65183382454E+03  0.12131773771E+04  0.10124007685E+04 0.  0.
   -9000010    2    1    2    0  503 -0.94728225222E+02  0.11394411303E+03 -0.20240807815E+04  0.22595230999E+04  0.99326981800E+03 0.  0.
        -13    1    3    3    0    0 -0.25445643669E+03  0.21260270991E+03 -0.65604073912E+03  0.73507649464E+03  0.10566000000E+00 0.  1.
          4    1    3    3  501    0  0.34918466191E+03 -0.32654682295E+03  0.42069145741E+01  0.47810088247E+03  0.00000000000E+00 0.  1.
         13    1    4    4    0    0  0.39933808834E+03  0.27251479663E+03 -0.90679322592E+03  0.10276230773E+04  0.10566000000E+00 0. -1.
         -4    1    4    4    0  503 -0.49406631357E+03 -0.15857068359E+03 -0.11172875555E+04  0.12319000226E+04  0.00000000000E+00 0. -1.
<mgrwt>
<rscale>  2 0.10184226E+04</rscale>
<asrwt>0</asrwt>
<pdfrwt beam="1">  1       21 0.61291221E-01 0.10231872E+04</pdfrwt>
<pdfrwt beam="2">  1       21 0.47297039E+00 0.10231872E+04</pdfrwt>
<totfact> 0.21752957E+00</totfact>
</mgrwt>
</event>
<event>
 8    1  0.7208583E-006  0.1039800E+04  0.7818608E-02  0.8738694E-01
         21   -1    0    0  503  502  0.00000000000E+00  0.00000000000E+00  0.12782068633E+04  0.12782068633E+04  0.00000000000E+00 0.  1.
         21   -1    0    0  501  503 -0.00000000000E+00 -0.00000000000E+00 -0.13559705133E+04  0.13559705133E+04  0.00000000000E+00 0.  1.
    9000010    2    1    2  501    0  0.21477478912E+03  0.16184806658E+03 -0.84847463227E+03  0.13398901163E+04  0.10015354789E+04 0.  0.
   -9000010    2    1    2    0  502 -0.21477478912E+03 -0.16184806658E+03  0.77071098223E+03  0.12942872603E+04  0.10044207720E+04 0.  0.
        -13    1    3    3    0    0 -0.31302930166E+03 -0.12649146937E+03 -0.60140030487E+03  0.68968817112E+03  0.10566000000E+00 0.  1.
          4    1    3    3  501    0  0.52780409078E+03  0.28833953594E+03 -0.24707432740E+03  0.65020194516E+03  0.00000000000E+00 0.  1.
         13    1    4    4    0    0 -0.58215525692E+03  0.97019717035E+02  0.42516680297E+03  0.72738187368E+03  0.10566000000E+00 0. -1.
         -4    1    4    4    0  502  0.36738046780E+03 -0.25886778361E+03  0.34554417926E+03  0.56690538658E+03  0.00000000000E+00 0. -1.
<mgrwt>
<rscale>  2 0.10391026E+04</rscale>
<asrwt>0</asrwt>
<pdfrwt beam="1">  1       21 0.19664721E+00 0.10398000E+04</pdfrwt>
<pdfrwt beam="2">  1       21 0.20861085E+00 0.10398000E+04</pdfrwt>
<totfact> 0.63381862E+00</totfact>
</mgrwt>
</event>
<event>
 8    1  0.7208583E-006  0.1039213E+04  0.7818608E-02  0.8745596E-01
         21   -1    0    0  503  502  0.00000000000E+00  0.00000000000E+00  0.15786900639E+04  0.15786900639E+04  0.00000000000E+00 0. -1.
         21   -1    0    0  501  503 -0.00000000000E+00 -0.00000000000E+00 -0.67156273098E+03  0.67156273098E+03  0.00000000000E+00 0. -1.
    9000010    2    1    2  501    0  0.20991606122E+03 -0.16818624219E+03  0.34097835022E+03  0.10937233193E+04  0.10037993321E+04 0.  0.
   -9000010    2    1    2    0  502 -0.20991606122E+03  0.16818624219E+03  0.56614898273E+03  0.11565294756E+04  0.97194876021E+03 0.  0.
        -13    1    3    3    0    0  0.23159476601E+02 -0.14030477625E+03 -0.34980085821E+03  0.37760090461E+03  0.10566000000E+00 0.  1.
          4    1    3    3  501    0  0.18675658462E+03 -0.27881465942E+02  0.69077920843E+03  0.71612241470E+03  0.00000000000E+00 0.  1.
         13    1    4    4    0    0 -0.10090221989E+03  0.54951929012E+03  0.14330578088E+03  0.57679222098E+03  0.10566000000E+00 0. -1.
         -4    1    4    4    0  502 -0.10901384133E+03 -0.38133304793E+03  0.42284320185E+03  0.57973725462E+03  0.00000000000E+00 0. -1.
<mgrwt>
<rscale>  2 0.10314438E+04</rscale>
<asrwt>0</asrwt>
<pdfrwt beam="1">  1       21 0.24287539E+00 0.10392134E+04</pdfrwt>
<pdfrwt beam="2">  1       21 0.10331734E+00 0.10392134E+04</pdfrwt>
<totfact> 0.24844137E+01</totfact>
</mgrwt>
</event>
<event>
 8    1  0.7208583E-006  0.1017888E+04  0.7818608E-02  0.8761370E-01
         21   -1    0    0  501  502  0.00000000000E+00  0.00000000000E+00  0.37055731796E+03  0.37055731796E+03  0.00000000000E+00 0.  1.
         21   -1    0    0  502  503 -0.00000000000E+00 -0.00000000000E+00 -0.28387528829E+04  0.28387528829E+04  0.00000000000E+00 0.  1.
    9000010    2    1    2  501    0  0.43065148639E+02  0.29373786712E+02 -0.14996584629E+04  0.18042624385E+04  0.10018333271E+04 0.  0.
   -9000010    2    1    2    0  503 -0.43065148639E+02 -0.29373786712E+02 -0.96853710211E+03  0.14050477624E+04  0.10165518532E+04 0.  0.
        -13    1    3    3    0    0 -0.45897845942E+03  0.11932671364E+03 -0.54933313770E+03  0.72571826361E+03  0.10566000000E+00 0.  1.
          4    1    3    3  501    0  0.50204360806E+03 -0.89952926926E+02 -0.95032532516E+03  0.10785441748E+04  0.00000000000E+00 0.  1.
         13    1    4    4    0    0 -0.44523709784E+03 -0.18473272642E+03 -0.81595997302E+03  0.94770931315E+03  0.10566000000E+00 0. -1.
         -4    1    4    4    0  503  0.40217194920E+03  0.15535893970E+03 -0.15257712909E+03  0.45733844928E+03  0.00000000000E+00 0. -1.
<mgrwt>
<rscale>  2 0.10141928E+04</rscale>
<asrwt>0</asrwt>
<pdfrwt beam="1">  1       21 0.57008818E-01 0.10178876E+04</pdfrwt>
<pdfrwt beam="2">  1       21 0.43673121E+00 0.10178876E+04</pdfrwt>
<totfact> 0.45910829E+00</totfact>
</mgrwt>
</event>
<event>
 8    1  0.7208583E-006  0.1066667E+04  0.7818608E-02  0.8730139E-01
         21   -1    0    0  503  502  0.00000000000E+00  0.00000000000E+00  0.93365421818E+03  0.93365421818E+03  0.00000000000E+00 0.  1.
         21   -1    0    0  501  503 -0.00000000000E+00 -0.00000000000E+00 -0.11804527528E+04  0.11804527528E+04  0.00000000000E+00 0.  1.
    9000010    2    1    2  501    0  0.45037315451E+02  0.21749025218E+02  0.68464644276E+02  0.10688614678E+04  0.10654933364E+04 0.  0.
   -9000010    2    1    2    0  502 -0.45037315451E+02 -0.21749025218E+02 -0.31526317887E+03  0.10452455032E+04  0.99531196621E+03 0.  0.
        -13    1    3    3    0    0  0.24041587051E+03 -0.40200050575E+03  0.29147120872E+03  0.55168802244E+03  0.10566000000E+00 0.  1.
          4    1    3    3  501    0 -0.19537855506E+03  0.42374953097E+03 -0.22300656445E+03  0.51717344534E+03  0.00000000000E+00 0.  1.
         13    1    4    4    0    0  0.74264540288E+02 -0.46630159644E+03 -0.34379706657E+03  0.58407947655E+03  0.10566000000E+00 0. -1.
         -4    1    4    4    0  502 -0.11930185574E+03  0.44455257122E+03  0.28533887705E+02  0.46116602662E+03  0.00000000000E+00 0. -1.
<mgrwt>
<rscale>  2 0.10486926E+04</rscale>
<asrwt>0</asrwt>
<pdfrwt beam="1">  1       21 0.14363911E+00 0.10666665E+04</pdfrwt>
<pdfrwt beam="2">  1       21 0.18160812E+00 0.10666665E+04</pdfrwt>
<totfact> 0.28742086E+01</totfact>
</mgrwt>
</event>
<event>
 8    1  0.7208583E-006  0.1094187E+04  0.7818608E-02  0.8696811E-01
         21   -1    0    0  503  502  0.00000000000E+00  0.00000000000E+00  0.11284121756E+04  0.11284121756E+04  0.00000000000E+00 0.  1.
         21   -1    0    0  501  503 -0.00000000000E+00 -0.00000000000E+00 -0.10378827782E+04  0.10378827782E+04  0.00000000000E+00 0.  1.
    9000010    2    1    2  501    0  0.19974722172E+02 -0.35063557545E+03 -0.22316680280E+02  0.10663041062E+04  0.10065595444E+04 0.  0.
   -9000010    2    1    2    0  502 -0.19974722172E+02  0.35063557545E+03  0.11284607768E+03  0.10999908477E+04  0.10362921072E+04 0.  0.
        -13    1    3    3    0    0 -0.38248390366E+03 -0.26910654526E+03  0.29009866081E+03  0.55033581878E+03  0.10566000000E+00 0.  1.
          4    1    3    3  501    0  0.40245862583E+03 -0.81529030191E+02 -0.31241534109E+03  0.51596828741E+03  0.00000000000E+00 0.  1.
         13    1    4    4    0    0 -0.12125256353E+03  0.54048329515E+03 -0.30329194835E+03  0.63151436531E+03  0.10566000000E+00 0. -1.
         -4    1    4    4    0  502  0.10127784135E+03 -0.18984771970E+03  0.41613802603E+03  0.46847648237E+03  0.00000000000E+00 0. -1.
<mgrwt>
<rscale>  2 0.10870893E+04</rscale>
<asrwt>0</asrwt>
<pdfrwt beam="1">  1       21 0.17360187E+00 0.10941872E+04</pdfrwt>
<pdfrwt beam="2">  1       21 0.15967427E+00 0.10941872E+04</pdfrwt>
<totfact> 0.23953790E+01</totfact>
</mgrwt>
</event>
<event>
 8    1  0.7208583E-006  0.1057405E+04  0.7818608E-02  0.8724456E-01
         21   -1    0    0  503  502  0.00000000000E+00  0.00000000000E+00  0.28218852071E+04  0.28218852071E+04  0.00000000000E+00 0.  1.
         21   -1    0    0  501  503 -0.00000000000E+00 -0.00000000000E+00 -0.67378414733E+03  0.67378414733E+03  0.00000000000E+00 0.  1.
    9000010    2    1    2  501    0  0.31312613056E+03 -0.17521761386E+02 -0.51899066870E+02  0.10586775084E+04  0.10098265039E+04 0.  0.
   -9000010    2    1    2    0  502 -0.31312613056E+03  0.17521761386E+02  0.22000001267E+04  0.24369918460E+04  0.10002868161E+04 0.  0.
        -13    1    3    3    0    0 -0.76184309441E+02 -0.36997722271E+03 -0.29567683272E+03  0.47969990088E+03  0.10566000000E+00 0.  1.
          4    1    3    3  501    0  0.38931044000E+03  0.35245546132E+03  0.24377776585E+03  0.57897760754E+03  0.00000000000E+00 0.  1.
         13    1    4    4    0    0 -0.42988174990E+03  0.31530554771E+03  0.19756095717E+04  0.20462768870E+04  0.10566000000E+00 0. -1.
         -4    1    4    4    0  502  0.11675561933E+03 -0.29778378633E+03  0.22439055495E+03  0.39071495901E+03  0.00000000000E+00 0. -1.
<mgrwt>
<rscale>  2 0.10551206E+04</rscale>
<asrwt>0</asrwt>
<pdfrwt beam="1">  1       21 0.43413618E+00 0.10574046E+04</pdfrwt>
<pdfrwt beam="2">  1       21 0.10365910E+00 0.10574046E+04</pdfrwt>
<totfact> 0.11028039E+00</totfact>
</mgrwt>
</event>
<event>
 8    1  0.7208583E-006  0.1160302E+04  0.7818608E-02  0.8646138E-01
         21   -1    0    0  503  502  0.00000000000E+00  0.00000000000E+00  0.14991500025E+04  0.14991500025E+04  0.00000000000E+00 0. -1.
         21   -1    0    0  501  503 -0.00000000000E+00 -0.00000000000E+00 -0.14000554706E+04  0.14000554706E+04  0.00000000000E+00 0. -1.
    9000010    2    1    2  501    0  0.37235637541E+03 -0.46769648695E+03 -0.84848272254E+03  0.14011390336E+04  0.94121112765E+03 0.  0.
   -9000010    2    1    2    0  502 -0.37235637541E+03  0.46769648695E+03  0.94757725442E+03  0.14980664395E+04  0.99444010877E+03 0.  0.
        -13    1    3    3    0    0  0.42752217899E+03 -0.52062163195E+03 -0.13938454713E+03  0.68793179918E+03  0.10566000000E+00 0.  1.
          4    1    3    3  501    0 -0.55165803578E+02  0.52925145002E+02 -0.70909817540E+03  0.71320723441E+03  0.00000000000E+00 0.  1.
         13    1    4    4    0    0  0.23654941763E+03  0.13082372600E+03 -0.56755757514E+02  0.27620952453E+03  0.10566000000E+00 0. -1.
         -4    1    4    4    0  502 -0.60890579304E+03  0.33687276095E+03  0.10043330119E+04  0.12218569150E+04  0.00000000000E+00 0. -1.
<mgrwt>
<rscale>  2 0.11488116E+04</rscale>
<asrwt>0</asrwt>
<pdfrwt beam="1">  1       21 0.23063846E+00 0.11603019E+04</pdfrwt>
<pdfrwt beam="2">  1       21 0.21539315E+00 0.11603019E+04</pdfrwt>
<totfact> 0.30081967E+00</totfact>
</mgrwt>
</event>
<event>
 8    1  0.7208583E-006  0.1024627E+04  0.7818608E-02  0.8757030E-01
         21   -1    0    0  501  502  0.00000000000E+00  0.00000000000E+00  0.51433330543E+03  0.51433330543E+03  0.00000000000E+00 0. -1.
         21   -1    0    0  502  503 -0.00000000000E+00 -0.00000000000E+00 -0.27806085304E+04  0.27806085304E+04  0.00000000000E+00 0. -1.
    9000010    2    1    2  501    0  0.19629731143E+03 -0.86593279259E+02 -0.26728703002E+03  0.10589154243E+04  0.10019124158E+04 0.  0.
   -9000010    2    1    2    0  503 -0.19629731143E+03  0.86593279259E+02 -0.19989881950E+04  0.22360264115E+04  0.97868752878E+03 0.  0.
        -13    1    3    3    0    0 -0.11526962108E+03  0.34634378115E+03 -0.36549811470E+03  0.51655588594E+03  0.10566000000E+00 0.  1.
          4    1    3    3  501    0  0.31156693251E+03 -0.43293706041E+03  0.98211084686E+02  0.54235953837E+03  0.00000000000E+00 0.  1.
         13    1    4    4    0    0  0.18355071488E+03 -0.33791680355E+03 -0.48853752654E+03  0.62172948865E+03  0.10566000000E+00 0. -1.
         -4    1    4    4    0  503 -0.37984802631E+03  0.42451008281E+03 -0.15104506684E+04  0.16142969229E+04  0.00000000000E+00 0. -1.
<mgrwt>
<rscale>  2 0.10189042E+04</rscale>
<asrwt>0</asrwt>
<pdfrwt beam="1">  1       21 0.79128200E-01 0.10246265E+04</pdfrwt>
<pdfrwt beam="2">  1       21 0.42778593E+00 0.10246265E+04</pdfrwt>
<totfact> 0.24469465E+00</totfact>
</mgrwt>
</event>
<event>
 8    1  0.7208583E-006  0.1043179E+04  0.7818608E-02  0.8736171E-01
         21   -1    0    0  501  502  0.00000000000E+00  0.00000000000E+00  0.11565279491E+04  0.11565279491E+04  0.00000000000E+00 0.  1.
         21   -1    0    0  502  503 -0.00000000000E+00 -0.00000000000E+00 -0.11830843437E+04  0.11830843437E+04  0.00000000000E+00 0.  1.
    9000010    2    1    2  501    0 -0.17691819265E+03  0.17862062108E+03  0.52090101468E+03  0.11615066592E+04  0.10072509513E+04 0.  0.
   -9000010    2    1    2    0  503  0.17691819265E+03 -0.17862062108E+03 -0.54745740931E+03  0.11781056336E+04  0.10124316746E+04 0.  0.
        -13    1    3    3    0    0 -0.49415650683E+03 -0.51367131379E+02  0.58169629307E+03  0.76498354490E+03  0.10566000000E+00 0.  1.
          4    1    3    3  501    0  0.31723831418E+03  0.22998775246E+03 -0.60795278382E+02  0.39652311425E+03  0.00000000000E+00 0.  1.
         13    1    4    4    0    0 -0.34570978045E+03 -0.16739022880E+03  0.46459218177E+02  0.38690206915E+03  0.10566000000E+00 0. -1.
         -4    1    4    4    0  503  0.52262797310E+03 -0.11230392284E+02 -0.59391662749E+03  0.79120356444E+03  0.00000000000E+00 0. -1.
<mgrwt>
<rscale>  2 0.10419203E+04</rscale>
<asrwt>0</asrwt>
<pdfrwt beam="1">  1       21 0.17792738E+00 0.10431794E+04</pdfrwt>
<pdfrwt beam="2">  1       21 0.18201298E+00 0.10431794E+04</pdfrwt>
<totfact> 0.14507794E+01</totfact>
</mgrwt>
</event>
<event>
 8    1  0.7208583E-006  0.1057662E+04  0.7818608E-02  0.8725643E-01
         21   -1    0    0  501  502  0.00000000000E+00  0.00000000000E+00  0.17194087264E+04  0.17194087264E+04  0.00000000000E+00 0.  1.
         21   -1    0    0  502  503 -0.00000000000E+00 -0.00000000000E+00 -0.83342357983E+03  0.83342357983E+03  0.00000000000E+00 0.  1.
    9000010    2    1    2  501    0  0.36619982193E+02  0.34733873331E+03  0.10535977941E+04  0.14819716746E+04  0.98192999430E+03 0.  0.
   -9000010    2    1    2    0  503 -0.36619982193E+02 -0.34733873331E+03 -0.16761264751E+03  0.10708606317E+04  0.99833024304E+03 0.  0.
        -13    1    3    3    0    0  0.27695198277E+03 -0.25910947574E+03  0.49190229239E+03  0.62113444407E+03  0.10566000000E+00 0.  1.
          4    1    3    3  501    0 -0.24033200058E+03  0.60644820905E+03  0.56169550172E+03  0.86083723050E+03  0.00000000000E+00 0.  1.
         13    1    4    4    0    0 -0.17275889703E+03  0.32249032563E+03  0.49808133572E+01  0.36588313201E+03  0.10566000000E+00 0. -1.
         -4    1    4    4    0  503  0.13613891484E+03 -0.66982905893E+03 -0.17259346086E+03  0.70497749968E+03  0.00000000000E+00 0. -1.
<mgrwt>
<rscale>  2 0.10537739E+04</rscale>
<asrwt>0</asrwt>
<pdfrwt beam="1">  1       21 0.26452442E+00 0.10576618E+04</pdfrwt>
<pdfrwt beam="2">  1       21 0.12821901E+00 0.10576618E+04</pdfrwt>
<totfact> 0.95040412E+00</totfact>
</mgrwt>
</event>
<event>
 8    1  0.7208583E-006  0.1010086E+04  0.7818608E-02  0.8774381E-01
         21   -1    0    0  501  502  0.00000000000E+00  0.00000000000E+00  0.53152670879E+03  0.53152670879E+03  0.00000000000E+00 0.  1.
         21   -1    0    0  502  503 -0.00000000000E+00 -0.00000000000E+00 -0.18696145487E+04  0.18696145487E+04  0.00000000000E+00 0.  1.
    9000010    2    1    2  501    0 -0.24648800045E+03  0.12728810110E+03 -0.52218970399E+03  0.11026946812E+04  0.93074963224E+03 0.  0.
   -9000010    2    1    2    0  503  0.24648800045E+03 -0.12728810110E+03 -0.81589813593E+03  0.12984465763E+04  0.97124412395E+03 0.  0.
        -13    1    3    3    0    0  0.26172536043E+03 -0.47632376782E+02  0.96648485975E+02  0.28303700927E+03  0.10566000000E+00 0.  1.
          4    1    3    3  501    0 -0.50821336088E+03  0.17492047788E+03 -0.61883818997E+03  0.81965767191E+03  0.00000000000E+00 0.  1.
         13    1    4    4    0    0 -0.23294100766E+03  0.28870045249E+03 -0.24354004618E+03  0.44375807550E+03  0.10566000000E+00 0. -1.
         -4    1    4    4    0  503  0.47942900811E+03 -0.41598855359E+03 -0.57235808975E+03  0.85468850082E+03  0.00000000000E+00 0. -1.
<mgrwt>
<rscale>  2 0.10002241E+04</rscale>
<asrwt>0</asrwt>
<pdfrwt beam="1">  1       21 0.81773338E-01 0.10100860E+04</pdfrwt>
<pdfrwt beam="2">  1       21 0.28763301E+00 0.10100860E+04</pdfrwt>
<totfact> 0.21689399E+01</totfact>
</mgrwt>
</event>
<event>
 8    1  0.7208583E-006  0.1045900E+04  0.7818608E-02  0.8741922E-01
         21   -1    0    0  501  502  0.00000000000E+00  0.00000000000E+00  0.96922828742E+03  0.96922828742E+03  0.00000000000E+00 0. -1.
         21   -1    0    0  502  503 -0.00000000000E+00 -0.00000000000E+00 -0.12270183551E+04  0.12270183551E+04  0.00000000000E+00 0. -1.
    9000010    2    1    2  501    0 -0.14045027583E+03 -0.14999918899E+03 -0.50028664449E+03  0.11226031427E+04  0.98373017268E+03 0.  0.
   -9000010    2    1    2    0  503  0.14045027583E+03  0.14999918899E+03  0.24249657679E+03  0.10736434998E+04  0.10255143774E+04 0.  0.
        -13    1    3    3    0    0  0.28700614770E+03  0.90261888092E+02 -0.55287835689E+03  0.62943961262E+03  0.10566000000E+00 0.  1.
          4    1    3    3  501    0 -0.42745642352E+03 -0.24026107709E+03  0.52591712403E+02  0.49316353007E+03  0.00000000000E+00 0.  1.
         13    1    4    4    0    0 -0.24296814872E+03  0.27722590340E+02 -0.30702665932E+03  0.39251425962E+03  0.10566000000E+00 0. -1.
         -4    1    4    4    0  503  0.38341842455E+03  0.12227659866E+03  0.54952323611E+03  0.68112924022E+03  0.00000000000E+00 0. -1.
<mgrwt>
<rscale>  2 0.10355117E+04</rscale>
<asrwt>0</asrwt>
<pdfrwt beam="1">  1       21 0.14911205E+00 0.10458995E+04</pdfrwt>
<pdfrwt beam="2">  1       21 0.18877205E+00 0.10458995E+04</pdfrwt>
<totfact> 0.22555292E+01</totfact>
</mgrwt>
</event>
<event>
 8    1  0.7208583E-006  0.1062410E+04  0.7818608E-02  0.8737437E-01
         21   -1    0    0  501  502  0.00000000000E+00  0.00000000000E+00  0.59499486453E+03  0.59499486453E+03  0.00000000000E+00 0. -1.
         21   -1    0    0  502  503 -0.00000000000E+00 -0.00000000000E+00 -0.23262652562E+04  0.23262652562E+04  0.00000000000E+00 0. -1.
    9000010    2    1    2  501    0 -0.21780703166E+03 -0.18500222262E+03 -0.16519601960E+03  0.10751765888E+04  0.10232542434E+04 0.  0.
   -9000010    2    1    2    0  503  0.21780703166E+03  0.18500222262E+03 -0.15660743721E+04  0.18460835320E+04  0.93475651524E+03 0.  0.
        -13    1    3    3    0    0  0.37939363001E+02 -0.54880671116E+03 -0.27802915972E+03  0.61638334362E+03  0.10566000000E+00 0.  1.
          4    1    3    3  501    0 -0.25574639466E+03  0.36380448854E+03  0.11283314011E+03  0.45879324513E+03  0.00000000000E+00 0.  1.
         13    1    4    4    0    0  0.73809974508E+02 -0.14233814081E+03 -0.14659865487E+04  0.14747286635E+04  0.10566000000E+00 0. -1.
         -4    1    4    4    0  503  0.14399705716E+03  0.32734036342E+03 -0.10008782337E+03  0.37135486853E+03  0.00000000000E+00 0. -1.
<mgrwt>
<rscale>  2 0.10405053E+04</rscale>
<asrwt>0</asrwt>
<pdfrwt beam="1">  1       21 0.91537670E-01 0.10624100E+04</pdfrwt>
<pdfrwt beam="2">  1       21 0.35788697E+00 0.10624100E+04</pdfrwt>
<totfact> 0.51605947E+00</totfact>
</mgrwt>
</event>
<event>
 8    1  0.7208583E-006  0.1034731E+04  0.7818608E-02  0.8750252E-01
         21   -1    0    0  501  502  0.00000000000E+00  0.00000000000E+00  0.21129826331E+04  0.21129826331E+04  0.00000000000E+00 0.  1.
         21   -1    0    0  502  503 -0.00000000000E+00 -0.00000000000E+00 -0.49545231106E+03  0.49545231106E+03  0.00000000000E+00 0.  1.
    9000010    2    1    2  501    0 -0.20200031974E+02 -0.33675165559E+02  0.95147746183E+03  0.14056944497E+04  0.10339852356E+04 0.  0.
   -9000010    2    1    2    0  503  0.20200031974E+02  0.33675165559E+02  0.66605286018E+03  0.12027404944E+04  0.10007078626E+04 0.  0.
        -13    1    3    3    0    0  0.15429647577E+03  0.42799047200E+03  0.17876610100E+03  0.48881548317E+03  0.10566000000E+00 0.  1.
          4    1    3    3  501    0 -0.17449650774E+03 -0.46166563756E+03  0.77271136083E+03  0.91687896653E+03  0.00000000000E+00 0.  1.
         13    1    4    4    0    0 -0.48591853335E+03 -0.22617379026E+02  0.39006773264E+03  0.62352322659E+03  0.10566000000E+00 0. -1.
         -4    1    4    4    0  503  0.50611856532E+03  0.56292544585E+02  0.27598512754E+03  0.57921726784E+03  0.00000000000E+00 0. -1.
<mgrwt>
<rscale>  2 0.10263154E+04</rscale>
<asrwt>0</asrwt>
<pdfrwt beam="1">  1       21 0.32507425E+00 0.10347307E+04</pdfrwt>
<pdfrwt beam="2">  1       21 0.76223433E-01 0.10347307E+04</pdfrwt>
<totfact> 0.13930221E+01</totfact>
</mgrwt>
</event>
<event>
 8    1  0.7208583E-006  0.1086536E+04  0.7818608E-02  0.8704037E-01
         21   -1    0    0  501  502  0.00000000000E+00  0.00000000000E+00  0.10172900924E+04  0.10172900924E+04  0.00000000000E+00 0.  1.
         21   -1    0    0  502  503 -0.00000000000E+00 -0.00000000000E+00 -0.14624852073E+04  0.14624852073E+04  0.00000000000E+00 0.  1.
    9000010    2    1    2  501    0 -0.38623934040E+03  0.84869175663E+02  0.37345076490E+03  0.11193555993E+04  0.97831890442E+03 0.  0.
   -9000010    2    1    2    0  503  0.38623934040E+03 -0.84869175663E+02 -0.81864587984E+03  0.13604197005E+04  0.10120163436E+04 0.  0.
        -13    1    3    3    0    0  0.29382735019E+03  0.51096526831E+01  0.31706695392E+03  0.43231017187E+03  0.10566000000E+00 0.  1.
          4    1    3    3  501    0 -0.68006669059E+03  0.79759522980E+02  0.56383810975E+02  0.68704542739E+03  0.00000000000E+00 0.  1.
         13    1    4    4    0    0  0.67920768321E+03 -0.27934403960E+03 -0.57251460597E+03  0.93119769898E+03  0.10566000000E+00 0. -1.
         -4    1    4    4    0  503 -0.29296834280E+03  0.19447486393E+03 -0.24613127387E+03  0.42922200149E+03  0.00000000000E+00 0. -1.
<mgrwt>
<rscale>  2 0.10786213E+04</rscale>
<asrwt>0</asrwt>
<pdfrwt beam="1">  1       21 0.15650617E+00 0.10865361E+04</pdfrwt>
<pdfrwt beam="2">  1       21 0.22499772E+00 0.10865361E+04</pdfrwt>
<totfact> 0.10100838E+01</totfact>
</mgrwt>
</event>
<event>
 8    1  0.7208583E-006  0.1175982E+04  0.7818608E-02  0.8657040E-01
         21   -1    0    0  503  502  0.00000000000E+00  0.00000000000E+00  0.15105749049E+04  0.15105749049E+04  0.00000000000E+00 0. -1.
         21   -1    0    0  501  503 -0.00000000000E+00 -0.00000000000E+00 -0.80685988132E+03  0.80685988132E+03  0.00000000000E+00 0. -1.
    9000010    2    1    2  501    0 -0.16673999166E+03  0.25389502533E+03  0.44227398008E+03  0.11127417522E+04  0.97484512864E+03 0.  0.
   -9000010    2    1    2    0  502  0.16673999166E+03 -0.25389502533E+03  0.26144104351E+03  0.12046930341E+04  0.11360761323E+04 0.  0.
        -13    1    3    3    0    0  0.21190524136E+03  0.50253397503E+03  0.12450693904E+03  0.55941596009E+03  0.10566000000E+00 0.  1.
          4    1    3    3  501    0 -0.37864523302E+03 -0.24863894969E+03  0.31776704104E+03  0.55332579207E+03  0.00000000000E+00 0.  1.
         13    1    4    4    0    0  0.34253370367E+03  0.77036479594E+02  0.60293369907E+03  0.69770553529E+03  0.10566000000E+00 0. -1.
         -4    1    4    4    0  502 -0.17579371201E+03 -0.33093150493E+03 -0.34149265555E+03  0.50698749880E+03  0.00000000000E+00 0. -1.
<mgrwt>
<rscale>  2 0.11351797E+04</rscale>
<asrwt>0</asrwt>
<pdfrwt beam="1">  1       21 0.23239614E+00 0.11759821E+04</pdfrwt>
<pdfrwt beam="2">  1       21 0.12413229E+00 0.11759821E+04</pdfrwt>
<totfact> 0.17435837E+01</totfact>
</mgrwt>
</event>
<event>
 8    1  0.7208583E-006  0.1105080E+04  0.7818608E-02  0.8682681E-01
         21   -1    0    0  501  502  0.00000000000E+00  0.00000000000E+00  0.12906831893E+04  0.12906831893E+04  0.00000000000E+00 0. -1.
         21   -1    0    0  502  503 -0.00000000000E+00 -0.00000000000E+00 -0.10236857440E+04  0.10236857440E+04  0.00000000000E+00 0. -1.
    9000010    2    1    2  501    0 -0.48765244866E+03 -0.46563630002E+02  0.46046709345E+03  0.11971768710E+04  0.99057025698E+03 0.  0.
   -9000010    2    1    2    0  503  0.48765244866E+03  0.46563630002E+02 -0.19346964812E+03  0.11171920623E+04  0.98524845443E+03 0.  0.
        -13    1    3    3    0    0 -0.33099032329E+03  0.46335166042E+03  0.27555882386E+03  0.63259942452E+03  0.10566000000E+00 0.  1.
          4    1    3    3  501    0 -0.15666212537E+03 -0.50991529042E+03  0.18490826958E+03  0.56457744649E+03  0.00000000000E+00 0.  1.
         13    1    4    4    0    0  0.56651016647E+03 -0.24327926642E+03 -0.41565967970E+03  0.74356677620E+03  0.10566000000E+00 0. -1.
         -4    1    4    4    0  503 -0.78857717811E+02  0.28984289642E+03  0.22219003158E+03  0.37362528608E+03  0.00000000000E+00 0. -1.
<mgrwt>
<rscale>  2 0.11038864E+04</rscale>
<asrwt>0</asrwt>
<pdfrwt beam="1">  1       21 0.19856665E+00 0.11050803E+04</pdfrwt>
<pdfrwt beam="2">  1       21 0.15749011E+00 0.11050803E+04</pdfrwt>
<totfact> 0.15708426E+01</totfact>
</mgrwt>
</event>
<event>
 8    1  0.7208583E-006  0.1351400E+04  0.7818608E-02  0.8516497E-01
         21   -1    0    0  503  502  0.00000000000E+00  0.00000000000E+00  0.13500002910E+04  0.13500002910E+04  0.00000000000E+00 0. -1.
         21   -1    0    0  501  503 -0.00000000000E+00 -0.00000000000E+00 -0.14809268971E+04  0.14809268971E+04  0.00000000000E+00 0. -1.
    9000010    2    1    2  501    0 -0.17712103032E+03 -0.76394896567E+03 -0.60984368249E+03  0.13971751799E+04  0.98244556318E+03 0.  0.
   -9000010    2    1    2    0  502  0.17712103032E+03  0.76394896567E+03  0.47891707636E+03  0.14337520083E+04  0.11005877401E+04 0.  0.
        -13    1    3    3    0    0 -0.48787815518E+03 -0.79968907837E+03 -0.38928825085E+03  0.10144323880E+04  0.10566000000E+00 0.  1.
          4    1    3    3  501    0  0.31075712486E+03  0.35740112700E+02 -0.22055543164E+03  0.38274279188E+03  0.00000000000E+00 0.  1.
         13    1    4    4    0    0  0.20913322243E+03 -0.24244296190E+03  0.33609978336E+01  0.32019775447E+03  0.10566000000E+00 0. -1.
         -4    1    4    4    0  502 -0.32012192106E+02  0.10063919276E+04  0.47555607853E+03  0.11135542538E+04  0.00000000000E+00 0. -1.
<mgrwt>
<rscale>  2 0.13271704E+04</rscale>
<asrwt>0</asrwt>
<pdfrwt beam="1">  1       21 0.20769235E+00 0.13514005E+04</pdfrwt>
<pdfrwt beam="2">  1       21 0.22783491E+00 0.13514005E+04</pdfrwt>
<totfact> 0.34738936E+00</totfact>
</mgrwt>
</event>
<event>
 8    1  0.7208583E-006  0.1206673E+04  0.7818608E-02  0.8602257E-01
         21   -1    0    0  503  502  0.00000000000E+00  0.00000000000E+00  0.10701487624E+04  0.10701487624E+04  0.00000000000E+00 0.  1.
         21   -1    0    0  501  503 -0.00000000000E+00 -0.00000000000E+00 -0.14779533366E+04  0.14779533366E+04  0.00000000000E+00 0.  1.
    9000010    2    1    2  501    0  0.18418080695E+03  0.63193138335E+03 -0.56958929338E+03  0.13343508323E+04  0.10113359172E+04 0.  0.
   -9000010    2    1    2    0  502 -0.18418080695E+03 -0.63193138335E+03  0.16178471923E+03  0.12137512667E+04  0.10068555006E+04 0.  0.
        -13    1    3    3    0    0  0.51783282491E+03  0.64360038256E+02 -0.11516518460E+03  0.53437447542E+03  0.10566000000E+00 0.  1.
          4    1    3    3  501    0 -0.33365201796E+03  0.56757134510E+03 -0.45442410878E+03  0.79997635684E+03  0.00000000000E+00 0.  1.
         13    1    4    4    0    0 -0.59221135191E+03 -0.41384518081E+03 -0.33995168973E+01  0.72249130576E+03  0.10566000000E+00 0. -1.
         -4    1    4    4    0  502  0.40803054496E+03 -0.21808620254E+03  0.16518423613E+03  0.49125996094E+03  0.00000000000E+00 0. -1.
<mgrwt>
<rscale>  2 0.12057339E+04</rscale>
<asrwt>0</asrwt>
<pdfrwt beam="1">  1       21 0.16463827E+00 0.12066732E+04</pdfrwt>
<pdfrwt beam="2">  1       21 0.22737744E+00 0.12066732E+04</pdfrwt>
<totfact> 0.80353952E+00</totfact>
</mgrwt>
</event>
<event>
 8    1  0.7208583E-006  0.1071111E+04  0.7818608E-02  0.8711152E-01
         21   -1    0    0  503  502  0.00000000000E+00  0.00000000000E+00  0.12471265149E+04  0.12471265149E+04  0.00000000000E+00 0.  1.
         21   -1    0    0  501  503 -0.00000000000E+00 -0.00000000000E+00 -0.98924140534E+03  0.98924140534E+03  0.00000000000E+00 0.  1.
    9000010    2    1    2  501    0  0.31021745117E+03  0.15788837471E+03 -0.17230053662E+03  0.10848806190E+04  0.10129732853E+04 0.  0.
   -9000010    2    1    2    0  502 -0.31021745117E+03 -0.15788837471E+03  0.43018564616E+03  0.11514873012E+04  0.10098018166E+04 0.  0.
        -13    1    3    3    0    0  0.42453574743E+03  0.47166684245E+03  0.11430969867E+03  0.64479991430E+03  0.10566000000E+00 0.  1.
          4    1    3    3  501    0 -0.11431829625E+03 -0.31377846774E+03 -0.28661023528E+03  0.44008070470E+03  0.00000000000E+00 0.  1.
         13    1    4    4    0    0 -0.27280100180E+03 -0.58164823264E+03  0.27119992092E+03  0.69734099362E+03  0.10566000000E+00 0. -1.
         -4    1    4    4    0  502 -0.37416449369E+02  0.42375985793E+03  0.15898572524E+03  0.45414630760E+03  0.00000000000E+00 0. -1.
<mgrwt>
<rscale>  2 0.10703604E+04</rscale>
<asrwt>0</asrwt>
<pdfrwt beam="1">  1       21 0.19186562E+00 0.10711109E+04</pdfrwt>
<pdfrwt beam="2">  1       21 0.15219098E+00 0.10711109E+04</pdfrwt>
<totfact> 0.19895029E+01</totfact>
</mgrwt>
</event>
<event>
 8    1  0.7208583E-006  0.1071478E+04  0.7818608E-02  0.8710853E-01
         21   -1    0    0  501  502  0.00000000000E+00  0.00000000000E+00  0.84692472215E+03  0.84692472215E+03  0.00000000000E+00 0. -1.
         21   -1    0    0  502  503 -0.00000000000E+00 -0.00000000000E+00 -0.15483305361E+04  0.15483305361E+04  0.00000000000E+00 0. -1.
    9000010    2    1    2  501    0  0.28571397927E+03 -0.13188576906E+03  0.75682686454E+02  0.10741479092E+04  0.10242263069E+04 0.  0.
   -9000010    2    1    2    0  503 -0.28571397927E+03  0.13188576906E+03 -0.77708850045E+03  0.13211073491E+04  0.10209954732E+04 0.  0.
        -13    1    3    3    0    0 -0.37652932590E+03 -0.25501957995E+02 -0.79550538116E+02  0.38568508190E+03  0.10566000000E+00 0.  1.
          4    1    3    3  501    0  0.66224330518E+03 -0.10638381107E+03  0.15523322457E+03  0.68846282726E+03  0.00000000000E+00 0.  1.
         13    1    4    4    0    0 -0.65063637228E+03  0.12319021100E+03 -0.31801865740E+03  0.73460152099E+03  0.10566000000E+00 0. -1.
         -4    1    4    4    0  503  0.36492239300E+03  0.86955580601E+01 -0.45906984304E+03  0.58650582814E+03  0.00000000000E+00 0. -1.
<mgrwt>
<rscale>  2 0.10707055E+04</rscale>
<asrwt>0</asrwt>
<pdfrwt beam="1">  1       21 0.13029611E+00 0.10714784E+04</pdfrwt>
<pdfrwt beam="2">  1       21 0.23820470E+00 0.10714784E+04</pdfrwt>
<totfact> 0.14052567E+01</totfact>
</mgrwt>
</event>
<event>
 8    1  0.7208583E-006  0.1056239E+04  0.7818608E-02  0.8725915E-01
         21   -1    0    0  501  502  0.00000000000E+00  0.00000000000E+00  0.18456148157E+04  0.18456148157E+04  0.00000000000E+00 0. -1.
         21   -1    0    0  502  503 -0.00000000000E+00 -0.00000000000E+00 -0.63711059082E+03  0.63711059082E+03  0.00000000000E+00 0. -1.
    9000010    2    1    2  501    0  0.25846213983E+03 -0.21443022200E+03  0.91411052826E+03  0.13968674879E+04  0.10014278421E+04 0.  0.
   -9000010    2    1    2    0  503 -0.25846213983E+03  0.21443022200E+03  0.29439369665E+03  0.10858579187E+04  0.98976601938E+03 0.  0.
        -13    1    3    3    0    0  0.38147541137E+02 -0.30850030764E+03  0.10678813473E+04  0.11122042338E+04  0.10566000000E+00 0.  1.
          4    1    3    3  501    0  0.22031459870E+03  0.94070085637E+02 -0.15377081902E+03  0.28466325403E+03  0.00000000000E+00 0.  1.
         13    1    4    4    0    0 -0.55069755397E+03 -0.10945503283E+03  0.32465040936E+03  0.64857235496E+03  0.10566000000E+00 0. -1.
         -4    1    4    4    0  503  0.29223541414E+03  0.32388525484E+03 -0.30256712712E+02  0.43728556372E+03  0.00000000000E+00 0. -1.
<mgrwt>
<rscale>  2 0.10534655E+04</rscale>
<asrwt>0</asrwt>
<pdfrwt beam="1">  1       21 0.28394074E+00 0.10562390E+04</pdfrwt>
<pdfrwt beam="2">  1       21 0.98017015E-01 0.10562390E+04</pdfrwt>
<totfact> 0.14382406E+01</totfact>
</mgrwt>
</event>
<event>
 8    1  0.7208583E-006  0.1280026E+04  0.7818608E-02  0.8599501E-01
         21   -1    0    0  501  502  0.00000000000E+00  0.00000000000E+00  0.12731307020E+04  0.12731307020E+04  0.00000000000E+00 0. -1.
         21   -1    0    0  502  503 -0.00000000000E+00 -0.00000000000E+00 -0.19530086982E+04  0.19530086982E+04  0.00000000000E+00 0. -1.
    9000010    2    1    2  501    0 -0.78123102665E+02  0.18806812557E+03  0.78029847429E+03  0.12843409109E+04  0.99959643223E+03 0.  0.
   -9000010    2    1    2    0  503  0.78123102665E+02 -0.18806812557E+03 -0.14601764705E+04  0.19417984893E+04  0.12637219667E+04 0.  0.
        -13    1    3    3    0    0 -0.10676751517E+03  0.46189126369E+03  0.87335179413E+03  0.99372340681E+03  0.10566000000E+00 0.  1.
          4    1    3    3  501    0  0.28644412509E+02 -0.27382313812E+03 -0.93053319833E+02  0.29061750407E+03  0.00000000000E+00 0.  1.
         13    1    4    4    0    0  0.89052875302E+02  0.32308440867E+02 -0.16487978399E+04  0.16515170535E+04  0.10566000000E+00 0. -1.
         -4    1    4    4    0  503 -0.10929772638E+02 -0.22037656643E+03  0.18862136941E+03  0.29028143579E+03  0.00000000000E+00 0. -1.
<mgrwt>
<rscale>  2 0.12094223E+04</rscale>
<asrwt>0</asrwt>
<pdfrwt beam="1">  1       21 0.19586626E+00 0.12800258E+04</pdfrwt>
<pdfrwt beam="2">  1       21 0.30046288E+00 0.12800258E+04</pdfrwt>
<totfact> 0.13000243E+00</totfact>
</mgrwt>
</event>
<event>
 8    1  0.7208583E-006  0.1080663E+04  0.7818608E-02  0.8714021E-01
         21   -1    0    0  503  502  0.00000000000E+00  0.00000000000E+00  0.19245532850E+04  0.19245532850E+04  0.00000000000E+00 0. -1.
         21   -1    0    0  501  503 -0.00000000000E+00 -0.00000000000E+00 -0.74226335801E+03  0.74226335801E+03  0.00000000000E+00 0. -1.
    9000010    2    1    2  501    0  0.33301441228E+03  0.20730227583E+03 -0.49185941501E+02  0.10284136034E+04  0.94939056792E+03 0.  0.
   -9000010    2    1    2    0  502 -0.33301441228E+03 -0.20730227583E+03  0.12314758685E+04  0.16384030396E+04  0.10069552488E+04 0.  0.
        -13    1    3    3    0    0  0.18221178187E+03 -0.13704231826E+03 -0.43413445659E+03  0.49036156865E+03  0.10566000000E+00 0.  1.
          4    1    3    3  501    0  0.15080263041E+03  0.34434459409E+03  0.38494851509E+03  0.53805203475E+03  0.00000000000E+00 0.  1.
         13    1    4    4    0    0  0.83972971671E+02  0.35905096895E+03  0.52482343393E+03  0.64141149525E+03  0.10566000000E+00 0. -1.
         -4    1    4    4    0  502 -0.41698738395E+03 -0.56635324478E+03  0.70665243454E+03  0.99699154434E+03  0.00000000000E+00 0. -1.
<mgrwt>
<rscale>  2 0.10670511E+04</rscale>
<asrwt>0</asrwt>
<pdfrwt beam="1">  1       21 0.29608512E+00 0.10806626E+04</pdfrwt>
<pdfrwt beam="2">  1       21 0.11419436E+00 0.10806626E+04</pdfrwt>
<totfact> 0.77975803E+00</totfact>
</mgrwt>
</event>
<event>
 8    1  0.7208583E-006  0.1014122E+04  0.7818608E-02  0.8772042E-01
         21   -1    0    0  503  502  0.00000000000E+00  0.00000000000E+00  0.91076587362E+03  0.91076587362E+03  0.00000000000E+00 0.  1.
         21   -1    0    0  501  503 -0.00000000000E+00 -0.00000000000E+00 -0.11798338533E+04  0.11798338533E+04  0.00000000000E+00 0.  1.
    9000010    2    1    2  501    0 -0.30214439886E+02 -0.64072147107E+02 -0.43602563921E+03  0.10628261073E+04  0.96667617319E+03 0.  0.
   -9000010    2    1    2    0  502  0.30214439886E+02  0.64072147107E+02  0.16695765956E+03  0.10277736196E+04  0.10116449974E+04 0.  0.
        -13    1    3    3    0    0 -0.71470876572E+02 -0.14584000546E+03 -0.73365874252E+03  0.75142035841E+03  0.10566000000E+00 0.  1.
          4    1    3    3  501    0  0.41256436686E+02  0.81767858354E+02  0.29763310331E+03  0.31140574885E+03  0.00000000000E+00 0.  1.
         13    1    4    4    0    0 -0.15869269229E+03 -0.34844332210E+03 -0.21108021031E+03  0.43720817198E+03  0.10566000000E+00 0. -1.
         -4    1    4    4    0  502  0.18890713217E+03  0.41251546920E+03  0.37803786986E+03  0.59056544766E+03  0.00000000000E+00 0. -1.
<mgrwt>
<rscale>  2 0.10027178E+04</rscale>
<asrwt>0</asrwt>
<pdfrwt beam="1">  1       21 0.14011783E+00 0.10141222E+04</pdfrwt>
<pdfrwt beam="2">  1       21 0.18151290E+00 0.10141222E+04</pdfrwt>
<totfact> 0.31381514E+01</totfact>
</mgrwt>
</event>
<event>
 8    1  0.7208583E-006  0.1033140E+04  0.7818608E-02  0.8744447E-01
         21   -1    0    0  501  502  0.00000000000E+00  0.00000000000E+00  0.13267125455E+04  0.13267125455E+04  0.00000000000E+00 0. -1.
         21   -1    0    0  502  503 -0.00000000000E+00 -0.00000000000E+00 -0.84167158968E+03  0.84167158968E+03  0.00000000000E+00 0. -1.
    9000010    2    1    2  501    0 -0.14244950079E+03  0.12331668169E+03  0.47449926394E+03  0.11368940400E+04  0.10158147678E+04 0.  0.
   -9000010    2    1    2    0  503  0.14244950079E+03 -0.12331668169E+03  0.10541691853E+02  0.10314900951E+04  0.10140817644E+04 0.  0.
        -13    1    3    3    0    0 -0.34689163645E+03  0.85934577223E+02 -0.21478780339E+03  0.41695607760E+03  0.10566000000E+00 0.  1.
          4    1    3    3  501    0  0.20444213566E+03  0.37382104463E+02  0.68928706733E+03  0.71993796243E+03  0.00000000000E+00 0.  1.
         13    1    4    4    0    0  0.47664880190E+03  0.12032140566E+02 -0.29345754866E+03  0.55987158956E+03  0.10566000000E+00 0. -1.
         -4    1    4    4    0  503 -0.33419930112E+03 -0.13534882225E+03  0.30399924051E+03  0.47161850556E+03  0.00000000000E+00 0. -1.
<mgrwt>
<rscale>  2 0.10327139E+04</rscale>
<asrwt>0</asrwt>
<pdfrwt beam="1">  1       21 0.20410962E+00 0.10331401E+04</pdfrwt>
<pdfrwt beam="2">  1       21 0.12948794E+00 0.10331401E+04</pdfrwt>
<totfact> 0.26072515E+01</totfact>
</mgrwt>
</event>
<event>
 8    1  0.7208583E-006  0.1011474E+04  0.7818608E-02  0.8772114E-01
         21   -1    0    0  503  502  0.00000000000E+00  0.00000000000E+00  0.17662489291E+04  0.17662489291E+04  0.00000000000E+00 0.  1.
         21   -1    0    0  501  503 -0.00000000000E+00 -0.00000000000E+00 -0.72164872709E+03  0.72164872709E+03  0.00000000000E+00 0.  1.
    9000010    2    1    2  501    0  0.11324901903E+03  0.28641275846E+03 -0.74489514863E+02  0.97944113293E+03  0.92676784393E+03 0.  0.
   -9000010    2    1    2    0  502 -0.11324901903E+03 -0.28641275846E+03  0.11190897169E+04  0.15084565233E+04  0.96344261875E+03 0.  0.
        -13    1    3    3    0    0 -0.29961019094E+03 -0.54649204422E+01  0.24006844067E+03  0.38396484115E+03  0.10566000000E+00 0.  1.
          4    1    3    3  501    0  0.41285920996E+03  0.29187767891E+03 -0.31455795553E+03  0.59547629179E+03  0.00000000000E+00 0.  1.
         13    1    4    4    0    0  0.41591105346E+03 -0.49902835228E+02  0.59064461062E+03  0.72410866903E+03  0.10566000000E+00 0. -1.
         -4    1    4    4    0  502 -0.52916007248E+03 -0.23650992324E+03  0.52844510625E+03  0.78434785422E+03  0.00000000000E+00 0. -1.
<mgrwt>
<rscale>  2 0.10026415E+04</rscale>
<asrwt>0</asrwt>
<pdfrwt beam="1">  1       21 0.27173060E+00 0.10114738E+04</pdfrwt>
<pdfrwt beam="2">  1       21 0.11102288E+00 0.10114738E+04</pdfrwt>
<totfact> 0.12753467E+01</totfact>
</mgrwt>
</event>
<event>
 8    1  0.7208583E-006  0.1017954E+04  0.7818608E-02  0.8773536E-01
         21   -1    0    0  501  502  0.00000000000E+00  0.00000000000E+00  0.84327943225E+03  0.84327943225E+03  0.00000000000E+00 0. -1.
         21   -1    0    0  502  503 -0.00000000000E+00 -0.00000000000E+00 -0.12265679379E+04  0.12265679379E+04  0.00000000000E+00 0. -1.
    9000010    2    1    2  501    0 -0.60765203933E+02 -0.13742062466E+03  0.71406907084E+02  0.95495814046E+03  0.94035592493E+03 0.  0.
   -9000010    2    1    2    0  503  0.60765203933E+02  0.13742062466E+03 -0.45469541269E+03  0.11148892296E+04  0.10068034753E+04 0.  0.
        -13    1    3    3    0    0 -0.11114875153E+02  0.30941921620E+03  0.31661920151E+03  0.44284480547E+03  0.10566000000E+00 0.  1.
          4    1    3    3  501    0 -0.49650328780E+02 -0.44683984086E+03 -0.24521229443E+03  0.51211333498E+03  0.00000000000E+00 0.  1.
         13    1    4    4    0    0  0.20315728719E+03  0.51718622731E+03 -0.44046224197E+03  0.70905675007E+03  0.10566000000E+00 0. -1.
         -4    1    4    4    0  503 -0.14239208325E+03 -0.37976560265E+03 -0.14233170728E+02  0.40583247958E+03  0.00000000000E+00 0. -1.
<mgrwt>
<rscale>  2 0.10011238E+04</rscale>
<asrwt>0</asrwt>
<pdfrwt beam="1">  1       21 0.12973530E+00 0.10179539E+04</pdfrwt>
<pdfrwt beam="2">  1       21 0.18870276E+00 0.10179539E+04</pdfrwt>
<totfact> 0.34386693E+01</totfact>
</mgrwt>
</event>
<event>
 8    1  0.7208583E-006  0.1108231E+04  0.7818608E-02  0.8715379E-01
         21   -1    0    0  501  502  0.00000000000E+00  0.00000000000E+00  0.15020759006E+04  0.15020759006E+04  0.00000000000E+00 0. -1.
         21   -1    0    0  502  503 -0.00000000000E+00 -0.00000000000E+00 -0.72410092728E+03  0.72410092728E+03  0.00000000000E+00 0. -1.
    9000010    2    1    2  501    0 -0.42635104523E+03  0.15780938496E+03  0.22899424477E+03  0.11316422914E+04  0.10106912960E+04 0.  0.
   -9000010    2    1    2    0  503  0.42635104523E+03 -0.15780938496E+03  0.54898072853E+03  0.10945345365E+04  0.83063048069E+03 0.  0.
        -13    1    3    3    0    0 -0.54106263035E+03 -0.23064175230E+03 -0.11611295642E+03  0.59952199099E+03  0.10566000000E+00 0.  1.
          4    1    3    3  501    0  0.11471158512E+03  0.38845113726E+03  0.34510720119E+03  0.53212030041E+03  0.00000000000E+00 0.  1.
         13    1    4    4    0    0  0.52093944778E+03  0.20719299217E+03  0.40189905922E+03  0.68980410932E+03  0.10566000000E+00 0. -1.
         -4    1    4    4    0  503 -0.94588402548E+02 -0.36500237713E+03  0.14708166930E+03  0.40473042714E+03  0.00000000000E+00 0. -1.
<mgrwt>
<rscale>  2 0.10654894E+04</rscale>
<asrwt>0</asrwt>
<pdfrwt beam="1">  1       21 0.23108860E+00 0.11082310E+04</pdfrwt>
<pdfrwt beam="2">  1       21 0.11140014E+00 0.11082310E+04</pdfrwt>
<totfact> 0.24427628E+01</totfact>
</mgrwt>
</event>
<event>
 8    1  0.7208583E-006  0.1094641E+04  0.7818608E-02  0.8695574E-01
         21   -1    0    0  501  502  0.00000000000E+00  0.00000000000E+00  0.20295787715E+04  0.20295787715E+04  0.00000000000E+00 0. -1.
         21   -1    0    0  502  503 -0.00000000000E+00 -0.00000000000E+00 -0.13098995751E+04  0.13098995751E+04  0.00000000000E+00 0. -1.
    9000010    2    1    2  501    0  0.11939873881E+03 -0.40114182654E+03  0.16101839806E+04  0.19470315032E+04  0.10114684372E+04 0.  0.
   -9000010    2    1    2    0  503 -0.11939873881E+03  0.40114182654E+03 -0.89050478412E+03  0.13924468434E+04  0.98526068501E+03 0.  0.
        -13    1    3    3    0    0  0.32496871420E+03 -0.56945359592E+03  0.55531471560E+03  0.85921854475E+03  0.10566000000E+00 0.  1.
          4    1    3    3  501    0 -0.20556997539E+03  0.16831176938E+03  0.10548692649E+04  0.10878129585E+04  0.00000000000E+00 0.  1.
         13    1    4    4    0    0 -0.14366473678E+03 -0.11853828179E+03  0.14337781579E+03  0.23504912267E+03  0.10566000000E+00 0. -1.
         -4    1    4    4    0  503  0.24265997969E+02  0.51968010833E+03 -0.10338825999E+04  0.11573977208E+04  0.00000000000E+00 0. -1.
<mgrwt>
<rscale>  2 0.10885481E+04</rscale>
<asrwt>0</asrwt>
<pdfrwt beam="1">  1       21 0.31224289E+00 0.10946411E+04</pdfrwt>
<pdfrwt beam="2">  1       21 0.20152301E+00 0.10946411E+04</pdfrwt>
<totfact> 0.10118916E+00</totfact>
</mgrwt>
</event>
<event>
 8    1  0.7208583E-006  0.1286015E+04  0.7818608E-02  0.8548269E-01
         21   -1    0    0  501  502  0.00000000000E+00  0.00000000000E+00  0.79110528727E+03  0.79110528727E+03  0.00000000000E+00 0.  1.
         21   -1    0    0  502  503 -0.00000000000E+00 -0.00000000000E+00 -0.30524094557E+04  0.30524094557E+04  0.00000000000E+00 0.  1.
    9000010    2    1    2  501    0 -0.80538115521E+03  0.18675750939E+03 -0.38791012183E+02  0.12866003346E+04  0.98504746381E+03 0.  0.
   -9000010    2    1    2    0  503  0.80538115521E+03 -0.18675750939E+03 -0.22225131562E+04  0.25569144083E+04  0.95641486262E+03 0.  0.
        -13    1    3    3    0    0  0.10976324548E+03  0.28255481925E+03 -0.18469271164E+03  0.35496000456E+03  0.10566000000E+00 0.  1.
          4    1    3    3  501    0 -0.91514440070E+03 -0.95797309855E+02  0.14590169946E+03  0.93164033007E+03  0.00000000000E+00 0.  1.
         13    1    4    4    0    0  0.92673650325E+02 -0.43041945859E+03 -0.12600790461E+04  0.13347840760E+04  0.10566000000E+00 0. -1.
         -4    1    4    4    0  503  0.71270750489E+03  0.24366194919E+03 -0.96243411011E+03  0.12221303324E+04  0.00000000000E+00 0. -1.
<mgrwt>
<rscale>  2 0.12805310E+04</rscale>
<asrwt>0</asrwt>
<pdfrwt beam="1">  1       21 0.12170850E+00 0.12860154E+04</pdfrwt>
<pdfrwt beam="2">  1       21 0.46960146E+00 0.12860154E+04</pdfrwt>
<totfact> 0.38397616E-01</totfact>
</mgrwt>
</event>
<event>
 8    1  0.7208583E-006  0.1092795E+04  0.7818608E-02  0.8715944E-01
         21   -1    0    0  503  502  0.00000000000E+00  0.00000000000E+00  0.12500996123E+04  0.12500996123E+04  0.00000000000E+00 0. -1.
         21   -1    0    0  501  503 -0.00000000000E+00 -0.00000000000E+00 -0.88869846594E+03  0.88869846594E+03  0.00000000000E+00 0. -1.
    9000010    2    1    2  501    0  0.28948298311E+03 -0.11333123926E+03  0.36948483452E+03  0.11535681454E+04  0.10476430956E+04 0.  0.
   -9000010    2    1    2    0  502 -0.28948298311E+03  0.11333123926E+03 -0.80836881533E+01  0.98522993289E+03  0.93486272112E+03 0.  0.
        -13    1    3    3    0    0 -0.13252968459E+03 -0.49159226031E+02 -0.31592350088E+03  0.34610463212E+03  0.10566000000E+00 0.  1.
          4    1    3    3  501    0  0.42201266770E+03 -0.64172013226E+02  0.68540833540E+03  0.80746351324E+03  0.00000000000E+00 0.  1.
         13    1    4    4    0    0  0.12103373518E+03 -0.27986154523E+03  0.21657960012E+03  0.37400318702E+03  0.10566000000E+00 0. -1.
         -4    1    4    4    0  502 -0.41051671829E+03  0.39319278448E+03 -0.22466328828E+03  0.61122674587E+03  0.00000000000E+00 0. -1.
<mgrwt>
<rscale>  2 0.10648408E+04</rscale>
<asrwt>0</asrwt>
<pdfrwt beam="1">  1       21 0.19232302E+00 0.10927948E+04</pdfrwt>
<pdfrwt beam="2">  1       21 0.13672284E+00 0.10927948E+04</pdfrwt>
<totfact> 0.27164056E+01</totfact>
</mgrwt>
</event>
<event>
 8    1  0.7208583E-006  0.1010124E+04  0.7818608E-02  0.8768367E-01
         21   -1    0    0  503  502  0.00000000000E+00  0.00000000000E+00  0.50309058102E+03  0.50309058102E+03  0.00000000000E+00 0. -1.
         21   -1    0    0  501  503 -0.00000000000E+00 -0.00000000000E+00 -0.20274410452E+04  0.20274410452E+04  0.00000000000E+00 0. -1.
    9000010    2    1    2  501    0 -0.20448434051E+03 -0.90205451127E+02 -0.90281323208E+03  0.13445049613E+04  0.97091245228E+03 0.  0.
   -9000010    2    1    2    0  502  0.20448434051E+03  0.90205451127E+02 -0.62153723211E+03  0.11860266649E+04  0.98508875242E+03 0.  0.
        -13    1    3    3    0    0 -0.37517460735E+03 -0.42556124618E+03 -0.32167614882E+03  0.65217629222E+03  0.10566000000E+00 0.  1.
          4    1    3    3  501    0  0.17069026684E+03  0.33535579506E+03 -0.58113708326E+03  0.69232866907E+03  0.00000000000E+00 0.  1.
         13    1    4    4    0    0  0.26339437594E+03  0.51491913968E+03 -0.40158767244E+03  0.70412426993E+03  0.10566000000E+00 0. -1.
         -4    1    4    4    0  502 -0.58910035426E+02 -0.42471368856E+03 -0.21994955967E+03  0.48190239502E+03  0.00000000000E+00 0. -1.
<mgrwt>
<rscale>  2 0.10066512E+04</rscale>
<asrwt>0</asrwt>
<pdfrwt beam="1">  1       21 0.77398551E-01 0.10101241E+04</pdfrwt>
<pdfrwt beam="2">  1       21 0.31191401E+00 0.10101241E+04</pdfrwt>
<totfact> 0.16702501E+01</totfact>
</mgrwt>
</event>
<event>
 8    1  0.7208583E-006  0.1052625E+04  0.7818608E-02  0.8741200E-01
         21   -1    0    0  503  502  0.00000000000E+00  0.00000000000E+00  0.10018569756E+04  0.10018569756E+04  0.00000000000E+00 0.  1.
         21   -1    0    0  501  503 -0.00000000000E+00 -0.00000000000E+00 -0.10490119162E+04  0.10490119162E+04  0.00000000000E+00 0.  1.
    9000010    2    1    2  501    0  0.17068386235E+03  0.26241633526E+03 -0.11781135570E+03  0.99587528201E+03  0.93802598467E+03 0.  0.
   -9000010    2    1    2    0  502 -0.17068386235E+03 -0.26241633526E+03  0.70656415109E+02  0.10549936097E+04  0.10049994397E+04 0.  0.
        -13    1    3    3    0    0 -0.52451073417E+02 -0.10487011674E+03  0.34495358084E+03  0.36433753661E+03  0.10566000000E+00 0.  1.
          4    1    3    3  501    0  0.22313493577E+03  0.36728645200E+03 -0.46276493654E+03  0.63153774540E+03  0.00000000000E+00 0.  1.
         13    1    4    4    0    0 -0.21158532607E+03  0.51950923865E+02 -0.41866068281E+03  0.47195765403E+03  0.10566000000E+00 0. -1.
         -4    1    4    4    0  502  0.40901463717E+02 -0.31436725912E+03  0.48931709792E+03  0.58303595572E+03  0.00000000000E+00 0. -1.
<mgrwt>
<rscale>  2 0.10363140E+04</rscale>
<asrwt>0</asrwt>
<pdfrwt beam="1">  1       21 0.15413184E+00 0.10526249E+04</pdfrwt>
<pdfrwt beam="2">  1       21 0.16138645E+00 0.10526249E+04</pdfrwt>
<totfact> 0.34257777E+01</totfact>
</mgrwt>
</event>
<event>
 8    1  0.7208583E-006  0.1061459E+04  0.7818608E-02  0.8728663E-01
         21   -1    0    0  501  502  0.00000000000E+00  0.00000000000E+00  0.13224352303E+04  0.13224352303E+04  0.00000000000E+00 0. -1.
         21   -1    0    0  502  503 -0.00000000000E+00 -0.00000000000E+00 -0.82220879078E+03  0.82220879078E+03  0.00000000000E+00 0. -1.
    9000010    2    1    2  501    0  0.53738802583E+02  0.19148483295E+03  0.32807021991E+03  0.10693142924E+04  0.99812258092E+03 0.  0.
   -9000010    2    1    2    0  503 -0.53738802583E+02 -0.19148483295E+03  0.17215621964E+03  0.10753297287E+04  0.10426610002E+04 0.  0.
        -13    1    3    3    0    0 -0.29548612475E+03 -0.22946435490E+03 -0.85305774843E+02  0.38372259052E+03  0.10566000000E+00 0.  1.
          4    1    3    3  501    0  0.34922492733E+03  0.42094918786E+03  0.41337599475E+03  0.68559170186E+03  0.00000000000E+00 0.  1.
         13    1    4    4    0    0 -0.65433474902E+02 -0.30943953002E+03  0.57454388683E+03  0.65584682010E+03  0.10566000000E+00 0. -1.
         -4    1    4    4    0  503  0.11694672319E+02  0.11795469707E+03 -0.40238766719E+03  0.41948290863E+03  0.00000000000E+00 0. -1.
<mgrwt>
<rscale>  2 0.10503577E+04</rscale>
<asrwt>0</asrwt>
<pdfrwt beam="1">  1       21 0.20345157E+00 0.10614595E+04</pdfrwt>
<pdfrwt beam="2">  1       21 0.12649366E+00 0.10614595E+04</pdfrwt>
<totfact> 0.28035226E+01</totfact>
</mgrwt>
</event>
<event>
 8    1  0.7208583E-006  0.1260186E+04  0.7818608E-02  0.8569576E-01
         21   -1    0    0  501  502  0.00000000000E+00  0.00000000000E+00  0.19346665731E+04  0.19346665731E+04  0.00000000000E+00 0.  1.
         21   -1    0    0  502  503 -0.00000000000E+00 -0.00000000000E+00 -0.11405201589E+04  0.11405201589E+04  0.00000000000E+00 0.  1.
    9000010    2    1    2  501    0 -0.47018704050E+03  0.52800083965E+03  0.12467424125E+04  0.17726918996E+04  0.10431726549E+04 0.  0.
   -9000010    2    1    2    0  503  0.47018704050E+03 -0.52800083965E+03 -0.45259599839E+03  0.13024948324E+04  0.99588599297E+03 0.  0.
        -13    1    3    3    0    0  0.20288707966E+03  0.53111880075E+03  0.72343860372E+03  0.92011617317E+03  0.10566000000E+00 0.  1.
          4    1    3    3  501    0 -0.67307412017E+03 -0.31179610978E+01  0.52330380879E+03  0.85257572638E+03  0.00000000000E+00 0.  1.
         13    1    4    4    0    0 -0.16485251004E+03 -0.24206476252E+03 -0.52615999482E+03  0.60217609603E+03  0.10566000000E+00 0. -1.
         -4    1    4    4    0  503  0.63503955054E+03 -0.28593607714E+03  0.73563996436E+02  0.70031873639E+03  0.00000000000E+00 0. -1.
<mgrwt>
<rscale>  2 0.12503582E+04</rscale>
<asrwt>0</asrwt>
<pdfrwt beam="1">  1       21 0.29764101E+00 0.12601865E+04</pdfrwt>
<pdfrwt beam="2">  1       21 0.17546464E+00 0.12601865E+04</pdfrwt>
<totfact> 0.19984145E+00</totfact>
</mgrwt>
</event>
<event>
 8    1  0.7208583E-006  0.1037572E+04  0.7818608E-02  0.8742801E-01
         21   -1    0    0  501  502  0.00000000000E+00  0.00000000000E+00  0.25117661725E+04  0.25117661725E+04  0.00000000000E+00 0.  1.
         21   -1    0    0  502  503 -0.00000000000E+00 -0.00000000000E+00 -0.52208539363E+03  0.52208539363E+03  0.00000000000E+00 0.  1.
    9000010    2    1    2  501    0 -0.90436481754E+02 -0.17688509217E+03  0.16583082399E+04  0.19561546050E+04  0.10183749444E+04 0.  0.
   -9000010    2    1    2    0  503  0.90436481754E+02  0.17688509217E+03  0.33137253902E+03  0.10776969611E+04  0.10060595844E+04 0.  0.
        -13    1    3    3    0    0  0.15548317639E+03 -0.27406816320E+03  0.16620968636E+04  0.16917016201E+04  0.10566000000E+00 0.  1.
          4    1    3    3  501    0 -0.24591965814E+03  0.97183071035E+02 -0.37886237750E+01  0.26445298491E+03  0.00000000000E+00 0.  1.
         13    1    4    4    0    0 -0.14005521614E+03  0.51750106769E+03 -0.20397001754E+02  0.53650616722E+03  0.10566000000E+00 0. -1.
         -4    1    4    4    0  503  0.23049169790E+03 -0.34061597552E+03  0.35176954077E+03  0.54119079389E+03  0.00000000000E+00 0. -1.
<mgrwt>
<rscale>  2 0.10345370E+04</rscale>
<asrwt>0</asrwt>
<pdfrwt beam="1">  1       21 0.38642556E+00 0.10375715E+04</pdfrwt>
<pdfrwt beam="2">  1       21 0.80320831E-01 0.10375715E+04</pdfrwt>
<totfact> 0.45509302E+00</totfact>
</mgrwt>
</event>
<event>
 8    1  0.7208583E-006  0.1024484E+04  0.7818608E-02  0.8756240E-01
         21   -1    0    0  501  502  0.00000000000E+00  0.00000000000E+00  0.24290867233E+04  0.24290867233E+04  0.00000000000E+00 0.  1.
         21   -1    0    0  502  503 -0.00000000000E+00 -0.00000000000E+00 -0.48516207952E+03  0.48516207952E+03  0.00000000000E+00 0.  1.
    9000010    2    1    2  501    0  0.96437064849E+02  0.17101264939E+03  0.14962574637E+04  0.18133821110E+04  0.10054963197E+04 0.  0.
   -9000010    2    1    2    0  503 -0.96437064849E+02 -0.17101264939E+03  0.44766718005E+03  0.11008666918E+04  0.98638538888E+03 0.  0.
        -13    1    3    3    0    0  0.51272848228E+03  0.15194389522E+03  0.11620499797E+04  0.12791941254E+04  0.10566000000E+00 0.  1.
          4    1    3    3  501    0 -0.41629141743E+03  0.19068754166E+02  0.33420748402E+03  0.53418798562E+03  0.00000000000E+00 0.  1.
         13    1    4    4    0    0  0.44197893437E+03 -0.10589495398E+02  0.16436562738E+03  0.47167105749E+03  0.10566000000E+00 0. -1.
         -4    1    4    4    0  503 -0.53841599922E+03 -0.16042315399E+03  0.28330155267E+03  0.62919563436E+03  0.00000000000E+00 0. -1.
<mgrwt>
<rscale>  2 0.10197644E+04</rscale>
<asrwt>0</asrwt>
<pdfrwt beam="1">  1       21 0.37370564E+00 0.10244844E+04</pdfrwt>
<pdfrwt beam="2">  1       21 0.74640321E-01 0.10244844E+04</pdfrwt>
<totfact> 0.66928441E+00</totfact>
</mgrwt>
</event>
<event>
 8    1  0.7208583E-006  0.1024653E+04  0.7818608E-02  0.8757845E-01
         21   -1    0    0  503  502  0.00000000000E+00  0.00000000000E+00  0.42458614884E+03  0.42458614884E+03  0.00000000000E+00 0. -1.
         21   -1    0    0  501  503 -0.00000000000E+00 -0.00000000000E+00 -0.24993134833E+04  0.24993134833E+04  0.00000000000E+00 0. -1.
    9000010    2    1    2  501    0 -0.51389458793E+02  0.14371085394E+03 -0.13270690155E+04  0.16766111624E+04  0.10132221533E+04 0.  0.
   -9000010    2    1    2    0  502  0.51389458793E+02 -0.14371085394E+03 -0.74765831891E+03  0.12472884697E+04  0.98663158206E+03 0.  0.
        -13    1    3    3    0    0  0.18969190612E+03 -0.51275786947E+02  0.97028258062E+02  0.21914999339E+03  0.10566000000E+00 0.  1.
          4    1    3    3  501    0 -0.24108136492E+03  0.19498664089E+03 -0.14240972736E+04  0.14574611691E+04  0.00000000000E+00 0.  1.
         13    1    4    4    0    0  0.19653955567E+03 -0.45373396583E+03 -0.75775743572E+03  0.90481967885E+03  0.10566000000E+00 0. -1.
         -4    1    4    4    0  502 -0.14515009687E+03  0.31002311189E+03  0.10099116809E+02  0.34246879082E+03  0.00000000000E+00 0. -1.
<mgrwt>
<rscale>  2 0.10180168E+04</rscale>
<asrwt>0</asrwt>
<pdfrwt beam="1">  1       21 0.65320948E-01 0.10246525E+04</pdfrwt>
<pdfrwt beam="2">  1       21 0.38450976E+00 0.10246525E+04</pdfrwt>
<totfact> 0.77121799E+00</totfact>
</mgrwt>
</event>
<event>
 8    1  0.7208583E-006  0.9965821E+03  0.7818608E-02  0.8778183E-01
         21   -1    0    0  503  502  0.00000000000E+00  0.00000000000E+00  0.14176155114E+04  0.14176155114E+04  0.00000000000E+00 0.  1.
         21   -1    0    0  501  503 -0.00000000000E+00 -0.00000000000E+00 -0.90070768471E+03  0.90070768471E+03  0.00000000000E+00 0.  1.
    9000010    2    1    2  501    0 -0.11679836259E+02  0.64300659439E+02 -0.28927271866E+03  0.10377160009E+04  0.99443692577E+03 0.  0.
   -9000010    2    1    2    0  502  0.11679836259E+02 -0.64300659439E+02  0.80618054534E+03  0.12806071952E+04  0.99285282060E+03 0.  0.
        -13    1    3    3    0    0 -0.42839256815E+03 -0.20519879645E+03 -0.25780537021E+03  0.54045384501E+03  0.10566000000E+00 0.  1.
          4    1    3    3  501    0  0.41671273189E+03  0.26949945589E+03 -0.31467348451E+02  0.49726215587E+03  0.00000000000E+00 0.  1.
         13    1    4    4    0    0  0.48870104179E+03  0.76385255614E+02  0.45194871823E+03  0.67001572414E+03  0.10566000000E+00 0. -1.
         -4    1    4    4    0  502 -0.47702120553E+03 -0.14068591505E+03  0.35423182711E+03  0.61059147108E+03  0.00000000000E+00 0. -1.
<mgrwt>
<rscale>  2 0.99618665E+03</rscale>
<asrwt>0</asrwt>
<pdfrwt beam="1">  1       21 0.21809469E+00 0.99658206E+03</pdfrwt>
<pdfrwt beam="2">  1       21 0.13857041E+00 0.99658206E+03</pdfrwt>
<totfact> 0.16862408E+01</totfact>
</mgrwt>
</event>
<event>
 8    1  0.7208583E-006  0.1037177E+04  0.7818608E-02  0.8741998E-01
         21   -1    0    0  503  502  0.00000000000E+00  0.00000000000E+00  0.97553338551E+03  0.97553338551E+03  0.00000000000E+00 0. -1.
         21   -1    0    0  501  503 -0.00000000000E+00 -0.00000000000E+00 -0.13928097733E+04  0.13928097733E+04  0.00000000000E+00 0. -1.
    9000010    2    1    2  501    0  0.10484617800E+03  0.24420210659E+03 -0.75536742515E+03  0.12774530933E+04  0.99532862341E+03 0.  0.
   -9000010    2    1    2    0  502 -0.10484617800E+03 -0.24420210659E+03  0.33809103736E+03  0.10908900656E+04  0.10025508445E+04 0.  0.
        -13    1    3    3    0    0  0.43854213331E+02 -0.14753043490E+03  0.19458257427E+03  0.24809435831E+03  0.10566000000E+00 0.  1.
          4    1    3    3  501    0  0.60991964667E+02  0.39173254149E+03 -0.94994999942E+03  0.10293587350E+04  0.00000000000E+00 0.  1.
         13    1    4    4    0    0 -0.44691351402E+03 -0.38428826557E+03 -0.79426975159E+00  0.58941479630E+03  0.10566000000E+00 0. -1.
         -4    1    4    4    0  502  0.34206733602E+03  0.14008615898E+03  0.33888530711E+03  0.50147526927E+03  0.00000000000E+00 0. -1.
<mgrwt>
<rscale>  2 0.10354275E+04</rscale>
<asrwt>0</asrwt>
<pdfrwt beam="1">  1       21 0.15008206E+00 0.10371767E+04</pdfrwt>
<pdfrwt beam="2">  1       21 0.21427843E+00 0.10371767E+04</pdfrwt>
<totfact> 0.14023176E+01</totfact>
</mgrwt>
</event>
<event>
 8    1  0.7208583E-006  0.1094665E+04  0.7818608E-02  0.8723397E-01
         21   -1    0    0  503  502  0.00000000000E+00  0.00000000000E+00  0.15083061070E+04  0.15083061070E+04  0.00000000000E+00 0. -1.
         21   -1    0    0  501  503 -0.00000000000E+00 -0.00000000000E+00 -0.74892227590E+03  0.74892227590E+03  0.00000000000E+00 0. -1.
    9000010    2    1    2  501    0 -0.72191169248E+02  0.55583352776E+02  0.66409204632E+03  0.11584238211E+04  0.94478909251E+03 0.  0.
   -9000010    2    1    2    0  502  0.72191169248E+02 -0.55583352776E+02  0.95291784746E+02  0.10988045618E+04  0.10908665668E+04 0.  0.
        -13    1    3    3    0    0  0.32513799404E+03  0.18845029245E+03  0.30694101549E+01  0.37581599265E+03  0.10566000000E+00 0.  1.
          4    1    3    3  501    0 -0.39732916329E+03 -0.13286693967E+03  0.66102263616E+03  0.78260782846E+03  0.00000000000E+00 0.  1.
         13    1    4    4    0    0 -0.19086716808E+03 -0.39879082655E+03 -0.28244285960E+03  0.52463166059E+03  0.10566000000E+00 0. -1.
         -4    1    4    4    0  502  0.26305833733E+03  0.34320747377E+03  0.37773464434E+03  0.57417290116E+03  0.00000000000E+00 0. -1.
<mgrwt>
<rscale>  2 0.10563238E+04</rscale>
<asrwt>0</asrwt>
<pdfrwt beam="1">  1       21 0.23204709E+00 0.10946648E+04</pdfrwt>
<pdfrwt beam="2">  1       21 0.11521881E+00 0.10946648E+04</pdfrwt>
<totfact> 0.21969971E+01</totfact>
</mgrwt>
</event>
<event>
 8    1  0.7208583E-006  0.9685095E+03  0.7818608E-02  0.8822265E-01
         21   -1    0    0  501  502  0.00000000000E+00  0.00000000000E+00  0.94113459316E+03  0.94113459316E+03  0.00000000000E+00 0.  1.
         21   -1    0    0  502  503 -0.00000000000E+00 -0.00000000000E+00 -0.93603388955E+03  0.93603388955E+03  0.00000000000E+00 0.  1.
    9000010    2    1    2  501    0 -0.57555198162E+02 -0.13296653077E+02  0.94913040560E+02  0.90450359333E+03  0.89756830562E+03 0.  0.
   -9000010    2    1    2    0  503  0.57555198162E+02  0.13296653077E+02 -0.89812336951E+02  0.97266488939E+03  0.96670643391E+03 0.  0.
        -13    1    3    3    0    0  0.20013490094E+03 -0.20472545922E+03  0.37958577653E+03  0.47544911940E+03  0.10566000000E+00 0.  1.
          4    1    3    3  501    0 -0.25769009910E+03  0.19142880615E+03 -0.28467273597E+03  0.42905447393E+03  0.00000000000E+00 0.  1.
         13    1    4    4    0    0 -0.24839989458E+03  0.13508304982E+03 -0.42001563513E+03  0.50632310128E+03  0.10566000000E+00 0. -1.
         -4    1    4    4    0  503  0.30595509274E+03 -0.12178639675E+03  0.33020329818E+03  0.46634178810E+03  0.00000000000E+00 0. -1.
<mgrwt>
<rscale>  2 0.95077867E+03</rscale>
<asrwt>0</asrwt>
<pdfrwt beam="1">  1       21 0.14478994E+00 0.96850954E+03</pdfrwt>
<pdfrwt beam="2">  1       21 0.14400521E+00 0.96850954E+03</pdfrwt>
<totfact> 0.60245627E+01</totfact>
</mgrwt>
</event>
<event>
 8    1  0.7208583E-006  0.1095219E+04  0.7818608E-02  0.8691323E-01
         21   -1    0    0  501  502  0.00000000000E+00  0.00000000000E+00  0.11544012202E+04  0.11544012202E+04  0.00000000000E+00 0. -1.
         21   -1    0    0  502  503 -0.00000000000E+00 -0.00000000000E+00 -0.10588874511E+04  0.10588874511E+04  0.00000000000E+00 0. -1.
    9000010    2    1    2  501    0 -0.33811675168E+02 -0.40444319601E+03 -0.12561067686E+03  0.11023989449E+04  0.10172452327E+04 0.  0.
   -9000010    2    1    2    0  503  0.33811675168E+02  0.40444319601E+03  0.22112444589E+03  0.11108897264E+04  0.10101794075E+04 0.  0.
        -13    1    3    3    0    0 -0.43197942251E+03 -0.52228854637E+03 -0.11168604248E+03  0.68692454490E+03  0.10566000000E+00 0.  1.
          4    1    3    3  501    0  0.39816774734E+03  0.11784535037E+03 -0.13924634378E+02  0.41547440001E+03  0.00000000000E+00 0.  1.
         13    1    4    4    0    0 -0.70022549870E+02  0.73611777720E+03  0.12159961411E+03  0.74937241524E+03  0.10566000000E+00 0. -1.
         -4    1    4    4    0  503  0.10383422504E+03 -0.33167458120E+03  0.99524831784E+02  0.36151731112E+03  0.00000000000E+00 0. -1.
<mgrwt>
<rscale>  2 0.10935757E+04</rscale>
<asrwt>0</asrwt>
<pdfrwt beam="1">  1       21 0.17760019E+00 0.10952193E+04</pdfrwt>
<pdfrwt beam="2">  1       21 0.16290576E+00 0.10952193E+04</pdfrwt>
<totfact> 0.20815874E+01</totfact>
</mgrwt>
</event>
<event>
 8    1  0.7208583E-006  0.1033314E+04  0.7818608E-02  0.8745393E-01
         21   -1    0    0  503  502  0.00000000000E+00  0.00000000000E+00  0.65740246002E+03  0.65740246002E+03  0.00000000000E+00 0. -1.
         21   -1    0    0  501  503 -0.00000000000E+00 -0.00000000000E+00 -0.17051530101E+04  0.17051530101E+04  0.00000000000E+00 0. -1.
    9000010    2    1    2  501    0  0.22710947373E+03  0.78224158971E+02 -0.24897916607E+03  0.10565029035E+04  0.99825348876E+03 0.  0.
   -9000010    2    1    2    0  502 -0.22710947373E+03 -0.78224158971E+02 -0.79877138403E+03  0.13060525667E+04  0.10050073884E+04 0.  0.
        -13    1    3    3    0    0  0.15787550382E+03 -0.13664323703E+02  0.38281573547E+03  0.41431785737E+03  0.10566000000E+00 0.  1.
          4    1    3    3  501    0  0.69233969905E+02  0.91888482674E+02 -0.63179490154E+03  0.64218504611E+03  0.00000000000E+00 0.  1.
         13    1    4    4    0    0 -0.52687568793E+03 -0.33246709181E+03 -0.37094031965E+03  0.72507178236E+03  0.10566000000E+00 0. -1.
         -4    1    4    4    0  502  0.29976621420E+03  0.25424293284E+03 -0.42783106438E+03  0.58098078430E+03  0.00000000000E+00 0. -1.
<mgrwt>
<rscale>  2 0.10316680E+04</rscale>
<asrwt>0</asrwt>
<pdfrwt beam="1">  1       21 0.10113884E+00 0.10333139E+04</pdfrwt>
<pdfrwt beam="2">  1       21 0.26233122E+00 0.10333139E+04</pdfrwt>
<totfact> 0.19010862E+01</totfact>
</mgrwt>
</event>
<event>
 8    1  0.7208583E-006  0.1042131E+04  0.7818608E-02  0.8737368E-01
         21   -1    0    0  503  502  0.00000000000E+00  0.00000000000E+00  0.80854367834E+03  0.80854367834E+03  0.00000000000E+00 0.  1.
         21   -1    0    0  501  503 -0.00000000000E+00 -0.00000000000E+00 -0.15304140878E+04  0.15304140878E+04  0.00000000000E+00 0.  1.
    9000010    2    1    2  501    0 -0.14352023664E+03  0.23365825414E+03  0.57632537698E+02  0.10375502258E+04  0.99899685868E+03 0.  0.
   -9000010    2    1    2    0  502  0.14352023664E+03 -0.23365825414E+03 -0.77950294720E+03  0.13014075404E+04  0.10054066358E+04 0.  0.
        -13    1    3    3    0    0 -0.45406584410E+03  0.84582626421E+02 -0.29223406990E+03  0.54656269013E+03  0.10566000000E+00 0.  1.
          4    1    3    3  501    0  0.31054560746E+03  0.14907562772E+03  0.34986660759E+03  0.49098753569E+03  0.00000000000E+00 0.  1.
         13    1    4    4    0    0  0.24075421605E+03  0.33887467456E+03 -0.51892997685E+03  0.66489620968E+03  0.10566000000E+00 0. -1.
         -4    1    4    4    0  502 -0.97233979407E+02 -0.57253292870E+03 -0.26057297035E+03  0.63651133068E+03  0.00000000000E+00 0. -1.
<mgrwt>
<rscale>  2 0.10405818E+04</rscale>
<asrwt>0</asrwt>
<pdfrwt beam="1">  1       21 0.12439134E+00 0.10421309E+04</pdfrwt>
<pdfrwt beam="2">  1       21 0.23544832E+00 0.10421309E+04</pdfrwt>
<totfact> 0.16931095E+01</totfact>
</mgrwt>
</event>
<event>
 8    1  0.7208583E-006  0.1021138E+04  0.7818608E-02  0.8810193E-01
         21   -1    0    0  501  502  0.00000000000E+00  0.00000000000E+00  0.15231652763E+04  0.15231652763E+04  0.00000000000E+00 0.  1.
         21   -1    0    0  502  503 -0.00000000000E+00 -0.00000000000E+00 -0.63800582062E+03  0.63800582062E+03  0.00000000000E+00 0.  1.
    9000010    2    1    2  501    0 -0.10317520402E+02 -0.20026812270E+03  0.79960091984E+03  0.11364552099E+04  0.78227555301E+03 0.  0.
   -9000010    2    1    2    0  503  0.10317520402E+02  0.20026812270E+03  0.85558535814E+02  0.10247158870E+04  0.10012535213E+04 0.  0.
        -13    1    3    3    0    0 -0.24534457570E+03 -0.32871847008E+03  0.76281311890E+03  0.86610256837E+03  0.10566000000E+00 0.  1.
          4    1    3    3  501    0  0.23502705530E+03  0.12845034739E+03  0.36787800940E+02  0.27035264150E+03  0.00000000000E+00 0.  1.
         13    1    4    4    0    0 -0.18263378547E+03  0.56210307740E+03 -0.49202787992E+02  0.59307326253E+03  0.10566000000E+00 0. -1.
         -4    1    4    4    0  503  0.19295130587E+03 -0.36183495471E+03  0.13476132381E+03  0.43164262450E+03  0.00000000000E+00 0. -1.
<mgrwt>
<rscale>  2 0.96296004E+03</rscale>
<asrwt>0</asrwt>
<pdfrwt beam="1">  1       21 0.23433312E+00 0.10211378E+04</pdfrwt>
<pdfrwt beam="2">  1       21 0.98154742E-01 0.10211378E+04</pdfrwt>
<totfact> 0.32979596E+01</totfact>
</mgrwt>
</event>
<event>
 8    1  0.7208583E-006  0.1093623E+04  0.7818608E-02  0.8704216E-01
         21   -1    0    0  503  502  0.00000000000E+00  0.00000000000E+00  0.14595699020E+04  0.14595699020E+04  0.00000000000E+00 0.  1.
         21   -1    0    0  501  503 -0.00000000000E+00 -0.00000000000E+00 -0.84333411691E+03  0.84333411691E+03  0.00000000000E+00 0.  1.
    9000010    2    1    2  501    0  0.72298599242E+02 -0.37473339913E+03 -0.26530174938E+02  0.10343772063E+04  0.96103077314E+03 0.  0.
   -9000010    2    1    2    0  502 -0.72298599242E+02  0.37473339913E+03  0.64276596007E+03  0.12685268126E+04  0.10248707172E+04 0.  0.
        -13    1    3    3    0    0 -0.14994335836E+03  0.24845013646E+03 -0.19749448251E+03  0.35101931971E+03  0.10566000000E+00 0.  1.
          4    1    3    3  501    0  0.22224195760E+03 -0.62318353559E+03  0.17096430757E+03  0.68335788663E+03  0.00000000000E+00 0.  1.
         13    1    4    4    0    0 -0.36287991668E+03 -0.18720735350E+03  0.68305147533E+02  0.41399762256E+03  0.10566000000E+00 0. -1.
         -4    1    4    4    0  502  0.29058131744E+03  0.56194075263E+03  0.57446081253E+03  0.85452919005E+03  0.00000000000E+00 0. -1.
<mgrwt>
<rscale>  2 0.10784124E+04</rscale>
<asrwt>0</asrwt>
<pdfrwt beam="1">  1       21 0.22454921E+00 0.10936234E+04</pdfrwt>
<pdfrwt beam="2">  1       21 0.12974371E+00 0.10936234E+04</pdfrwt>
<totfact> 0.17879375E+01</totfact>
</mgrwt>
</event>
<event>
 8    1  0.7339173E-006  0.9536014E+03  0.7818608E-02  0.8837552E-01
         21   -1    0    0  501  502  0.00000000000E+00  0.00000000000E+00  0.47420227264E+03  0.47420227264E+03  0.00000000000E+00 0.  1.
         21   -1    0    0  502  503 -0.00000000000E+00 -0.00000000000E+00 -0.20663206622E+04  0.20663206622E+04  0.00000000000E+00 0.  1.
    9000010    2    1    2  501    0  0.87625909723E+02  0.97400354933E+02 -0.29711645151E+03  0.93229854501E+03  0.87392062687E+03 0.  0.
   -9000010    2    1    2    0  503 -0.87625909723E+02 -0.97400354933E+02 -0.12950019380E+04  0.16082243898E+04  0.94455838319E+03 0.  0.
        -13    1    3    3    0    0  0.24034606719E+02  0.21013975405E+03  0.27431618545E+03  0.34638960625E+03  0.10566000000E+00 0.  1.
          4    1    3    3  501    0  0.63591303004E+02 -0.11273939912E+03 -0.57143263696E+03  0.58590893876E+03  0.00000000000E+00 0.  1.
         13    1    4    4    0    0 -0.15940596270E+03  0.22344529273E+03 -0.12459299409E+04  0.12758054274E+04  0.10566000000E+00 0. -1.
         -4    1    4    4    0  503  0.71780052977E+02 -0.32084564767E+03 -0.49071997072E+02  0.33241896235E+03  0.00000000000E+00 0. -1.
<mgrwt>
<rscale>  2 0.93562057E+03</rscale>
<asrwt>0</asrwt>
<pdfrwt beam="1">  1       21 0.72954196E-01 0.95360142E+03</pdfrwt>
<pdfrwt beam="2">  1       21 0.31789549E+00 0.95360142E+03</pdfrwt>
<totfact> 0.17707235E+01</totfact>
</mgrwt>
</event>
<event>
 8    1  0.7208583E-006  0.1035870E+04  0.7818608E-02  0.8779473E-01
         21   -1    0    0  501  502  0.00000000000E+00  0.00000000000E+00  0.30714960096E+03  0.30714960096E+03  0.00000000000E+00 0. -1.
         21   -1    0    0  502  503 -0.00000000000E+00 -0.00000000000E+00 -0.30543078409E+04  0.30543078409E+04  0.00000000000E+00 0. -1.
    9000010    2    1    2  501    0 -0.70894912203E+02  0.72341097085E+02 -0.10243340312E+04  0.13511961208E+04  0.87533503669E+03 0.  0.
   -9000010    2    1    2    0  503  0.70894912203E+02 -0.72341097085E+02 -0.17228242087E+04  0.20102613211E+04  0.10309063982E+04 0.  0.
        -13    1    3    3    0    0  0.30221724099E+03  0.23600348999E+03 -0.79746121030E+03  0.88486004607E+03  0.10566000000E+00 0.  1.
          4    1    3    3  501    0 -0.37311215319E+03 -0.16366239291E+03 -0.22687282088E+03  0.46633607470E+03  0.00000000000E+00 0.  1.
         13    1    4    4    0    0  0.19645565449E+03  0.32317722619E+03 -0.14840822147E+04  0.15315150587E+04  0.10566000000E+00 0. -1.
         -4    1    4    4    0  503 -0.12556074228E+03 -0.39551832328E+03 -0.23874199400E+03  0.47874626239E+03  0.00000000000E+00 0. -1.
<mgrwt>
<rscale>  2 0.99482040E+03</rscale>
<asrwt>0</asrwt>
<pdfrwt beam="1">  1       21 0.47253786E-01 0.10358703E+04</pdfrwt>
<pdfrwt beam="2">  1       21 0.46989350E+00 0.10358703E+04</pdfrwt>
<totfact> 0.40898547E+00</totfact>
</mgrwt>
</event>
<event>
 8    1  0.7208583E-006  0.1029708E+04  0.7818608E-02  0.8748779E-01
         21   -1    0    0  501  502  0.00000000000E+00  0.00000000000E+00  0.70078875595E+03  0.70078875595E+03  0.00000000000E+00 0. -1.
         21   -1    0    0  502  503 -0.00000000000E+00 -0.00000000000E+00 -0.15043953088E+04  0.15043953088E+04  0.00000000000E+00 0. -1.
    9000010    2    1    2  501    0 -0.11088753416E+03  0.84472670577E+02 -0.43820115389E+03  0.11125634869E+04  0.10130871551E+04 0.  0.
   -9000010    2    1    2    0  503  0.11088753416E+03 -0.84472670577E+02 -0.36540539892E+03  0.10926205778E+04  0.10202288685E+04 0.  0.
        -13    1    3    3    0    0  0.12042119782E+03 -0.15183509829E+03 -0.67731561037E+03  0.70449386738E+03  0.10566000000E+00 0.  1.
          4    1    3    3  501    0 -0.23130873197E+03  0.23630776887E+03  0.23911445648E+03  0.40806961957E+03  0.00000000000E+00 0.  1.
         13    1    4    4    0    0 -0.18055560581E+03 -0.61673001603E+02  0.30584320542E+03  0.36047741036E+03  0.10566000000E+00 0. -1.
         -4    1    4    4    0  503  0.29144313997E+03 -0.22799668974E+02 -0.67124860433E+03  0.73214316739E+03  0.00000000000E+00 0. -1.
<mgrwt>
<rscale>  2 0.10279346E+04</rscale>
<asrwt>0</asrwt>
<pdfrwt beam="1">  1       21 0.10781366E+00 0.10297080E+04</pdfrwt>
<pdfrwt beam="2">  1       21 0.23144543E+00 0.10297080E+04</pdfrwt>
<totfact> 0.26980480E+01</totfact>
</mgrwt>
</event>
<event>
 8    1  0.7208583E-006  0.1011242E+04  0.7818608E-02  0.8764536E-01
         21   -1    0    0  501  502  0.00000000000E+00  0.00000000000E+00  0.85475293570E+03  0.85475293570E+03  0.00000000000E+00 0. -1.
         21   -1    0    0  502  503 -0.00000000000E+00 -0.00000000000E+00 -0.12784016220E+04  0.12784016220E+04  0.00000000000E+00 0. -1.
    9000010    2    1    2  501    0 -0.46121804459E+01 -0.12880009479E+03  0.62156917604E+02  0.10112729549E+04  0.10010987815E+04 0.  0.
   -9000010    2    1    2    0  503  0.46121804459E+01  0.12880009479E+03 -0.48580560393E+03  0.11218816028E+04  0.10029957673E+04 0.  0.
        -13    1    3    3    0    0  0.36377281717E+02 -0.55220238166E+03 -0.87620721250E+02  0.56029294024E+03  0.10566000000E+00 0.  1.
          4    1    3    3  501    0 -0.40989462163E+02  0.42340228687E+03  0.14977763885E+03  0.45098001467E+03  0.00000000000E+00 0.  1.
         13    1    4    4    0    0 -0.71490499892E+01  0.44972274291E+02  0.31416340943E+03  0.31744648897E+03  0.10566000000E+00 0. -1.
         -4    1    4    4    0  503  0.11761230435E+02  0.83827820499E+02 -0.79996901335E+03  0.80443511383E+03  0.00000000000E+00 0. -1.
<mgrwt>
<rscale>  2 0.10107717E+04</rscale>
<asrwt>0</asrwt>
<pdfrwt beam="1">  1       21 0.13150045E+00 0.10112424E+04</pdfrwt>
<pdfrwt beam="2">  1       21 0.19667717E+00 0.10112424E+04</pdfrwt>
<totfact> 0.28638139E+01</totfact>
</mgrwt>
</event>
<event>
 8    1  0.7208583E-006  0.1075581E+04  0.7818608E-02  0.8712043E-01
         21   -1    0    0  501  502  0.00000000000E+00  0.00000000000E+00  0.19289895281E+04  0.19289895281E+04  0.00000000000E+00 0. -1.
         21   -1    0    0  502  503 -0.00000000000E+00 -0.00000000000E+00 -0.99925154555E+03  0.99925154555E+03  0.00000000000E+00 0. -1.
    9000010    2    1    2  501    0 -0.10918582895E+03  0.34057150383E+03  0.14095747017E+04  0.17730695145E+04  0.10143787110E+04 0.  0.
   -9000010    2    1    2    0  503  0.10918582895E+03 -0.34057150383E+03 -0.47983671911E+03  0.11551715591E+04  0.98806252816E+03 0.  0.
        -13    1    3    3    0    0 -0.39174216148E+03  0.20903285385E+03  0.13917747312E+04  0.14608879385E+04  0.10566000000E+00 0.  1.
          4    1    3    3  501    0  0.28255633253E+03  0.13153864997E+03  0.17799970430E+02  0.31218157607E+03  0.00000000000E+00 0.  1.
         13    1    4    4    0    0  0.43750916411E+02 -0.11837099764E+03 -0.77204453189E+03  0.78229061489E+03  0.10566000000E+00 0. -1.
         -4    1    4    4    0  503  0.65434912536E+02 -0.22220050619E+03  0.29220781277E+03  0.37288094424E+03  0.00000000000E+00 0. -1.
<mgrwt>
<rscale>  2 0.10693312E+04</rscale>
<asrwt>0</asrwt>
<pdfrwt beam="1">  1       21 0.29676762E+00 0.10755811E+04</pdfrwt>
<pdfrwt beam="2">  1       21 0.15373101E+00 0.10755811E+04</pdfrwt>
<totfact> 0.32404543E+00</totfact>
</mgrwt>
</event>
<event>
 8    1  0.7208583E-006  0.9503993E+03  0.7818608E-02  0.8824010E-01
         21   -1    0    0  501  502  0.00000000000E+00  0.00000000000E+00  0.55598208142E+03  0.55598208142E+03  0.00000000000E+00 0.  1.
         21   -1    0    0  502  503 -0.00000000000E+00 -0.00000000000E+00 -0.16644458005E+04  0.16644458005E+04  0.00000000000E+00 0.  1.
    9000010    2    1    2  501    0 -0.19695032552E+03 -0.11850250243E+03 -0.36503510492E+03  0.10180910859E+04  0.92218574998E+03 0.  0.
   -9000010    2    1    2    0  503  0.19695032552E+03  0.11850250243E+03 -0.74342861417E+03  0.12023367961E+04  0.91656717866E+03 0.  0.
        -13    1    3    3    0    0 -0.23184807362E+03  0.37646253104E+03 -0.91503756728E+02  0.45149807882E+03  0.10566000000E+00 0.  1.
          4    1    3    3  501    0  0.34897748105E+02 -0.49496503347E+03 -0.27353134819E+03  0.56659300704E+03  0.00000000000E+00 0.  1.
         13    1    4    4    0    0  0.13472871512E+03  0.38481461218E+03  0.26354061483E+01  0.40772670866E+03  0.10566000000E+00 0. -1.
         -4    1    4    4    0  503  0.62221610399E+02 -0.26631210974E+03 -0.74606402032E+03  0.79461008741E+03  0.00000000000E+00 0. -1.
<mgrwt>
<rscale>  2 0.94903366E+03</rscale>
<asrwt>0</asrwt>
<pdfrwt beam="1">  1       21 0.85535704E-01 0.95039930E+03</pdfrwt>
<pdfrwt beam="2">  1       21 0.25606859E+00 0.95039930E+03</pdfrwt>
<totfact> 0.33070453E+01</totfact>
</mgrwt>
</event>
<event>
 8    1  0.7208583E-006  0.1018795E+04  0.7818608E-02  0.8757784E-01
         21   -1    0    0  501  502  0.00000000000E+00  0.00000000000E+00  0.71716927957E+03  0.71716927957E+03  0.00000000000E+00 0.  1.
         21   -1    0    0  502  503 -0.00000000000E+00 -0.00000000000E+00 -0.14826573238E+04  0.14826573238E+04  0.00000000000E+00 0.  1.
    9000010    2    1    2  501    0 -0.16814275816E+03  0.93124261853E+02 -0.20392497609E+03  0.10390032876E+04  0.10004990357E+04 0.  0.
   -9000010    2    1    2    0  503  0.16814275816E+03 -0.93124261853E+02 -0.56156306812E+03  0.11608233158E+04  0.99760391724E+03 0.  0.
        -13    1    3    3    0    0 -0.17383866113E+03  0.34764154727E+03 -0.50978391796E+03  0.64105707988E+03  0.10566000000E+00 0.  1.
          4    1    3    3  501    0  0.56959029708E+01 -0.25451728541E+03  0.30585894187E+03  0.39794620768E+03  0.00000000000E+00 0.  1.
         13    1    4    4    0    0 -0.20320339584E+03 -0.98658804784E+01  0.21501608286E+03  0.29600824774E+03  0.10566000000E+00 0. -1.
         -4    1    4    4    0  503  0.37134615400E+03 -0.83258381375E+02 -0.77657915098E+03  0.86481506803E+03  0.00000000000E+00 0. -1.
<mgrwt>
<rscale>  2 0.10180831E+04</rscale>
<asrwt>0</asrwt>
<pdfrwt beam="1">  1       21 0.11033374E+00 0.10187946E+04</pdfrwt>
<pdfrwt beam="2">  1       21 0.22810113E+00 0.10187946E+04</pdfrwt>
<totfact> 0.26908588E+01</totfact>
</mgrwt>
</event>
<event>
 8    1  0.7208583E-006  0.1185666E+04  0.7818608E-02  0.8625906E-01
         21   -1    0    0  501  502  0.00000000000E+00  0.00000000000E+00  0.53650155620E+03  0.53650155620E+03  0.00000000000E+00 0.  1.
         21   -1    0    0  502  503 -0.00000000000E+00 -0.00000000000E+00 -0.33373556353E+04  0.33373556353E+04  0.00000000000E+00 0.  1.
    9000010    2    1    2  501    0  0.44274500519E+03 -0.32719105752E+03 -0.42519438290E+03  0.12187558675E+04  0.10007489563E+04 0.  0.
   -9000010    2    1    2    0  503 -0.44274500519E+03  0.32719105752E+03 -0.23756596962E+04  0.26551013241E+04  0.10501080521E+04 0.  0.
        -13    1    3    3    0    0  0.40864196469E+03 -0.45336205306E+03  0.15032030723E+03  0.62858699667E+03  0.10566000000E+00 0.  1.
          4    1    3    3  501    0  0.34103040504E+02  0.12617099554E+03 -0.57551469013E+03  0.59016887078E+03  0.00000000000E+00 0.  1.
         13    1    4    4    0    0  0.29653725824E+03  0.23979775587E+03 -0.44594309134E+03  0.58677300648E+03  0.10566000000E+00 0. -1.
         -4    1    4    4    0  503 -0.73928226343E+03  0.87393301651E+02 -0.19297166049E+04  0.20683283176E+04  0.00000000000E+00 0. -1.
<mgrwt>
<rscale>  2 0.11746418E+04</rscale>
<asrwt>0</asrwt>
<pdfrwt beam="1">  1       21 0.82538703E-01 0.11856661E+04</pdfrwt>
<pdfrwt beam="2">  1       21 0.51343932E+00 0.11856661E+04</pdfrwt>
<totfact> 0.54074111E-01</totfact>
</mgrwt>
</event>
<event>
 8    1  0.7208583E-006  0.1017813E+04  0.7818608E-02  0.8762294E-01
         21   -1    0    0  503  502  0.00000000000E+00  0.00000000000E+00  0.13394994375E+04  0.13394994375E+04  0.00000000000E+00 0. -1.
         21   -1    0    0  501  503 -0.00000000000E+00 -0.00000000000E+00 -0.81690823642E+03  0.81690823642E+03  0.00000000000E+00 0. -1.
    9000010    2    1    2  501    0  0.48735592129E+02  0.15954191705E+00 -0.22317874506E+02  0.10180575218E+04  0.10166453889E+04 0.  0.
   -9000010    2    1    2    0  502 -0.48735592129E+02 -0.15954191705E+00  0.54490907558E+03  0.11383501521E+04  0.99826849335E+03 0.  0.
        -13    1    3    3    0    0  0.13727949519E+03  0.19902925494E+03  0.44280405226E+03  0.50451337345E+03  0.10566000000E+00 0.  1.
          4    1    3    3  501    0 -0.88543903061E+02 -0.19886971302E+03 -0.46512192677E+03  0.51354414833E+03  0.00000000000E+00 0.  1.
         13    1    4    4    0    0  0.25076800937E+03  0.41553871035E+03  0.29885908781E+03  0.56997699941E+03  0.10566000000E+00 0. -1.
         -4    1    4    4    0  502 -0.29950360150E+03 -0.41569825227E+03  0.24604998777E+03  0.56837315272E+03  0.00000000000E+00 0. -1.
<mgrwt>
<rscale>  2 0.10131926E+04</rscale>
<asrwt>0</asrwt>
<pdfrwt beam="1">  1       21 0.20607684E+00 0.10178129E+04</pdfrwt>
<pdfrwt beam="2">  1       21 0.12567819E+00 0.10178129E+04</pdfrwt>
<totfact> 0.27520883E+01</totfact>
</mgrwt>
</event>
<event>
 8    1  0.7208583E-006  0.1007245E+04  0.7818608E-02  0.8767905E-01
         21   -1    0    0  503  502  0.00000000000E+00  0.00000000000E+00  0.71016065341E+03  0.71016065341E+03  0.00000000000E+00 0.  1.
         21   -1    0    0  501  503 -0.00000000000E+00 -0.00000000000E+00 -0.27688305469E+04  0.27688305469E+04  0.00000000000E+00 0.  1.
    9000010    2    1    2  501    0 -0.38011169537E+02  0.91384705173E+02 -0.22399075070E+04  0.24559577740E+04  0.10023706570E+04 0.  0.
   -9000010    2    1    2    0  502  0.38011169537E+02 -0.91384705173E+02  0.18123761356E+03  0.10230334263E+04  0.10019752020E+04 0.  0.
        -13    1    3    3    0    0 -0.23709159215E+03  0.35206768370E+03 -0.20126368898E+04  0.20569081989E+04  0.10566000000E+00 0.  1.
          4    1    3    3  501    0  0.19908042262E+03 -0.26068297853E+03 -0.22727061720E+03  0.39904957512E+03  0.00000000000E+00 0.  1.
         13    1    4    4    0    0 -0.41502874273E+03 -0.65892972315E+02 -0.16582847967E+03  0.45176303183E+03  0.10566000000E+00 0. -1.
         -4    1    4    4    0  502  0.45303991227E+03 -0.25491732857E+02  0.34706609323E+03  0.57127039449E+03  0.00000000000E+00 0. -1.
<mgrwt>
<rscale>  2 0.10071468E+04</rscale>
<asrwt>0</asrwt>
<pdfrwt beam="1">  1       21 0.10925548E+00 0.10072452E+04</pdfrwt>
<pdfrwt beam="2">  1       21 0.42597394E+00 0.10072452E+04</pdfrwt>
<totfact> 0.11043340E+00</totfact>
</mgrwt>
</event>
<event>
 8    1  0.7208583E-006  0.1009289E+04  0.7818608E-02  0.8769547E-01
         21   -1    0    0  501  502  0.00000000000E+00  0.00000000000E+00  0.76431336731E+03  0.76431336731E+03  0.00000000000E+00 0.  1.
         21   -1    0    0  502  503 -0.00000000000E+00 -0.00000000000E+00 -0.13759492811E+04  0.13759492811E+04  0.00000000000E+00 0.  1.
    9000010    2    1    2  501    0 -0.31719941051E+02 -0.16443442396E+02 -0.73523010732E+02  0.99648411251E+03  0.99312557711E+03 0.  0.
   -9000010    2    1    2    0  503  0.31719941051E+02  0.16443442396E+02 -0.53811290308E+03  0.11437785359E+04  0.10086561859E+04 0.  0.
        -13    1    3    3    0    0 -0.97095111013E+02  0.46327103024E+03 -0.16977042373E+03  0.50286132878E+03  0.10566000000E+00 0.  1.
          4    1    3    3  501    0  0.65375169962E+02 -0.47971447264E+03  0.96247413002E+02  0.49362278373E+03  0.00000000000E+00 0.  1.
         13    1    4    4    0    0 -0.27570547240E+03 -0.45989983215E+02  0.19871460767E+03  0.34295202658E+03  0.10566000000E+00 0. -1.
         -4    1    4    4    0  503  0.30742541345E+03  0.62433425611E+02 -0.73682751075E+03  0.80082650934E+03  0.00000000000E+00 0. -1.
<mgrwt>
<rscale>  2 0.10053860E+04</rscale>
<asrwt>0</asrwt>
<pdfrwt beam="1">  1       21 0.11758667E+00 0.10092888E+04</pdfrwt>
<pdfrwt beam="2">  1       21 0.21168450E+00 0.10092888E+04</pdfrwt>
<totfact> 0.30108066E+01</totfact>
</mgrwt>
</event>
<event>
 8    1  0.7208583E-006  0.1011331E+04  0.7818608E-02  0.8768427E-01
         21   -1    0    0  503  502  0.00000000000E+00  0.00000000000E+00  0.85565589595E+03  0.85565589595E+03  0.00000000000E+00 0.  1.
         21   -1    0    0  501  503 -0.00000000000E+00 -0.00000000000E+00 -0.12582332421E+04  0.12582332421E+04  0.00000000000E+00 0.  1.
    9000010    2    1    2  501    0  0.62589798036E+02  0.38313331014E+02 -0.47434354608E+03  0.11000152472E+04  0.98977085746E+03 0.  0.
   -9000010    2    1    2    0  502 -0.62589798036E+02 -0.38313331014E+02  0.71766199929E+02  0.10138738908E+04  0.10086647039E+04 0.  0.
        -13    1    3    3    0    0 -0.46393284992E+03  0.11439562456E+01 -0.20100452176E+03  0.50560639514E+03  0.10566000000E+00 0.  1.
          4    1    3    3  501    0  0.52652264796E+03  0.37169374768E+02 -0.27333902433E+03  0.59440885210E+03  0.00000000000E+00 0.  1.
         13    1    4    4    0    0 -0.51550856728E+03  0.99480715542E+02 -0.42899722573E+02  0.52676929777E+03  0.10566000000E+00 0. -1.
         -4    1    4    4    0  502  0.45291876925E+03 -0.13779404656E+03  0.11466592250E+03  0.48710459307E+03  0.00000000000E+00 0. -1.
<mgrwt>
<rscale>  2 0.10065867E+04</rscale>
<asrwt>0</asrwt>
<pdfrwt beam="1">  1       21 0.13163937E+00 0.10113307E+04</pdfrwt>
<pdfrwt beam="2">  1       21 0.19357435E+00 0.10113307E+04</pdfrwt>
<totfact> 0.30203825E+01</totfact>
</mgrwt>
</event>
<event>
 8    1  0.7208583E-006  0.1058835E+04  0.7818608E-02  0.8754656E-01
         21   -1    0    0  503  502  0.00000000000E+00  0.00000000000E+00  0.17096277696E+04  0.17096277696E+04  0.00000000000E+00 0. -1.
         21   -1    0    0  501  503 -0.00000000000E+00 -0.00000000000E+00 -0.83814716486E+03  0.83814716486E+03  0.00000000000E+00 0. -1.
    9000010    2    1    2  501    0 -0.79533286259E+02 -0.36623691133E+03 -0.30350370638E+03  0.96609208130E+03  0.83711671284E+03 0.  0.
   -9000010    2    1    2    0  502  0.79533286259E+02  0.36623691133E+03  0.11749843111E+04  0.15816828532E+04  0.99029162259E+03 0.  0.
        -13    1    3    3    0    0  0.36856838792E+03 -0.97147830366E+02 -0.20976057888E+03  0.43506306340E+03  0.10566000000E+00 0.  1.
          4    1    3    3  501    0 -0.44810167418E+03 -0.26908908096E+03 -0.93743127500E+02  0.53102901790E+03  0.00000000000E+00 0.  1.
         13    1    4    4    0    0 -0.18959533326E+03  0.41443730043E+03  0.12220356837E+04  0.13042530007E+04  0.10566000000E+00 0. -1.
         -4    1    4    4    0  502  0.26912861952E+03 -0.48200389106E+02 -0.47051372631E+02  0.27742985243E+03  0.00000000000E+00 0. -1.
<mgrwt>
<rscale>  2 0.10214921E+04</rscale>
<asrwt>0</asrwt>
<pdfrwt beam="1">  1       21 0.26301966E+00 0.10588355E+04</pdfrwt>
<pdfrwt beam="2">  1       21 0.12894572E+00 0.10588355E+04</pdfrwt>
<totfact> 0.95840449E+00</totfact>
</mgrwt>
</event>
<event>
 8    1  0.7208583E-006  0.1043679E+04  0.7818608E-02  0.8747004E-01
         21   -1    0    0  501  502  0.00000000000E+00  0.00000000000E+00  0.94073903061E+03  0.94073903061E+03  0.00000000000E+00 0.  1.
         21   -1    0    0  502  503 -0.00000000000E+00 -0.00000000000E+00 -0.11108815333E+04  0.11108815333E+04  0.00000000000E+00 0.  1.
    9000010    2    1    2  501    0 -0.95099616402E+02  0.22190682476E+03  0.20219525435E+02  0.10438745505E+04  0.10153711992E+04 0.  0.
   -9000010    2    1    2    0  503  0.95099616402E+02 -0.22190682476E+03 -0.19036202817E+03  0.10077460134E+04  0.95970190680E+03 0.  0.
        -13    1    3    3    0    0 -0.27038575437E+03 -0.25751575092E+03  0.28415116976E+03  0.46921713159E+03  0.10566000000E+00 0.  1.
          4    1    3    3  501    0  0.17528613796E+03  0.47942257568E+03 -0.26393164433E+03  0.57465741892E+03  0.00000000000E+00 0.  1.
         13    1    4    4    0    0 -0.22319737804E+03 -0.40578769453E+02 -0.48643558875E+03  0.53673391849E+03  0.10566000000E+00 0. -1.
         -4    1    4    4    0  503  0.31829699444E+03 -0.18132805531E+03  0.29607356058E+03  0.47101209494E+03  0.00000000000E+00 0. -1.
<mgrwt>
<rscale>  2 0.10298889E+04</rscale>
<asrwt>0</asrwt>
<pdfrwt beam="1">  1       21 0.14472908E+00 0.10436787E+04</pdfrwt>
<pdfrwt beam="2">  1       21 0.17090485E+00 0.10436787E+04</pdfrwt>
<totfact> 0.34595867E+01</totfact>
</mgrwt>
</event>
<event>
 8    1  0.7208583E-006  0.1052016E+04  0.7818608E-02  0.8729468E-01
         21   -1    0    0  501  502  0.00000000000E+00  0.00000000000E+00  0.79738242904E+03  0.79738242904E+03  0.00000000000E+00 0. -1.
         21   -1    0    0  502  503 -0.00000000000E+00 -0.00000000000E+00 -0.20550761848E+04  0.20550761848E+04  0.00000000000E+00 0. -1.
    9000010    2    1    2  501    0 -0.28768353880E+03  0.12175938034E+02  0.19395929260E+03  0.10596855905E+04  0.10012009147E+04 0.  0.
   -9000010    2    1    2    0  503  0.28768353880E+03 -0.12175938034E+02 -0.14516530484E+04  0.17927730234E+04  0.10118440929E+04 0.  0.
        -13    1    3    3    0    0 -0.44057299579E+03  0.75216177976E+02  0.52509186632E+03  0.68955312869E+03  0.10566000000E+00 0.  1.
          4    1    3    3  501    0  0.15288945699E+03 -0.63040239942E+02 -0.33113257372E+03  0.37013246182E+03  0.00000000000E+00 0.  1.
         13    1    4    4    0    0  0.80401209935E+02  0.23320763685E+03  0.54601591706E+02  0.25264896878E+03  0.10566000000E+00 0. -1.
         -4    1    4    4    0  503  0.20728232887E+03 -0.24538357489E+03 -0.15062546401E+04  0.15401240546E+04  0.00000000000E+00 0. -1.
<mgrwt>
<rscale>  2 0.10494489E+04</rscale>
<asrwt>0</asrwt>
<pdfrwt beam="1">  1       21 0.12267422E+00 0.10520164E+04</pdfrwt>
<pdfrwt beam="2">  1       21 0.31616556E+00 0.10520164E+04</pdfrwt>
<totfact> 0.46413576E+00</totfact>
</mgrwt>
</event>
<event>
 8    1  0.7208583E-006  0.1071415E+04  0.7818608E-02  0.8716594E-01
         21   -1    0    0  501  502  0.00000000000E+00  0.00000000000E+00  0.13482993876E+04  0.13482993876E+04  0.00000000000E+00 0.  1.
         21   -1    0    0  502  503 -0.00000000000E+00 -0.00000000000E+00 -0.91614799364E+03  0.91614799364E+03  0.00000000000E+00 0.  1.
    9000010    2    1    2  501    0 -0.25948786419E+03  0.16904736376E+03  0.56354338283E+03  0.11850055230E+04  0.99536223672E+03 0.  0.
   -9000010    2    1    2    0  503  0.25948786419E+03 -0.16904736376E+03 -0.13139198887E+03  0.10794418583E+04  0.10256802171E+04 0.  0.
        -13    1    3    3    0    0  0.17346006246E+03  0.28858364576E+03 -0.12816181215E+03  0.36026986431E+03  0.10566000000E+00 0.  1.
          4    1    3    3  501    0 -0.43294792665E+03 -0.11953628200E+03  0.69170519499E+03  0.82473565867E+03  0.00000000000E+00 0.  1.
         13    1    4    4    0    0  0.50704036414E+02 -0.15806093982E+03  0.44038977003E+03  0.47063501858E+03  0.10566000000E+00 0. -1.
         -4    1    4    4    0  503  0.20878382777E+03 -0.10986423941E+02 -0.57178175890E+03  0.60880683970E+03  0.00000000000E+00 0. -1.
<mgrwt>
<rscale>  2 0.10640939E+04</rscale>
<asrwt>0</asrwt>
<pdfrwt beam="1">  1       21 0.20743067E+00 0.10714154E+04</pdfrwt>
<pdfrwt beam="2">  1       21 0.14094585E+00 0.10714154E+04</pdfrwt>
<totfact> 0.18996346E+01</totfact>
</mgrwt>
</event>
<event>
 8    1  0.7208583E-006  0.1072118E+04  0.7818608E-02  0.8715144E-01
         21   -1    0    0  503  502  0.00000000000E+00  0.00000000000E+00  0.12202676354E+04  0.12202676354E+04  0.00000000000E+00 0. -1.
         21   -1    0    0  501  503 -0.00000000000E+00 -0.00000000000E+00 -0.11385488990E+04  0.11385488990E+04  0.00000000000E+00 0. -1.
    9000010    2    1    2  501    0 -0.36134354119E+03  0.13206814018E+03 -0.47630801358E+03  0.11501682196E+04  0.97365623353E+03 0.  0.
   -9000010    2    1    2    0  502  0.36134354119E+03 -0.13206814018E+03  0.55802674993E+03  0.12086483148E+04  0.10007126195E+04 0.  0.
        -13    1    3    3    0    0  0.32711070322E+03 -0.13132114013E+02 -0.24714979994E+03  0.41019129605E+03  0.10566000000E+00 0.  1.
          4    1    3    3  501    0 -0.68845424441E+03  0.14520025420E+03 -0.22915821364E+03  0.73997692352E+03  0.00000000000E+00 0.  1.
         13    1    4    4    0    0 -0.20609168800E+03  0.25775427429E+02  0.58325118191E+03  0.61912850757E+03  0.10566000000E+00 0. -1.
         -4    1    4    4    0  502  0.56743522919E+03 -0.15784356761E+03 -0.25224431982E+02  0.58951980724E+03  0.00000000000E+00 0. -1.
<mgrwt>
<rscale>  2 0.10657593E+04</rscale>
<asrwt>0</asrwt>
<pdfrwt beam="1">  1       21 0.18773348E+00 0.10721179E+04</pdfrwt>
<pdfrwt beam="2">  1       21 0.17516137E+00 0.10721179E+04</pdfrwt>
<totfact> 0.13654439E+01</totfact>
</mgrwt>
</event>
<event>
 8    1  0.7208583E-006  0.1061541E+04  0.7818608E-02  0.8719727E-01
         21   -1    0    0  501  502  0.00000000000E+00  0.00000000000E+00  0.71492317123E+03  0.71492317123E+03  0.00000000000E+00 0.  1.
         21   -1    0    0  502  503 -0.00000000000E+00 -0.00000000000E+00 -0.18896819285E+04  0.18896819285E+04  0.00000000000E+00 0.  1.
    9000010    2    1    2  501    0 -0.13572080166E+03 -0.32945993043E+03 -0.50854214623E+02  0.10586324646E+04  0.99556645290E+03 0.  0.
   -9000010    2    1    2    0  503  0.13572080166E+03  0.32945993043E+03 -0.11239045426E+04  0.15459726351E+04  0.99995299184E+03 0.  0.
        -13    1    3    3    0    0  0.23735188005E+03  0.26163361303E+03  0.32277041754E+02  0.35472507808E+03  0.10566000000E+00 0.  1.
          4    1    3    3  501    0 -0.37307268172E+03 -0.59109354346E+03 -0.83131256378E+02  0.70390738649E+03  0.00000000000E+00 0.  1.
         13    1    4    4    0    0 -0.11688208551E+03  0.63541816034E+03 -0.55119101940E+03  0.84925214833E+03  0.10566000000E+00 0. -1.
         -4    1    4    4    0  503  0.25260288717E+03 -0.30595822991E+03 -0.57271352320E+03  0.69672048679E+03  0.00000000000E+00 0. -1.
<mgrwt>
<rscale>  2 0.10605071E+04</rscale>
<asrwt>0</asrwt>
<pdfrwt beam="1">  1       21 0.10998818E+00 0.10615413E+04</pdfrwt>
<pdfrwt beam="2">  1       21 0.29072030E+00 0.10615413E+04</pdfrwt>
<totfact> 0.94716416E+00</totfact>
</mgrwt>
</event>
<event>
 8    1  0.7208583E-006  0.1027387E+04  0.7818608E-02  0.8792486E-01
         21   -1    0    0  501  502  0.00000000000E+00  0.00000000000E+00  0.70565905455E+03  0.70565905455E+03  0.00000000000E+00 0.  1.
         21   -1    0    0  502  503 -0.00000000000E+00 -0.00000000000E+00 -0.19157595591E+04  0.19157595591E+04  0.00000000000E+00 0.  1.
    9000010    2    1    2  501    0 -0.75810718005E+02 -0.16091580102E+03  0.12629494837E+03  0.10351208702E+04  0.10118713564E+04 0.  0.
   -9000010    2    1    2    0  503  0.75810718005E+02  0.16091580102E+03 -0.13363954529E+04  0.15862977435E+04  0.83591061988E+03 0.  0.
        -13    1    3    3    0    0 -0.25227325373E+03 -0.46993698069E+03 -0.18274281382E+03  0.56380626773E+03  0.10566000000E+00 0.  1.
          4    1    3    3  501    0  0.17646253572E+03  0.30902117967E+03  0.30903776219E+03  0.47131460242E+03  0.00000000000E+00 0.  1.
         13    1    4    4    0    0 -0.23794623873E+03 -0.12683952436E+03 -0.11556062580E+03  0.29336146111E+03  0.10566000000E+00 0. -1.
         -4    1    4    4    0  503  0.31375695673E+03  0.28775532539E+03 -0.12208348271E+04  0.12929362824E+04  0.00000000000E+00 0. -1.
<mgrwt>
<rscale>  2 0.98117133E+03</rscale>
<asrwt>0</asrwt>
<pdfrwt beam="1">  1       21 0.10856293E+00 0.10273874E+04</pdfrwt>
<pdfrwt beam="2">  1       21 0.29473224E+00 0.10273874E+04</pdfrwt>
<totfact> 0.92633964E+00</totfact>
</mgrwt>
</event>
<event>
 8    1  0.7208583E-006  0.1021130E+04  0.7818608E-02  0.8761802E-01
         21   -1    0    0  501  502  0.00000000000E+00  0.00000000000E+00  0.14630734408E+04  0.14630734408E+04  0.00000000000E+00 0.  1.
         21   -1    0    0  502  503 -0.00000000000E+00 -0.00000000000E+00 -0.79921469239E+03  0.79921469239E+03  0.00000000000E+00 0.  1.
    9000010    2    1    2  501    0  0.13883128192E+03  0.59059337743E+02 -0.77411996475E+02  0.10240604353E+04  0.10099232782E+04 0.  0.
   -9000010    2    1    2    0  503 -0.13883128192E+03 -0.59059337743E+02  0.74127074485E+03  0.12382276978E+04  0.98028739880E+03 0.  0.
        -13    1    3    3    0    0  0.12476089746E+03  0.47347963163E+03  0.19595917091E+03  0.52739762128E+03  0.10566000000E+00 0.  1.
          4    1    3    3  501    0  0.14070384463E+02 -0.41442029389E+03 -0.27337116738E+03  0.49666281405E+03  0.00000000000E+00 0.  1.
         13    1    4    4    0    0  0.32675425662E+03  0.13963694537E+03  0.18505400150E+02  0.35582198040E+03  0.10566000000E+00 0. -1.
         -4    1    4    4    0  503 -0.46558553855E+03 -0.19869628311E+03  0.72276534470E+03  0.88240571742E+03  0.00000000000E+00 0. -1.
<mgrwt>
<rscale>  2 0.10137249E+04</rscale>
<asrwt>0</asrwt>
<pdfrwt beam="1">  1       21 0.22508822E+00 0.10211303E+04</pdfrwt>
<pdfrwt beam="2">  1       21 0.12295611E+00 0.10211303E+04</pdfrwt>
<totfact> 0.20992032E+01</totfact>
</mgrwt>
</event>
<event>
 8    1  0.7208583E-006  0.1061049E+04  0.7818608E-02  0.8726404E-01
         21   -1    0    0  501  502  0.00000000000E+00  0.00000000000E+00  0.15179729578E+04  0.15179729578E+04  0.00000000000E+00 0. -1.
         21   -1    0    0  502  503 -0.00000000000E+00 -0.00000000000E+00 -0.76901589375E+03  0.76901589375E+03  0.00000000000E+00 0. -1.
    9000010    2    1    2  501    0  0.31757075114E+02 -0.23232693749E+03  0.65966986206E+03  0.12221900882E+04  0.10017983665E+04 0.  0.
   -9000010    2    1    2    0  503 -0.31757075114E+02  0.23232693749E+03  0.89287201969E+02  0.10647987633E+04  0.10348139370E+04 0.  0.
        -13    1    3    3    0    0 -0.96104598575E+02  0.26944142215E+03 -0.99818289004E+02  0.30298263287E+03  0.10566000000E+00 0.  1.
          4    1    3    3  501    0  0.12786167369E+03 -0.50176835964E+03  0.75948815106E+03  0.91920745533E+03  0.00000000000E+00 0.  1.
         13    1    4    4    0    0  0.20421709852E+03  0.58492882964E+03 -0.41162462191E+02  0.62091925283E+03  0.10566000000E+00 0. -1.
         -4    1    4    4    0  503 -0.23597417364E+03 -0.35260189215E+03  0.13044966416E+03  0.44387951051E+03  0.00000000000E+00 0. -1.
<mgrwt>
<rscale>  2 0.10529122E+04</rscale>
<asrwt>0</asrwt>
<pdfrwt beam="1">  1       21 0.23353430E+00 0.10610486E+04</pdfrwt>
<pdfrwt beam="2">  1       21 0.11831014E+00 0.10610486E+04</pdfrwt>
<totfact> 0.20051702E+01</totfact>
</mgrwt>
</event>
<event>
 8    1  0.7208583E-006  0.1036258E+04  0.7818608E-02  0.8747319E-01
         21   -1    0    0  503  502  0.00000000000E+00  0.00000000000E+00  0.10354963464E+04  0.10354963464E+04  0.00000000000E+00 0. -1.
         21   -1    0    0  501  503 -0.00000000000E+00 -0.00000000000E+00 -0.11502556911E+04  0.11502556911E+04  0.00000000000E+00 0. -1.
    9000010    2    1    2  501    0  0.16380654946E+03  0.22013596345E+03 -0.43754513579E+03  0.11003846710E+04  0.97165232988E+03 0.  0.
   -9000010    2    1    2    0  502 -0.16380654946E+03 -0.22013596345E+03  0.32278579112E+03  0.10853673666E+04  0.99926934581E+03 0.  0.
        -13    1    3    3    0    0  0.40338908757E+03  0.49260803197E+03 -0.20268793413E+03  0.66818248925E+03  0.10566000000E+00 0.  1.
          4    1    3    3  501    0 -0.23958253811E+03 -0.27247206853E+03 -0.23485720166E+03  0.43220218170E+03  0.00000000000E+00 0.  1.
         13    1    4    4    0    0 -0.14053358608E+03  0.32400737955E+03  0.40188136632E+03  0.53501319103E+03  0.10566000000E+00 0. -1.
         -4    1    4    4    0  502 -0.23272963383E+02 -0.54414334299E+03 -0.79095575202E+02  0.55035417557E+03  0.00000000000E+00 0. -1.
<mgrwt>
<rscale>  2 0.10295423E+04</rscale>
<asrwt>0</asrwt>
<pdfrwt beam="1">  1       21 0.15930713E+00 0.10362585E+04</pdfrwt>
<pdfrwt beam="2">  1       21 0.17696241E+00 0.10362585E+04</pdfrwt>
<totfact> 0.22925716E+01</totfact>
</mgrwt>
</event>
<event>
 8    1  0.7208583E-006  0.1004480E+04  0.7818608E-02  0.8785211E-01
         21   -1    0    0  503  502  0.00000000000E+00  0.00000000000E+00  0.33387972464E+04  0.33387972464E+04  0.00000000000E+00 0. -1.
         21   -1    0    0  501  503 -0.00000000000E+00 -0.00000000000E+00 -0.30840549365E+03  0.30840549365E+03  0.00000000000E+00 0. -1.
    9000010    2    1    2  501    0  0.82514108588E+02 -0.57850282645E+02  0.20717196160E+04  0.23023905591E+04  0.99941227026E+03 0.  0.
   -9000010    2    1    2    0  502 -0.82514108588E+02  0.57850282645E+02  0.95867213669E+03  0.13448121809E+04  0.93771653655E+03 0.  0.
        -13    1    3    3    0    0 -0.19314303261E+03  0.32667917285E+03  0.15598568590E+04  0.16053588212E+04  0.10566000000E+00 0.  1.
          4    1    3    3  501    0  0.27565714120E+03 -0.38452945549E+03  0.51186275698E+03  0.69703173789E+03  0.00000000000E+00 0.  1.
         13    1    4    4    0    0 -0.19669415326E+03  0.42631265442E+03  0.23564519210E+03  0.52531870038E+03  0.10566000000E+00 0. -1.
         -4    1    4    4    0  502  0.11418004467E+03 -0.36846237178E+03  0.72302694459E+03  0.81949348053E+03  0.00000000000E+00 0. -1.
<mgrwt>
<rscale>  2 0.98877446E+03</rscale>
<asrwt>0</asrwt>
<pdfrwt beam="1">  1       21 0.51366109E+00 0.10044800E+04</pdfrwt>
<pdfrwt beam="2">  1       21 0.47447001E-01 0.10044800E+04</pdfrwt>
<totfact> 0.20227647E+00</totfact>
</mgrwt>
</event>
<event>
 8    1  0.7208583E-006  0.1061513E+04  0.7818608E-02  0.8729418E-01
         21   -1    0    0  503  502  0.00000000000E+00  0.00000000000E+00  0.93883883171E+03  0.93883883171E+03  0.00000000000E+00 0. -1.
         21   -1    0    0  501  503 -0.00000000000E+00 -0.00000000000E+00 -0.11989716707E+04  0.11989716707E+04  0.00000000000E+00 0. -1.
    9000010    2    1    2  501    0  0.10777461998E+03 -0.11926443375E+03 -0.34882995224E+03  0.10725982566E+04  0.10014715726E+04 0.  0.
   -9000010    2    1    2    0  502 -0.10777461998E+03  0.11926443375E+03  0.88697113269E+02  0.10652122458E+04  0.10492714505E+04 0.  0.
        -13    1    3    3    0    0  0.16633782328E+03  0.22994047036E+03 -0.58278070617E+03  0.64820849579E+03  0.10566000000E+00 0.  1.
          4    1    3    3  501    0 -0.58563203300E+02 -0.34920490412E+03  0.23395075393E+03  0.42438976084E+03  0.00000000000E+00 0.  1.
         13    1    4    4    0    0  0.25774443076E+02 -0.38102202649E+03 -0.24079020401E+03  0.45146654372E+03  0.10566000000E+00 0. -1.
         -4    1    4    4    0  502 -0.13354906305E+03  0.50028646024E+03  0.32948731728E+03  0.61374570205E+03  0.00000000000E+00 0. -1.
<mgrwt>
<rscale>  2 0.10495051E+04</rscale>
<asrwt>0</asrwt>
<pdfrwt beam="1">  1       21 0.14443674E+00 0.10615130E+04</pdfrwt>
<pdfrwt beam="2">  1       21 0.18445718E+00 0.10615130E+04</pdfrwt>
<totfact> 0.26831388E+01</totfact>
</mgrwt>
</event>
<event>
 8    1  0.7208583E-006  0.1096488E+04  0.7818608E-02  0.8689844E-01
         21   -1    0    0  501  502  0.00000000000E+00  0.00000000000E+00  0.11109416177E+04  0.11109416177E+04  0.00000000000E+00 0.  1.
         21   -1    0    0  502  503 -0.00000000000E+00 -0.00000000000E+00 -0.11727355867E+04  0.11727355867E+04  0.00000000000E+00 0.  1.
    9000010    2    1    2  501    0  0.13335824673E+03  0.42561162407E+03  0.29426325250E+03  0.11308274681E+04  0.99661939794E+03 0.  0.
   -9000010    2    1    2    0  503 -0.13335824673E+03 -0.42561162407E+03 -0.35605722150E+03  0.11528497362E+04  0.10016766409E+04 0.  0.
        -13    1    3    3    0    0 -0.31320460869E+02  0.51386900200E+03 -0.23766990433E+03  0.56703555186E+03  0.10566000000E+00 0.  1.
          4    1    3    3  501    0  0.16467870760E+03 -0.88257377924E+02  0.53193315683E+03  0.56379191625E+03  0.00000000000E+00 0.  1.
         13    1    4    4    0    0  0.62758428842E+02  0.28485356244E+03  0.72116094545E+02  0.30046782637E+03  0.10566000000E+00 0. -1.
         -4    1    4    4    0  503 -0.19611667557E+03 -0.71046518651E+03 -0.42817331604E+03  0.85238190986E+03  0.00000000000E+00 0. -1.
<mgrwt>
<rscale>  2 0.10953316E+04</rscale>
<asrwt>0</asrwt>
<pdfrwt beam="1">  1       21 0.17091409E+00 0.10964879E+04</pdfrwt>
<pdfrwt beam="2">  1       21 0.18042086E+00 0.10964879E+04</pdfrwt>
<totfact> 0.16882985E+01</totfact>
</mgrwt>
</event>
<event>
 8    1  0.7208583E-006  0.1006794E+04  0.7818608E-02  0.8770923E-01
         21   -1    0    0  501  502  0.00000000000E+00  0.00000000000E+00  0.12543728184E+04  0.12543728184E+04  0.00000000000E+00 0. -1.
         21   -1    0    0  502  503 -0.00000000000E+00 -0.00000000000E+00 -0.80178014209E+03  0.80178014209E+03  0.00000000000E+00 0. -1.
    9000010    2    1    2  501    0 -0.35193278968E+02  0.33033682565E+02  0.28920611441E+03  0.10475089401E+04  0.10056366202E+04 0.  0.
   -9000010    2    1    2    0  503  0.35193278968E+02 -0.33033682565E+02  0.16338656189E+03  0.10086440204E+04  0.99415179936E+03 0.  0.
        -13    1    3    3    0    0 -0.50262568278E+03  0.34282632154E+02  0.28753346451E+03  0.58007187506E+03  0.10566000000E+00 0.  1.
          4    1    3    3  501    0  0.46743240382E+03 -0.12489495884E+01  0.16726498972E+01  0.46743706504E+03  0.00000000000E+00 0.  1.
         13    1    4    4    0    0  0.44998831414E+03 -0.15814079826E+02  0.33315855666E+03  0.56011981131E+03  0.10566000000E+00 0. -1.
         -4    1    4    4    0  503 -0.41479503517E+03 -0.17219602739E+02 -0.16977199477E+03  0.44852420907E+03  0.00000000000E+00 0. -1.
<mgrwt>
<rscale>  2 0.10039141E+04</rscale>
<asrwt>0</asrwt>
<pdfrwt beam="1">  1       21 0.19298043E+00 0.10067943E+04</pdfrwt>
<pdfrwt beam="2">  1       21 0.12335079E+00 0.10067943E+04</pdfrwt>
<totfact> 0.36820571E+01</totfact>
</mgrwt>
</event>
<event>
 8    1  0.7208583E-006  0.1011490E+04  0.7818608E-02  0.8768059E-01
         21   -1    0    0  503  502  0.00000000000E+00  0.00000000000E+00  0.12176048952E+04  0.12176048952E+04  0.00000000000E+00 0. -1.
         21   -1    0    0  501  503 -0.00000000000E+00 -0.00000000000E+00 -0.11012888247E+04  0.11012888247E+04  0.00000000000E+00 0. -1.
    9000010    2    1    2  501    0  0.71906817111E+01  0.26350612001E+02 -0.52247949669E+03  0.11225779663E+04  0.99320209695E+03 0.  0.
   -9000010    2    1    2    0  502 -0.71906817111E+01 -0.26350612001E+02  0.63879556711E+03  0.11963157536E+04  0.10111209349E+04 0.  0.
        -13    1    3    3    0    0 -0.23374305082E+03  0.14500743094E+01  0.23250432116E+03  0.32969104787E+03  0.10566000000E+00 0.  1.
          4    1    3    3  501    0  0.24093373253E+03  0.24900537691E+02 -0.75498381786E+03  0.79288691847E+03  0.00000000000E+00 0.  1.
         13    1    4    4    0    0  0.19405062275E+03  0.31903491835E+02 -0.23000343549E+03  0.30261372818E+03  0.10566000000E+00 0. -1.
         -4    1    4    4    0  502 -0.20124130446E+03 -0.58254103836E+02  0.86879900260E+03  0.89370202537E+03  0.00000000000E+00 0. -1.
<mgrwt>
<rscale>  2 0.10069817E+04</rscale>
<asrwt>0</asrwt>
<pdfrwt beam="1">  1       21 0.18732383E+00 0.10114898E+04</pdfrwt>
<pdfrwt beam="2">  1       21 0.16942905E+00 0.10114898E+04</pdfrwt>
<totfact> 0.15578301E+01</totfact>
</mgrwt>
</event>
<event>
 8    1  0.7208583E-006  0.1144641E+04  0.7818608E-02  0.8659517E-01
         21   -1    0    0  501  502  0.00000000000E+00  0.00000000000E+00  0.14737868133E+04  0.14737868133E+04  0.00000000000E+00 0.  1.
         21   -1    0    0  502  503 -0.00000000000E+00 -0.00000000000E+00 -0.11145046161E+04  0.11145046161E+04  0.00000000000E+00 0.  1.
    9000010    2    1    2  501    0 -0.19855141750E+03  0.45331634481E+03  0.81166691710E+03  0.14032125552E+04  0.10321259210E+04 0.  0.
   -9000010    2    1    2    0  503  0.19855141750E+03 -0.45331634481E+03 -0.45238471984E+03  0.11850788742E+04  0.97715998156E+03 0.  0.
        -13    1    3    3    0    0 -0.24049285412E+03  0.73987031425E+03  0.79621272562E+03  0.11131934290E+04  0.10566000000E+00 0.  1.
          4    1    3    3  501    0  0.41941436618E+02 -0.28655396944E+03  0.15454191482E+02  0.29001912616E+03  0.00000000000E+00 0.  1.
         13    1    4    4    0    0 -0.15529902612E+03 -0.25744961395E+03  0.23900378185E+03  0.38408450911E+03  0.10566000000E+00 0. -1.
         -4    1    4    4    0  503  0.35385044362E+03 -0.19586673086E+03 -0.69138850169E+03  0.80099436514E+03  0.00000000000E+00 0. -1.
<mgrwt>
<rscale>  2 0.11321101E+04</rscale>
<asrwt>0</asrwt>
<pdfrwt beam="1">  1       21 0.22673643E+00 0.11446407E+04</pdfrwt>
<pdfrwt beam="2">  1       21 0.17146225E+00 0.11446407E+04</pdfrwt>
<totfact> 0.72101304E+00</totfact>
</mgrwt>
</event>
<event>
 8    1  0.7208583E-006  0.1130499E+04  0.7818608E-02  0.8682208E-01
         21   -1    0    0  501  502  0.00000000000E+00  0.00000000000E+00  0.13364024477E+04  0.13364024477E+04  0.00000000000E+00 0.  1.
         21   -1    0    0  502  503 -0.00000000000E+00 -0.00000000000E+00 -0.12568772449E+04  0.12568772449E+04  0.00000000000E+00 0.  1.
    9000010    2    1    2  501    0  0.10389421178E+03  0.79294638231E+02  0.75444531851E+03  0.12766383780E+04  0.10215361778E+04 0.  0.
   -9000010    2    1    2    0  503 -0.10389421178E+03 -0.79294638231E+02 -0.67492011576E+03  0.13166413147E+04  0.11229183149E+04 0.  0.
        -13    1    3    3    0    0  0.63664983822E+02 -0.18860539254E+03  0.93181140166E+03  0.95283667209E+03  0.10566000000E+00 0.  1.
          4    1    3    3  501    0  0.40229227958E+02  0.26790003077E+03 -0.17736608314E+03  0.32380170586E+03  0.00000000000E+00 0.  1.
         13    1    4    4    0    0  0.47246394359E+03 -0.24001504151E+03 -0.35821773489E+03  0.63964783662E+03  0.10566000000E+00 0. -1.
         -4    1    4    4    0  503 -0.57635815537E+03  0.16072040328E+03 -0.31670238086E+03  0.67699347806E+03  0.00000000000E+00 0. -1.
<mgrwt>
<rscale>  2 0.11044534E+04</rscale>
<asrwt>0</asrwt>
<pdfrwt beam="1">  1       21 0.20560038E+00 0.11304986E+04</pdfrwt>
<pdfrwt beam="2">  1       21 0.19336573E+00 0.11304986E+04</pdfrwt>
<totfact> 0.69459611E+00</totfact>
</mgrwt>
</event>
<event>
 8    1  0.7208583E-006  0.1007224E+04  0.7818608E-02  0.8791160E-01
         21   -1    0    0  501  502  0.00000000000E+00  0.00000000000E+00  0.21464943216E+04  0.21464943216E+04  0.00000000000E+00 0. -1.
         21   -1    0    0  502  503 -0.00000000000E+00 -0.00000000000E+00 -0.55575990242E+03  0.55575990242E+03  0.00000000000E+00 0. -1.
    9000010    2    1    2  501    0 -0.37800584052E+02 -0.15591295572E+03  0.14094685860E+04  0.16788498043E+04  0.89788486827E+03 0.  0.
   -9000010    2    1    2    0  503  0.37800584052E+02  0.15591295572E+03  0.18126583317E+03  0.10234044197E+04  0.99436490788E+03 0.  0.
        -13    1    3    3    0    0  0.29742110478E+03 -0.39620992296E+03  0.84898185531E+03  0.98296074104E+03  0.10566000000E+00 0.  1.
          4    1    3    3  501    0 -0.33522168883E+03  0.24029696724E+03  0.56048673068E+03  0.69588906328E+03  0.00000000000E+00 0.  1.
         13    1    4    4    0    0 -0.46875114669E+03  0.14041365912E+03  0.13315292027E+02  0.48951092057E+03  0.10566000000E+00 0. -1.
         -4    1    4    4    0  503  0.50655173075E+03  0.15499296605E+02  0.16795054114E+03  0.53389349910E+03  0.00000000000E+00 0. -1.
<mgrwt>
<rscale>  2 0.98255208E+03</rscale>
<asrwt>0</asrwt>
<pdfrwt beam="1">  1       21 0.33022989E+00 0.10072236E+04</pdfrwt>
<pdfrwt beam="2">  1       21 0.85501524E-01 0.10072236E+04</pdfrwt>
<totfact> 0.97274458E+00</totfact>
</mgrwt>
</event>
<event>
 8    1  0.7208583E-006  0.1025029E+04  0.7818608E-02  0.8764643E-01
         21   -1    0    0  503  502  0.00000000000E+00  0.00000000000E+00  0.49223723906E+03  0.49223723906E+03  0.00000000000E+00 0.  1.
         21   -1    0    0  501  503 -0.00000000000E+00 -0.00000000000E+00 -0.20235019579E+04  0.20235019579E+04  0.00000000000E+00 0.  1.
    9000010    2    1    2  501    0 -0.55113943909E+02  0.13323176961E+03 -0.80408040723E+03  0.12589647992E+04  0.95794509927E+03 0.  0.
   -9000010    2    1    2    0  502  0.55113943909E+02 -0.13323176961E+03 -0.72718431163E+03  0.12567743977E+04  0.10148382198E+04 0.  0.
        -13    1    3    3    0    0  0.11681111732E+02 -0.21143601507E+03  0.13856383804E+03  0.25306438947E+03  0.10566000000E+00 0.  1.
          4    1    3    3  501    0 -0.66795055641E+02  0.34466778468E+03 -0.94264424527E+03  0.10059004098E+04  0.00000000000E+00 0.  1.
         13    1    4    4    0    0  0.37384103869E+02 -0.29795873637E+03 -0.94015487950E+03  0.98694892898E+03  0.10566000000E+00 0. -1.
         -4    1    4    4    0  502  0.17729840039E+02  0.16472696676E+03  0.21297056787E+03  0.26982546875E+03  0.00000000000E+00 0. -1.
<mgrwt>
<rscale>  2 0.10106561E+04</rscale>
<asrwt>0</asrwt>
<pdfrwt beam="1">  1       21 0.75728805E-01 0.10250292E+04</pdfrwt>
<pdfrwt beam="2">  1       21 0.31130800E+00 0.10250292E+04</pdfrwt>
<totfact> 0.17717212E+01</totfact>
</mgrwt>
</event>
<event>
 8    1  0.7208583E-006  0.1127729E+04  0.7818608E-02  0.8686853E-01
         21   -1    0    0  501  502  0.00000000000E+00  0.00000000000E+00  0.24344338291E+04  0.24344338291E+04  0.00000000000E+00 0. -1.
         21   -1    0    0  502  503 -0.00000000000E+00 -0.00000000000E+00 -0.82546585336E+03  0.82546585336E+03  0.00000000000E+00 0. -1.
    9000010    2    1    2  501    0 -0.16903605359E+03 -0.13168092520E+03  0.18936873893E+04  0.22040471707E+04  0.11071851466E+04 0.  0.
   -9000010    2    1    2    0  503  0.16903605359E+03  0.13168092520E+03 -0.28471941349E+03  0.10558525118E+04  0.99390458738E+03 0.  0.
        -13    1    3    3    0    0 -0.44698727424E+03  0.21281182432E+03  0.15949821486E+04  0.16700462752E+04  0.10566000000E+00 0.  1.
          4    1    3    3  501    0  0.27795122066E+03 -0.34449274952E+03  0.29870524067E+03  0.53400089545E+03  0.00000000000E+00 0.  1.
         13    1    4    4    0    0  0.53428439145E+03  0.81066312813E+02  0.69122601892E+02  0.54480226072E+03  0.10566000000E+00 0. -1.
         -4    1    4    4    0  503 -0.36524833787E+03  0.50614612391E+02 -0.35384201538E+03  0.51105025110E+03  0.00000000000E+00 0. -1.
<mgrwt>
<rscale>  2 0.10988943E+04</rscale>
<asrwt>0</asrwt>
<pdfrwt beam="1">  1       21 0.37452828E+00 0.11277287E+04</pdfrwt>
<pdfrwt beam="2">  1       21 0.12699475E+00 0.11277287E+04</pdfrwt>
<totfact> 0.16087507E+00</totfact>
</mgrwt>
</event>
<event>
 8    1  0.7208583E-006  0.1273758E+04  0.7818608E-02  0.8605804E-01
         21   -1    0    0  501  502  0.00000000000E+00  0.00000000000E+00  0.11743326833E+04  0.11743326833E+04  0.00000000000E+00 0. -1.
         21   -1    0    0  502  503 -0.00000000000E+00 -0.00000000000E+00 -0.11405891167E+04  0.11405891167E+04  0.00000000000E+00 0. -1.
    9000010    2    1    2  501    0 -0.15192440777E+03 -0.97906745219E+01 -0.18186327225E+03  0.10230451734E+04  0.99517349945E+03 0.  0.
   -9000010    2    1    2    0  503  0.15192440777E+03  0.97906745219E+01  0.21560683883E+03  0.12918766266E+04  0.12646272283E+04 0.  0.
        -13    1    3    3    0    0 -0.34293915002E+03  0.17319468095E+03 -0.48629529684E+03  0.61974735580E+03  0.10566000000E+00 0.  1.
          4    1    3    3  501    0  0.19101474226E+03 -0.18298535547E+03  0.30443202459E+03  0.40329781759E+03  0.00000000000E+00 0.  1.
         13    1    4    4    0    0  0.59817143083E+03 -0.43499066836E+01  0.48528630050E+03  0.77027968100E+03  0.10566000000E+00 0. -1.
         -4    1    4    4    0  503 -0.44624702306E+03  0.14140581205E+02 -0.26967946167E+03  0.52159694561E+03  0.00000000000E+00 0. -1.
<mgrwt>
<rscale>  2 0.12010073E+04</rscale>
<asrwt>0</asrwt>
<pdfrwt beam="1">  1       21 0.18066657E+00 0.12737578E+04</pdfrwt>
<pdfrwt beam="2">  1       21 0.17547525E+00 0.12737578E+04</pdfrwt>
<totfact> 0.14855146E+01</totfact>
</mgrwt>
</event>
<event>
 8    1  0.7208583E-006  0.1049714E+04  0.7818608E-02  0.8730883E-01
         21   -1    0    0  501  502  0.00000000000E+00  0.00000000000E+00  0.13327195140E+04  0.13327195140E+04  0.00000000000E+00 0. -1.
         21   -1    0    0  502  503 -0.00000000000E+00 -0.00000000000E+00 -0.89703201310E+03  0.89703201310E+03  0.00000000000E+00 0. -1.
    9000010    2    1    2  501    0  0.52357228441E+02 -0.36975357818E+03  0.54318948826E+03  0.11819282451E+04  0.98104055388E+03 0.  0.
   -9000010    2    1    2    0  503 -0.52357228441E+02  0.36975357818E+03 -0.10750198740E+03  0.10478232820E+04  0.97309709952E+03 0.  0.
        -13    1    3    3    0    0  0.19534751786E+03 -0.44140541309E+03 -0.12191968360E+03  0.49785922895E+03  0.10566000000E+00 0.  1.
          4    1    3    3  501    0 -0.14299028941E+03  0.71651834913E+02  0.66510917186E+03  0.68406901611E+03  0.00000000000E+00 0.  1.
         13    1    4    4    0    0 -0.48375074918E+03  0.11082187682E+03 -0.20212890275E+03  0.53586600956E+03  0.10566000000E+00 0. -1.
         -4    1    4    4    0  503  0.43139352074E+03  0.25893170136E+03  0.94626915348E+02  0.51195727245E+03  0.00000000000E+00 0. -1.
<mgrwt>
<rscale>  2 0.10478541E+04</rscale>
<asrwt>0</asrwt>
<pdfrwt beam="1">  1       21 0.20503377E+00 0.10497140E+04</pdfrwt>
<pdfrwt beam="2">  1       21 0.13800493E+00 0.10497140E+04</pdfrwt>
<totfact> 0.21209844E+01</totfact>
</mgrwt>
</event>
<event>
 8    1  0.7208583E-006  0.1030053E+04  0.7818608E-02  0.8748548E-01
         21   -1    0    0  503  502  0.00000000000E+00  0.00000000000E+00  0.87338426633E+03  0.87338426633E+03  0.00000000000E+00 0. -1.
         21   -1    0    0  501  503 -0.00000000000E+00 -0.00000000000E+00 -0.18622006847E+04  0.18622006847E+04  0.00000000000E+00 0. -1.
    9000010    2    1    2  501    0  0.18374182769E+03  0.12609294607E+03 -0.13074644783E+04  0.16644737266E+04  0.10056584580E+04 0.  0.
   -9000010    2    1    2    0  502 -0.18374182769E+03 -0.12609294607E+03  0.31864805995E+03  0.10711112244E+04  0.99803916689E+03 0.  0.
        -13    1    3    3    0    0 -0.23254878589E+03  0.44735939485E+03 -0.63492170742E+03  0.81076195748E+03  0.10566000000E+00 0.  1.
          4    1    3    3  501    0  0.41629061358E+03 -0.32126644877E+03 -0.67254277087E+03  0.85371176911E+03  0.00000000000E+00 0.  1.
         13    1    4    4    0    0  0.70944010155E+02 -0.35589988185E+03 -0.22593862548E+03  0.42748807249E+03  0.10566000000E+00 0. -1.
         -4    1    4    4    0  502 -0.25468583785E+03  0.22980693577E+03  0.54458668543E+03  0.64362315191E+03  0.00000000000E+00 0. -1.
<mgrwt>
<rscale>  2 0.10281887E+04</rscale>
<asrwt>0</asrwt>
<pdfrwt beam="1">  1       21 0.13436681E+00 0.10300531E+04</pdfrwt>
<pdfrwt beam="2">  1       21 0.28649241E+00 0.10300531E+04</pdfrwt>
<totfact> 0.58203892E+00</totfact>
</mgrwt>
</event>
<event>
 8    1  0.7208583E-006  0.1020977E+04  0.7818608E-02  0.8756990E-01
         21   -1    0    0  503  502  0.00000000000E+00  0.00000000000E+00  0.17407203554E+04  0.17407203554E+04  0.00000000000E+00 0.  1.
         21   -1    0    0  501  503 -0.00000000000E+00 -0.00000000000E+00 -0.82658096885E+03  0.82658096885E+03  0.00000000000E+00 0.  1.
    9000010    2    1    2  501    0  0.13397360950E+03 -0.16930329575E+03 -0.22239651285E+03  0.10449180454E+04  0.99788825966E+03 0.  0.
   -9000010    2    1    2    0  502 -0.13397360950E+03  0.16930329575E+03  0.11365358994E+04  0.15223832788E+04  0.98960823710E+03 0.  0.
        -13    1    3    3    0    0  0.18433076794E+03 -0.45739814149E+03  0.19916239937E+03  0.53184261237E+03  0.10566000000E+00 0.  1.
          4    1    3    3  501    0 -0.50357158443E+02  0.28809484575E+03 -0.42155891222E+03  0.51307543307E+03  0.00000000000E+00 0.  1.
         13    1    4    4    0    0  0.33980790002E+03  0.20997168991E+03  0.91377775425E+03  0.99726993076E+03  0.10566000000E+00 0. -1.
         -4    1    4    4    0  502 -0.47378150952E+03 -0.40668394166E+02  0.22275814514E+03  0.52511334802E+03  0.00000000000E+00 0. -1.
<mgrwt>
<rscale>  2 0.10189479E+04</rscale>
<asrwt>0</asrwt>
<pdfrwt beam="1">  1       21 0.26780313E+00 0.10209767E+04</pdfrwt>
<pdfrwt beam="2">  1       21 0.12716630E+00 0.10209767E+04</pdfrwt>
<totfact> 0.92992940E+00</totfact>
</mgrwt>
</event>
<event>
 8    1  0.7208583E-006  0.1155779E+04  0.7818608E-02  0.8665754E-01
         21   -1    0    0  503  502  0.00000000000E+00  0.00000000000E+00  0.12627447777E+04  0.12627447777E+04  0.00000000000E+00 0.  1.
         21   -1    0    0  501  503 -0.00000000000E+00 -0.00000000000E+00 -0.14481470716E+04  0.14481470716E+04  0.00000000000E+00 0.  1.
    9000010    2    1    2  501    0  0.39889825010E+03 -0.10262472756E+03 -0.88980437935E+03  0.14586219774E+04  0.10798956388E+04 0.  0.
   -9000010    2    1    2    0  502 -0.39889825010E+03  0.10262472756E+03  0.70440208552E+03  0.12522698719E+04  0.94991888361E+03 0.  0.
        -13    1    3    3    0    0  0.69041774827E+03 -0.20028922641E+03 -0.89894651024E+03  0.11510418241E+04  0.10566000000E+00 0.  1.
          4    1    3    3  501    0 -0.29151949818E+03  0.97664498846E+02  0.91421308866E+01  0.30758015331E+03  0.00000000000E+00 0.  1.
         13    1    4    4    0    0 -0.20295695840E+03  0.24226385581E+03 -0.16054350679E+03  0.35448206094E+03  0.10566000000E+00 0. -1.
         -4    1    4    4    0  502 -0.19594129170E+03 -0.13963912824E+03  0.86494559230E+03  0.89778781099E+03  0.00000000000E+00 0. -1.
<mgrwt>
<rscale>  2 0.11244249E+04</rscale>
<asrwt>0</asrwt>
<pdfrwt beam="1">  1       21 0.19426843E+00 0.11557795E+04</pdfrwt>
<pdfrwt beam="2">  1       21 0.22279186E+00 0.11557795E+04</pdfrwt>
<totfact> 0.50248322E+00</totfact>
</mgrwt>
</event>
<event>
 8    1  0.7208583E-006  0.1030119E+04  0.7818608E-02  0.8746895E-01
         21   -1    0    0  501  502  0.00000000000E+00  0.00000000000E+00  0.13600946304E+04  0.13600946304E+04  0.00000000000E+00 0.  1.
         21   -1    0    0  502  503 -0.00000000000E+00 -0.00000000000E+00 -0.10440625536E+04  0.10440625536E+04  0.00000000000E+00 0.  1.
    9000010    2    1    2  501    0  0.83924369600E+02 -0.84340293560E+02 -0.44664682139E+03  0.11227815609E+04  0.10232245431E+04 0.  0.
   -9000010    2    1    2    0  503 -0.83924369600E+02  0.84340293560E+02  0.76267889825E+03  0.12813756231E+04  0.10227843373E+04 0.  0.
        -13    1    3    3    0    0 -0.25515675689E+03  0.60211814170E+02 -0.65065452214E+03  0.70148538937E+03  0.10566000000E+00 0.  1.
          4    1    3    3  501    0  0.33908112649E+03 -0.14455210773E+03  0.20400770076E+03  0.42129617155E+03  0.00000000000E+00 0.  1.
         13    1    4    4    0    0  0.23663319457E+03 -0.11440293240E+03  0.85381294611E+03  0.89335315403E+03  0.10566000000E+00 0. -1.
         -4    1    4    4    0  503 -0.32055756417E+03  0.19874322596E+03 -0.91134047858E+02  0.38802246906E+03  0.00000000000E+00 0. -1.
<mgrwt>
<rscale>  2 0.10300096E+04</rscale>
<asrwt>0</asrwt>
<pdfrwt beam="1">  1       21 0.20924533E+00 0.10301189E+04</pdfrwt>
<pdfrwt beam="2">  1       21 0.16062501E+00 0.10301189E+04</pdfrwt>
<totfact> 0.12407691E+01</totfact>
</mgrwt>
</event>
<event>
 8    1  0.7208583E-006  0.1042530E+04  0.7818608E-02  0.8741067E-01
         21   -1    0    0  501  502  0.00000000000E+00  0.00000000000E+00  0.21209097329E+04  0.21209097329E+04  0.00000000000E+00 0. -1.
         21   -1    0    0  502  503 -0.00000000000E+00 -0.00000000000E+00 -0.51686179818E+03  0.51686179818E+03  0.00000000000E+00 0. -1.
    9000010    2    1    2  501    0 -0.15702864040E+03 -0.21711375177E+03  0.55970514222E+03  0.11621287422E+04  0.98258688778E+03 0.  0.
   -9000010    2    1    2    0  503  0.15702864040E+03  0.21711375177E+03  0.10443427925E+04  0.14756427890E+04  0.10075085097E+04 0.  0.
        -13    1    3    3    0    0 -0.29630975141E+03 -0.46417940000E+03  0.66156374027E+03  0.86077208236E+03  0.10566000000E+00 0.  1.
          4    1    3    3  501    0  0.13928111101E+03  0.24706564823E+03 -0.10185859805E+03  0.30135665981E+03  0.00000000000E+00 0.  1.
         13    1    4    4    0    0 -0.45973633186E+02 -0.36829558097E+03  0.62690461545E+03  0.72853594142E+03  0.10566000000E+00 0. -1.
         -4    1    4    4    0  503  0.20300227358E+03  0.58540933274E+03  0.41743817710E+03  0.74710684753E+03  0.00000000000E+00 0. -1.
<mgrwt>
<rscale>  2 0.10364616E+04</rscale>
<asrwt>0</asrwt>
<pdfrwt beam="1">  1       21 0.32629380E+00 0.10425305E+04</pdfrwt>
<pdfrwt beam="2">  1       21 0.79517200E-01 0.10425305E+04</pdfrwt>
<totfact> 0.12306978E+01</totfact>
</mgrwt>
</event>
<event>
 8    1  0.7208583E-006  0.1151456E+04  0.7818608E-02  0.8648400E-01
         21   -1    0    0  501  502  0.00000000000E+00  0.00000000000E+00  0.27501134341E+04  0.27501134341E+04  0.00000000000E+00 0.  1.
         21   -1    0    0  502  503 -0.00000000000E+00 -0.00000000000E+00 -0.59768223471E+03  0.59768223471E+03  0.00000000000E+00 0. -1.
    9000010    2    1    2  501    0 -0.32124257920E+03  0.46803306558E+03  0.18487899336E+04  0.21780440813E+04  0.10017984109E+04 0.  0.
   -9000010    2    1    2    0  503  0.32124257920E+03 -0.46803306558E+03  0.30364126578E+03  0.11697515876E+04  0.97666217968E+03 0.  0.
        -13    1    3    3    0    0  0.30636819001E+01  0.42983804507E+03  0.17966558071E+04  0.18473608828E+04  0.10566000000E+00 0.  1.
          4    1    3    3  501    0 -0.32430626110E+03  0.38195020512E+02  0.52134126589E+02  0.33068319845E+03  0.00000000000E+00 0.  1.
         13    1    4    4    0    0  0.42971643772E+03  0.12830594051E+03  0.33963837463E+03  0.56255921280E+03  0.10566000000E+00 0. -1.
         -4    1    4    4    0  503 -0.10847385852E+03 -0.59633900609E+03 -0.35997108842E+02  0.60719237479E+03  0.00000000000E+00 0. -1.
<mgrwt>
<rscale>  2 0.11459669E+04</rscale>
<asrwt>0</asrwt>
<pdfrwt beam="1">  1       21 0.42309437E+00 0.11514564E+04</pdfrwt>
<pdfrwt beam="2">  1       21 0.91951114E-01 0.11514564E+04</pdfrwt>
<totfact> 0.17579132E+00</totfact>
</mgrwt>
</event>
<event>
 8    1  0.7208583E-006  0.1113109E+04  0.7818608E-02  0.8679168E-01
         21   -1    0    0  501  502  0.00000000000E+00  0.00000000000E+00  0.20775815138E+04  0.20775815138E+04  0.00000000000E+00 0. -1.
         21   -1    0    0  502  503 -0.00000000000E+00 -0.00000000000E+00 -0.62213443647E+03  0.62213443647E+03  0.00000000000E+00 0. -1.
    9000010    2    1    2  501    0 -0.43476931907E+03  0.22403556538E+03  0.10478551744E+04  0.15143285426E+04  0.97773931758E+03 0.  0.
   -9000010    2    1    2    0  503  0.43476931907E+03 -0.22403556538E+03  0.40759190289E+03  0.11853874076E+04  0.99989792052E+03 0.  0.
        -13    1    3    3    0    0 -0.16016969150E+03  0.56313880469E+03  0.85740974390E+03  0.10382346187E+04  0.10566000000E+00 0.  1.
          4    1    3    3  501    0 -0.27459962757E+03 -0.33910323932E+03  0.19044543050E+03  0.47609392390E+03  0.00000000000E+00 0.  1.
         13    1    4    4    0    0  0.28398477017E+03  0.37970386377E+03  0.75796818716E+02  0.48017449197E+03  0.10566000000E+00 0. -1.
         -4    1    4    4    0  503  0.15078454890E+03 -0.60373942915E+03  0.33179508418E+03  0.70521291563E+03  0.00000000000E+00 0. -1.
<mgrwt>
<rscale>  2 0.11081103E+04</rscale>
<asrwt>0</asrwt>
<pdfrwt beam="1">  1       21 0.31962792E+00 0.11131092E+04</pdfrwt>
<pdfrwt beam="2">  1       21 0.95712991E-01 0.11131092E+04</pdfrwt>
<totfact> 0.84504460E+00</totfact>
</mgrwt>
</event>
<event>
 8    1  0.7208583E-006  0.1031916E+04  0.7818608E-02  0.8749569E-01
         21   -1    0    0  501  502  0.00000000000E+00  0.00000000000E+00  0.21091880547E+04  0.21091880547E+04  0.00000000000E+00 0. -1.
         21   -1    0    0  502  503 -0.00000000000E+00 -0.00000000000E+00 -0.67930381419E+03  0.67930381419E+03  0.00000000000E+00 0. -1.
    9000010    2    1    2  501    0  0.58496151772E+01 -0.22867461389E+03  0.14352882830E+04  0.17565618031E+04  0.98647382931E+03 0.  0.
   -9000010    2    1    2    0  503 -0.58496151772E+01  0.22867461389E+03 -0.54040424451E+01  0.10319300658E+04  0.10062425950E+04 0.  0.
        -13    1    3    3    0    0  0.48052544770E+03  0.10715395674E+02  0.70552391116E+03  0.85368819014E+03  0.10566000000E+00 0.  1.
          4    1    3    3  501    0 -0.47467583253E+03 -0.23939000956E+03  0.72976437183E+03  0.90287361300E+03  0.00000000000E+00 0.  1.
         13    1    4    4    0    0 -0.17011687854E+03  0.24863138254E+03  0.45330775977E+03  0.54428416565E+03  0.10566000000E+00 0. -1.
         -4    1    4    4    0  503  0.16426726336E+03 -0.19956768657E+02 -0.45871180221E+03  0.48764590014E+03  0.00000000000E+00 0. -1.
<mgrwt>
<rscale>  2 0.10270650E+04</rscale>
<asrwt>0</asrwt>
<pdfrwt beam="1">  1       21 0.32449047E+00 0.10319159E+04</pdfrwt>
<pdfrwt beam="2">  1       21 0.10450828E+00 0.10319159E+04</pdfrwt>
<totfact> 0.63203056E+00</totfact>
</mgrwt>
</event>
<event>
 8    1  0.7208583E-006  0.1158462E+04  0.7818608E-02  0.8639672E-01
         21   -1    0    0  501  502  0.00000000000E+00  0.00000000000E+00  0.12589364886E+04  0.12589364886E+04  0.00000000000E+00 0. -1.
         21   -1    0    0  502  503 -0.00000000000E+00 -0.00000000000E+00 -0.11231627779E+04  0.11231627779E+04  0.00000000000E+00 0. -1.
    9000010    2    1    2  501    0  0.29880774659E+02  0.55813908968E+03  0.34879933511E+03  0.12042135882E+04  0.10079966695E+04 0.  0.
   -9000010    2    1    2    0  503 -0.29880774659E+02 -0.55813908968E+03 -0.21302562438E+03  0.11778856783E+04  0.10147032327E+04 0.  0.
        -13    1    3    3    0    0 -0.12808183274E+03  0.82488774789E+03  0.19096699059E+03  0.85633705698E+03  0.10566000000E+00 0.  1.
          4    1    3    3  501    0  0.15796260740E+03 -0.26674865821E+03  0.15783234452E+03  0.34787653121E+03  0.00000000000E+00 0.  1.
         13    1    4    4    0    0  0.16870252992E+03 -0.48663774292E+03  0.31878468081E+03  0.60572313834E+03  0.10566000000E+00 0. -1.
         -4    1    4    4    0  503 -0.19858330458E+03 -0.71501346757E+02 -0.53181030519E+03  0.57216253998E+03  0.00000000000E+00 0. -1.
<mgrwt>
<rscale>  2 0.11569920E+04</rscale>
<asrwt>0</asrwt>
<pdfrwt beam="1">  1       21 0.19368254E+00 0.11584622E+04</pdfrwt>
<pdfrwt beam="2">  1       21 0.17279427E+00 0.11584622E+04</pdfrwt>
<totfact> 0.12570606E+01</totfact>
</mgrwt>
</event>
<event>
 8    1  0.7208583E-006  0.1010024E+04  0.7818608E-02  0.8769590E-01
         21   -1    0    0  501  502  0.00000000000E+00  0.00000000000E+00  0.17278914070E+04  0.17278914070E+04  0.00000000000E+00 0. -1.
         21   -1    0    0  502  503 -0.00000000000E+00 -0.00000000000E+00 -0.78819652465E+03  0.78819652465E+03  0.00000000000E+00 0. -1.
    9000010    2    1    2  501    0  0.10313959317E+03  0.28275995407E+01  0.11138419231E+04  0.14911610486E+04  0.98603837256E+03 0.  0.
   -9000010    2    1    2    0  503 -0.10313959317E+03 -0.28275995407E+01 -0.17414704076E+03  0.10249268831E+04  0.10047398433E+04 0.  0.
        -13    1    3    3    0    0  0.90272594943E+02  0.47586098732E+03  0.75615813537E+03  0.89797993156E+03  0.10566000000E+00 0.  1.
          4    1    3    3  501    0  0.12866998225E+02 -0.47303338778E+03  0.35768378778E+03  0.59318111706E+03  0.00000000000E+00 0.  1.
         13    1    4    4    0    0 -0.50612069444E+03  0.14440416422E+03  0.70535528295E+02  0.53102353235E+03  0.10566000000E+00 0. -1.
         -4    1    4    4    0  503  0.40298110128E+03 -0.14723176376E+03 -0.24468256906E+03  0.49390335071E+03  0.00000000000E+00 0. -1.
<mgrwt>
<rscale>  2 0.10053408E+04</rscale>
<asrwt>0</asrwt>
<pdfrwt beam="1">  1       21 0.26582945E+00 0.10100237E+04</pdfrwt>
<pdfrwt beam="2">  1       21 0.12126100E+00 0.10100237E+04</pdfrwt>
<totfact> 0.11024102E+01</totfact>
</mgrwt>
</event>
<event>
 8    1  0.7208583E-006  0.1120442E+04  0.7818608E-02  0.8695162E-01
         21   -1    0    0  503  502  0.00000000000E+00  0.00000000000E+00  0.16957432144E+04  0.16957432144E+04  0.00000000000E+00 0. -1.
         21   -1    0    0  501  503 -0.00000000000E+00 -0.00000000000E+00 -0.74019102619E+03  0.74019102619E+03  0.00000000000E+00 0. -1.
    9000010    2    1    2  501    0 -0.60081345479E+02  0.45294363646E+03  0.10900379072E+03  0.11257321746E+04  0.10230461361E+04 0.  0.
   -9000010    2    1    2    0  502  0.60081345479E+02 -0.45294363646E+03  0.84654839745E+03  0.13102020660E+04  0.88950410825E+03 0.  0.
        -13    1    3    3    0    0 -0.29266249583E+03  0.56713857384E+02  0.45958797418E+03  0.54780371965E+03  0.10566000000E+00 0.  1.
          4    1    3    3  501    0  0.23258115035E+03  0.39622977907E+03 -0.35058418346E+03  0.57792845493E+03  0.00000000000E+00 0.  1.
         13    1    4    4    0    0 -0.37958046852E+02 -0.29394432689E+03  0.10157862649E+04  0.10581426311E+04  0.10566000000E+00 0. -1.
         -4    1    4    4    0  502  0.98039392331E+02 -0.15899930956E+03 -0.16923786750E+03  0.25205943483E+03  0.00000000000E+00 0. -1.
<mgrwt>
<rscale>  2 0.10890338E+04</rscale>
<asrwt>0</asrwt>
<pdfrwt beam="1">  1       21 0.26088357E+00 0.11204424E+04</pdfrwt>
<pdfrwt beam="2">  1       21 0.11387554E+00 0.11204424E+04</pdfrwt>
<totfact> 0.13889809E+01</totfact>
</mgrwt>
</event>
<event>
 8    1  0.7208583E-006  0.1081764E+04  0.7818608E-02  0.8713843E-01
         21   -1    0    0  501  502  0.00000000000E+00  0.00000000000E+00  0.43071785296E+03  0.43071785296E+03  0.00000000000E+00 0.  1.
         21   -1    0    0  502  503 -0.00000000000E+00 -0.00000000000E+00 -0.29362167232E+04  0.29362167232E+04  0.00000000000E+00 0.  1.
    9000010    2    1    2  501    0  0.16468032160E+03 -0.85476142076E+01 -0.18125997084E+04  0.20822857806E+04  0.10115353177E+04 0.  0.
   -9000010    2    1    2    0  503 -0.16468032160E+03  0.85476142076E+01 -0.69289916181E+03  0.12846487956E+04  0.10691214194E+04 0.  0.
        -13    1    3    3    0    0 -0.16732790777E+03 -0.42768473206E+03 -0.10947743098E+04  0.11871999239E+04  0.10566000000E+00 0.  1.
          4    1    3    3  501    0  0.33200822937E+03  0.41913711785E+03 -0.71782539862E+03  0.89508585668E+03  0.00000000000E+00 0.  1.
         13    1    4    4    0    0 -0.16274403702E+03 -0.47938124258E+03 -0.98698578535E+02  0.51578427457E+03  0.10566000000E+00 0. -1.
         -4    1    4    4    0  503 -0.19362845737E+01  0.48792885679E+03 -0.59420058327E+03  0.76886452099E+03  0.00000000000E+00 0. -1.
<mgrwt>
<rscale>  2 0.10672558E+04</rscale>
<asrwt>0</asrwt>
<pdfrwt beam="1">  1       21 0.66264282E-01 0.10817640E+04</pdfrwt>
<pdfrwt beam="2">  1       21 0.45172567E+00 0.10817640E+04</pdfrwt>
<totfact> 0.25199005E+00</totfact>
</mgrwt>
</event>
<event>
 8    1  0.7208583E-006  0.1043321E+04  0.7818608E-02  0.8744214E-01
         21   -1    0    0  503  502  0.00000000000E+00  0.00000000000E+00  0.20470451589E+04  0.20470451589E+04  0.00000000000E+00 0. -1.
         21   -1    0    0  501  503 -0.00000000000E+00 -0.00000000000E+00 -0.70231891287E+03  0.70231891287E+03  0.00000000000E+00 0. -1.
    9000010    2    1    2  501    0 -0.24414704762E+03 -0.26542380962E+02 -0.34951014251E+02  0.10439062146E+04  0.10140050949E+04 0.  0.
   -9000010    2    1    2    0  502  0.24414704762E+03  0.26542380962E+02  0.13796772602E+04  0.17054578572E+04  0.97199016525E+03 0.  0.
        -13    1    3    3    0    0  0.18713864337E+03  0.36190586239E+03 -0.18032302455E+03  0.44554812245E+03  0.10566000000E+00 0.  1.
          4    1    3    3  501    0 -0.43128569099E+03 -0.38844824335E+03  0.14537201030E+03  0.59835809211E+03  0.00000000000E+00 0.  1.
         13    1    4    4    0    0  0.27798524448E+03 -0.10143714147E+03  0.14985823963E+04  0.15275190668E+04  0.10566000000E+00 0. -1.
         -4    1    4    4    0  502 -0.33838196862E+02  0.12797952243E+03 -0.11890513607E+03  0.17793879035E+03  0.00000000000E+00 0. -1.
<mgrwt>
<rscale>  2 0.10329716E+04</rscale>
<asrwt>0</asrwt>
<pdfrwt beam="1">  1       21 0.31493002E+00 0.10433210E+04</pdfrwt>
<pdfrwt beam="2">  1       21 0.10804906E+00 0.10433210E+04</pdfrwt>
<totfact> 0.67311678E+00</totfact>
</mgrwt>
</event>
<event>
 8    1  0.7208583E-006  0.1015637E+04  0.7818608E-02  0.8806398E-01
         21   -1    0    0  503  502  0.00000000000E+00  0.00000000000E+00  0.16852034382E+04  0.16852034382E+04  0.00000000000E+00 0.  1.
         21   -1    0    0  501  503 -0.00000000000E+00 -0.00000000000E+00 -0.51577731214E+03  0.51577731214E+03  0.00000000000E+00 0.  1.
    9000010    2    1    2  501    0 -0.11241168146E+03  0.27868881075E+03  0.77955629338E+03  0.12803225759E+04  0.97016186510E+03 0.  0.
   -9000010    2    1    2    0  502  0.11241168146E+03 -0.27868881075E+03  0.38986983268E+03  0.92065817443E+03  0.77801616201E+03 0.  0.
        -13    1    3    3    0    0 -0.18903558430E+03  0.31214795880E+03 -0.11442135417E+03  0.38244353540E+03  0.10566000000E+00 0.  1.
          4    1    3    3  501    0  0.76623902836E+02 -0.33459148049E+02  0.89397764756E+03  0.89787904052E+03  0.00000000000E+00 0.  1.
         13    1    4    4    0    0  0.56539035765E+02 -0.26759376963E+03  0.62314754812E+03  0.68052624196E+03  0.10566000000E+00 0. -1.
         -4    1    4    4    0  502  0.55872645699E+02 -0.11095041127E+02 -0.23327771543E+03  0.24013193247E+03  0.00000000000E+00 0. -1.
<mgrwt>
<rscale>  2 0.96682917E+03</rscale>
<asrwt>0</asrwt>
<pdfrwt beam="1">  1       21 0.25926206E+00 0.10156367E+04</pdfrwt>
<pdfrwt beam="2">  1       21 0.79350357E-01 0.10156367E+04</pdfrwt>
<totfact> 0.37195271E+01</totfact>
</mgrwt>
</event>
<event>
 8    1  0.7208583E-006  0.1043555E+04  0.7818608E-02  0.8736472E-01
         21   -1    0    0  501  502  0.00000000000E+00  0.00000000000E+00  0.80704000574E+03  0.80704000574E+03  0.00000000000E+00 0.  1.
         21   -1    0    0  502  503 -0.00000000000E+00 -0.00000000000E+00 -0.14455141721E+04  0.14455141721E+04  0.00000000000E+00 0.  1.
    9000010    2    1    2  501    0  0.13219538282E+03  0.24075322175E+03 -0.62574547721E+03  0.12167842679E+04  0.10067615503E+04 0.  0.
   -9000010    2    1    2    0  503 -0.13219538282E+03 -0.24075322175E+03 -0.12728689101E+02  0.10357699099E+04  0.99860880918E+03 0.  0.
        -13    1    3    3    0    0  0.20394868796E+03 -0.34568697046E+02  0.23332847928E+03  0.31182086612E+03  0.10566000000E+00 0.  1.
          4    1    3    3  501    0 -0.71753305138E+02  0.27532191880E+03 -0.85907395649E+03  0.90496340174E+03  0.00000000000E+00 0.  1.
         13    1    4    4    0    0 -0.47805972731E+03 -0.42737721406E+03 -0.34453737305E+02  0.64216777959E+03  0.10566000000E+00 0. -1.
         -4    1    4    4    0  503  0.34586434448E+03  0.18662399231E+03  0.21725048204E+02  0.39360213034E+03  0.00000000000E+00 0. -1.
<mgrwt>
<rscale>  2 0.10415834E+04</rscale>
<asrwt>0</asrwt>
<pdfrwt beam="1">  1       21 0.12416000E+00 0.10435548E+04</pdfrwt>
<pdfrwt beam="2">  1       21 0.22238679E+00 0.10435548E+04</pdfrwt>
<totfact> 0.21285888E+01</totfact>
</mgrwt>
</event>
<event>
 8    1  0.7208583E-006  0.1097534E+04  0.7818608E-02  0.8690593E-01
         21   -1    0    0  501  502  0.00000000000E+00  0.00000000000E+00  0.22029674767E+04  0.22029674767E+04  0.00000000000E+00 0.  1.
         21   -1    0    0  502  503 -0.00000000000E+00 -0.00000000000E+00 -0.91966512234E+03  0.91966512234E+03  0.00000000000E+00 0.  1.
    9000010    2    1    2  501    0  0.36167695659E+03  0.22989400472E+03  0.16460453079E+04  0.19783946856E+04  0.10104053157E+04 0.  0.
   -9000010    2    1    2    0  503 -0.36167695659E+03 -0.22989400472E+03 -0.36274295355E+03  0.11442379134E+04  0.99701378017E+03 0.  0.
        -13    1    3    3    0    0  0.78273979870E+02 -0.38831078219E+03  0.80175713607E+03  0.89427434040E+03  0.10566000000E+00 0.  1.
          4    1    3    3  501    0  0.28340297672E+03  0.61820478691E+03  0.84428817187E+03  0.10841203452E+04  0.00000000000E+00 0.  1.
         13    1    4    4    0    0 -0.63684498511E+03 -0.37403741384E+03 -0.38484747283E+03  0.83281637263E+03  0.10566000000E+00 0. -1.
         -4    1    4    4    0  503  0.27516802851E+03  0.14414340911E+03  0.22104519281E+02  0.31142154081E+03  0.00000000000E+00 0. -1.
<mgrwt>
<rscale>  2 0.10944418E+04</rscale>
<asrwt>0</asrwt>
<pdfrwt beam="1">  1       21 0.33891807E+00 0.10975338E+04</pdfrwt>
<pdfrwt beam="2">  1       21 0.14148694E+00 0.10975338E+04</pdfrwt>
<totfact> 0.20979648E+00</totfact>
</mgrwt>
</event>
<event>
 8    1  0.7208583E-006  0.1011422E+04  0.7818608E-02  0.8779988E-01
         21   -1    0    0  503  502  0.00000000000E+00  0.00000000000E+00  0.15407089550E+04  0.15407089550E+04  0.00000000000E+00 0. -1.
         21   -1    0    0  501  503 -0.00000000000E+00 -0.00000000000E+00 -0.75720395933E+03  0.75720395933E+03  0.00000000000E+00 0. -1.
    9000010    2    1    2  501    0 -0.72155047810E+02 -0.48260350653E+02 -0.84690676033E+02  0.10149619015E+04  0.10076902989E+04 0.  0.
   -9000010    2    1    2    0  502  0.72155047810E+02  0.48260350653E+02  0.86819567168E+03  0.12829510128E+04  0.94056587467E+03 0.  0.
        -13    1    3    3    0    0 -0.51109233027E+03  0.11495946056E+03  0.53785133094E+02  0.52661551376E+03  0.10566000000E+00 0.  1.
          4    1    3    3  501    0  0.43893728246E+03 -0.16321981121E+03 -0.13847580913E+03  0.48834638774E+03  0.00000000000E+00 0.  1.
         13    1    4    4    0    0  0.93593664417E+02 -0.15269459188E+03 -0.15691276611E+03  0.23811140195E+03  0.10566000000E+00 0. -1.
         -4    1    4    4    0  502 -0.21438616607E+02  0.20095494253E+03  0.10251084378E+04  0.10448396109E+04  0.00000000000E+00 0. -1.
<mgrwt>
<rscale>  2 0.99427646E+03</rscale>
<asrwt>0</asrwt>
<pdfrwt beam="1">  1       21 0.23703215E+00 0.10114223E+04</pdfrwt>
<pdfrwt beam="2">  1       21 0.11649292E+00 0.10114223E+04</pdfrwt>
<totfact> 0.19945229E+01</totfact>
</mgrwt>
</event>
<event>
 8    1  0.7208583E-006  0.1017753E+04  0.7818608E-02  0.8764833E-01
         21   -1    0    0  501  502  0.00000000000E+00  0.00000000000E+00  0.97004413782E+03  0.97004413782E+03  0.00000000000E+00 0. -1.
         21   -1    0    0  502  503 -0.00000000000E+00 -0.00000000000E+00 -0.10480722138E+04  0.10480722138E+04  0.00000000000E+00 0. -1.
    9000010    2    1    2  501    0  0.22508317530E+02 -0.86522260201E+02 -0.13877733191E+03  0.99855185099E+03  0.98481161924E+03 0.  0.
   -9000010    2    1    2    0  503 -0.22508317530E+02  0.86522260201E+02  0.60749255927E+02  0.10195645006E+04  0.10138188068E+04 0.  0.
        -13    1    3    3    0    0  0.48747182099E+02  0.36446785922E+03  0.21393089626E+03  0.42541691046E+03  0.10566000000E+00 0.  1.
          4    1    3    3  501    0 -0.26238864569E+02 -0.45099011943E+03 -0.35270822816E+03  0.57313494052E+03  0.00000000000E+00 0.  1.
         13    1    4    4    0    0 -0.72031301853E+02 -0.41159851140E+03  0.24707430548E+03  0.48543544023E+03  0.10566000000E+00 0. -1.
         -4    1    4    4    0  503  0.49522984323E+02  0.49812077160E+03 -0.18632504956E+03  0.53412906041E+03  0.00000000000E+00 0. -1.
<mgrwt>
<rscale>  2 0.10104519E+04</rscale>
<asrwt>0</asrwt>
<pdfrwt beam="1">  1       21 0.14923756E+00 0.10177531E+04</pdfrwt>
<pdfrwt beam="2">  1       21 0.16124188E+00 0.10177531E+04</pdfrwt>
<totfact> 0.38258689E+01</totfact>
</mgrwt>
</event>
<event>
 8    1  0.7208583E-006  0.1022978E+04  0.7818608E-02  0.8757014E-01
         21   -1    0    0  503  502  0.00000000000E+00  0.00000000000E+00  0.58381066025E+03  0.58381066025E+03  0.00000000000E+00 0.  1.
         21   -1    0    0  501  503 -0.00000000000E+00 -0.00000000000E+00 -0.19125807439E+04  0.19125807439E+04  0.00000000000E+00 0.  1.
    9000010    2    1    2  501    0 -0.87341661972E+02 -0.56874782304E+02 -0.32178207844E+03  0.10723931808E+04  0.10176542249E+04 0.  0.
   -9000010    2    1    2    0  502  0.87341661972E+02  0.56874782304E+02 -0.10069880052E+04  0.14239982234E+04  0.10014403581E+04 0.  0.
        -13    1    3    3    0    0  0.40358244541E+03 -0.16459310483E+03  0.61699173212E+02  0.44020049925E+03  0.10566000000E+00 0.  1.
          4    1    3    3  501    0 -0.49092410739E+03  0.10771832252E+03 -0.38348125166E+03  0.63219268154E+03  0.00000000000E+00 0.  1.
         13    1    4    4    0    0  0.38706637041E+03  0.15789676506E+03 -0.55970651401E+02  0.42176354572E+03  0.10566000000E+00 0. -1.
         -4    1    4    4    0  502 -0.29972470844E+03 -0.10102198275E+03 -0.95101735381E+03  0.10022346777E+04  0.00000000000E+00 0. -1.
<mgrwt>
<rscale>  2 0.10189216E+04</rscale>
<asrwt>0</asrwt>
<pdfrwt beam="1">  1       21 0.89817024E-01 0.10229777E+04</pdfrwt>
<pdfrwt beam="2">  1       21 0.29424319E+00 0.10229777E+04</pdfrwt>
<totfact> 0.15320944E+01</totfact>
</mgrwt>
</event>
<event>
 8    1  0.7208583E-006  0.1090666E+04  0.7818608E-02  0.8694596E-01
         21   -1    0    0  501  502  0.00000000000E+00  0.00000000000E+00  0.16565541883E+04  0.16565541883E+04  0.00000000000E+00 0. -1.
         21   -1    0    0  502  503 -0.00000000000E+00 -0.00000000000E+00 -0.12064494236E+04  0.12064494236E+04  0.00000000000E+00 0. -1.
    9000010    2    1    2  501    0  0.75418572357E+02  0.42610143532E+03  0.11379442118E+04  0.15735556537E+04  0.99695033571E+03 0.  0.
   -9000010    2    1    2    0  503 -0.75418572357E+02 -0.42610143532E+03 -0.68783944707E+03  0.12894479583E+04  0.10011506070E+04 0.  0.
        -13    1    3    3    0    0 -0.42901426609E+03  0.49876071109E+02  0.63509187727E+03  0.76803812842E+03  0.10566000000E+00 0.  1.
          4    1    3    3  501    0  0.50443283844E+03  0.37622536421E+03  0.50285233449E+03  0.80551752525E+03  0.00000000000E+00 0.  1.
         13    1    4    4    0    0  0.44323225072E+03 -0.63803387567E+02 -0.37289179957E+03  0.58272978790E+03  0.10566000000E+00 0. -1.
         -4    1    4    4    0  503 -0.51865082308E+03 -0.36229804776E+03 -0.31494764750E+03  0.70671817039E+03  0.00000000000E+00 0. -1.
<mgrwt>
<rscale>  2 0.10897014E+04</rscale>
<asrwt>0</asrwt>
<pdfrwt beam="1">  1       21 0.25485449E+00 0.10906663E+04</pdfrwt>
<pdfrwt beam="2">  1       21 0.18560760E+00 0.10906663E+04</pdfrwt>
<totfact> 0.34720665E+00</totfact>
</mgrwt>
</event>
<event>
 8    1  0.7208583E-006  0.1045158E+04  0.7818608E-02  0.8735956E-01
         21   -1    0    0  503  502  0.00000000000E+00  0.00000000000E+00  0.10602491082E+04  0.10602491082E+04  0.00000000000E+00 0. -1.
         21   -1    0    0  501  503 -0.00000000000E+00 -0.00000000000E+00 -0.10240951122E+04  0.10240951122E+04  0.00000000000E+00 0. -1.
    9000010    2    1    2  501    0 -0.24335409277E+03 -0.41567301641E+01  0.94673831775E+02  0.10375493494E+04  0.10041449224E+04 0.  0.
   -9000010    2    1    2    0  502  0.24335409277E+03  0.41567301641E+01 -0.58519835699E+02  0.10467948710E+04  0.10164233556E+04 0.  0.
        -13    1    3    3    0    0  0.32346246164E+03 -0.19515112236E+03  0.20426780401E+03  0.42946160663E+03  0.10566000000E+00 0.  1.
          4    1    3    3  501    0 -0.56681655441E+03  0.19099439220E+03 -0.10959397223E+03  0.60808774281E+03  0.00000000000E+00 0.  1.
         13    1    4    4    0    0 -0.39373323107E+03  0.43819904450E+02  0.50027969432E+02  0.39931046839E+03  0.10566000000E+00 0. -1.
         -4    1    4    4    0  502  0.63708732384E+03 -0.39663174286E+02 -0.10854780513E+03  0.64748440258E+03  0.00000000000E+00 0. -1.
<mgrwt>
<rscale>  2 0.10421608E+04</rscale>
<asrwt>0</asrwt>
<pdfrwt beam="1">  1       21 0.16311525E+00 0.10451578E+04</pdfrwt>
<pdfrwt beam="2">  1       21 0.15755309E+00 0.10451578E+04</pdfrwt>
<totfact> 0.30955799E+01</totfact>
</mgrwt>
</event>
<event>
 8    1  0.7208583E-006  0.1161145E+04  0.7818608E-02  0.8636791E-01
         21   -1    0    0  503  502  0.00000000000E+00  0.00000000000E+00  0.14863848938E+04  0.14863848938E+04  0.00000000000E+00 0.  1.
         21   -1    0    0  501  503 -0.00000000000E+00 -0.00000000000E+00 -0.97424878662E+03  0.97424878662E+03  0.00000000000E+00 0.  1.
    9000010    2    1    2  501    0  0.41823871161E+03  0.40119517263E+03  0.58295936514E+03  0.12992683762E+04  0.10061687262E+04 0.  0.
   -9000010    2    1    2    0  502 -0.41823871161E+03 -0.40119517263E+03 -0.70823257953E+02  0.11613653043E+04  0.10039284086E+04 0.  0.
        -13    1    3    3    0    0  0.25136777545E+03  0.56383070985E+03  0.77956560618E+03  0.99439095602E+03  0.10566000000E+00 0.  1.
          4    1    3    3  501    0  0.16687093616E+03 -0.16263553722E+03 -0.19660624104E+03  0.30487742015E+03  0.00000000000E+00 0.  1.
         13    1    4    4    0    0 -0.18131713211E+03 -0.46537960320E+03  0.39370648826E+03  0.63597082286E+03  0.10566000000E+00 0. -1.
         -4    1    4    4    0  502 -0.23692157950E+03  0.64184430574E+02 -0.46452974621E+03  0.52539448139E+03  0.00000000000E+00 0. -1.
<mgrwt>
<rscale>  2 0.11606591E+04</rscale>
<asrwt>0</asrwt>
<pdfrwt beam="1">  1       21 0.22867460E+00 0.11611446E+04</pdfrwt>
<pdfrwt beam="2">  1       21 0.14988443E+00 0.11611446E+04</pdfrwt>
<totfact> 0.10672068E+01</totfact>
</mgrwt>
</event>
<event>
 8    1  0.7208583E-006  0.1045916E+04  0.7818608E-02  0.8735814E-01
         21   -1    0    0  501  502  0.00000000000E+00  0.00000000000E+00  0.93781201576E+03  0.93781201576E+03  0.00000000000E+00 0.  1.
         21   -1    0    0  502  503 -0.00000000000E+00 -0.00000000000E+00 -0.13784337364E+04  0.13784337364E+04  0.00000000000E+00 0.  1.
    9000010    2    1    2  501    0 -0.11959060683E+03 -0.24316024401E+03  0.25181056492E+03  0.10618919709E+04  0.99537790800E+03 0.  0.
   -9000010    2    1    2    0  503  0.11959060683E+03  0.24316024401E+03 -0.69243228558E+03  0.12543537813E+04  0.10102039997E+04 0.  0.
        -13    1    3    3    0    0 -0.41115111273E+03  0.62241450019E+01 -0.20982240856E+03  0.46163777117E+03  0.10566000000E+00 0.  1.
          4    1    3    3  501    0  0.29156050590E+03 -0.24938438901E+03  0.46163297348E+03  0.60025419972E+03  0.00000000000E+00 0.  1.
         13    1    4    4    0    0  0.16504382558E+03  0.63119506951E+03 -0.47711970962E+03  0.80826351433E+03  0.10566000000E+00 0. -1.
         -4    1    4    4    0  503 -0.45453218752E+02 -0.38803482550E+03 -0.21531257597E+03  0.44609026695E+03  0.00000000000E+00 0. -1.
<mgrwt>
<rscale>  2 0.10423196E+04</rscale>
<asrwt>0</asrwt>
<pdfrwt beam="1">  1       21 0.14427877E+00 0.10459163E+04</pdfrwt>
<pdfrwt beam="2">  1       21 0.21206673E+00 0.10459163E+04</pdfrwt>
<totfact> 0.16409821E+01</totfact>
</mgrwt>
</event>
<event>
 8    1  0.7208583E-006  0.1029027E+04  0.7818608E-02  0.8751169E-01
         21   -1    0    0  501  502  0.00000000000E+00  0.00000000000E+00  0.60277616876E+03  0.60277616876E+03  0.00000000000E+00 0. -1.
         21   -1    0    0  502  503 -0.00000000000E+00 -0.00000000000E+00 -0.17335361614E+04  0.17335361614E+04  0.00000000000E+00 0. -1.
    9000010    2    1    2  501    0 -0.20037290418E+03  0.90088241990E+01 -0.52161449240E+03  0.11405054852E+04  0.99420351205E+03 0.  0.
   -9000010    2    1    2    0  503  0.20037290418E+03 -0.90088241990E+01 -0.60914550028E+03  0.11958068450E+04  0.10092895078E+04 0.  0.
        -13    1    3    3    0    0  0.14218263814E+03 -0.26359773926E+03  0.15297925226E+03  0.33630690376E+03  0.10566000000E+00 0.  1.
          4    1    3    3  501    0 -0.34255554231E+03  0.27260656346E+03 -0.67459374465E+03  0.80419858141E+03  0.00000000000E+00 0.  1.
         13    1    4    4    0    0  0.13955894636E+03  0.32203761224E+03 -0.75222151222E+03  0.83007357374E+03  0.10566000000E+00 0. -1.
         -4    1    4    4    0  503  0.60813957814E+02 -0.33104643644E+03  0.14307601193E+03  0.36573327130E+03  0.00000000000E+00 0. -1.
<mgrwt>
<rscale>  2 0.10253084E+04</rscale>
<asrwt>0</asrwt>
<pdfrwt beam="1">  1       21 0.92734796E-01 0.10290266E+04</pdfrwt>
<pdfrwt beam="2">  1       21 0.26669787E+00 0.10290266E+04</pdfrwt>
<totfact> 0.22149349E+01</totfact>
</mgrwt>
</event>
<event>
 8    1  0.7208583E-006  0.1017828E+04  0.7818608E-02  0.8760936E-01
         21   -1    0    0  503  502  0.00000000000E+00  0.00000000000E+00  0.11581436155E+04  0.11581436155E+04  0.00000000000E+00 0.  1.
         21   -1    0    0  501  503 -0.00000000000E+00 -0.00000000000E+00 -0.24958912160E+04  0.24958912160E+04  0.00000000000E+00 0.  1.
    9000010    2    1    2  501    0 -0.12560378046E+03 -0.31231126448E+02 -0.21358730604E+04  0.23605979499E+04  0.99685367934E+03 0.  0.
   -9000010    2    1    2    0  502  0.12560378046E+03  0.31231126448E+02  0.79812545989E+03  0.12934368815E+04  0.10095657600E+04 0.  0.
        -13    1    3    3    0    0  0.81923499361E+02  0.24048409024E+03 -0.65743036642E+02  0.26242373261E+03  0.10566000000E+00 0.  1.
          4    1    3    3  501    0 -0.20752727982E+03 -0.27171521669E+03 -0.20701300238E+04  0.20981742173E+04  0.00000000000E+00 0.  1.
         13    1    4    4    0    0  0.12462993109E+03 -0.27910636409E+03 -0.11686720743E+03  0.32724751723E+03  0.10566000000E+00 0. -1.
         -4    1    4    4    0  502  0.97384936976E+00  0.31033749054E+03  0.91499266731E+03  0.96618936428E+03  0.00000000000E+00 0. -1.
<mgrwt>
<rscale>  2 0.10146618E+04</rscale>
<asrwt>0</asrwt>
<pdfrwt beam="1">  1       21 0.17817594E+00 0.10178284E+04</pdfrwt>
<pdfrwt beam="2">  1       21 0.38398326E+00 0.10178284E+04</pdfrwt>
<totfact> 0.49757520E-01</totfact>
</mgrwt>
</event>
<event>
 8    1  0.7208583E-006  0.1027410E+04  0.7818608E-02  0.8752964E-01
         21   -1    0    0  501  502  0.00000000000E+00  0.00000000000E+00  0.67238382573E+03  0.67238382573E+03  0.00000000000E+00 0. -1.
         21   -1    0    0  502  503 -0.00000000000E+00 -0.00000000000E+00 -0.22298091488E+04  0.22298091488E+04  0.00000000000E+00 0. -1.
    9000010    2    1    2  501    0  0.16937006479E+03 -0.17547479757E+03  0.29557943015E+02  0.10116673008E+04  0.98138648453E+03 0.  0.
   -9000010    2    1    2    0  503 -0.16937006479E+03  0.17547479757E+03 -0.15869832660E+04  0.18905256737E+04  0.99804499541E+03 0.  0.
        -13    1    3    3    0    0  0.27447427510E+03 -0.25002868980E+03 -0.41028349890E+03  0.55333808296E+03  0.10566000000E+00 0.  1.
          4    1    3    3  501    0 -0.10510421031E+03  0.74553892232E+02  0.43984144192E+03  0.45832921781E+03  0.00000000000E+00 0.  1.
         13    1    4    4    0    0 -0.48811697472E+03  0.17393515922E+03 -0.14568021937E+04  0.15462161114E+04  0.10566000000E+00 0. -1.
         -4    1    4    4    0  503  0.31874690993E+03  0.15396383518E+01 -0.13018107238E+03  0.34430956228E+03  0.00000000000E+00 0. -1.
<mgrwt>
<rscale>  2 0.10233423E+04</rscale>
<asrwt>0</asrwt>
<pdfrwt beam="1">  1       21 0.10344367E+00 0.10274101E+04</pdfrwt>
<pdfrwt beam="2">  1       21 0.34304756E+00 0.10274101E+04</pdfrwt>
<totfact> 0.48163859E+00</totfact>
</mgrwt>
</event>
<event>
 8    1  0.7208583E-006  0.1034322E+04  0.7818608E-02  0.8746760E-01
         21   -1    0    0  501  502  0.00000000000E+00  0.00000000000E+00  0.82497653896E+03  0.82497653896E+03  0.00000000000E+00 0. -1.
         21   -1    0    0  502  503 -0.00000000000E+00 -0.00000000000E+00 -0.16289863409E+04  0.16289863409E+04  0.00000000000E+00 0. -1.
    9000010    2    1    2  501    0 -0.17788821495E+03 -0.15685554598E+03  0.16650228865E+03  0.10476378783E+04  0.10067642388E+04 0.  0.
   -9000010    2    1    2    0  503  0.17788821495E+03  0.15685554598E+03 -0.97051209059E+03  0.14063250016E+04  0.98975169248E+03 0.  0.
        -13    1    3    3    0    0  0.10816528954E+03 -0.19188471278E+03 -0.37460746701E+03  0.43456902601E+03  0.10566000000E+00 0.  1.
          4    1    3    3  501    0 -0.28605350449E+03  0.35029166799E+02  0.54110975566E+03  0.61306885227E+03  0.00000000000E+00 0.  1.
         13    1    4    4    0    0  0.45478652997E+03  0.38868385490E+03 -0.36355046137E+03  0.70005348084E+03  0.10566000000E+00 0. -1.
         -4    1    4    4    0  503 -0.27689831502E+03 -0.23182830892E+03 -0.60696162921E+03  0.70627152074E+03  0.00000000000E+00 0. -1.
<mgrwt>
<rscale>  2 0.10301590E+04</rscale>
<asrwt>0</asrwt>
<pdfrwt beam="1">  1       21 0.12691947E+00 0.10343221E+04</pdfrwt>
<pdfrwt beam="2">  1       21 0.25061328E+00 0.10343221E+04</pdfrwt>
<totfact> 0.12402482E+01</totfact>
</mgrwt>
</event>
<event>
 8    1  0.7208583E-006  0.9331864E+03  0.7818608E-02  0.8852055E-01
         21   -1    0    0  501  502  0.00000000000E+00  0.00000000000E+00  0.35483558029E+03  0.35483558029E+03  0.00000000000E+00 0. -1.
         21   -1    0    0  502  503 -0.00000000000E+00 -0.00000000000E+00 -0.23467420387E+04  0.23467420387E+04  0.00000000000E+00 0. -1.
    9000010    2    1    2  501    0  0.31024768781E+03  0.32000083216E+03 -0.11159073074E+04  0.14546772805E+04  0.81986749615E+03 0.  0.
   -9000010    2    1    2    0  503 -0.31024768781E+03 -0.32000083216E+03 -0.87599915098E+03  0.12469003385E+04  0.76728859057E+03 0.  0.
        -13    1    3    3    0    0 -0.65283654234E+01 -0.26638050581E+03 -0.30363865887E+03  0.40397727629E+03  0.10566000000E+00 0.  1.
          4    1    3    3  501    0  0.31677605324E+03  0.58638133797E+03 -0.81226864852E+03  0.10507000042E+04  0.00000000000E+00 0.  1.
         13    1    4    4    0    0 -0.14215226453E+03  0.22543635256E+03 -0.10232706430E+03  0.28548144356E+03  0.10566000000E+00 0. -1.
         -4    1    4    4    0  503 -0.16809542329E+03 -0.54543718472E+03 -0.77367208669E+03  0.96141889493E+03  0.00000000000E+00 0. -1.
<mgrwt>
<rscale>  2 0.92150938E+03</rscale>
<asrwt>0</asrwt>
<pdfrwt beam="1">  1       21 0.54590089E-01 0.93318641E+03</pdfrwt>
<pdfrwt beam="2">  1       21 0.36103724E+00 0.93318641E+03</pdfrwt>
<totfact> 0.17352144E+01</totfact>
</mgrwt>
</event>
<event>
 8    1  0.7208583E-006  0.1001515E+04  0.7818608E-02  0.8777879E-01
         21   -1    0    0  501  502  0.00000000000E+00  0.00000000000E+00  0.24842554287E+04  0.24842554287E+04  0.00000000000E+00 0. -1.
         21   -1    0    0  502  503 -0.00000000000E+00 -0.00000000000E+00 -0.39745283487E+03  0.39745283487E+03  0.00000000000E+00 0. -1.
    9000010    2    1    2  501    0 -0.37698738696E+02  0.34256161715E+02  0.11472223660E+04  0.15228757510E+04  0.10002183343E+04 0.  0.
   -9000010    2    1    2    0  503  0.37698738696E+02 -0.34256161715E+02  0.93958022786E+03  0.13588325126E+04  0.98031633324E+03 0.  0.
        -13    1    3    3    0    0 -0.51072933049E+03 -0.74167141700E+02  0.60353904509E+03  0.79410616673E+03  0.10566000000E+00 0.  1.
          4    1    3    3  501    0  0.47303059179E+03  0.10842330342E+03  0.54368332089E+03  0.72876958423E+03  0.00000000000E+00 0.  1.
         13    1    4    4    0    0  0.34447949151E+03 -0.20088751900E+03  0.92740577141E+03  0.10095065088E+04  0.10566000000E+00 0. -1.
         -4    1    4    4    0  503 -0.30678075282E+03  0.16663135728E+03  0.12174456458E+02  0.34932600378E+03  0.00000000000E+00 0. -1.
<mgrwt>
<rscale>  2 0.99650821E+03</rscale>
<asrwt>0</asrwt>
<pdfrwt beam="1">  1       21 0.38219313E+00 0.10015146E+04</pdfrwt>
<pdfrwt beam="2">  1       21 0.61146592E-01 0.10015146E+04</pdfrwt>
<totfact> 0.93770462E+00</totfact>
</mgrwt>
</event>
<event>
 8    1  0.7208583E-006  0.1092285E+04  0.7818608E-02  0.8693519E-01
         21   -1    0    0  503  502  0.00000000000E+00  0.00000000000E+00  0.25130433664E+04  0.25130433664E+04  0.00000000000E+00 0.  1.
         21   -1    0    0  501  503 -0.00000000000E+00 -0.00000000000E+00 -0.50079613614E+03  0.50079613614E+03  0.00000000000E+00 0.  1.
    9000010    2    1    2  501    0 -0.16071871781E+03 -0.43235833490E+03  0.13621238847E+04  0.17427192992E+04  0.98433980032E+03 0.  0.
   -9000010    2    1    2    0  502  0.16071871781E+03  0.43235833490E+03  0.65012334556E+03  0.12711202033E+04  0.99011210017E+03 0.  0.
        -13    1    3    3    0    0 -0.15736629116E+03 -0.61679207960E+03  0.37560948670E+03  0.73910697245E+03  0.10566000000E+00 0.  1.
          4    1    3    3  501    0 -0.33524266496E+01  0.18443374470E+03  0.98651439798E+03  0.10036123267E+04  0.00000000000E+00 0.  1.
         13    1    4    4    0    0 -0.40276255512E+03  0.91804871759E+02  0.37371924945E+03  0.55705645931E+03  0.10566000000E+00 0. -1.
         -4    1    4    4    0  502  0.56348127293E+03  0.34055346314E+03  0.27640409611E+03  0.71406374404E+03  0.00000000000E+00 0. -1.
<mgrwt>
<rscale>  2 0.10909751E+04</rscale>
<asrwt>0</asrwt>
<pdfrwt beam="1">  1       21 0.38662205E+00 0.10922849E+04</pdfrwt>
<pdfrwt beam="2">  1       21 0.77045561E-01 0.10922849E+04</pdfrwt>
<totfact> 0.49601801E+00</totfact>
</mgrwt>
</event>
<event>
 8    1  0.7208583E-006  0.1041239E+04  0.7818608E-02  0.8743041E-01
         21   -1    0    0  503  502  0.00000000000E+00  0.00000000000E+00  0.16583599077E+04  0.16583599077E+04  0.00000000000E+00 0.  1.
         21   -1    0    0  501  503 -0.00000000000E+00 -0.00000000000E+00 -0.74282435969E+03  0.74282435969E+03  0.00000000000E+00 0.  1.
    9000010    2    1    2  501    0 -0.29879423396E+03  0.10567808906E+03  0.89667040548E+01  0.10412773674E+04  0.99183279911E+03 0.  0.
   -9000010    2    1    2    0  502  0.29879423396E+03 -0.10567808906E+03  0.90656884394E+03  0.13599068999E+04  0.96282597334E+03 0.  0.
        -13    1    3    3    0    0 -0.59115087959E+03 -0.70827269189E+02 -0.21485534242E+03  0.63296026245E+03  0.10566000000E+00 0.  1.
          4    1    3    3  501    0  0.29235664563E+03  0.17650535825E+03  0.22382204648E+03  0.40831710499E+03  0.00000000000E+00 0.  1.
         13    1    4    4    0    0 -0.24080649174E+03  0.66298158542E+02  0.72241865569E+03  0.76437682954E+03  0.10566000000E+00 0. -1.
         -4    1    4    4    0  502  0.53960072570E+03 -0.17197624760E+03  0.18415018825E+03  0.59553007040E+03  0.00000000000E+00 0. -1.
<mgrwt>
<rscale>  2 0.10342711E+04</rscale>
<asrwt>0</asrwt>
<pdfrwt beam="1">  1       21 0.25513229E+00 0.10412388E+04</pdfrwt>
<pdfrwt beam="2">  1       21 0.11428067E+00 0.10412388E+04</pdfrwt>
<totfact> 0.15404925E+01</totfact>
</mgrwt>
</event>
<event>
 8    1  0.7208583E-006  0.1001944E+04  0.7818608E-02  0.8778331E-01
         21   -1    0    0  503  502  0.00000000000E+00  0.00000000000E+00  0.12216825680E+04  0.12216825680E+04  0.00000000000E+00 0. -1.
         21   -1    0    0  501  503 -0.00000000000E+00 -0.00000000000E+00 -0.86249648212E+03  0.86249648212E+03  0.00000000000E+00 0. -1.
    9000010    2    1    2  501    0 -0.70934955084E+02 -0.77146865175E+02 -0.96963627744E+02  0.98328632172E+03  0.97286516985E+03 0.  0.
   -9000010    2    1    2    0  502  0.70934955084E+02  0.77146865175E+02  0.45614971358E+03  0.11008927284E+04  0.99644810777E+03 0.  0.
        -13    1    3    3    0    0 -0.15117778290E+02 -0.51751244504E+03 -0.14272245199E+03  0.53704505161E+03  0.10566000000E+00 0.  1.
          4    1    3    3  501    0 -0.55817176794E+02  0.44036557986E+03  0.45758824245E+02  0.44624127011E+03  0.00000000000E+00 0.  1.
         13    1    4    4    0    0 -0.12755156663E+03  0.47681658909E+03  0.47594021308E+02  0.49587162029E+03  0.10566000000E+00 0. -1.
         -4    1    4    4    0  502  0.19848652171E+03 -0.39966972391E+03  0.40855569227E+03  0.60502110807E+03  0.00000000000E+00 0. -1.
<mgrwt>
<rscale>  2 0.99602944E+03</rscale>
<asrwt>0</asrwt>
<pdfrwt beam="1">  1       21 0.18795116E+00 0.10019442E+04</pdfrwt>
<pdfrwt beam="2">  1       21 0.13269177E+00 0.10019442E+04</pdfrwt>
<totfact> 0.32783228E+01</totfact>
</mgrwt>
</event>
<event>
 8    1  0.7208583E-006  0.1094648E+04  0.7818608E-02  0.8719983E-01
         21   -1    0    0  503  502  0.00000000000E+00  0.00000000000E+00  0.87838564483E+03  0.87838564483E+03  0.00000000000E+00 0. -1.
         21   -1    0    0  501  503 -0.00000000000E+00 -0.00000000000E+00 -0.13521119994E+04  0.13521119994E+04  0.00000000000E+00 0. -1.
    9000010    2    1    2  501    0 -0.31302660276E+03 -0.32188430893E+03 -0.59013692965E+03  0.11296772834E+04  0.85224058022E+03 0.  0.
   -9000010    2    1    2    0  502  0.31302660276E+03  0.32188430893E+03  0.11641057511E+03  0.11008203608E+04  0.99832804344E+03 0.  0.
        -13    1    3    3    0    0  0.10530081902E+03  0.17470064274E+03 -0.40665587688E+03  0.45494789858E+03  0.10566000000E+00 0.  1.
          4    1    3    3  501    0 -0.41832742178E+03 -0.49658495168E+03 -0.18348105277E+03  0.67472938484E+03  0.00000000000E+00 0.  1.
         13    1    4    4    0    0 -0.34583481719E+03  0.14211505448E+03 -0.95229624302E+02  0.38583299756E+03  0.10566000000E+00 0. -1.
         -4    1    4    4    0  502  0.65886141995E+03  0.17976925446E+03  0.21164019941E+03  0.71498736321E+03  0.00000000000E+00 0. -1.
<mgrwt>
<rscale>  2 0.10602152E+04</rscale>
<asrwt>0</asrwt>
<pdfrwt beam="1">  1       21 0.13513625E+00 0.10946479E+04</pdfrwt>
<pdfrwt beam="2">  1       21 0.20801723E+00 0.10946479E+04</pdfrwt>
<totfact> 0.21194398E+01</totfact>
</mgrwt>
</event>
<event>
 8    1  0.7208583E-006  0.1014927E+04  0.7818608E-02  0.8760842E-01
         21   -1    0    0  503  502  0.00000000000E+00  0.00000000000E+00  0.49091033799E+03  0.49091033799E+03  0.00000000000E+00 0. -1.
         21   -1    0    0  501  503 -0.00000000000E+00 -0.00000000000E+00 -0.31899309813E+04  0.31899309813E+04  0.00000000000E+00 0. -1.
    9000010    2    1    2  501    0 -0.64791485078E+02 -0.66622214408E+02 -0.24265148602E+04  0.26299674667E+04  0.10100089371E+04 0.  0.
   -9000010    2    1    2    0  502  0.64791485078E+02  0.66622214408E+02 -0.27250578313E+03  0.10508738526E+04  0.10106631468E+04 0.  0.
        -13    1    3    3    0    0 -0.37355775186E+03 -0.39760805451E+03 -0.15547967168E+04  0.16477349303E+04  0.10566000000E+00 0.  1.
          4    1    3    3  501    0  0.30876626678E+03  0.33098584010E+03 -0.87171814343E+03  0.98223253634E+03  0.00000000000E+00 0.  1.
         13    1    4    4    0    0 -0.48617361236E+02  0.22275801605E+03 -0.61602330972E+03  0.65686338824E+03  0.10566000000E+00 0. -1.
         -4    1    4    4    0  502  0.11340884631E+03 -0.15613580164E+03  0.34351752659E+03  0.39401046439E+03  0.00000000000E+00 0. -1.
<mgrwt>
<rscale>  2 0.10147639E+04</rscale>
<asrwt>0</asrwt>
<pdfrwt beam="1">  1       21 0.75524665E-01 0.10149268E+04</pdfrwt>
<pdfrwt beam="2">  1       21 0.49075863E+00 0.10149268E+04</pdfrwt>
<totfact> 0.10021700E+00</totfact>
</mgrwt>
</event>
<event>
 8    1  0.7208583E-006  0.1027434E+04  0.7818608E-02  0.8756158E-01
         21   -1    0    0  503  502  0.00000000000E+00  0.00000000000E+00  0.12098699179E+04  0.12098699179E+04  0.00000000000E+00 0.  1.
         21   -1    0    0  501  503 -0.00000000000E+00 -0.00000000000E+00 -0.87425042644E+03  0.87425042644E+03  0.00000000000E+00 0.  1.
    9000010    2    1    2  501    0  0.37857804344E+02 -0.21248742551E+03  0.35340096040E+03  0.10865136304E+04  0.10045075962E+04 0.  0.
   -9000010    2    1    2    0  502 -0.37857804344E+02  0.21248742551E+03 -0.17781468940E+02  0.99760671394E+03  0.97381664379E+03 0.  0.
        -13    1    3    3    0    0  0.29762453373E+03 -0.51570704616E+03  0.34288771031E+03  0.68709978430E+03  0.10566000000E+00 0.  1.
          4    1    3    3  501    0 -0.25976672939E+03  0.30321962064E+03  0.10513250092E+02  0.39941384611E+03  0.00000000000E+00 0.  1.
         13    1    4    4    0    0 -0.26308989560E+03 -0.39236926999E+02  0.38750449780E+03  0.47001657054E+03  0.10566000000E+00 0. -1.
         -4    1    4    4    0  502  0.22523209125E+03  0.25172435251E+03 -0.40528596674E+03  0.52759014340E+03  0.00000000000E+00 0. -1.
<mgrwt>
<rscale>  2 0.10198537E+04</rscale>
<asrwt>0</asrwt>
<pdfrwt beam="1">  1       21 0.18613383E+00 0.10274335E+04</pdfrwt>
<pdfrwt beam="2">  1       21 0.13450007E+00 0.10274335E+04</pdfrwt>
<totfact> 0.32401622E+01</totfact>
</mgrwt>
</event>
<event>
 8    1  0.7208583E-006  0.1069106E+04  0.7818608E-02  0.8735672E-01
         21   -1    0    0  501  502  0.00000000000E+00  0.00000000000E+00  0.79862576646E+03  0.79862576646E+03  0.00000000000E+00 0.  1.
         21   -1    0    0  502  503 -0.00000000000E+00 -0.00000000000E+00 -0.17085938214E+04  0.17085938214E+04  0.00000000000E+00 0.  1.
    9000010    2    1    2  501    0  0.32667627450E+03 -0.17007000913E+03  0.17701067957E+03  0.98258479620E+03  0.89358765922E+03 0.  0.
   -9000010    2    1    2    0  503 -0.32667627450E+03  0.17007000913E+03 -0.10869787345E+04  0.15246347917E+04  0.10036669181E+04 0.  0.
        -13    1    3    3    0    0  0.27115167682E+03 -0.23625866842E+03 -0.31801420225E+03  0.48007752940E+03  0.10566000000E+00 0.  1.
          4    1    3    3  501    0  0.55524597687E+02  0.66188659289E+02  0.49502488181E+03  0.50250726680E+03  0.00000000000E+00 0.  1.
         13    1    4    4    0    0 -0.30720981593E+03 -0.39608747342E+03 -0.54863614606E+03  0.74314520084E+03  0.10566000000E+00 0. -1.
         -4    1    4    4    0  503 -0.19466458574E+02  0.56615748255E+03 -0.53834258849E+03  0.78148959087E+03  0.00000000000E+00 0. -1.
<mgrwt>
<rscale>  2 0.10424787E+04</rscale>
<asrwt>0</asrwt>
<pdfrwt beam="1">  1       21 0.12286550E+00 0.10691064E+04</pdfrwt>
<pdfrwt beam="2">  1       21 0.26286058E+00 0.10691064E+04</pdfrwt>
<totfact> 0.11003657E+01</totfact>
</mgrwt>
</event>
<event>
 8    1  0.7208583E-006  0.1037359E+04  0.7818608E-02  0.8745447E-01
         21   -1    0    0  503  502  0.00000000000E+00  0.00000000000E+00  0.60619904790E+03  0.60619904790E+03  0.00000000000E+00 0. -1.
         21   -1    0    0  501  503 -0.00000000000E+00 -0.00000000000E+00 -0.18498350821E+04  0.18498350821E+04  0.00000000000E+00 0. -1.
    9000010    2    1    2  501    0 -0.95448178740E+02  0.93432309598E+02 -0.93244089626E+03  0.13948329864E+04  0.10287240075E+04 0.  0.
   -9000010    2    1    2    0  502  0.95448178740E+02 -0.93432309598E+02 -0.31119513795E+03  0.10612011436E+04  0.10057164124E+04 0.  0.
        -13    1    3    3    0    0  0.45221147425E+03  0.17176482089E+03 -0.41587901624E+03  0.63792925819E+03  0.10566000000E+00 0.  1.
          4    1    3    3  501    0 -0.54765965299E+03 -0.78332511291E+02 -0.51656188001E+03  0.75690372817E+03  0.00000000000E+00 0.  1.
         13    1    4    4    0    0  0.45390011921E+03 -0.34582977108E+03 -0.23054712914E+03  0.61544742968E+03  0.10566000000E+00 0. -1.
         -4    1    4    4    0  502 -0.35845194047E+03  0.25239746148E+03 -0.80648008811E+02  0.44575371396E+03  0.00000000000E+00 0. -1.
<mgrwt>
<rscale>  2 0.10316081E+04</rscale>
<asrwt>0</asrwt>
<pdfrwt beam="1">  1       21 0.93261392E-01 0.10373587E+04</pdfrwt>
<pdfrwt beam="2">  1       21 0.28459001E+00 0.10373587E+04</pdfrwt>
<totfact> 0.16236222E+01</totfact>
</mgrwt>
</event>
<event>
 8    1  0.7208583E-006  0.1075369E+04  0.7818608E-02  0.8708649E-01
         21   -1    0    0  503  502  0.00000000000E+00  0.00000000000E+00  0.17709343508E+04  0.17709343508E+04  0.00000000000E+00 0.  1.
         21   -1    0    0  501  503 -0.00000000000E+00 -0.00000000000E+00 -0.77205338370E+03  0.77205338370E+03  0.00000000000E+00 0.  1.
    9000010    2    1    2  501    0 -0.19550296274E+03 -0.33712586382E+03 -0.12093847190E+02  0.10670174206E+04  0.99322940869E+03 0.  0.
   -9000010    2    1    2    0  502  0.19550296274E+03  0.33712586382E+03  0.10109748143E+04  0.14759703139E+04  0.10022689439E+04 0.  0.
        -13    1    3    3    0    0 -0.49241051741E+03 -0.22674688808E+03  0.30231767282E+03  0.62070786637E+03  0.10566000000E+00 0.  1.
          4    1    3    3  501    0  0.29690755467E+03 -0.11037897574E+03 -0.31441152001E+03  0.44630955426E+03  0.00000000000E+00 0.  1.
         13    1    4    4    0    0 -0.38622188049E+03  0.30430653761E+03  0.43078673775E+03  0.65371785534E+03  0.10566000000E+00 0. -1.
         -4    1    4    4    0  502  0.58172484323E+03  0.32819326202E+02  0.58018807658E+03  0.82225245856E+03  0.00000000000E+00 0. -1.
<mgrwt>
<rscale>  2 0.10732577E+04</rscale>
<asrwt>0</asrwt>
<pdfrwt beam="1">  1       21 0.27245144E+00 0.10753689E+04</pdfrwt>
<pdfrwt beam="2">  1       21 0.11877744E+00 0.10753689E+04</pdfrwt>
<totfact> 0.10310985E+01</totfact>
</mgrwt>
</event>
<event>
 8    1  0.7208583E-006  0.1007651E+04  0.7818608E-02  0.8770167E-01
         21   -1    0    0  501  502  0.00000000000E+00  0.00000000000E+00  0.18439434753E+04  0.18439434753E+04  0.00000000000E+00 0.  1.
         21   -1    0    0  502  503 -0.00000000000E+00 -0.00000000000E+00 -0.62134525302E+03  0.62134525302E+03  0.00000000000E+00 0.  1.
    9000010    2    1    2  501    0 -0.14921532736E+02  0.87500032217E+02  0.10484923885E+04  0.14541998253E+04  0.10037339962E+04 0.  0.
   -9000010    2    1    2    0  503  0.14921532736E+02 -0.87500032217E+02  0.17410583370E+03  0.10110889030E+04  0.99202269163E+03 0.  0.
        -13    1    3    3    0    0  0.30659889578E+03 -0.33177300511E+03  0.65382412495E+03  0.79470888214E+03  0.10566000000E+00 0.  1.
          4    1    3    3  501    0 -0.32152042852E+03  0.41927303733E+03  0.39466826360E+03  0.65949094313E+03  0.00000000000E+00 0.  1.
         13    1    4    4    0    0  0.39388677230E+03 -0.23878798681E+03  0.33803495014E+03  0.57134414385E+03  0.10566000000E+00 0. -1.
         -4    1    4    4    0  503 -0.37896523956E+03  0.15128795459E+03 -0.16392911644E+03  0.43974475917E+03  0.00000000000E+00 0. -1.
<mgrwt>
<rscale>  2 0.10047221E+04</rscale>
<asrwt>0</asrwt>
<pdfrwt beam="1">  1       21 0.28368361E+00 0.10076512E+04</pdfrwt>
<pdfrwt beam="2">  1       21 0.95591578E-01 0.10076512E+04</pdfrwt>
<totfact> 0.15578028E+01</totfact>
</mgrwt>
</event>
<event>
 8    1  0.7208583E-006  0.1028800E+04  0.7818608E-02  0.8749001E-01
         21   -1    0    0  503  502  0.00000000000E+00  0.00000000000E+00  0.20288503641E+04  0.20288503641E+04  0.00000000000E+00 0.  1.
         21   -1    0    0  501  503 -0.00000000000E+00 -0.00000000000E+00 -0.57356967916E+03  0.57356967916E+03  0.00000000000E+00 0.  1.
    9000010    2    1    2  501    0 -0.91078282998E+02  0.21437044790E+03  0.32650220937E+03  0.10751447380E+04  0.99753825614E+03 0.  0.
   -9000010    2    1    2    0  502  0.91078282998E+02 -0.21437044790E+03  0.11287784756E+04  0.15272753052E+04  0.10020873557E+04 0.  0.
        -13    1    3    3    0    0 -0.24407471526E+03  0.51358067586E+03  0.44155673724E+03  0.71993745605E+03  0.10566000000E+00 0.  1.
          4    1    3    3  501    0  0.15299643226E+03 -0.29921022796E+03 -0.11505452787E+03  0.35520728200E+03  0.00000000000E+00 0.  1.
         13    1    4    4    0    0  0.40162983626E+03 -0.17915597745E+03  0.98551793494E+02  0.45068376584E+03  0.10566000000E+00 0. -1.
         -4    1    4    4    0  502 -0.31055155326E+03 -0.35214470451E+02  0.10302266821E+04  0.10765915394E+04  0.00000000000E+00 0. -1.
<mgrwt>
<rscale>  2 0.10276904E+04</rscale>
<asrwt>0</asrwt>
<pdfrwt beam="1">  1       21 0.31213082E+00 0.10287998E+04</pdfrwt>
<pdfrwt beam="2">  1       21 0.88241490E-01 0.10287998E+04</pdfrwt>
<totfact> 0.11969245E+01</totfact>
</mgrwt>
</event>
<event>
 8    1  0.7208583E-006  0.1091631E+04  0.7818608E-02  0.8729308E-01
         21   -1    0    0  503  502  0.00000000000E+00  0.00000000000E+00  0.89286200109E+03  0.89286200109E+03  0.00000000000E+00 0.  1.
         21   -1    0    0  501  503 -0.00000000000E+00 -0.00000000000E+00 -0.13002911811E+04  0.13002911811E+04  0.00000000000E+00 0.  1.
    9000010    2    1    2  501    0 -0.26533556400E+03  0.36221180597E+03 -0.56409667616E+03  0.10903373040E+04  0.81794255453E+03 0.  0.
   -9000010    2    1    2    0  502  0.26533556400E+03 -0.36221180597E+03  0.15666749615E+03  0.11028158782E+04  0.99501648376E+03 0.  0.
        -13    1    3    3    0    0 -0.17079093345E+03  0.41114580032E+03  0.67090830799E+02  0.45023505285E+03  0.10566000000E+00 0.  1.
          4    1    3    3  501    0 -0.94544630546E+02 -0.48933994357E+02 -0.63118750696E+03  0.64010225113E+03  0.00000000000E+00 0.  1.
         13    1    4    4    0    0 -0.17319753143E+03  0.95176081811E+01 -0.31473449517E+03  0.35936858986E+03  0.10566000000E+00 0. -1.
         -4    1    4    4    0  502  0.43853309543E+03 -0.37172941415E+03  0.47140199132E+03  0.74344728835E+03  0.00000000000E+00 0. -1.
<mgrwt>
<rscale>  2 0.10496297E+04</rscale>
<asrwt>0</asrwt>
<pdfrwt beam="1">  1       21 0.13736338E+00 0.10916310E+04</pdfrwt>
<pdfrwt beam="2">  1       21 0.20004480E+00 0.10916310E+04</pdfrwt>
<totfact> 0.23295479E+01</totfact>
</mgrwt>
</event>
<event>
 8    1  0.7208583E-006  0.1067829E+04  0.7818608E-02  0.8720993E-01
         21   -1    0    0  501  502  0.00000000000E+00  0.00000000000E+00  0.10177802699E+04  0.10177802699E+04  0.00000000000E+00 0. -1.
         21   -1    0    0  502  503 -0.00000000000E+00 -0.00000000000E+00 -0.11382736032E+04  0.11382736032E+04  0.00000000000E+00 0. -1.
    9000010    2    1    2  501    0 -0.12386530498E+03 -0.10406701653E+03 -0.29592684308E+03  0.11080754048E+04  0.10555026521E+04 0.  0.
   -9000010    2    1    2    0  503  0.12386530498E+03  0.10406701653E+03  0.17543350972E+03  0.10479784683E+04  0.10204456850E+04 0.  0.
        -13    1    3    3    0    0  0.40684884519E+03 -0.59900243090E+02  0.12439475083E+03  0.42963715755E+03  0.10566000000E+00 0.  1.
          4    1    3    3  501    0 -0.53071415017E+03 -0.44166773443E+02 -0.42032159391E+03  0.67843824728E+03  0.00000000000E+00 0.  1.
         13    1    4    4    0    0 -0.36553306492E+03  0.28167133449E+03 -0.79529609287E+02  0.46827142998E+03  0.10566000000E+00 0. -1.
         -4    1    4    4    0  503  0.48939836991E+03 -0.17760431795E+03  0.25496311900E+03  0.57970703832E+03  0.00000000000E+00 0. -1.
<mgrwt>
<rscale>  2 0.10590618E+04</rscale>
<asrwt>0</asrwt>
<pdfrwt beam="1">  1       21 0.15658158E+00 0.10678288E+04</pdfrwt>
<pdfrwt beam="2">  1       21 0.17511902E+00 0.10678288E+04</pdfrwt>
<totfact> 0.24896077E+01</totfact>
</mgrwt>
</event>
<event>
 8    1  0.7208583E-006  0.9982909E+03  0.7818608E-02  0.8780913E-01
         21   -1    0    0  503  502  0.00000000000E+00  0.00000000000E+00  0.76992751900E+03  0.76992751900E+03  0.00000000000E+00 0.  1.
         21   -1    0    0  501  503 -0.00000000000E+00 -0.00000000000E+00 -0.12792879251E+04  0.12792879251E+04  0.00000000000E+00 0.  1.
    9000010    2    1    2  501    0 -0.11286675318E+03  0.49307168084E+02 -0.15947639309E+03  0.99138579059E+03  0.97069200318E+03 0.  0.
   -9000010    2    1    2    0  502  0.11286675318E+03 -0.49307168084E+02 -0.34988401296E+03  0.10578296535E+04  0.99066374338E+03 0.  0.
        -13    1    3    3    0    0 -0.37930071022E+03 -0.30985470181E+03 -0.22576393924E+03  0.53930356242E+03  0.10566000000E+00 0.  1.
          4    1    3    3  501    0  0.26643395704E+03  0.35916186990E+03  0.66287546147E+02  0.45208222817E+03  0.00000000000E+00 0.  1.
         13    1    4    4    0    0  0.63564936729E+01  0.33700832160E+03 -0.52226926385E+03  0.62159489136E+03  0.10566000000E+00 0. -1.
         -4    1    4    4    0  502  0.10651025951E+03 -0.38631548968E+03  0.17238525089E+03  0.43623476211E+03  0.00000000000E+00 0. -1.
<mgrwt>
<rscale>  2 0.99329959E+03</rscale>
<asrwt>0</asrwt>
<pdfrwt beam="1">  1       21 0.11845039E+00 0.99829092E+03</pdfrwt>
<pdfrwt beam="2">  1       21 0.19681353E+00 0.99829092E+03</pdfrwt>
<totfact> 0.38550478E+01</totfact>
</mgrwt>
</event>
<event>
 8    1  0.7208583E-006  0.1018520E+04  0.7818608E-02  0.8765732E-01
         21   -1    0    0  501  502  0.00000000000E+00  0.00000000000E+00  0.19289162762E+04  0.19289162762E+04  0.00000000000E+00 0. -1.
         21   -1    0    0  502  503 -0.00000000000E+00 -0.00000000000E+00 -0.78457212391E+03  0.78457212391E+03  0.00000000000E+00 0. -1.
    9000010    2    1    2  501    0 -0.17424909900E+03  0.77938050248E+02 -0.22364188287E+03  0.10079772966E+04  0.96413974639E+03 0.  0.
   -9000010    2    1    2    0  503  0.17424909900E+03 -0.77938050248E+02  0.13679860351E+04  0.17055111035E+04  0.10004725101E+04 0.  0.
        -13    1    3    3    0    0 -0.59195653522E+02  0.49976888094E+03  0.27012868264E+02  0.50398687082E+03  0.10566000000E+00 0.  1.
          4    1    3    3  501    0 -0.11505344548E+03 -0.42183083069E+03 -0.25065475113E+03  0.50399042580E+03  0.00000000000E+00 0.  1.
         13    1    4    4    0    0 -0.22541019428E+03 -0.41160270844E+03  0.85089388001E+03  0.97172370120E+03  0.10566000000E+00 0. -1.
         -4    1    4    4    0  503  0.39965929328E+03  0.33366465819E+03  0.51709215512E+03  0.73378740226E+03  0.00000000000E+00 0. -1.
<mgrwt>
<rscale>  2 0.10094838E+04</rscale>
<asrwt>0</asrwt>
<pdfrwt beam="1">  1       21 0.29675635E+00 0.10185197E+04</pdfrwt>
<pdfrwt beam="2">  1       21 0.12070340E+00 0.10185197E+04</pdfrwt>
<totfact> 0.67122112E+00</totfact>
</mgrwt>
</event>
<event>
 8    1  0.7208583E-006  0.1096180E+04  0.7818608E-02  0.8701157E-01
         21   -1    0    0  501  502  0.00000000000E+00  0.00000000000E+00  0.20551727744E+04  0.20551727744E+04  0.00000000000E+00 0. -1.
         21   -1    0    0  502  503 -0.00000000000E+00 -0.00000000000E+00 -0.65780792975E+03  0.65780792975E+03  0.00000000000E+00 0. -1.
    9000010    2    1    2  501    0  0.37651569893E+03  0.20301320543E+03  0.12492418725E+04  0.16619914497E+04  0.10092729511E+04 0.  0.
   -9000010    2    1    2    0  503 -0.37651569893E+03 -0.20301320543E+03  0.14812297215E+03  0.10509892544E+04  0.94850385602E+03 0.  0.
        -13    1    3    3    0    0  0.99085474729E+02 -0.30184529143E+03  0.37004277148E+02  0.31984033353E+03  0.10566000000E+00 0.  1.
          4    1    3    3  501    0  0.27743022420E+03  0.50485849686E+03  0.12122375953E+04  0.13421511162E+04  0.00000000000E+00 0.  1.
         13    1    4    4    0    0  0.22828208192E+03  0.52526439884E+02 -0.19984578272E+03  0.30791246134E+03  0.10566000000E+00 0. -1.
         -4    1    4    4    0  503 -0.60479778084E+03 -0.25553964531E+03  0.34796875487E+03  0.74307679307E+03  0.00000000000E+00 0. -1.
<mgrwt>
<rscale>  2 0.10819863E+04</rscale>
<asrwt>0</asrwt>
<pdfrwt beam="1">  1       21 0.31618042E+00 0.10961799E+04</pdfrwt>
<pdfrwt beam="2">  1       21 0.10120122E+00 0.10961799E+04</pdfrwt>
<totfact> 0.77573586E+00</totfact>
</mgrwt>
</event>
<event>
 8    1  0.7208583E-006  0.1037433E+04  0.7818608E-02  0.8742005E-01
         21   -1    0    0  501  502  0.00000000000E+00  0.00000000000E+00  0.12777024043E+04  0.12777024043E+04  0.00000000000E+00 0. -1.
         21   -1    0    0  502  503 -0.00000000000E+00 -0.00000000000E+00 -0.11711475499E+04  0.11711475499E+04  0.00000000000E+00 0. -1.
    9000010    2    1    2  501    0  0.23355983717E+03  0.11271107137E+03  0.70828826386E+03  0.12495374810E+04  0.99620162047E+03 0.  0.
   -9000010    2    1    2    0  503 -0.23355983717E+03 -0.11271107137E+03 -0.60173340944E+03  0.11993124731E+04  0.10044965550E+04 0.  0.
        -13    1    3    3    0    0  0.44850392615E+03  0.10817988474E+03  0.86713231071E+03  0.98223068302E+03  0.10566000000E+00 0.  1.
          4    1    3    3  501    0 -0.21494408898E+03  0.45311866307E+01 -0.15884404685E+03  0.26730679801E+03  0.00000000000E+00 0.  1.
         13    1    4    4    0    0 -0.17145875566E+02  0.34441040222E+02  0.27842517986E+03  0.28107073531E+03  0.10566000000E+00 0. -1.
         -4    1    4    4    0  503 -0.21641396161E+03 -0.14715211159E+03 -0.88015858930E+03  0.91824173780E+03  0.00000000000E+00 0. -1.
<mgrwt>
<rscale>  2 0.10354198E+04</rscale>
<asrwt>0</asrwt>
<pdfrwt beam="1">  1       21 0.19656960E+00 0.10374330E+04</pdfrwt>
<pdfrwt beam="2">  1       21 0.18017655E+00 0.10374330E+04</pdfrwt>
<totfact> 0.10654579E+01</totfact>
</mgrwt>
</event>
<event>
 8    1  0.7208583E-006  0.1097539E+04  0.7818608E-02  0.8688628E-01
         21   -1    0    0  501  502  0.00000000000E+00  0.00000000000E+00  0.14567873747E+04  0.14567873747E+04  0.00000000000E+00 0.  1.
         21   -1    0    0  502  503 -0.00000000000E+00 -0.00000000000E+00 -0.90135544890E+03  0.90135544890E+03  0.00000000000E+00 0.  1.
    9000010    2    1    2  501    0  0.13267818047E+03  0.41659262996E+03 -0.66715766153E+02  0.10965325936E+04  0.10033841819E+04 0.  0.
   -9000010    2    1    2    0  503 -0.13267818047E+03 -0.41659262996E+03  0.62214769193E+03  0.12616102300E+04  0.10066974237E+04 0.  0.
        -13    1    3    3    0    0 -0.16076148097E+03 -0.26613356149E+03  0.11502563983E+03  0.33151506044E+03  0.10566000000E+00 0.  1.
          4    1    3    3  501    0  0.29343966144E+03  0.68272619145E+03 -0.18174140598E+03  0.76501753316E+03  0.00000000000E+00 0.  1.
         13    1    4    4    0    0  0.17541016768E+03 -0.48767759832E+03  0.75737579053E+03  0.91772341480E+03  0.10566000000E+00 0. -1.
         -4    1    4    4    0  503 -0.30808834815E+03  0.71084968365E+02 -0.13522809859E+03  0.34388681517E+03  0.00000000000E+00 0. -1.
<mgrwt>
<rscale>  2 0.10967790E+04</rscale>
<asrwt>0</asrwt>
<pdfrwt beam="1">  1       21 0.22412113E+00 0.10975393E+04</pdfrwt>
<pdfrwt beam="2">  1       21 0.13867007E+00 0.10975393E+04</pdfrwt>
<totfact> 0.14807899E+01</totfact>
</mgrwt>
</event>
<event>
 8    1  0.7208583E-006  0.1014531E+04  0.7818608E-02  0.8791855E-01
         21   -1    0    0  501  502  0.00000000000E+00  0.00000000000E+00  0.43179174035E+03  0.43179174035E+03  0.00000000000E+00 0.  1.
         21   -1    0    0  502  503 -0.00000000000E+00 -0.00000000000E+00 -0.22243245440E+04  0.22243245440E+04  0.00000000000E+00 0.  1.
    9000010    2    1    2  501    0  0.10202149563E+03  0.74265935278E+01 -0.52744248662E+03  0.10344732442E+04  0.88401118563E+03 0.  0.
   -9000010    2    1    2    0  503 -0.10202149563E+03 -0.74265935278E+01 -0.12650903170E+04  0.16216430402E+04  0.10093607381E+04 0.  0.
        -13    1    3    3    0    0  0.30363266220E+03  0.16820705759E+03 -0.65911613594E+03  0.74492986220E+03  0.10566000000E+00 0.  1.
          4    1    3    3  501    0 -0.20161116656E+03 -0.16078046407E+03  0.13167364932E+03  0.28954338195E+03  0.00000000000E+00 0.  1.
         13    1    4    4    0    0 -0.50430278025E+03  0.58095592932E+02 -0.10369871577E+04  0.11545729810E+04  0.10566000000E+00 0. -1.
         -4    1    4    4    0  503  0.40228128461E+03 -0.65522186460E+02 -0.22810315926E+03  0.46707005912E+03  0.00000000000E+00 0. -1.
<mgrwt>
<rscale>  2 0.98182797E+03</rscale>
<asrwt>0</asrwt>
<pdfrwt beam="1">  1       21 0.66429498E-01 0.10145307E+04</pdfrwt>
<pdfrwt beam="2">  1       21 0.34220378E+00 0.10145307E+04</pdfrwt>
<totfact> 0.14716240E+01</totfact>
</mgrwt>
</event>
<event>
 8    1  0.7208583E-006  0.1007495E+04  0.7818608E-02  0.8769436E-01
         21   -1    0    0  501  502  0.00000000000E+00  0.00000000000E+00  0.23415088528E+04  0.23415088528E+04  0.00000000000E+00 0.  1.
         21   -1    0    0  502  503 -0.00000000000E+00 -0.00000000000E+00 -0.62485731571E+03  0.62485731571E+03  0.00000000000E+00 0.  1.
    9000010    2    1    2  501    0 -0.46275596867E+02  0.27243888925E+02  0.16887103982E+04  0.19664150769E+04  0.10060625156E+04 0.  0.
   -9000010    2    1    2    0  503  0.46275596867E+02 -0.27243888925E+02  0.27941138890E+02  0.99995109163E+03  0.99811713644E+03 0.  0.
        -13    1    3    3    0    0  0.38126570217E+03 -0.33443526356E+01  0.13965964845E+04  0.14477073157E+04  0.10566000000E+00 0.  1.
          4    1    3    3  501    0 -0.42754129904E+03  0.30588241560E+02  0.29211391371E+03  0.51870776116E+03  0.00000000000E+00 0.  1.
         13    1    4    4    0    0 -0.37968037383E+02 -0.11512255173E+03  0.49895006230E+03  0.51346465274E+03  0.10566000000E+00 0. -1.
         -4    1    4    4    0  503  0.84243634250E+02  0.87878662807E+02 -0.47100892341E+03  0.48648643889E+03  0.00000000000E+00 0. -1.
<mgrwt>
<rscale>  2 0.10055053E+04</rscale>
<asrwt>0</asrwt>
<pdfrwt beam="1">  1       21 0.36023213E+00 0.10074946E+04</pdfrwt>
<pdfrwt beam="2">  1       21 0.96131896E-01 0.10074946E+04</pdfrwt>
<totfact> 0.44409322E+00</totfact>
</mgrwt>
</event>
<event>
 8    1  0.7208583E-006  0.1040618E+04  0.7818608E-02  0.8754327E-01
         21   -1    0    0  503  502  0.00000000000E+00  0.00000000000E+00  0.81132894564E+03  0.81132894564E+03  0.00000000000E+00 0.  1.
         21   -1    0    0  501  503 -0.00000000000E+00 -0.00000000000E+00 -0.13912504095E+04  0.13912504095E+04  0.00000000000E+00 0.  1.
    9000010    2    1    2  501    0  0.24574905535E+03 -0.16379062420E+03 -0.64025319005E+03  0.11602137269E+04  0.92138579209E+03 0.  0.
   -9000010    2    1    2    0  502 -0.24574905535E+03  0.16379062420E+03  0.60331726158E+02  0.10423656283E+04  0.99783075675E+03 0.  0.
        -13    1    3    3    0    0  0.88400285679E+02  0.11053296865E+03  0.20989166505E+03  0.25315345127E+03  0.10566000000E+00 0.  1.
          4    1    3    3  501    0  0.15734876967E+03 -0.27432359285E+03 -0.85014485511E+03  0.90706027560E+03  0.00000000000E+00 0.  1.
         13    1    4    4    0    0 -0.10257369241E+03  0.47376444665E+03  0.34732518522E+03  0.59632953033E+03  0.10566000000E+00 0. -1.
         -4    1    4    4    0  502 -0.14317536294E+03 -0.30997382245E+03 -0.28699345906E+03  0.44603609798E+03  0.00000000000E+00 0. -1.
<mgrwt>
<rscale>  2 0.10218520E+04</rscale>
<asrwt>0</asrwt>
<pdfrwt beam="1">  1       21 0.12481984E+00 0.10406182E+04</pdfrwt>
<pdfrwt beam="2">  1       21 0.21403852E+00 0.10406182E+04</pdfrwt>
<totfact> 0.24261192E+01</totfact>
</mgrwt>
</event>
<event>
 8    1  0.7208583E-006  0.1059488E+04  0.7818608E-02  0.8722324E-01
         21   -1    0    0  503  502  0.00000000000E+00  0.00000000000E+00  0.14029007246E+04  0.14029007246E+04  0.00000000000E+00 0.  1.
         21   -1    0    0  501  503 -0.00000000000E+00 -0.00000000000E+00 -0.97147243151E+03  0.97147243151E+03  0.00000000000E+00 0.  1.
    9000010    2    1    2  501    0  0.54744825986E+01 -0.35448207730E+03 -0.29063521295E+03  0.10986282813E+04  0.99841262034E+03 0.  0.
   -9000010    2    1    2    0  502 -0.54744825986E+01  0.35448207730E+03  0.72206350603E+03  0.12757448748E+04  0.99018269308E+03 0.  0.
        -13    1    3    3    0    0 -0.46343802593E+01  0.13857494122E+02  0.35496938041E+03  0.35527000973E+03  0.10566000000E+00 0.  1.
          4    1    3    3  501    0  0.10108862858E+02 -0.36833957142E+03 -0.64560459336E+03  0.74335827160E+03  0.00000000000E+00 0.  1.
         13    1    4    4    0    0  0.33401568024E+03  0.51717102862E+03  0.23231939524E+03  0.65803089598E+03  0.10566000000E+00 0. -1.
         -4    1    4    4    0  502 -0.33949016283E+03 -0.16268895133E+03  0.48974411079E+03  0.61771397880E+03  0.00000000000E+00 0. -1.
<mgrwt>
<rscale>  2 0.10575449E+04</rscale>
<asrwt>0</asrwt>
<pdfrwt beam="1">  1       21 0.21583088E+00 0.10594882E+04</pdfrwt>
<pdfrwt beam="2">  1       21 0.14945730E+00 0.10594882E+04</pdfrwt>
<totfact> 0.13752789E+01</totfact>
</mgrwt>
</event>
<event>
 8    1  0.7208583E-006  0.1013669E+04  0.7818608E-02  0.8763457E-01
         21   -1    0    0  503  502  0.00000000000E+00  0.00000000000E+00  0.15545390946E+04  0.15545390946E+04  0.00000000000E+00 0. -1.
         21   -1    0    0  501  503 -0.00000000000E+00 -0.00000000000E+00 -0.73504595128E+03  0.73504595128E+03  0.00000000000E+00 0. -1.
    9000010    2    1    2  501    0 -0.59633427310E+02  0.14838146469E+03  0.36734992464E+02  0.10143339629E+04  0.10009748867E+04 0.  0.
   -9000010    2    1    2    0  502  0.59633427310E+02 -0.14838146469E+03  0.78275815088E+03  0.12752510830E+04  0.99397273468E+03 0.  0.
        -13    1    3    3    0    0  0.24644103749E+03  0.40919267104E+03  0.27075416602E+03  0.54907163155E+03  0.10566000000E+00 0.  1.
          4    1    3    3  501    0 -0.30607446480E+03 -0.26081120635E+03 -0.23401917356E+03  0.46526233133E+03  0.00000000000E+00 0.  1.
         13    1    4    4    0    0  0.32069530595E+02  0.42800191668E+03  0.31384415412E+03  0.53170693029E+03  0.10566000000E+00 0. -1.
         -4    1    4    4    0  502  0.27563896714E+02 -0.57638338137E+03  0.46891399676E+03  0.74354415274E+03  0.00000000000E+00 0. -1.
<mgrwt>
<rscale>  2 0.10119356E+04</rscale>
<asrwt>0</asrwt>
<pdfrwt beam="1">  1       21 0.23915986E+00 0.10136685E+04</pdfrwt>
<pdfrwt beam="2">  1       21 0.11308399E+00 0.10136685E+04</pdfrwt>
<totfact> 0.20865597E+01</totfact>
</mgrwt>
</event>
<event>
 8    1  0.7208583E-006  0.1153268E+04  0.7818608E-02  0.8648241E-01
         21   -1    0    0  503  502  0.00000000000E+00  0.00000000000E+00  0.17446970121E+04  0.17446970121E+04  0.00000000000E+00 0. -1.
         21   -1    0    0  501  503 -0.00000000000E+00 -0.00000000000E+00 -0.90355145970E+03  0.90355145970E+03  0.00000000000E+00 0. -1.
    9000010    2    1    2  501    0  0.55561924424E+03 -0.67242425864E+02 -0.13182269221E+03  0.11607778604E+04  0.10083619045E+04 0.  0.
   -9000010    2    1    2    0  502 -0.55561924424E+03  0.67242425864E+02  0.97296824463E+03  0.14874706115E+04  0.97604678500E+03 0.  0.
        -13    1    3    3    0    0 -0.25338954855E+03  0.17138693318E+03  0.68560780661E+01  0.30598490347E+03  0.10566000000E+00 0.  1.
          4    1    3    3  501    0  0.80900879279E+03 -0.23862935905E+03 -0.13867877028E+03  0.85479295689E+03  0.00000000000E+00 0.  1.
         13    1    4    4    0    0 -0.75674521544E+03 -0.17226614010E+03  0.85104996238E+03  0.11517920792E+04  0.10566000000E+00 0. -1.
         -4    1    4    4    0  502  0.20112597121E+03  0.23950856596E+03  0.12191828225E+03  0.33567853224E+03  0.00000000000E+00 0. -1.
<mgrwt>
<rscale>  2 0.11461667E+04</rscale>
<asrwt>0</asrwt>
<pdfrwt beam="1">  1       21 0.26841492E+00 0.11532684E+04</pdfrwt>
<pdfrwt beam="2">  1       21 0.13900792E+00 0.11532684E+04</pdfrwt>
<totfact> 0.68862207E+00</totfact>
</mgrwt>
</event>
<event>
 8    1  0.7208583E-006  0.1166498E+04  0.7818608E-02  0.8646430E-01
         21   -1    0    0  501  502  0.00000000000E+00  0.00000000000E+00  0.88773064777E+03  0.88773064777E+03  0.00000000000E+00 0.  1.
         21   -1    0    0  502  503 -0.00000000000E+00 -0.00000000000E+00 -0.34935360427E+04  0.34935360427E+04  0.00000000000E+00 0.  1.
    9000010    2    1    2  501    0  0.34630050268E+03 -0.49936834315E+03  0.35891541006E+03  0.12204664951E+04  0.99570347685E+03 0.  0.
   -9000010    2    1    2    0  503 -0.34630050268E+03  0.49936834315E+03 -0.29647208050E+04  0.31608001953E+04  0.91202831265E+03 0.  0.
        -13    1    3    3    0    0  0.13633277788E+03  0.30243539485E+03  0.15889295789E+03  0.36783254018E+03  0.10566000000E+00 0.  1.
          4    1    3    3  501    0  0.20996772481E+03 -0.80180373800E+03  0.20002245217E+03  0.85263395493E+03  0.00000000000E+00 0.  1.
         13    1    4    4    0    0 -0.78996790177E+02  0.71242632645E+03 -0.23565142279E+04  0.24631181622E+04  0.10566000000E+00 0. -1.
         -4    1    4    4    0  503 -0.26730371251E+03 -0.21305798330E+03 -0.60820657705E+03  0.69768203312E+03  0.00000000000E+00 0. -1.
<mgrwt>
<rscale>  2 0.11484443E+04</rscale>
<asrwt>0</asrwt>
<pdfrwt beam="1">  1       21 0.13657395E+00 0.11664983E+04</pdfrwt>
<pdfrwt beam="2">  1       21 0.53746708E+00 0.11664983E+04</pdfrwt>
<totfact> 0.94219642E-02</totfact>
</mgrwt>
</event>
<event>
 8    1  0.7208583E-006  0.1038193E+04  0.7818608E-02  0.8740267E-01
         21   -1    0    0  503  502  0.00000000000E+00  0.00000000000E+00  0.85665212916E+03  0.85665212916E+03  0.00000000000E+00 0.  1.
         21   -1    0    0  501  503 -0.00000000000E+00 -0.00000000000E+00 -0.12737963043E+04  0.12737963043E+04  0.00000000000E+00 0.  1.
    9000010    2    1    2  501    0 -0.18863026956E+03 -0.19146395858E+03 -0.75891061308E+02  0.10376084377E+04  0.99931576132E+03 0.  0.
   -9000010    2    1    2    0  502  0.18863026956E+03  0.19146395858E+03 -0.34125311387E+03  0.10928399958E+04  0.10027989542E+04 0.  0.
        -13    1    3    3    0    0  0.37163314713E+03  0.96578099488E+01 -0.21062923268E+03  0.42728111843E+03  0.10566000000E+00 0.  1.
          4    1    3    3  501    0 -0.56026341669E+03 -0.20112176853E+03  0.13473817137E+03  0.61032731930E+03  0.00000000000E+00 0.  1.
         13    1    4    4    0    0 -0.54185465727E+02  0.57422828053E+03 -0.12300569803E+03  0.58974960430E+03  0.10566000000E+00 0. -1.
         -4    1    4    4    0  502  0.24281573529E+03 -0.38276432196E+03 -0.21824741585E+03  0.50309039147E+03  0.00000000000E+00 0. -1.
<mgrwt>
<rscale>  2 0.10373514E+04</rscale>
<asrwt>0</asrwt>
<pdfrwt beam="1">  1       21 0.13179264E+00 0.10381934E+04</pdfrwt>
<pdfrwt beam="2">  1       21 0.19596866E+00 0.10381934E+04</pdfrwt>
<totfact> 0.28646958E+01</totfact>
</mgrwt>
</event>
<event>
 8    1  0.7208583E-006  0.1101536E+04  0.7818608E-02  0.8703149E-01
         21   -1    0    0  503  502  0.00000000000E+00  0.00000000000E+00  0.11181594065E+04  0.11181594065E+04  0.00000000000E+00 0. -1.
         21   -1    0    0  501  503 -0.00000000000E+00 -0.00000000000E+00 -0.12722266947E+04  0.12722266947E+04  0.00000000000E+00 0. -1.
    9000010    2    1    2  501    0 -0.45252229855E+03  0.16635936230E+03 -0.62396500325E+03  0.11928116216E+04  0.89499462074E+03 0.  0.
   -9000010    2    1    2    0  502  0.45252229855E+03 -0.16635936230E+03  0.46989771506E+03  0.11975744797E+04  0.99041854970E+03 0.  0.
        -13    1    3    3    0    0  0.32414231666E+02  0.10837465913E+03 -0.69068288482E+03  0.69988471029E+03  0.10566000000E+00 0.  1.
          4    1    3    3  501    0 -0.48493653021E+03  0.57984703178E+02  0.66717881568E+02  0.49292691127E+03  0.00000000000E+00 0.  1.
         13    1    4    4    0    0  0.24018145689E+03  0.15130921781E+03 -0.25277695946E+03  0.38010237309E+03  0.10566000000E+00 0. -1.
         -4    1    4    4    0  502  0.21234084165E+03 -0.31766858012E+03  0.72267467452E+03  0.81747210657E+03  0.00000000000E+00 0. -1.
<mgrwt>
<rscale>  2 0.10796575E+04</rscale>
<asrwt>0</asrwt>
<pdfrwt beam="1">  1       21 0.17202452E+00 0.11015356E+04</pdfrwt>
<pdfrwt beam="2">  1       21 0.19572718E+00 0.11015356E+04</pdfrwt>
<totfact> 0.12444457E+01</totfact>
</mgrwt>
</event>
<event>
 8    1  0.7208583E-006  0.1146683E+04  0.7818608E-02  0.8652458E-01
         21   -1    0    0  501  502  0.00000000000E+00  0.00000000000E+00  0.98083389334E+03  0.98083389334E+03  0.00000000000E+00 0. -1.
         21   -1    0    0  502  503 -0.00000000000E+00 -0.00000000000E+00 -0.13511667472E+04  0.13511667472E+04  0.00000000000E+00 0. -1.
    9000010    2    1    2  501    0 -0.50177208794E+03  0.98787185030E+02 -0.37722717503E+03  0.11852969641E+04  0.10005470580E+04 0.  0.
   -9000010    2    1    2    0  503  0.50177208794E+03 -0.98787185030E+02  0.68943211724E+01  0.11467036764E+04  0.10263272644E+04 0.  0.
        -13    1    3    3    0    0 -0.60335119927E+03 -0.28275074697E+03 -0.42494988872E+02  0.66767244201E+03  0.10566000000E+00 0.  1.
          4    1    3    3  501    0  0.10157911133E+03  0.38153793200E+03 -0.33473218616E+03  0.51762452208E+03  0.00000000000E+00 0.  1.
         13    1    4    4    0    0  0.47423378976E+03  0.15151122547E+03 -0.41982008700E+03  0.65123133786E+03  0.10566000000E+00 0. -1.
         -4    1    4    4    0  503  0.27538298180E+02 -0.25029841050E+03  0.42671440817E+03  0.49547233859E+03  0.00000000000E+00 0. -1.
<mgrwt>
<rscale>  2 0.11408853E+04</rscale>
<asrwt>0</asrwt>
<pdfrwt beam="1">  1       21 0.15089752E+00 0.11466830E+04</pdfrwt>
<pdfrwt beam="2">  1       21 0.20787181E+00 0.11466830E+04</pdfrwt>
<totfact> 0.15067902E+01</totfact>
</mgrwt>
</event>
<event>
 8    1  0.7208583E-006  0.1033825E+04  0.7818608E-02  0.8743823E-01
         21   -1    0    0  501  502  0.00000000000E+00  0.00000000000E+00  0.49344576179E+03  0.49344576179E+03  0.00000000000E+00 0. -1.
         21   -1    0    0  502  503 -0.00000000000E+00 -0.00000000000E+00 -0.27056213126E+04  0.27056213126E+04  0.00000000000E+00 0. -1.
    9000010    2    1    2  501    0  0.73622047173E+01  0.24368848104E+03 -0.39013075232E+03  0.11049865560E+04  0.10046666149E+04 0.  0.
   -9000010    2    1    2    0  503 -0.73622047173E+01 -0.24368848104E+03 -0.18220447984E+04  0.20940805184E+04  0.10029395257E+04 0.  0.
        -13    1    3    3    0    0  0.33972039515E+02  0.32031292877E+02  0.34058409195E+03  0.34376974568E+03  0.10566000000E+00 0.  1.
          4    1    3    3  501    0 -0.26609834797E+02  0.21165718816E+03 -0.73071484427E+03  0.76121681027E+03  0.00000000000E+00 0.  1.
         13    1    4    4    0    0  0.14744174326E+03  0.33721596933E+03 -0.36708881398E+03  0.51981524232E+03  0.10566000000E+00 0. -1.
         -4    1    4    4    0  503 -0.15480394797E+03 -0.58090445037E+03 -0.14549559845E+04  0.15742652761E+04  0.00000000000E+00 0. -1.
<mgrwt>
<rscale>  2 0.10334048E+04</rscale>
<asrwt>0</asrwt>
<pdfrwt beam="1">  1       21 0.75914733E-01 0.10338246E+04</pdfrwt>
<pdfrwt beam="2">  1       21 0.41624943E+00 0.10338246E+04</pdfrwt>
<totfact> 0.32421377E+00</totfact>
</mgrwt>
</event>
<event>
 8    1  0.7208583E-006  0.1015650E+04  0.7818608E-02  0.8768030E-01
         21   -1    0    0  503  502  0.00000000000E+00  0.00000000000E+00  0.14333434184E+04  0.14333434184E+04  0.00000000000E+00 0.  1.
         21   -1    0    0  501  503 -0.00000000000E+00 -0.00000000000E+00 -0.10479097277E+04  0.10479097277E+04  0.00000000000E+00 0.  1.
    9000010    2    1    2  501    0  0.12327318464E+03  0.10616823651E+02 -0.52426786835E+03  0.11429788992E+04  0.10080848036E+04 0.  0.
   -9000010    2    1    2    0  502 -0.12327318464E+03 -0.10616823651E+02  0.90970155904E+03  0.13382742468E+04  0.97371044886E+03 0.  0.
        -13    1    3    3    0    0 -0.35173884052E+03  0.29720468012E+03 -0.22203467380E+03  0.51122425740E+03  0.10566000000E+00 0.  1.
          4    1    3    3  501    0  0.47501202516E+03 -0.28658785647E+03 -0.30223319454E+03  0.63175464178E+03  0.00000000000E+00 0.  1.
         13    1    4    4    0    0  0.19874175034E+03  0.38850558238E+03  0.59038482370E+03  0.73415878533E+03  0.10566000000E+00 0. -1.
         -4    1    4    4    0  502 -0.32201493499E+03 -0.39912240603E+03  0.31931673535E+03  0.60411546150E+03  0.00000000000E+00 0. -1.
<mgrwt>
<rscale>  2 0.10070126E+04</rscale>
<asrwt>0</asrwt>
<pdfrwt beam="1">  1       21 0.22051437E+00 0.10156495E+04</pdfrwt>
<pdfrwt beam="2">  1       21 0.16121688E+00 0.10156495E+04</pdfrwt>
<totfact> 0.10105183E+01</totfact>
</mgrwt>
</event>
<event>
 8    1  0.7208583E-006  0.1018639E+04  0.7818608E-02  0.8757517E-01
         21   -1    0    0  503  502  0.00000000000E+00  0.00000000000E+00  0.98567986292E+03  0.98567986292E+03  0.00000000000E+00 0.  1.
         21   -1    0    0  501  503 -0.00000000000E+00 -0.00000000000E+00 -0.10842448877E+04  0.10842448877E+04  0.00000000000E+00 0.  1.
    9000010    2    1    2  501    0 -0.26025746370E+03 -0.12209468350E+03 -0.22883318764E+03  0.10429899326E+04  0.97612617657E+03 0.  0.
   -9000010    2    1    2    0  502  0.26025746370E+03  0.12209468350E+03  0.13026816289E+03  0.10269348180E+04  0.97723296455E+03 0.  0.
        -13    1    3    3    0    0 -0.21505694190E+03  0.87557980970E+02  0.35320593911E+03  0.42269413868E+03  0.10566000000E+00 0.  1.
          4    1    3    3  501    0 -0.45200521798E+02 -0.20965266447E+03 -0.58203912675E+03  0.62029579392E+03  0.00000000000E+00 0.  1.
         13    1    4    4    0    0  0.21949204670E+03  0.12167514870E+03 -0.41238887540E+03  0.48274858476E+03  0.10566000000E+00 0. -1.
         -4    1    4    4    0  502  0.40765416993E+02  0.41953480265E+00  0.54265703829E+03  0.54418623323E+03  0.00000000000E+00 0. -1.
<mgrwt>
<rscale>  2 0.10183734E+04</rscale>
<asrwt>0</asrwt>
<pdfrwt beam="1">  1       21 0.15164306E+00 0.10186390E+04</pdfrwt>
<pdfrwt beam="2">  1       21 0.16680691E+00 0.10186390E+04</pdfrwt>
<totfact> 0.32643104E+01</totfact>
</mgrwt>
</event>
<event>
 8    1  0.7208583E-006  0.1051762E+04  0.7818608E-02  0.8733307E-01
         21   -1    0    0  501  502  0.00000000000E+00  0.00000000000E+00  0.76378347020E+03  0.76378347020E+03  0.00000000000E+00 0. -1.
         21   -1    0    0  502  503 -0.00000000000E+00 -0.00000000000E+00 -0.14182098822E+04  0.14182098822E+04  0.00000000000E+00 0. -1.
    9000010    2    1    2  501    0  0.15782700950E+03  0.36172204465E+02 -0.25300112123E+03  0.10562290488E+04  0.10126166317E+04 0.  0.
   -9000010    2    1    2    0  503 -0.15782700950E+03 -0.36172204465E+02 -0.40142529081E+03  0.11257643036E+04  0.10392233686E+04 0.  0.
        -13    1    3    3    0    0 -0.94604694432E+02 -0.20103631455E+03 -0.55427450087E+03  0.59714812355E+03  0.10566000000E+00 0.  1.
          4    1    3    3  501    0  0.25243170393E+03  0.23720851902E+03  0.30127337964E+03  0.45908092525E+03  0.00000000000E+00 0.  1.
         13    1    4    4    0    0 -0.16914020907E+03 -0.90910588828E+02  0.33558368198E+03  0.38663880335E+03  0.10566000000E+00 0. -1.
         -4    1    4    4    0  503  0.11313199572E+02  0.54738384363E+02 -0.73700897279E+03  0.73912550029E+03  0.00000000000E+00 0. -1.
<mgrwt>
<rscale>  2 0.10451290E+04</rscale>
<asrwt>0</asrwt>
<pdfrwt beam="1">  1       21 0.11750515E+00 0.10517619E+04</pdfrwt>
<pdfrwt beam="2">  1       21 0.21818614E+00 0.10517619E+04</pdfrwt>
<totfact> 0.26671284E+01</totfact>
</mgrwt>
</event>
<event>
 8    1  0.7208583E-006  0.9810903E+03  0.7818608E-02  0.8796245E-01
         21   -1    0    0  501  502  0.00000000000E+00  0.00000000000E+00  0.11848538619E+04  0.11848538619E+04  0.00000000000E+00 0. -1.
         21   -1    0    0  502  503 -0.00000000000E+00 -0.00000000000E+00 -0.92058717670E+03  0.92058717670E+03  0.00000000000E+00 0. -1.
    9000010    2    1    2  501    0  0.10313750329E+03  0.35633122776E+02 -0.25001221478E+03  0.99773122577E+03  0.95971580549E+03 0.  0.
   -9000010    2    1    2    0  503 -0.10313750329E+03 -0.35633122776E+02  0.51427889995E+03  0.11077098128E+04  0.97500316843E+03 0.  0.
        -13    1    3    3    0    0 -0.21023361300E+03 -0.94042980836E+01  0.29801625585E+03  0.36482915560E+03  0.10566000000E+00 0.  1.
          4    1    3    3  501    0  0.31337111628E+03  0.45037420860E+02 -0.54802847063E+03  0.63290207017E+03  0.00000000000E+00 0.  1.
         13    1    4    4    0    0 -0.25839472002E+03  0.33676113087E+02  0.76308927817E+03  0.80635424569E+03  0.10566000000E+00 0. -1.
         -4    1    4    4    0  503  0.15525721673E+03 -0.69309235863E+02 -0.24881037822E+03  0.30135556712E+03  0.00000000000E+00 0. -1.
<mgrwt>
<rscale>  2 0.97727033E+03</rscale>
<asrwt>0</asrwt>
<pdfrwt beam="1">  1       21 0.18228521E+00 0.98109033E+03</pdfrwt>
<pdfrwt beam="2">  1       21 0.14162880E+00 0.98109033E+03</pdfrwt>
<totfact> 0.30187538E+01</totfact>
</mgrwt>
</event>
<event>
 8    1  0.7208583E-006  0.1144959E+04  0.7818608E-02  0.8649311E-01
         21   -1    0    0  501  502  0.00000000000E+00  0.00000000000E+00  0.20308179674E+04  0.20308179674E+04  0.00000000000E+00 0.  1.
         21   -1    0    0  502  503 -0.00000000000E+00 -0.00000000000E+00 -0.77799459913E+03  0.77799459913E+03  0.00000000000E+00 0.  1.
    9000010    2    1    2  501    0  0.10485791990E+03  0.53575305852E+03  0.12064799298E+04  0.16629163789E+04  0.10058183430E+04 0.  0.
   -9000010    2    1    2    0  503 -0.10485791990E+03 -0.53575305852E+03  0.46343438446E+02  0.11458961876E+04  0.10064312373E+04 0.  0.
        -13    1    3    3    0    0  0.46887449915E+03  0.42951363054E+03  0.10974437396E+04  0.12683485434E+04  0.10566000000E+00 0.  1.
          4    1    3    3  501    0 -0.36401657925E+03  0.10623942797E+03  0.10903619021E+03  0.39456783549E+03  0.00000000000E+00 0.  1.
         13    1    4    4    0    0 -0.18425138441E+02 -0.87926688838E+01 -0.42989634091E+03  0.43038084512E+03  0.10566000000E+00 0. -1.
         -4    1    4    4    0  503 -0.86432781457E+02 -0.52696038963E+03  0.47623977935E+03  0.71551534253E+03  0.00000000000E+00 0. -1.
<mgrwt>
<rscale>  2 0.11448240E+04</rscale>
<asrwt>0</asrwt>
<pdfrwt beam="1">  1       21 0.31243353E+00 0.11449587E+04</pdfrwt>
<pdfrwt beam="2">  1       21 0.11969148E+00 0.11449587E+04</pdfrwt>
<totfact> 0.51716780E+00</totfact>
</mgrwt>
</event>
<event>
 8    1  0.7208583E-006  0.1010376E+04  0.7818608E-02  0.8765597E-01
         21   -1    0    0  501  502  0.00000000000E+00  0.00000000000E+00  0.28403531301E+04  0.28403531301E+04  0.00000000000E+00 0.  1.
         21   -1    0    0  502  503 -0.00000000000E+00 -0.00000000000E+00 -0.38280039880E+03  0.38280039880E+03  0.00000000000E+00 0.  1.
    9000010    2    1    2  501    0 -0.42228420055E+02 -0.63878607148E+02  0.81979390519E+03  0.12988058749E+04  0.10044754541E+04 0.  0.
   -9000010    2    1    2    0  503  0.42228420055E+02  0.63878607148E+02  0.16377588261E+04  0.19243476540E+04  0.10074702005E+04 0.  0.
        -13    1    3    3    0    0  0.75714844390E+02  0.31948147496E+03  0.83519846333E+03  0.89741720220E+03  0.10566000000E+00 0.  1.
          4    1    3    3  501    0 -0.11794326444E+03 -0.38336008211E+03 -0.15404558135E+02  0.40138867273E+03  0.00000000000E+00 0.  1.
         13    1    4    4    0    0  0.40400268067E+02  0.19223394008E+03  0.17456459239E+04  0.17566632495E+04  0.10566000000E+00 0. -1.
         -4    1    4    4    0  503  0.18281519881E+01 -0.12835533293E+03 -0.10788709779E+03  0.16768440447E+03  0.00000000000E+00 0. -1.
<mgrwt>
<rscale>  2 0.10096288E+04</rscale>
<asrwt>0</asrwt>
<pdfrwt beam="1">  1       21 0.43697739E+00 0.10103761E+04</pdfrwt>
<pdfrwt beam="2">  1       21 0.58892371E-01 0.10103761E+04</pdfrwt>
<totfact> 0.42537173E+00</totfact>
</mgrwt>
</event>
<event>
 8    1  0.7208583E-006  0.1192567E+04  0.7818608E-02  0.8612264E-01
         21   -1    0    0  503  502  0.00000000000E+00  0.00000000000E+00  0.10976562761E+04  0.10976562761E+04  0.00000000000E+00 0. -1.
         21   -1    0    0  501  503 -0.00000000000E+00 -0.00000000000E+00 -0.14877116064E+04  0.14877116064E+04  0.00000000000E+00 0. -1.
    9000010    2    1    2  501    0  0.38739209762E+03 -0.52770526610E+03 -0.65999831132E+03  0.13626312600E+04  0.99630351528E+03 0.  0.
   -9000010    2    1    2    0  502 -0.38739209762E+03  0.52770526610E+03  0.26994298105E+03  0.12227366225E+04  0.99683005060E+03 0.  0.
        -13    1    3    3    0    0 -0.91724602828E+02 -0.21314807120E+03  0.21519097725E+03  0.31646906780E+03  0.10566000000E+00 0.  1.
          4    1    3    3  501    0  0.47911670045E+03 -0.31455719490E+03 -0.87518928857E+03  0.10461621922E+04  0.00000000000E+00 0.  1.
         13    1    4    4    0    0  0.20977694333E+03 -0.17295909410E+03  0.66789302179E+02  0.27996792001E+03  0.10566000000E+00 0. -1.
         -4    1    4    4    0  502 -0.59716904095E+03  0.70066436020E+03  0.20315367887E+03  0.94276870247E+03  0.00000000000E+00 0. -1.
<mgrwt>
<rscale>  2 0.11924568E+04</rscale>
<asrwt>0</asrwt>
<pdfrwt beam="1">  1       21 0.16887020E+00 0.11925668E+04</pdfrwt>
<pdfrwt beam="2">  1       21 0.22887871E+00 0.11925668E+04</pdfrwt>
<totfact> 0.72314263E+00</totfact>
</mgrwt>
</event>
<event>
 8    1  0.7208583E-006  0.1008989E+04  0.7818608E-02  0.8768432E-01
         21   -1    0    0  501  502  0.00000000000E+00  0.00000000000E+00  0.82760577023E+03  0.82760577023E+03  0.00000000000E+00 0. -1.
         21   -1    0    0  502  503 -0.00000000000E+00 -0.00000000000E+00 -0.13643884585E+04  0.13643884585E+04  0.00000000000E+00 0. -1.
    9000010    2    1    2  501    0  0.11966638048E+03 -0.85247878037E+02  0.91192494786E+02  0.10035450079E+04  0.98853389848E+03 0.  0.
   -9000010    2    1    2    0  503 -0.11966638048E+03  0.85247878037E+02 -0.62797518302E+03  0.11884492208E+04  0.99823417924E+03 0.  0.
        -13    1    3    3    0    0  0.56307432983E+02 -0.10357559371E+03 -0.44651058428E+03  0.46181180546E+03  0.10566000000E+00 0.  1.
          4    1    3    3  501    0  0.63358947500E+02  0.18327715673E+02  0.53770307907E+03  0.54173320244E+03  0.00000000000E+00 0.  1.
         13    1    4    4    0    0 -0.41311203975E+03  0.37852946258E+03 -0.50865309321E+03  0.75675233189E+03  0.10566000000E+00 0. -1.
         -4    1    4    4    0  503  0.29344565926E+03 -0.29328158455E+03 -0.11932208981E+03  0.43169688891E+03  0.00000000000E+00 0. -1.
<mgrwt>
<rscale>  2 0.10065814E+04</rscale>
<asrwt>0</asrwt>
<pdfrwt beam="1">  1       21 0.12732396E+00 0.10089890E+04</pdfrwt>
<pdfrwt beam="2">  1       21 0.20990592E+00 0.10089890E+04</pdfrwt>
<totfact> 0.24829533E+01</totfact>
</mgrwt>
</event>
<event>
 8    1  0.7208583E-006  0.1086627E+04  0.7818608E-02  0.8697280E-01
         21   -1    0    0  501  502  0.00000000000E+00  0.00000000000E+00  0.60537645474E+03  0.60537645474E+03  0.00000000000E+00 0.  1.
         21   -1    0    0  502  503 -0.00000000000E+00 -0.00000000000E+00 -0.20932475066E+04  0.20932475066E+04  0.00000000000E+00 0.  1.
    9000010    2    1    2  501    0 -0.34890503444E+03  0.29793032971E+03 -0.39084562789E+03  0.11547803248E+04  0.98501781169E+03 0.  0.
   -9000010    2    1    2    0  503  0.34890503444E+03 -0.29793032971E+03 -0.10970254240E+04  0.15438436365E+04  0.98462743652E+03 0.  0.
        -13    1    3    3    0    0  0.17250794440E+02 -0.34414256967E+03 -0.85293421839E+02  0.35497419222E+03  0.10566000000E+00 0.  1.
          4    1    3    3  501    0 -0.36615582888E+03  0.64207289938E+03 -0.30555220605E+03  0.79980613261E+03  0.00000000000E+00 0.  1.
         13    1    4    4    0    0 -0.32317614110E+03 -0.10706556474E+02 -0.17630662767E+03  0.36829537962E+03  0.10566000000E+00 0. -1.
         -4    1    4    4    0  503  0.67208117554E+03 -0.28722377323E+03 -0.92071879631E+03  0.11755482569E+04  0.00000000000E+00 0. -1.
<mgrwt>
<rscale>  2 0.10865381E+04</rscale>
<asrwt>0</asrwt>
<pdfrwt beam="1">  1       21 0.93134841E-01 0.10866266E+04</pdfrwt>
<pdfrwt beam="2">  1       21 0.32203807E+00 0.10866266E+04</pdfrwt>
<totfact> 0.87652997E+00</totfact>
</mgrwt>
</event>
<event>
 8    1  0.7208583E-006  0.1015915E+04  0.7818608E-02  0.8763097E-01
         21   -1    0    0  503  502  0.00000000000E+00  0.00000000000E+00  0.32228516442E+04  0.32228516442E+04  0.00000000000E+00 0. -1.
         21   -1    0    0  501  503 -0.00000000000E+00 -0.00000000000E+00 -0.35760769653E+03  0.35760769653E+03  0.00000000000E+00 0. -1.
    9000010    2    1    2  501    0  0.81824325879E+02 -0.16770239241E+03  0.81121658157E+03  0.12889288404E+04  0.98409648957E+03 0.  0.
   -9000010    2    1    2    0  502 -0.81824325879E+02  0.16770239241E+03  0.20540273661E+04  0.22915305003E+04  0.99863121338E+03 0.  0.
        -13    1    3    3    0    0 -0.44595999269E+03 -0.10623430681E+01  0.31969247543E+03  0.54871188584E+03  0.10566000000E+00 0.  1.
          4    1    3    3  501    0  0.52778431857E+03 -0.16664004934E+03  0.49152410614E+03  0.74021695460E+03  0.00000000000E+00 0.  1.
         13    1    4    4    0    0 -0.36781955216E+03  0.39906728227E+03  0.68499179986E+03  0.87393346187E+03  0.10566000000E+00 0. -1.
         -4    1    4    4    0  502  0.28599522628E+03 -0.23136488987E+03  0.13690355662E+04  0.14175970384E+04  0.00000000000E+00 0. -1.
<mgrwt>
<rscale>  2 0.10123252E+04</rscale>
<asrwt>0</asrwt>
<pdfrwt beam="1">  1       21 0.49582331E+00 0.10159152E+04</pdfrwt>
<pdfrwt beam="2">  1       21 0.55016571E-01 0.10159152E+04</pdfrwt>
<totfact> 0.19332653E+00</totfact>
</mgrwt>
</event>
<event>
 8    1  0.7208583E-006  0.1052463E+04  0.7818608E-02  0.8734425E-01
         21   -1    0    0  501  502  0.00000000000E+00  0.00000000000E+00  0.74080417717E+03  0.74080417717E+03  0.00000000000E+00 0.  1.
         21   -1    0    0  502  503 -0.00000000000E+00 -0.00000000000E+00 -0.17690584031E+04  0.17690584031E+04  0.00000000000E+00 0.  1.
    9000010    2    1    2  501    0 -0.17174009462E+03  0.86375727518E+02  0.27810209294E+02  0.10189061308E+04  0.10002204103E+04 0.  0.
   -9000010    2    1    2    0  503  0.17174009462E+03 -0.86375727518E+02 -0.10560644352E+04  0.14909564495E+04  0.10347577574E+04 0.  0.
        -13    1    3    3    0    0  0.15271483068E+01  0.38290460712E+03 -0.34258233092E+03  0.51379075017E+03  0.10566000000E+00 0.  1.
          4    1    3    3  501    0 -0.17326724292E+03 -0.29652887960E+03  0.37039254021E+03  0.50511538063E+03  0.00000000000E+00 0.  1.
         13    1    4    4    0    0  0.47640686896E+03  0.11200499250E+03 -0.14561196005E+03  0.51059913553E+03  0.10566000000E+00 0. -1.
         -4    1    4    4    0  503 -0.30466677434E+03 -0.19838072002E+03 -0.91045247519E+03  0.98035731396E+03  0.00000000000E+00 0. -1.
<mgrwt>
<rscale>  2 0.10438746E+04</rscale>
<asrwt>0</asrwt>
<pdfrwt beam="1">  1       21 0.11396988E+00 0.10524633E+04</pdfrwt>
<pdfrwt beam="2">  1       21 0.27216283E+00 0.10524633E+04</pdfrwt>
<totfact> 0.11674366E+01</totfact>
</mgrwt>
</event>
<event>
 8    1  0.7208583E-006  0.1081380E+04  0.7818608E-02  0.8715748E-01
         21   -1    0    0  501  502  0.00000000000E+00  0.00000000000E+00  0.16804140286E+04  0.16804140286E+04  0.00000000000E+00 0.  1.
         21   -1    0    0  502  503 -0.00000000000E+00 -0.00000000000E+00 -0.97358028919E+03  0.97358028919E+03  0.00000000000E+00 0.  1.
    9000010    2    1    2  501    0 -0.46507222359E+02 -0.24073367421E+03  0.11189769277E+04  0.15561142002E+04  0.10532171740E+04 0.  0.
   -9000010    2    1    2    0  503  0.46507222359E+02  0.24073367421E+03 -0.41214318831E+03  0.10978801176E+04  0.98760473941E+03 0.  0.
        -13    1    3    3    0    0 -0.91740611059E+01  0.23811951758E+03  0.10429512762E+04  0.10698282310E+04  0.10566000000E+00 0.  1.
          4    1    3    3  501    0 -0.37333161253E+02 -0.47885319179E+03  0.76025651540E+02  0.48628596927E+03  0.00000000000E+00 0.  1.
         13    1    4    4    0    0  0.45878700617E+03 -0.73389932179E+02 -0.53733177886E+02  0.46771665006E+03  0.10566000000E+00 0. -1.
         -4    1    4    4    0  503 -0.41227978381E+03  0.31412360639E+03 -0.35841001042E+03  0.63016346753E+03  0.00000000000E+00 0. -1.
<mgrwt>
<rscale>  2 0.10650655E+04</rscale>
<asrwt>0</asrwt>
<pdfrwt beam="1">  1       21 0.25852523E+00 0.10813797E+04</pdfrwt>
<pdfrwt beam="2">  1       21 0.14978158E+00 0.10813797E+04</pdfrwt>
<totfact> 0.65772472E+00</totfact>
</mgrwt>
</event>
<event>
 8    1  0.7208583E-006  0.1149798E+04  0.7818608E-02  0.8650600E-01
         21   -1    0    0  503  502  0.00000000000E+00  0.00000000000E+00  0.19231349525E+04  0.19231349525E+04  0.00000000000E+00 0.  1.
         21   -1    0    0  501  503 -0.00000000000E+00 -0.00000000000E+00 -0.85510745276E+03  0.85510745276E+03  0.00000000000E+00 0.  1.
    9000010    2    1    2  501    0 -0.31201894092E+02 -0.52787988252E+03 -0.11375702233E+03  0.11294091198E+04  0.99146032255E+03 0.  0.
   -9000010    2    1    2    0  502  0.31201894092E+02  0.52787988252E+03  0.11817845221E+04  0.16488332855E+04  0.10209827707E+04 0.  0.
        -13    1    3    3    0    0 -0.30312294809E+03  0.18701625058E+03 -0.27714978938E+00  0.35617227238E+03  0.10566000000E+00 0.  1.
          4    1    3    3  501    0  0.27192105400E+03 -0.71489613310E+03 -0.11347987254E+03  0.77323684741E+03  0.00000000000E+00 0.  1.
         13    1    4    4    0    0 -0.33274462939E+03  0.57011151689E+03  0.36655619291E+03  0.75505601369E+03  0.10566000000E+00 0. -1.
         -4    1    4    4    0  502  0.36394652348E+03 -0.42231634371E+02  0.81522832915E+03  0.89377727178E+03  0.00000000000E+00 0. -1.
<mgrwt>
<rscale>  2 0.11432088E+04</rscale>
<asrwt>0</asrwt>
<pdfrwt beam="1">  1       21 0.29586691E+00 0.11497985E+04</pdfrwt>
<pdfrwt beam="2">  1       21 0.13155499E+00 0.11497985E+04</pdfrwt>
<totfact> 0.51663561E+00</totfact>
</mgrwt>
</event>
<event>
 8    1  0.7208583E-006  0.1006760E+04  0.7818608E-02  0.8770085E-01
         21   -1    0    0  503  502  0.00000000000E+00  0.00000000000E+00  0.12309440360E+04  0.12309440360E+04  0.00000000000E+00 0.  1.
         21   -1    0    0  501  503 -0.00000000000E+00 -0.00000000000E+00 -0.83126858767E+03  0.83126858767E+03  0.00000000000E+00 0.  1.
    9000010    2    1    2  501    0 -0.72187151750E+01 -0.14692716102E+03  0.65777177626E+02  0.10089064511E+04  0.99595476277E+03 0.  0.
   -9000010    2    1    2    0  502  0.72187151750E+01  0.14692716102E+03  0.33389827075E+03  0.10533061726E+04  0.98809217058E+03 0.  0.
        -13    1    3    3    0    0 -0.91161709734E+02 -0.51345172672E+03 -0.18903453599E+03  0.55468657813E+03  0.10566000000E+00 0.  1.
          4    1    3    3  501    0  0.83942994559E+02  0.36652456570E+03  0.25481171362E+03  0.45421987297E+03  0.00000000000E+00 0.  1.
         13    1    4    4    0    0 -0.47587889880E+03  0.13780179940E+03  0.63152230834E+02  0.49943796178E+03  0.10566000000E+00 0. -1.
         -4    1    4    4    0  502  0.48309761397E+03  0.91253616211E+01  0.27074603991E+03  0.55386821084E+03  0.00000000000E+00 0. -1.
<mgrwt>
<rscale>  2 0.10048099E+04</rscale>
<asrwt>0</asrwt>
<pdfrwt beam="1">  1       21 0.18937601E+00 0.10067599E+04</pdfrwt>
<pdfrwt beam="2">  1       21 0.12788748E+00 0.10067599E+04</pdfrwt>
<totfact> 0.35482633E+01</totfact>
</mgrwt>
</event>
<event>
 8    1  0.7208583E-006  0.1049407E+04  0.7818608E-02  0.8737329E-01
         21   -1    0    0  501  502  0.00000000000E+00  0.00000000000E+00  0.50198340267E+03  0.50198340267E+03  0.00000000000E+00 0. -1.
         21   -1    0    0  502  503 -0.00000000000E+00 -0.00000000000E+00 -0.21608043832E+04  0.21608043832E+04  0.00000000000E+00 0. -1.
    9000010    2    1    2  501    0  0.17814919912E+03  0.23994385319E+03 -0.66445356222E+03  0.12420762802E+04  0.10059546509E+04 0.  0.
   -9000010    2    1    2    0  503 -0.17814919912E+03 -0.23994385319E+03 -0.99436741834E+03  0.14207115057E+04  0.96971358139E+03 0.  0.
        -13    1    3    3    0    0  0.12176349837E+03 -0.10296811297E+01 -0.89535940222E+03  0.90360161580E+03  0.10566000000E+00 0.  1.
          4    1    3    3  501    0  0.56385700750E+02  0.24097353432E+03  0.23090584000E+03  0.33847466439E+03  0.00000000000E+00 0.  1.
         13    1    4    4    0    0  0.19203253946E+03  0.25633794704E+02  0.11230172463E+03  0.22393140950E+03  0.10566000000E+00 0. -1.
         -4    1    4    4    0  503 -0.37018173858E+03 -0.26557764789E+03 -0.11066691430E+04  0.11967800962E+04  0.00000000000E+00 0. -1.
<mgrwt>
<rscale>  2 0.10406253E+04</rscale>
<asrwt>0</asrwt>
<pdfrwt beam="1">  1       21 0.77228216E-01 0.10494070E+04</pdfrwt>
<pdfrwt beam="2">  1       21 0.33243144E+00 0.10494070E+04</pdfrwt>
<totfact> 0.11943307E+01</totfact>
</mgrwt>
</event>
<event>
 8    1  0.7208583E-006  0.1026476E+04  0.7818608E-02  0.8754388E-01
         21   -1    0    0  503  502  0.00000000000E+00  0.00000000000E+00  0.11025092544E+04  0.11025092544E+04  0.00000000000E+00 0.  1.
         21   -1    0    0  501  503 -0.00000000000E+00 -0.00000000000E+00 -0.10185457461E+04  0.10185457461E+04  0.00000000000E+00 0.  1.
    9000010    2    1    2  501    0  0.35856853612E+02  0.15845145221E+03 -0.25582082085E+03  0.10398029752E+04  0.99466243431E+03 0.  0.
   -9000010    2    1    2    0  502 -0.35856853612E+02 -0.15845145221E+03  0.33978432917E+03  0.10812520253E+04  0.10135383442E+04 0.  0.
        -13    1    3    3    0    0 -0.35484261914E+03  0.39390470518E+03 -0.24366555226E+03  0.58347846031E+03  0.10566000000E+00 0.  1.
          4    1    3    3  501    0  0.39069947276E+03 -0.23545325297E+03 -0.12155268587E+02  0.45632451490E+03  0.00000000000E+00 0.  1.
         13    1    4    4    0    0  0.43419762017E+03  0.15429964530E+03  0.17744603439E+03  0.49378442683E+03  0.10566000000E+00 0. -1.
         -4    1    4    4    0  502 -0.47005447378E+03 -0.31275109751E+03  0.16233829478E+03  0.58746759848E+03  0.00000000000E+00 0. -1.
<mgrwt>
<rscale>  2 0.10217853E+04</rscale>
<asrwt>0</asrwt>
<pdfrwt beam="1">  1       21 0.16961681E+00 0.10264758E+04</pdfrwt>
<pdfrwt beam="2">  1       21 0.15669935E+00 0.10264758E+04</pdfrwt>
<totfact> 0.27859307E+01</totfact>
</mgrwt>
</event>
<event>
 8    1  0.7208583E-006  0.1004736E+04  0.7818608E-02  0.8770758E-01
         21   -1    0    0  503  502  0.00000000000E+00  0.00000000000E+00  0.77423675454E+03  0.77423675454E+03  0.00000000000E+00 0.  1.
         21   -1    0    0  501  503 -0.00000000000E+00 -0.00000000000E+00 -0.13942644043E+04  0.13942644043E+04  0.00000000000E+00 0.  1.
    9000010    2    1    2  501    0  0.16582409979E+03  0.52144764395E+02 -0.59154800512E+03  0.11659433663E+04  0.98958485357E+03 0.  0.
   -9000010    2    1    2    0  502 -0.16582409979E+03 -0.52144764395E+02 -0.28479644686E+02  0.10025577926E+04  0.98696217196E+03 0.  0.
        -13    1    3    3    0    0  0.37882826295E+03  0.37961632927E+03 -0.11279760732E+03  0.54803532883E+03  0.10566000000E+00 0.  1.
          4    1    3    3  501    0 -0.21300416316E+03 -0.32747156488E+03 -0.47875039780E+03  0.61790803743E+03  0.00000000000E+00 0.  1.
         13    1    4    4    0    0 -0.43863104649E+03  0.22631875966E+02  0.32750070498E+03  0.54787418235E+03  0.10566000000E+00 0. -1.
         -4    1    4    4    0  502  0.27280694670E+03 -0.74776640360E+02 -0.35598034966E+03  0.45468361028E+03  0.00000000000E+00 0. -1.
<mgrwt>
<rscale>  2 0.10040898E+04</rscale>
<asrwt>0</asrwt>
<pdfrwt beam="1">  1       21 0.11911335E+00 0.10047362E+04</pdfrwt>
<pdfrwt beam="2">  1       21 0.21450221E+00 0.10047362E+04</pdfrwt>
<totfact> 0.27678119E+01</totfact>
</mgrwt>
</event>
<event>
 8    1  0.7208583E-006  0.1071008E+04  0.7818608E-02  0.8711335E-01
         21   -1    0    0  503  502  0.00000000000E+00  0.00000000000E+00  0.53597784330E+03  0.53597784330E+03  0.00000000000E+00 0. -1.
         21   -1    0    0  501  503 -0.00000000000E+00 -0.00000000000E+00 -0.23064426558E+04  0.23064426558E+04  0.00000000000E+00 0. -1.
    9000010    2    1    2  501    0  0.19380631067E+03 -0.31127337361E+03 -0.49711659273E+03  0.11807552744E+04  0.10062833160E+04 0.  0.
   -9000010    2    1    2    0  502 -0.19380631067E+03  0.31127337361E+03 -0.12733482198E+04  0.16616652248E+04  0.10026283614E+04 0.  0.
        -13    1    3    3    0    0  0.26671828112E+03 -0.37424212662E+03 -0.76702959685E+03  0.89416453991E+03  0.10566000000E+00 0.  1.
          4    1    3    3  501    0 -0.72911970450E+02  0.62968753016E+02  0.26991300412E+03  0.28659073447E+03  0.00000000000E+00 0.  1.
         13    1    4    4    0    0  0.27950431781E+03  0.27281026755E+03 -0.11097741850E+03  0.40603460978E+03  0.10566000000E+00 0. -1.
         -4    1    4    4    0  502 -0.47331062848E+03  0.38463106056E+02 -0.11623708013E+04  0.12556306150E+04  0.00000000000E+00 0. -1.
<mgrwt>
<rscale>  2 0.10701486E+04</rscale>
<asrwt>0</asrwt>
<pdfrwt beam="1">  1       21 0.82458131E-01 0.10710080E+04</pdfrwt>
<pdfrwt beam="2">  1       21 0.35483732E+00 0.10710080E+04</pdfrwt>
<totfact> 0.70538430E+00</totfact>
</mgrwt>
</event>
<event>
 8    1  0.7208583E-006  0.1000071E+04  0.7818608E-02  0.8775200E-01
         21   -1    0    0  503  502  0.00000000000E+00  0.00000000000E+00  0.90571028206E+03  0.90571028206E+03  0.00000000000E+00 0.  1.
         21   -1    0    0  501  503 -0.00000000000E+00 -0.00000000000E+00 -0.11309874531E+04  0.11309874531E+04  0.00000000000E+00 0.  1.
    9000010    2    1    2  501    0 -0.20291569075E+02  0.34840736093E+02 -0.27803524205E+03  0.10352359546E+04  0.99638559871E+03 0.  0.
   -9000010    2    1    2    0  502  0.20291569075E+02 -0.34840736093E+02  0.52758071001E+02  0.10014617805E+04  0.99925805431E+03 0.  0.
        -13    1    3    3    0    0 -0.24833668584E+03 -0.22769711068E+03  0.23832531330E+03  0.41269365136E+03  0.10566000000E+00 0.  1.
          4    1    3    3  501    0  0.22804511677E+03  0.26253784677E+03 -0.51636055535E+03  0.62254230329E+03  0.00000000000E+00 0.  1.
         13    1    4    4    0    0  0.15460992620E+03  0.35122443481E+03 -0.27945881717E+03  0.47472104919E+03  0.10566000000E+00 0. -1.
         -4    1    4    4    0  502 -0.13431835712E+03 -0.38606517091E+03  0.33221688817E+03  0.52674073132E+03  0.00000000000E+00 0. -1.
<mgrwt>
<rscale>  2 0.99935284E+03</rscale>
<asrwt>0</asrwt>
<pdfrwt beam="1">  1       21 0.13934004E+00 0.10000711E+04</pdfrwt>
<pdfrwt beam="2">  1       21 0.17399807E+00 0.10000711E+04</pdfrwt>
<totfact> 0.36889191E+01</totfact>
</mgrwt>
</event>
<event>
 8    1  0.7208583E-006  0.1026550E+04  0.7818608E-02  0.8759002E-01
         21   -1    0    0  503  502  0.00000000000E+00  0.00000000000E+00  0.23532084189E+04  0.23532084189E+04  0.00000000000E+00 0. -1.
         21   -1    0    0  501  503 -0.00000000000E+00 -0.00000000000E+00 -0.47541239910E+03  0.47541239910E+03  0.00000000000E+00 0. -1.
    9000010    2    1    2  501    0 -0.19744292226E+03  0.14482882542E+03  0.49102854735E+03  0.11032427562E+04  0.95711882683E+03 0.  0.
   -9000010    2    1    2    0  502  0.19744292226E+03 -0.14482882542E+03  0.13867674725E+04  0.17253780618E+04  0.99691842052E+03 0.  0.
        -13    1    3    3    0    0 -0.57616078548E+03 -0.12627424728E+02  0.25678914018E+03  0.63092105390E+03  0.10566000000E+00 0.  1.
          4    1    3    3  501    0  0.37871786322E+03  0.15745625015E+03  0.23423940717E+03  0.47232170234E+03  0.00000000000E+00 0.  1.
         13    1    4    4    0    0  0.31404115729E+03  0.37682724618E+03  0.61726827102E+03  0.78844197727E+03  0.10566000000E+00 0. -1.
         -4    1    4    4    0  502 -0.11659823503E+03 -0.52165607160E+03  0.76949920145E+03  0.93693608452E+03  0.00000000000E+00 0. -1.
<mgrwt>
<rscale>  2 0.10167598E+04</rscale>
<asrwt>0</asrwt>
<pdfrwt beam="1">  1       21 0.36203206E+00 0.10265503E+04</pdfrwt>
<pdfrwt beam="2">  1       21 0.73140370E-01 0.10265503E+04</pdfrwt>
<totfact> 0.84804385E+00</totfact>
</mgrwt>
</event>
<event>
 8    1  0.7208583E-006  0.1013402E+04  0.7818608E-02  0.8762671E-01
         21   -1    0    0  503  502  0.00000000000E+00  0.00000000000E+00  0.50242274999E+03  0.50242274999E+03  0.00000000000E+00 0.  1.
         21   -1    0    0  501  503 -0.00000000000E+00 -0.00000000000E+00 -0.21108805306E+04  0.21108805306E+04  0.00000000000E+00 0.  1.
    9000010    2    1    2  501    0 -0.15434104789E+03 -0.48943870011E+02 -0.10442478964E+04  0.14534253952E+04  0.99788528842E+03 0.  0.
   -9000010    2    1    2    0  502  0.15434104789E+03  0.48943870011E+02 -0.56420988424E+03  0.11598778854E+04  0.10003835535E+04 0.  0.
        -13    1    3    3    0    0 -0.36205389654E+03 -0.15277546428E+03 -0.96492678560E+01  0.39308585070E+03  0.10566000000E+00 0.  1.
          4    1    3    3  501    0  0.20771284865E+03  0.10383159427E+03 -0.10345986286E+04  0.10603395445E+04  0.00000000000E+00 0.  1.
         13    1    4    4    0    0  0.19393633729E+03  0.39992869179E+03 -0.65834507713E+03  0.79433778280E+03  0.10566000000E+00 0. -1.
         -4    1    4    4    0  502 -0.39595289399E+02 -0.35098482178E+03  0.94135192895E+02  0.36554010260E+03  0.00000000000E+00 0. -1.
<mgrwt>
<rscale>  2 0.10127851E+04</rscale>
<asrwt>0</asrwt>
<pdfrwt beam="1">  1       21 0.77295809E-01 0.10134021E+04</pdfrwt>
<pdfrwt beam="2">  1       21 0.32475085E+00 0.10134021E+04</pdfrwt>
<totfact> 0.13604663E+01</totfact>
</mgrwt>
</event>
<event>
 8    1  0.7208583E-006  0.1055812E+04  0.7818608E-02  0.8731121E-01
         21   -1    0    0  501  502  0.00000000000E+00  0.00000000000E+00  0.12941942853E+04  0.12941942853E+04  0.00000000000E+00 0.  1.
         21   -1    0    0  502  503 -0.00000000000E+00 -0.00000000000E+00 -0.12772529848E+04  0.12772529848E+04  0.00000000000E+00 0.  1.
    9000010    2    1    2  501    0  0.14340990107E+03  0.13061450630E+03  0.76505045825E+03  0.13038561494E+04  0.10378401157E+04 0.  0.
   -9000010    2    1    2    0  503 -0.14340990107E+03 -0.13061450630E+03 -0.74810915771E+03  0.12675911207E+04  0.10047354818E+04 0.  0.
        -13    1    3    3    0    0 -0.42353657941E+03  0.22553870968E+03  0.31812761732E+03  0.57572227308E+03  0.10566000000E+00 0.  1.
          4    1    3    3  501    0  0.56694648048E+03 -0.94924203375E+02  0.44692284093E+03  0.72813387634E+03  0.00000000000E+00 0.  1.
         13    1    4    4    0    0 -0.90937359941E+02  0.39276384582E+03 -0.69671534567E+02  0.40912977881E+03  0.10566000000E+00 0. -1.
         -4    1    4    4    0  503 -0.52472541132E+02 -0.52337835212E+03 -0.67843762314E+03  0.85846134190E+03  0.00000000000E+00 0. -1.
<mgrwt>
<rscale>  2 0.10475854E+04</rscale>
<asrwt>0</asrwt>
<pdfrwt beam="1">  1       21 0.19910681E+00 0.10558118E+04</pdfrwt>
<pdfrwt beam="2">  1       21 0.19650046E+00 0.10558118E+04</pdfrwt>
<totfact> 0.74991224E+00</totfact>
</mgrwt>
</event>
<event>
 8    1  0.7208583E-006  0.1055310E+04  0.7818608E-02  0.8731244E-01
         21   -1    0    0  501  502  0.00000000000E+00  0.00000000000E+00  0.10291907522E+04  0.10291907522E+04  0.00000000000E+00 0.  1.
         21   -1    0    0  502  503 -0.00000000000E+00 -0.00000000000E+00 -0.10635335130E+04  0.10635335130E+04  0.00000000000E+00 0.  1.
    9000010    2    1    2  501    0  0.16093060450E+03 -0.14319613543E+03 -0.13351709777E+03  0.10637229221E+04  0.10330904350E+04 0.  0.
   -9000010    2    1    2    0  503 -0.16093060450E+03  0.14319613543E+03  0.99174336959E+02  0.10290013432E+04  0.10013013645E+04 0.  0.
        -13    1    3    3    0    0 -0.21907361419E+03 -0.48988849064E+03 -0.20334486174E+02  0.53702652094E+03  0.10566000000E+00 0.  1.
          4    1    3    3  501    0  0.38000421869E+03  0.34669235521E+03 -0.11318261159E+03  0.52669640112E+03  0.00000000000E+00 0.  1.
         13    1    4    4    0    0  0.12919776456E+03  0.37601170447E+03  0.38991089447E+03  0.55687285897E+03  0.10566000000E+00 0. -1.
         -4    1    4    4    0  503 -0.29012836905E+03 -0.23281556904E+03 -0.29073655751E+03  0.47212848420E+03  0.00000000000E+00 0. -1.
<mgrwt>
<rscale>  2 0.10474480E+04</rscale>
<asrwt>0</asrwt>
<pdfrwt beam="1">  1       21 0.15833704E+00 0.10553102E+04</pdfrwt>
<pdfrwt beam="2">  1       21 0.16362054E+00 0.10553102E+04</pdfrwt>
<totfact> 0.30105560E+01</totfact>
</mgrwt>
</event>
<event>
 8    1  0.7208583E-006  0.1048193E+04  0.7818608E-02  0.8730896E-01
         21   -1    0    0  503  502  0.00000000000E+00  0.00000000000E+00  0.11931976371E+04  0.11931976371E+04  0.00000000000E+00 0. -1.
         21   -1    0    0  501  503 -0.00000000000E+00 -0.00000000000E+00 -0.12066494801E+04  0.12066494801E+04  0.00000000000E+00 0. -1.
    9000010    2    1    2  501    0 -0.40443302653E+02  0.30418991211E+03 -0.59200307286E+03  0.12025878883E+04  0.10007911008E+04 0.  0.
   -9000010    2    1    2    0  502  0.40443302653E+02 -0.30418991211E+03  0.57855122984E+03  0.11972592289E+04  0.10022679144E+04 0.  0.
        -13    1    3    3    0    0  0.20841907444E+03 -0.39834809664E+02  0.20784450517E+03  0.29702638291E+03  0.10566000000E+00 0.  1.
          4    1    3    3  501    0 -0.24886237710E+03  0.34402472177E+03 -0.79984757803E+03  0.90556150536E+03  0.00000000000E+00 0.  1.
         13    1    4    4    0    0 -0.25594749770E+03 -0.31906467875E+03 -0.12989564079E+03  0.42916695989E+03  0.10566000000E+00 0. -1.
         -4    1    4    4    0  502  0.29639080035E+03  0.14874766642E+02  0.70844687063E+03  0.76809226901E+03  0.00000000000E+00 0. -1.
<mgrwt>
<rscale>  2 0.10478396E+04</rscale>
<asrwt>0</asrwt>
<pdfrwt beam="1">  1       21 0.18356887E+00 0.10481928E+04</pdfrwt>
<pdfrwt beam="2">  1       21 0.18563838E+00 0.10481928E+04</pdfrwt>
<totfact> 0.12184206E+01</totfact>
</mgrwt>
</event>
<event>
 8    1  0.7208583E-006  0.1041174E+04  0.7818608E-02  0.8739485E-01
         21   -1    0    0  503  502  0.00000000000E+00  0.00000000000E+00  0.18357722107E+04  0.18357722107E+04  0.00000000000E+00 0.  1.
         21   -1    0    0  501  503 -0.00000000000E+00 -0.00000000000E+00 -0.64266111073E+03  0.64266111073E+03  0.00000000000E+00 0.  1.
    9000010    2    1    2  501    0  0.69787527372E+02 -0.15985802829E+03  0.22479922393E+03  0.10651659587E+04  0.10264594197E+04 0.  0.
   -9000010    2    1    2    0  502 -0.69787527372E+02  0.15985802829E+03  0.96831187599E+03  0.14132673627E+04  0.10145303648E+04 0.  0.
        -13    1    3    3    0    0 -0.17844927065E+03 -0.44965846276E+03  0.41629211876E+03  0.63822881056E+03  0.10566000000E+00 0.  1.
          4    1    3    3  501    0  0.24823679802E+03  0.28980043447E+03 -0.19149289483E+03  0.42693714816E+03  0.00000000000E+00 0.  1.
         13    1    4    4    0    0  0.94339447836E+02  0.45113674387E+03  0.84825961271E+02  0.46863605064E+03  0.10566000000E+00 0. -1.
         -4    1    4    4    0  502 -0.16412697521E+03 -0.29127871558E+03  0.88348591472E+03  0.94463131202E+03  0.00000000000E+00 0. -1.
<mgrwt>
<rscale>  2 0.10382221E+04</rscale>
<asrwt>0</asrwt>
<pdfrwt beam="1">  1       21 0.28242649E+00 0.10411743E+04</pdfrwt>
<pdfrwt beam="2">  1       21 0.98870940E-01 0.10411743E+04</pdfrwt>
<totfact> 0.14464426E+01</totfact>
</mgrwt>
</event>
<event>
 8    1  0.7208583E-006  0.1041856E+04  0.7818608E-02  0.8738535E-01
         21   -1    0    0  501  502  0.00000000000E+00  0.00000000000E+00  0.93314982989E+03  0.93314982989E+03  0.00000000000E+00 0.  1.
         21   -1    0    0  502  503 -0.00000000000E+00 -0.00000000000E+00 -0.12390479980E+04  0.12390479980E+04  0.00000000000E+00 0.  1.
    9000010    2    1    2  501    0  0.19149718585E+03  0.12058730902E+03  0.13455807204E+03  0.10505092044E+04  0.10169814366E+04 0.  0.
   -9000010    2    1    2    0  503 -0.19149718585E+03 -0.12058730902E+03 -0.44045624013E+03  0.11216886235E+04  0.10064647025E+04 0.  0.
        -13    1    3    3    0    0 -0.30877657189E+03 -0.37832262937E+02 -0.25068657135E+03  0.39952223929E+03  0.10566000000E+00 0.  1.
          4    1    3    3  501    0  0.50027375774E+03  0.15841957196E+03  0.38524464339E+03  0.65098696509E+03  0.00000000000E+00 0.  1.
         13    1    4    4    0    0 -0.13097007028E+03  0.40604180445E+03  0.89414505307E+01  0.42673535942E+03  0.10566000000E+00 0. -1.
         -4    1    4    4    0  503 -0.60527115570E+02 -0.52662911348E+03 -0.44939769066E+03  0.69495326408E+03  0.00000000000E+00 0. -1.
<mgrwt>
<rscale>  2 0.10392806E+04</rscale>
<asrwt>0</asrwt>
<pdfrwt beam="1">  1       21 0.14356151E+00 0.10418559E+04</pdfrwt>
<pdfrwt beam="2">  1       21 0.19062277E+00 0.10418559E+04</pdfrwt>
<totfact> 0.24493541E+01</totfact>
</mgrwt>
</event>
<event>
 8    1  0.7208583E-006  0.1101612E+04  0.7818608E-02  0.8685461E-01
         21   -1    0    0  503  502  0.00000000000E+00  0.00000000000E+00  0.23672384403E+04  0.23672384403E+04  0.00000000000E+00 0.  1.
         21   -1    0    0  501  503 -0.00000000000E+00 -0.00000000000E+00 -0.53746019687E+03  0.53746019687E+03  0.00000000000E+00 0.  1.
    9000010    2    1    2  501    0  0.32489926737E+03 -0.30359985594E+03  0.58905360631E+03  0.12454980611E+04  0.10032690879E+04 0.  0.
   -9000010    2    1    2    0  502 -0.32489926737E+03  0.30359985594E+03  0.12407246371E+04  0.16592005760E+04  0.10078772345E+04 0.  0.
        -13    1    3    3    0    0  0.37443657071E+03  0.36871087869E+02 -0.16942401981E+03  0.41263389616E+03  0.10566000000E+00 0.  1.
          4    1    3    3  501    0 -0.49537303341E+02 -0.34047094381E+03  0.75847762612E+03  0.83286416499E+03  0.00000000000E+00 0.  1.
         13    1    4    4    0    0 -0.16333134661E+03 -0.36737751126E+03  0.35508201930E+03  0.53640154377E+03  0.10566000000E+00 0. -1.
         -4    1    4    4    0  502 -0.16156792076E+03  0.67097736720E+03  0.88564261783E+03  0.11227990323E+04  0.00000000000E+00 0. -1.
<mgrwt>
<rscale>  2 0.11005568E+04</rscale>
<asrwt>0</asrwt>
<pdfrwt beam="1">  1       21 0.36419052E+00 0.11016120E+04</pdfrwt>
<pdfrwt beam="2">  1       21 0.82686186E-01 0.11016120E+04</pdfrwt>
<totfact> 0.59834584E+00</totfact>
</mgrwt>
</event>
<event>
 8    1  0.7208583E-006  0.1203978E+04  0.7818608E-02  0.8630303E-01
         21   -1    0    0  503  502  0.00000000000E+00  0.00000000000E+00  0.11971272786E+04  0.11971272786E+04  0.00000000000E+00 0. -1.
         21   -1    0    0  501  503 -0.00000000000E+00 -0.00000000000E+00 -0.11980927442E+04  0.11980927442E+04  0.00000000000E+00 0. -1.
    9000010    2    1    2  501    0 -0.48282790541E+02 -0.30808255718E+03 -0.37622188286E+03  0.12613907180E+04  0.11628918903E+04 0.  0.
   -9000010    2    1    2    0  502  0.48282790541E+02  0.30808255718E+03  0.37525641734E+03  0.11338293048E+04  0.10234771242E+04 0.  0.
        -13    1    3    3    0    0 -0.33329668427E+03 -0.28468211134E+03  0.29732203106E+03  0.52965175878E+03  0.10566000000E+00 0.  1.
          4    1    3    3  501    0  0.28501389373E+03 -0.23400445840E+02 -0.67354391392E+03  0.73173895924E+03  0.00000000000E+00 0.  1.
         13    1    4    4    0    0 -0.38995876039E+03  0.46006197031E+03  0.25396018357E+03  0.65438569463E+03  0.10566000000E+00 0. -1.
         -4    1    4    4    0  502  0.43824155093E+03 -0.15197941313E+03  0.12129623378E+03  0.47944361014E+03  0.00000000000E+00 0. -1.
<mgrwt>
<rscale>  2 0.11689687E+04</rscale>
<asrwt>0</asrwt>
<pdfrwt beam="1">  1       21 0.18417343E+00 0.12039783E+04</pdfrwt>
<pdfrwt beam="2">  1       21 0.18432196E+00 0.12039783E+04</pdfrwt>
<totfact> 0.11933932E+01</totfact>
</mgrwt>
</event>
<event>
 8    1  0.7208583E-006  0.1076235E+04  0.7818608E-02  0.8738751E-01
         21   -1    0    0  501  502  0.00000000000E+00  0.00000000000E+00  0.15925231897E+04  0.15925231897E+04  0.00000000000E+00 0. -1.
         21   -1    0    0  502  503 -0.00000000000E+00 -0.00000000000E+00 -0.71984451361E+03  0.71984451361E+03  0.00000000000E+00 0. -1.
    9000010    2    1    2  501    0 -0.22453357299E+03  0.32489257404E+03  0.80537076935E+03  0.12340297487E+04  0.84748854538E+03 0.  0.
   -9000010    2    1    2    0  503  0.22453357299E+03 -0.32489257404E+03  0.67307906721E+02  0.10783379546E+04  0.10011552726E+04 0.  0.
        -13    1    3    3    0    0  0.20195149253E+03  0.23966341794E+03  0.72758054282E+03  0.79220983122E+03  0.10566000000E+00 0.  1.
          4    1    3    3  501    0 -0.42648506552E+03  0.85229156101E+02  0.77790226538E+02  0.44181991751E+03  0.00000000000E+00 0.  1.
         13    1    4    4    0    0  0.34589956022E+03 -0.16655918442E+03 -0.40959596953E+03  0.56138875754E+03  0.10566000000E+00 0. -1.
         -4    1    4    4    0  503 -0.12136598724E+03 -0.15833338962E+03  0.47690387625E+03  0.51694919703E+03  0.00000000000E+00 0. -1.
<mgrwt>
<rscale>  2 0.10390399E+04</rscale>
<asrwt>0</asrwt>
<pdfrwt beam="1">  1       21 0.24500357E+00 0.10762353E+04</pdfrwt>
<pdfrwt beam="2">  1       21 0.11074531E+00 0.10762353E+04</pdfrwt>
<totfact> 0.19737586E+01</totfact>
</mgrwt>
</event>
<event>
 8    1  0.7208583E-006  0.1018474E+04  0.7818608E-02  0.8758070E-01
         21   -1    0    0  503  502  0.00000000000E+00  0.00000000000E+00  0.13425258727E+04  0.13425258727E+04  0.00000000000E+00 0. -1.
         21   -1    0    0  501  503 -0.00000000000E+00 -0.00000000000E+00 -0.11271780448E+04  0.11271780448E+04  0.00000000000E+00 0. -1.
    9000010    2    1    2  501    0  0.61793638499E+02 -0.17322396372E+03 -0.58684611604E+03  0.11754479416E+04  0.10017307544E+04 0.  0.
   -9000010    2    1    2    0  502 -0.61793638499E+02  0.17322396372E+03  0.80219394395E+03  0.12942559758E+04  0.99887857714E+03 0.  0.
        -13    1    3    3    0    0  0.47166022872E+03  0.62716101864E+02 -0.80460834968E+02  0.48256671862E+03  0.10566000000E+00 0.  1.
          4    1    3    3  501    0 -0.40986659022E+03 -0.23594006558E+03 -0.50638528107E+03  0.69288122302E+03  0.00000000000E+00 0.  1.
         13    1    4    4    0    0  0.55449882100E+00 -0.37479172584E+03  0.59875320625E+03  0.70638131231E+03  0.10566000000E+00 0. -1.
         -4    1    4    4    0  502 -0.62348137320E+02  0.54801568956E+03  0.20344073770E+03  0.58787466350E+03  0.00000000000E+00 0. -1.
<mgrwt>
<rscale>  2 0.10177721E+04</rscale>
<asrwt>0</asrwt>
<pdfrwt beam="1">  1       21 0.20654244E+00 0.10184741E+04</pdfrwt>
<pdfrwt beam="2">  1       21 0.17341200E+00 0.10184741E+04</pdfrwt>
<totfact> 0.10177109E+01</totfact>
</mgrwt>
</event>
<event>
 8    1  0.7208583E-006  0.1086817E+04  0.7818608E-02  0.8699500E-01
         21   -1    0    0  503  502  0.00000000000E+00  0.00000000000E+00  0.79056146547E+03  0.79056146547E+03  0.00000000000E+00 0. -1.
         21   -1    0    0  501  503 -0.00000000000E+00 -0.00000000000E+00 -0.15195869271E+04  0.15195869271E+04  0.00000000000E+00 0. -1.
    9000010    2    1    2  501    0 -0.38384757521E+02 -0.32435270606E+03 -0.55297894228E+03  0.12091653232E+04  0.10245081750E+04 0.  0.
   -9000010    2    1    2    0  502  0.38384757521E+02  0.32435270606E+03 -0.17604651938E+03  0.11009830694E+04  0.10365776742E+04 0.  0.
        -13    1    3    3    0    0  0.41322775284E+03 -0.31395981726E+03 -0.55170139411E+03  0.75743143715E+03  0.10566000000E+00 0.  1.
          4    1    3    3  501    0 -0.45161251036E+03 -0.10392888803E+02 -0.12775481789E+01  0.45173388602E+03  0.00000000000E+00 0.  1.
         13    1    4    4    0    0 -0.31244741888E+03 -0.18311348492E+03 -0.30173387398E+03  0.47137806461E+03  0.10566000000E+00 0. -1.
         -4    1    4    4    0  502  0.35083217640E+03  0.50746619098E+03  0.12568735460E+03  0.62960500482E+03  0.00000000000E+00 0. -1.
<mgrwt>
<rscale>  2 0.10839292E+04</rscale>
<asrwt>0</asrwt>
<pdfrwt beam="1">  1       21 0.12162484E+00 0.10868171E+04</pdfrwt>
<pdfrwt beam="2">  1       21 0.23378260E+00 0.10868171E+04</pdfrwt>
<totfact> 0.18378321E+01</totfact>
</mgrwt>
</event>
<event>
 8    1  0.7208583E-006  0.1128859E+04  0.7818608E-02  0.8667141E-01
         21   -1    0    0  501  502  0.00000000000E+00  0.00000000000E+00  0.91990000002E+03  0.91990000002E+03  0.00000000000E+00 0. -1.
         21   -1    0    0  502  503 -0.00000000000E+00 -0.00000000000E+00 -0.22161414554E+04  0.22161414554E+04  0.00000000000E+00 0. -1.
    9000010    2    1    2  501    0 -0.51447866742E+03  0.73840400933E+02  0.33327662622E+03  0.11537066720E+04  0.97458969389E+03 0.  0.
   -9000010    2    1    2    0  503  0.51447866742E+03 -0.73840400933E+02 -0.16295180815E+04  0.19823347834E+04  0.10020884747E+04 0.  0.
        -13    1    3    3    0    0 -0.35051826654E+02  0.47396157607E+03  0.19749480588E+03  0.51465757126E+03  0.10566000000E+00 0.  1.
          4    1    3    3  501    0 -0.47942684076E+03 -0.40012117514E+03  0.13578182034E+03  0.63904910076E+03  0.00000000000E+00 0.  1.
         13    1    4    4    0    0  0.80080824995E+03 -0.64595003865E+02 -0.14044998526E+04  0.16180501274E+04  0.10566000000E+00 0. -1.
         -4    1    4    4    0  503 -0.28632958253E+03 -0.92453970680E+01 -0.22501822899E+03  0.36428465597E+03  0.00000000000E+00 0. -1.
<mgrwt>
<rscale>  2 0.11227244E+04</rscale>
<asrwt>0</asrwt>
<pdfrwt beam="1">  1       21 0.14152308E+00 0.11288587E+04</pdfrwt>
<pdfrwt beam="2">  1       21 0.34094484E+00 0.11288587E+04</pdfrwt>
<totfact> 0.20139678E+00</totfact>
</mgrwt>
</event>
<event>
 8    1  0.7208583E-006  0.1141510E+04  0.7818608E-02  0.8678856E-01
         21   -1    0    0  503  502  0.00000000000E+00  0.00000000000E+00  0.98411683522E+03  0.98411683522E+03  0.00000000000E+00 0. -1.
         21   -1    0    0  501  503 -0.00000000000E+00 -0.00000000000E+00 -0.11857181216E+04  0.11857181216E+04  0.00000000000E+00 0. -1.
    9000010    2    1    2  501    0 -0.32558395169E+02  0.11066961725E+03 -0.15995438719E+03  0.10275658008E+04  0.10084633140E+04 0.  0.
   -9000010    2    1    2    0  502  0.32558395169E+02 -0.11066961725E+03 -0.41646899172E+02  0.11422691560E+04  0.11356656847E+04 0.  0.
        -13    1    3    3    0    0 -0.99118387812E+02 -0.31841486608E+03  0.26048032635E+03  0.42315776410E+03  0.10566000000E+00 0.  1.
          4    1    3    3  501    0  0.66559992643E+02  0.42908448332E+03 -0.42043471354E+03  0.60440803667E+03  0.00000000000E+00 0.  1.
         13    1    4    4    0    0 -0.54650157295E+03 -0.59582892083E+02 -0.97365750257E+02  0.55829579145E+03  0.10566000000E+00 0. -1.
         -4    1    4    4    0  502  0.57905996812E+03 -0.51086725162E+02  0.55718851085E+02  0.58397336457E+03  0.00000000000E+00 0. -1.
<mgrwt>
<rscale>  2 0.11084867E+04</rscale>
<asrwt>0</asrwt>
<pdfrwt beam="1">  1       21 0.15140259E+00 0.11415097E+04</pdfrwt>
<pdfrwt beam="2">  1       21 0.18241817E+00 0.11415097E+04</pdfrwt>
<totfact> 0.23721962E+01</totfact>
</mgrwt>
</event>
<event>
 8    1  0.7208583E-006  0.1052248E+04  0.7818608E-02  0.8727176E-01
         21   -1    0    0  501  502  0.00000000000E+00  0.00000000000E+00  0.12624834807E+04  0.12624834807E+04  0.00000000000E+00 0.  1.
         21   -1    0    0  502  503 -0.00000000000E+00 -0.00000000000E+00 -0.12054998662E+04  0.12054998662E+04  0.00000000000E+00 0.  1.
    9000010    2    1    2  501    0 -0.71450864721E+02  0.30103315190E+03  0.67332724663E+03  0.12492376634E+04  0.10057330531E+04 0.  0.
   -9000010    2    1    2    0  503  0.71450864721E+02 -0.30103315190E+03 -0.61634363211E+03  0.12187456835E+04  0.10048559019E+04 0.  0.
        -13    1    3    3    0    0 -0.19438411853E+03 -0.33605297953E+03  0.35692676426E+03  0.52736469051E+03  0.10566000000E+00 0.  1.
          4    1    3    3  501    0  0.12293325381E+03  0.63708613143E+03  0.31640048237E+03  0.72187297290E+03  0.00000000000E+00 0.  1.
         13    1    4    4    0    0  0.23096034177E+03 -0.55893359492E+03 -0.67880789811E+03  0.90913674258E+03  0.10566000000E+00 0. -1.
         -4    1    4    4    0  503 -0.15950947705E+03  0.25790044302E+03  0.62464266004E+02  0.30960894093E+03  0.00000000000E+00 0. -1.
<mgrwt>
<rscale>  2 0.10520380E+04</rscale>
<asrwt>0</asrwt>
<pdfrwt beam="1">  1       21 0.19422823E+00 0.10522477E+04</pdfrwt>
<pdfrwt beam="2">  1       21 0.18546152E+00 0.10522477E+04</pdfrwt>
<totfact> 0.10036680E+01</totfact>
</mgrwt>
</event>
<event>
 8    1  0.7208583E-006  0.1071991E+04  0.7818608E-02  0.8710857E-01
         21   -1    0    0  501  502  0.00000000000E+00  0.00000000000E+00  0.20517561583E+04  0.20517561583E+04  0.00000000000E+00 0. -1.
         21   -1    0    0  502  503 -0.00000000000E+00 -0.00000000000E+00 -0.59870163941E+03  0.59870163941E+03  0.00000000000E+00 0. -1.
    9000010    2    1    2  501    0  0.34447959591E+03  0.20344369112E+03  0.10762235281E+04  0.15190197605E+04  0.99453930197E+03 0.  0.
   -9000010    2    1    2    0  503 -0.34447959591E+03 -0.20344369112E+03  0.37683099084E+03  0.11314380372E+04  0.98898680922E+03 0.  0.
        -13    1    3    3    0    0  0.22986960235E+03  0.12075458491E+03 -0.13973989757E+03  0.29487108030E+03  0.10566000000E+00 0.  1.
          4    1    3    3  501    0  0.11460999356E+03  0.82689106207E+02  0.12159634256E+04  0.12241486802E+04  0.00000000000E+00 0.  1.
         13    1    4    4    0    0 -0.34815945978E+03  0.11048232379E+03 -0.24155943539E+03  0.43791817191E+03  0.10566000000E+00 0. -1.
         -4    1    4    4    0  503  0.36798638756E+01 -0.31392601490E+03  0.61839042623E+03  0.69351986524E+03  0.00000000000E+00 0. -1.
<mgrwt>
<rscale>  2 0.10707010E+04</rscale>
<asrwt>0</asrwt>
<pdfrwt beam="1">  1       21 0.31565479E+00 0.10719906E+04</pdfrwt>
<pdfrwt beam="2">  1       21 0.92107945E-01 0.10719906E+04</pdfrwt>
<totfact> 0.10031133E+01</totfact>
</mgrwt>
</event>
<event>
 8    1  0.7208583E-006  0.1022493E+04  0.7818608E-02  0.8759685E-01
         21   -1    0    0  501  502  0.00000000000E+00  0.00000000000E+00  0.27063314178E+04  0.27063314178E+04  0.00000000000E+00 0. -1.
         21   -1    0    0  502  503 -0.00000000000E+00 -0.00000000000E+00 -0.42016629781E+03  0.42016629781E+03  0.00000000000E+00 0. -1.
    9000010    2    1    2  501    0 -0.16370558399E+03 -0.44966584860E+02  0.16589704802E+04  0.19487622792E+04  0.10083004784E+04 0.  0.
   -9000010    2    1    2    0  503  0.16370558399E+03  0.44966584860E+02  0.62719463980E+03  0.11777354364E+04  0.98227599477E+03 0.  0.
        -13    1    3    3    0    0 -0.26494646967E+03  0.30433133616E+02  0.17643089581E+04  0.17843511196E+04  0.10566000000E+00 0.  1.
          4    1    3    3  501    0  0.10124088568E+03 -0.75399718476E+02 -0.10533847789E+03  0.16441115960E+03  0.00000000000E+00 0.  1.
         13    1    4    4    0    0 -0.38636758082E+03 -0.79897838501E+02  0.10314825720E+03  0.40780282764E+03  0.10566000000E+00 0. -1.
         -4    1    4    4    0  503  0.55007316481E+03  0.12486442336E+03  0.52404638260E+03  0.76993260873E+03  0.00000000000E+00 0. -1.
<mgrwt>
<rscale>  2 0.10160180E+04</rscale>
<asrwt>0</asrwt>
<pdfrwt beam="1">  1       21 0.41635867E+00 0.10224927E+04</pdfrwt>
<pdfrwt beam="2">  1       21 0.64640971E-01 0.10224927E+04</pdfrwt>
<totfact> 0.47509471E+00</totfact>
</mgrwt>
</event>
<event>
 8    1  0.7208583E-006  0.1079464E+04  0.7818608E-02  0.8712312E-01
         21   -1    0    0  503  502  0.00000000000E+00  0.00000000000E+00  0.64970632240E+03  0.64970632240E+03  0.00000000000E+00 0.  1.
         21   -1    0    0  501  503 -0.00000000000E+00 -0.00000000000E+00 -0.17889098557E+04  0.17889098557E+04  0.00000000000E+00 0.  1.
    9000010    2    1    2  501    0  0.11026979032E+03  0.26434518480E+03 -0.32983788619E+03  0.10894259684E+04  0.99800706719E+03 0.  0.
   -9000010    2    1    2    0  502 -0.11026979032E+03 -0.26434518480E+03 -0.80936564711E+03  0.13491902097E+04  0.10407707085E+04 0.  0.
        -13    1    3    3    0    0 -0.88373984354E+02 -0.17875004579E+03  0.25856915970E+03  0.32652650963E+03  0.10566000000E+00 0.  1.
          4    1    3    3  501    0  0.19864377467E+03  0.44309523059E+03 -0.58840704589E+03  0.76289945880E+03  0.00000000000E+00 0.  1.
         13    1    4    4    0    0  0.43092475346E+03 -0.20710989774E+03 -0.16505076235E+03  0.50579879221E+03  0.10566000000E+00 0. -1.
         -4    1    4    4    0  502 -0.54119454378E+03 -0.57235287060E+02 -0.64431488476E+03  0.84339141745E+03  0.00000000000E+00 0. -1.
<mgrwt>
<rscale>  2 0.10690208E+04</rscale>
<asrwt>0</asrwt>
<pdfrwt beam="1">  1       21 0.99954820E-01 0.10794635E+04</pdfrwt>
<pdfrwt beam="2">  1       21 0.27521690E+00 0.10794635E+04</pdfrwt>
<totfact> 0.15689466E+01</totfact>
</mgrwt>
</event>
<event>
 8    1  0.7208583E-006  0.1163945E+04  0.7818608E-02  0.8655922E-01
         21   -1    0    0  501  502  0.00000000000E+00  0.00000000000E+00  0.82691738496E+03  0.82691738496E+03  0.00000000000E+00 0.  1.
         21   -1    0    0  502  503 -0.00000000000E+00 -0.00000000000E+00 -0.15518166945E+04  0.15518166945E+04  0.00000000000E+00 0.  1.
    9000010    2    1    2  501    0  0.19281804117E+03 -0.28099528531E+03 -0.61046848866E+03  0.13143209355E+04  0.11129378232E+04 0.  0.
   -9000010    2    1    2    0  503 -0.19281804117E+03  0.28099528531E+03 -0.11443082085E+03  0.10644131440E+04  0.10018701418E+04 0.  0.
        -13    1    3    3    0    0  0.40496839367E+03  0.29964079798E+03 -0.10222928832E+03  0.51403778678E+03  0.10566000000E+00 0.  1.
          4    1    3    3  501    0 -0.21215035250E+03 -0.58063608329E+03 -0.50823920034E+03  0.80028314867E+03  0.00000000000E+00 0.  1.
         13    1    4    4    0    0  0.39792928461E+03 -0.68749805559E+01 -0.82719889503E+02  0.40649424620E+03  0.10566000000E+00 0. -1.
         -4    1    4    4    0  503 -0.59074732578E+03  0.28787026587E+03 -0.31710931343E+02  0.65791889778E+03  0.00000000000E+00 0. -1.
<mgrwt>
<rscale>  2 0.11365690E+04</rscale>
<asrwt>0</asrwt>
<pdfrwt beam="1">  1       21 0.12721806E+00 0.11639449E+04</pdfrwt>
<pdfrwt beam="2">  1       21 0.23874103E+00 0.11639449E+04</pdfrwt>
<totfact> 0.14624111E+01</totfact>
</mgrwt>
</event>
<event>
 8    1  0.7208583E-006  0.1016843E+04  0.7818608E-02  0.8760388E-01
         21   -1    0    0  501  502  0.00000000000E+00  0.00000000000E+00  0.77560596609E+03  0.77560596609E+03  0.00000000000E+00 0. -1.
         21   -1    0    0  502  503 -0.00000000000E+00 -0.00000000000E+00 -0.18205761556E+04  0.18205761556E+04  0.00000000000E+00 0. -1.
    9000010    2    1    2  501    0  0.12828604968E+03 -0.83388964922E+02  0.15370744519E+03  0.10283951828E+04  0.10052659565E+04 0.  0.
   -9000010    2    1    2    0  503 -0.12828604968E+03  0.83388964922E+02 -0.11986776347E+04  0.15677869389E+04  0.99885773958E+03 0.  0.
        -13    1    3    3    0    0 -0.17949555465E+02 -0.23416468866E+03  0.53990603954E+03  0.58877315721E+03  0.10566000000E+00 0.  1.
          4    1    3    3  501    0  0.14623560515E+03  0.15077572374E+03 -0.38619859435E+03  0.43962202556E+03  0.00000000000E+00 0.  1.
         13    1    4    4    0    0 -0.16100113060E+03 -0.24152682224E+03 -0.12067087472E+04  0.12411295587E+04  0.10566000000E+00 0. -1.
         -4    1    4    4    0  503  0.32715080914E+02  0.32491578717E+03  0.80311124593E+01  0.32665738019E+03  0.00000000000E+00 0. -1.
<mgrwt>
<rscale>  2 0.10152561E+04</rscale>
<asrwt>0</asrwt>
<pdfrwt beam="1">  1       21 0.11932400E+00 0.10168435E+04</pdfrwt>
<pdfrwt beam="2">  1       21 0.28008864E+00 0.10168435E+04</pdfrwt>
<totfact> 0.91038303E+00</totfact>
</mgrwt>
</event>
<event>
 8    1  0.7208583E-006  0.1062152E+04  0.7818608E-02  0.8723968E-01
         21   -1    0    0  503  502  0.00000000000E+00  0.00000000000E+00  0.85442671371E+03  0.85442671371E+03  0.00000000000E+00 0. -1.
         21   -1    0    0  501  503 -0.00000000000E+00 -0.00000000000E+00 -0.14324681047E+04  0.14324681047E+04  0.00000000000E+00 0. -1.
    9000010    2    1    2  501    0  0.12280684167E+03 -0.31648875341E+03  0.70075829443E+02  0.10644613625E+04  0.10064396251E+04 0.  0.
   -9000010    2    1    2    0  502 -0.12280684167E+03  0.31648875341E+03 -0.64811722039E+03  0.12224334559E+04  0.97930637256E+03 0.  0.
        -13    1    3    3    0    0  0.11997111147E+03 -0.19544019690E+03 -0.46360201941E+03  0.51722024489E+03  0.10566000000E+00 0.  1.
          4    1    3    3  501    0  0.28357301963E+01 -0.12104855651E+03  0.53367784886E+03  0.54724111757E+03  0.00000000000E+00 0.  1.
         13    1    4    4    0    0 -0.80761415355E+02 -0.26807042420E+03  0.76729912984E+02  0.29029579613E+03  0.10566000000E+00 0. -1.
         -4    1    4    4    0  502 -0.42045426312E+02  0.58455917761E+03 -0.72484713337E+03  0.93213765977E+03  0.00000000000E+00 0. -1.
<mgrwt>
<rscale>  2 0.10556748E+04</rscale>
<asrwt>0</asrwt>
<pdfrwt beam="1">  1       21 0.13145026E+00 0.10621522E+04</pdfrwt>
<pdfrwt beam="2">  1       21 0.22037971E+00 0.10621522E+04</pdfrwt>
<totfact> 0.18634017E+01</totfact>
</mgrwt>
</event>
<event>
 8    1  0.7208583E-006  0.1236714E+04  0.7818608E-02  0.8579567E-01
         21   -1    0    0  503  502  0.00000000000E+00  0.00000000000E+00  0.18769431087E+04  0.18769431087E+04  0.00000000000E+00 0. -1.
         21   -1    0    0  501  503 -0.00000000000E+00 -0.00000000000E+00 -0.11204123069E+04  0.11204123069E+04  0.00000000000E+00 0. -1.
    9000010    2    1    2  501    0 -0.59163245746E+03 -0.41948555312E+03  0.11616833038E+04  0.16967527531E+04  0.10017308584E+04 0.  0.
   -9000010    2    1    2    0  502  0.59163245746E+03  0.41948555312E+03 -0.40515250200E+03  0.13006026626E+04  0.10007105686E+04 0.  0.
        -13    1    3    3    0    0  0.16963419503E+03 -0.42489530104E+03  0.57973356875E+03  0.73851391244E+03  0.10566000000E+00 0.  1.
          4    1    3    3  501    0 -0.76126665250E+03  0.54097479224E+01  0.58194973506E+03  0.95823884064E+03  0.00000000000E+00 0.  1.
         13    1    4    4    0    0 -0.16220250380E+03 -0.11407328694E+02  0.18836738089E+03  0.24884143693E+03  0.10566000000E+00 0. -1.
         -4    1    4    4    0  502  0.75383496126E+03  0.43089288181E+03 -0.59351988289E+03  0.10517612257E+04  0.00000000000E+00 0. -1.
<mgrwt>
<rscale>  2 0.12365075E+04</rscale>
<asrwt>0</asrwt>
<pdfrwt beam="1">  1       21 0.28876048E+00 0.12367141E+04</pdfrwt>
<pdfrwt beam="2">  1       21 0.17237112E+00 0.12367141E+04</pdfrwt>
<totfact> 0.24640117E+00</totfact>
</mgrwt>
</event>
<event>
 8    1  0.7208583E-006  0.1139506E+04  0.7818608E-02  0.8666909E-01
         21   -1    0    0  503  502  0.00000000000E+00  0.00000000000E+00  0.12736795685E+04  0.12736795685E+04  0.00000000000E+00 0.  1.
         21   -1    0    0  501  503 -0.00000000000E+00 -0.00000000000E+00 -0.15134159033E+04  0.15134159033E+04  0.00000000000E+00 0.  1.
    9000010    2    1    2  501    0  0.83909888422E+02  0.37699560749E+03 -0.95819080558E+03  0.14400060785E+04  0.10031556852E+04 0.  0.
   -9000010    2    1    2    0  502 -0.83909888422E+02 -0.37699560749E+03  0.71845447072E+03  0.13470893933E+04  0.10720571111E+04 0.  0.
        -13    1    3    3    0    0  0.56211257079E+02 -0.19141752879E+03  0.11136141004E+03  0.22847702414E+03  0.10566000000E+00 0.  1.
          4    1    3    3  501    0  0.27698631342E+02  0.56841313628E+03 -0.10695522156E+04  0.12115290544E+04  0.00000000000E+00 0.  1.
         13    1    4    4    0    0  0.25057044845E+03 -0.38129886116E+03  0.86804933674E+03  0.98065490022E+03  0.10566000000E+00 0. -1.
         -4    1    4    4    0  502 -0.33448033687E+03  0.43032536771E+01 -0.14959486602E+03  0.36643449303E+03  0.00000000000E+00 0. -1.
<mgrwt>
<rscale>  2 0.11230084E+04</rscale>
<asrwt>0</asrwt>
<pdfrwt beam="1">  1       21 0.19595070E+00 0.11395056E+04</pdfrwt>
<pdfrwt beam="2">  1       21 0.23283322E+00 0.11395056E+04</pdfrwt>
<totfact> 0.41160812E+00</totfact>
</mgrwt>
</event>
<event>
 8    1  0.7208583E-006  0.1024861E+04  0.7818608E-02  0.8763636E-01
         21   -1    0    0  501  502  0.00000000000E+00  0.00000000000E+00  0.11204671878E+04  0.11204671878E+04  0.00000000000E+00 0. -1.
         21   -1    0    0  502  503 -0.00000000000E+00 -0.00000000000E+00 -0.12388570991E+04  0.12388570991E+04  0.00000000000E+00 0. -1.
    9000010    2    1    2  501    0  0.61159717629E+02 -0.19476225079E+03 -0.68311544658E+03  0.11891725120E+04  0.95174140631E+03 0.  0.
   -9000010    2    1    2    0  503 -0.61159717629E+02  0.19476225079E+03  0.56472553522E+03  0.11701517749E+04  0.10043243504E+04 0.  0.
        -13    1    3    3    0    0 -0.22621692605E+03  0.24429510296E+03 -0.55789685300E+03  0.64969462420E+03  0.10566000000E+00 0.  1.
          4    1    3    3  501    0  0.28737664368E+03 -0.43905735375E+03 -0.12521859358E+03  0.53947788777E+03  0.00000000000E+00 0.  1.
         13    1    4    4    0    0  0.46772440578E+03  0.58655636522E+02  0.33171133399E+03  0.57640179017E+03  0.10566000000E+00 0. -1.
         -4    1    4    4    0  503 -0.52888412340E+03  0.13610661427E+03  0.23301420123E+03  0.59374998477E+03  0.00000000000E+00 0. -1.
<mgrwt>
<rscale>  2 0.10117431E+04</rscale>
<asrwt>0</asrwt>
<pdfrwt beam="1">  1       21 0.17237957E+00 0.10248611E+04</pdfrwt>
<pdfrwt beam="2">  1       21 0.19059340E+00 0.10248611E+04</pdfrwt>
<totfact> 0.13814993E+01</totfact>
</mgrwt>
</event>
<event>
 8    1  0.7208583E-006  0.1127572E+04  0.7818608E-02  0.8679434E-01
         21   -1    0    0  503  502  0.00000000000E+00  0.00000000000E+00  0.11977977045E+04  0.11977977045E+04  0.00000000000E+00 0. -1.
         21   -1    0    0  501  503 -0.00000000000E+00 -0.00000000000E+00 -0.16668538230E+04  0.16668538230E+04  0.00000000000E+00 0. -1.
    9000010    2    1    2  501    0 -0.49887172309E+03  0.22446418378E+03 -0.11517429371E+04  0.16118099684E+04  0.98598296911E+03 0.  0.
   -9000010    2    1    2    0  502  0.49887172309E+03 -0.22446418378E+03  0.68268681853E+03  0.12528415591E+04  0.89682412661E+03 0.  0.
        -13    1    3    3    0    0  0.21483814789E+01  0.39827497979E+03 -0.97435916466E+03  0.10526173892E+04  0.10566000000E+00 0.  1.
          4    1    3    3  501    0 -0.50102010457E+03 -0.17381079601E+03 -0.17738377240E+03  0.55919257927E+03  0.00000000000E+00 0.  1.
         13    1    4    4    0    0 -0.79364209541E+02  0.77582696509E+01 -0.17522282060E+03  0.19251471769E+03  0.10566000000E+00 0. -1.
         -4    1    4    4    0  502  0.57823593263E+03 -0.23222245343E+03  0.85790963913E+03  0.10603268414E+04  0.00000000000E+00 0. -1.
<mgrwt>
<rscale>  2 0.11077898E+04</rscale>
<asrwt>0</asrwt>
<pdfrwt beam="1">  1       21 0.18427657E+00 0.11275724E+04</pdfrwt>
<pdfrwt beam="2">  1       21 0.25643905E+00 0.11275724E+04</pdfrwt>
<totfact> 0.34358447E+00</totfact>
</mgrwt>
</event>
<event>
 8    1  0.7208583E-006  0.1316684E+04  0.7818608E-02  0.8523930E-01
         21   -1    0    0  503  502  0.00000000000E+00  0.00000000000E+00  0.16517734781E+04  0.16517734781E+04  0.00000000000E+00 0.  1.
         21   -1    0    0  501  503 -0.00000000000E+00 -0.00000000000E+00 -0.10703409560E+04  0.10703409560E+04  0.00000000000E+00 0. -1.
    9000010    2    1    2  501    0 -0.80327169039E+03 -0.27714226728E+03  0.48865650682E+03  0.14021656554E+04  0.10026116390E+04 0.  0.
   -9000010    2    1    2    0  502  0.80327169039E+03  0.27714226728E+03  0.92776015324E+02  0.13199487787E+04  0.10057853372E+04 0.  0.
        -13    1    3    3    0    0 -0.96115000889E+03  0.36956335734E+02  0.33529827806E+03  0.10186265541E+04  0.10566000000E+00 0.  1.
          4    1    3    3  501    0  0.15787831850E+03 -0.31409860301E+03  0.15335822876E+03  0.38353910126E+03  0.00000000000E+00 0.  1.
         13    1    4    4    0    0  0.28698211549E+03  0.26377871794E+03 -0.43323464950E+03  0.58277801892E+03  0.10566000000E+00 0. -1.
         -4    1    4    4    0  502  0.51628957490E+03  0.13363549342E+02  0.52601066483E+03  0.73717075981E+03  0.00000000000E+00 0. -1.
<mgrwt>
<rscale>  2 0.13160781E+04</rscale>
<asrwt>0</asrwt>
<pdfrwt beam="1">  1       21 0.25411900E+00 0.13166842E+04</pdfrwt>
<pdfrwt beam="2">  1       21 0.16466784E+00 0.13166842E+04</pdfrwt>
<totfact> 0.49925069E+00</totfact>
</mgrwt>
</event>
<event>
 8    1  0.7208583E-006  0.1144424E+04  0.7818608E-02  0.8649849E-01
         21   -1    0    0  501  502  0.00000000000E+00  0.00000000000E+00  0.17421810560E+04  0.17421810560E+04  0.00000000000E+00 0. -1.
         21   -1    0    0  502  503 -0.00000000000E+00 -0.00000000000E+00 -0.88633960394E+03  0.88633960394E+03  0.00000000000E+00 0. -1.
    9000010    2    1    2  501    0  0.54942816705E+03  0.31801401906E+02 -0.85389870430E+02  0.11476048197E+04  0.10034055772E+04 0.  0.
   -9000010    2    1    2    0  503 -0.54942816705E+03 -0.31801401906E+02  0.94123132245E+03  0.14809158402E+04  0.10021540218E+04 0.  0.
        -13    1    3    3    0    0  0.46586467884E+03 -0.21473971534E+03 -0.46161813136E+03  0.69009735161E+03  0.10566000000E+00 0.  1.
          4    1    3    3  501    0  0.83563488209E+02  0.24654111725E+03  0.37622826093E+03  0.45750746811E+03  0.00000000000E+00 0.  1.
         13    1    4    4    0    0 -0.15843298131E+03 -0.45300967123E+03  0.71959427400E+03  0.86494780312E+03  0.10566000000E+00 0. -1.
         -4    1    4    4    0  503 -0.39099518574E+03  0.42120826933E+03  0.22163704846E+03  0.61596803705E+03  0.00000000000E+00 0. -1.
<mgrwt>
<rscale>  2 0.11441492E+04</rscale>
<asrwt>0</asrwt>
<pdfrwt beam="1">  1       21 0.26802785E+00 0.11444236E+04</pdfrwt>
<pdfrwt beam="2">  1       21 0.13635994E+00 0.11444236E+04</pdfrwt>
<totfact> 0.73520044E+00</totfact>
</mgrwt>
</event>
<event>
 8    1  0.7208583E-006  0.1014021E+04  0.7818608E-02  0.8768649E-01
         21   -1    0    0  501  502  0.00000000000E+00  0.00000000000E+00  0.24427619135E+04  0.24427619135E+04  0.00000000000E+00 0.  1.
         21   -1    0    0  502  503 -0.00000000000E+00 -0.00000000000E+00 -0.45514121271E+03  0.45514121271E+03  0.00000000000E+00 0.  1.
    9000010    2    1    2  501    0  0.83255350229E+01 -0.19926812753E+03  0.51613417690E+03  0.11108632381E+04  0.96324739505E+03 0.  0.
   -9000010    2    1    2    0  503 -0.83255350229E+01  0.19926812753E+03  0.14714865239E+04  0.17870398881E+04  0.99421419744E+03 0.  0.
        -13    1    3    3    0    0  0.82588912468E+02  0.37973080182E+03  0.12508397575E+03  0.40824309237E+03  0.10566000000E+00 0.  1.
          4    1    3    3  501    0 -0.74263377445E+02 -0.57899892934E+03  0.39105020114E+03  0.70262014576E+03  0.00000000000E+00 0.  1.
         13    1    4    4    0    0 -0.39985279725E+03  0.20820239148E+03  0.12678889023E+04  0.13456495737E+04  0.10566000000E+00 0. -1.
         -4    1    4    4    0  503  0.39152726223E+03 -0.89342639588E+01  0.20359762155E+03  0.44139031440E+03  0.00000000000E+00 0. -1.
<mgrwt>
<rscale>  2 0.10063488E+04</rscale>
<asrwt>0</asrwt>
<pdfrwt beam="1">  1       21 0.37580952E+00 0.10140212E+04</pdfrwt>
<pdfrwt beam="2">  1       21 0.70021727E-01 0.10140212E+04</pdfrwt>
<totfact> 0.75517749E+00</totfact>
</mgrwt>
</event>
<event>
 8    1  0.7208583E-006  0.1031417E+04  0.7818608E-02  0.8750722E-01
         21   -1    0    0  501  502  0.00000000000E+00  0.00000000000E+00  0.69220383479E+03  0.69220383479E+03  0.00000000000E+00 0. -1.
         21   -1    0    0  502  503 -0.00000000000E+00 -0.00000000000E+00 -0.15731842949E+04  0.15731842949E+04  0.00000000000E+00 0. -1.
    9000010    2    1    2  501    0 -0.18654682794E+03 -0.15661232092E+03 -0.68290416888E+03  0.12370044677E+04  0.10022448859E+04 0.  0.
   -9000010    2    1    2    0  503  0.18654682794E+03  0.15661232092E+03 -0.19807629122E+03  0.10283836619E+04  0.97929137694E+03 0.  0.
        -13    1    3    3    0    0  0.23561774076E+03 -0.45420058732E+03 -0.38877305607E+03  0.64261838876E+03  0.10566000000E+00 0.  1.
          4    1    3    3  501    0 -0.42216456869E+03  0.29758826640E+03 -0.29413111282E+03  0.59438607898E+03  0.00000000000E+00 0.  1.
         13    1    4    4    0    0 -0.24932533028E+03  0.30629844471E+03 -0.36543825932E+03  0.53807712281E+03  0.10566000000E+00 0. -1.
         -4    1    4    4    0  503  0.43587215821E+03 -0.14968612379E+03  0.16736196810E+03  0.49030653914E+03  0.00000000000E+00 0. -1.
<mgrwt>
<rscale>  2 0.10257993E+04</rscale>
<asrwt>0</asrwt>
<pdfrwt beam="1">  1       21 0.10649290E+00 0.10314174E+04</pdfrwt>
<pdfrwt beam="2">  1       21 0.24202835E+00 0.10314174E+04</pdfrwt>
<totfact> 0.23292334E+01</totfact>
</mgrwt>
</event>
<event>
 8    1  0.7208583E-006  0.1012399E+04  0.7818608E-02  0.8765388E-01
         21   -1    0    0  503  502  0.00000000000E+00  0.00000000000E+00  0.71522478885E+03  0.71522478885E+03  0.00000000000E+00 0. -1.
         21   -1    0    0  501  503 -0.00000000000E+00 -0.00000000000E+00 -0.14268195636E+04  0.14268195636E+04  0.00000000000E+00 0. -1.
    9000010    2    1    2  501    0 -0.93012133474E+02 -0.68217128159E+02 -0.43825011313E+03  0.11031841121E+04  0.10058067359E+04 0.  0.
   -9000010    2    1    2    0  502  0.93012133474E+02  0.68217128159E+02 -0.27334466162E+03  0.10388602403E+04  0.99559452656E+03 0.  0.
        -13    1    3    3    0    0  0.39734278850E+03  0.12100786985E+03 -0.39926823784E+03  0.57614176472E+03  0.10566000000E+00 0.  1.
          4    1    3    3  501    0 -0.49035492197E+03 -0.18922499801E+03 -0.38981875285E+02  0.52704234742E+03  0.00000000000E+00 0.  1.
         13    1    4    4    0    0  0.17303037712E+03  0.51757226616E+03 -0.14151871321E+03  0.56378020491E+03  0.10566000000E+00 0. -1.
         -4    1    4    4    0  502 -0.80018243647E+02 -0.44935513800E+03 -0.13182594842E+03  0.47508003540E+03  0.00000000000E+00 0. -1.
<mgrwt>
<rscale>  2 0.10098533E+04</rscale>
<asrwt>0</asrwt>
<pdfrwt beam="1">  1       21 0.11003458E+00 0.10123991E+04</pdfrwt>
<pdfrwt beam="2">  1       21 0.21951070E+00 0.10123991E+04</pdfrwt>
<totfact> 0.31484409E+01</totfact>
</mgrwt>
</event>
<event>
 8    1  0.7208583E-006  0.1069420E+04  0.7818608E-02  0.8712506E-01
         21   -1    0    0  503  502  0.00000000000E+00  0.00000000000E+00  0.15446420379E+04  0.15446420379E+04  0.00000000000E+00 0.  1.
         21   -1    0    0  501  503 -0.00000000000E+00 -0.00000000000E+00 -0.76706558367E+03  0.76706558367E+03  0.00000000000E+00 0.  1.
    9000010    2    1    2  501    0 -0.33280451478E+03  0.18419466048E+03  0.61156402050E+03  0.12319370512E+04  0.99948578229E+03 0.  0.
   -9000010    2    1    2    0  502  0.33280451478E+03 -0.18419466048E+03  0.16601243374E+03  0.10797705704E+04  0.99682387534E+03 0.  0.
        -13    1    3    3    0    0  0.61243829631E+02 -0.33213010338E+03 -0.30232908343E+01  0.33774304388E+03  0.10566000000E+00 0.  1.
          4    1    3    3  501    0 -0.39404834441E+03  0.51632476386E+03  0.61458731134E+03  0.89419400734E+03  0.00000000000E+00 0.  1.
         13    1    4    4    0    0  0.50438831836E+03 -0.35266089167E+03  0.40817518096E+03  0.73850136746E+03  0.10566000000E+00 0. -1.
         -4    1    4    4    0  502 -0.17158380358E+03  0.16846623119E+03 -0.24216274723E+03  0.34126920290E+03  0.00000000000E+00 0. -1.
<mgrwt>
<rscale>  2 0.10687972E+04</rscale>
<asrwt>0</asrwt>
<pdfrwt beam="1">  1       21 0.23763724E+00 0.10694196E+04</pdfrwt>
<pdfrwt beam="2">  1       21 0.11801009E+00 0.10694196E+04</pdfrwt>
<totfact> 0.18797340E+01</totfact>
</mgrwt>
</event>
<event>
 8    1  0.7208583E-006  0.1236753E+04  0.7818608E-02  0.8598283E-01
         21   -1    0    0  503  502  0.00000000000E+00  0.00000000000E+00  0.86707056802E+03  0.86707056802E+03  0.00000000000E+00 0. -1.
         21   -1    0    0  501  503 -0.00000000000E+00 -0.00000000000E+00 -0.22335233906E+04  0.22335233906E+04  0.00000000000E+00 0. -1.
    9000010    2    1    2  501    0  0.25554280383E+03 -0.49024393527E+03  0.14644739236E+03  0.11465147822E+04  0.99368408784E+03 0.  0.
   -9000010    2    1    2    0  502 -0.25554280383E+03  0.49024393527E+03 -0.15129002149E+04  0.19540791764E+04  0.11063078806E+04 0.  0.
        -13    1    3    3    0    0 -0.10940034497E+03 -0.53267983143E+03 -0.25646576381E+03  0.60124116414E+03  0.10566000000E+00 0.  1.
          4    1    3    3  501    0  0.36494314881E+03  0.42435896151E+02  0.40291315617E+03  0.54527361807E+03  0.00000000000E+00 0.  1.
         13    1    4    4    0    0 -0.15840445967E+03 -0.14655869452E+03  0.84443819146E+02  0.23173733739E+03  0.10566000000E+00 0. -1.
         -4    1    4    4    0  502 -0.97138344164E+02  0.63680262980E+03 -0.15973440340E+04  0.17223418390E+04  0.00000000000E+00 0. -1.
<mgrwt>
<rscale>  2 0.12110558E+04</rscale>
<asrwt>0</asrwt>
<pdfrwt beam="1">  1       21 0.13339547E+00 0.12367532E+04</pdfrwt>
<pdfrwt beam="2">  1       21 0.34361898E+00 0.12367532E+04</pdfrwt>
<totfact> 0.22452413E+00</totfact>
</mgrwt>
</event>
<event>
 8    1  0.7208583E-006  0.1021111E+04  0.7818608E-02  0.8756874E-01
         21   -1    0    0  501  502  0.00000000000E+00  0.00000000000E+00  0.86095558196E+03  0.86095558196E+03  0.00000000000E+00 0.  1.
         21   -1    0    0  502  503 -0.00000000000E+00 -0.00000000000E+00 -0.15062924252E+04  0.15062924252E+04  0.00000000000E+00 0.  1.
    9000010    2    1    2  501    0  0.21476694633E+03  0.12257379932E+02  0.21083572239E+03  0.10346944699E+04  0.98988174020E+03 0.  0.
   -9000010    2    1    2    0  503 -0.21476694633E+03 -0.12257379932E+02 -0.85617256560E+03  0.13325535372E+04  0.99819456167E+03 0.  0.
        -13    1    3    3    0    0 -0.25021795189E+03  0.32927597026E+03  0.22685774550E+03  0.47169496064E+03  0.10566000000E+00 0.  1.
          4    1    3    3  501    0  0.46498489823E+03 -0.31701859033E+03 -0.16022023110E+02  0.56299950925E+03  0.00000000000E+00 0.  1.
         13    1    4    4    0    0 -0.20541585899E+03  0.46699026265E+03 -0.60500888627E+03  0.79139834733E+03  0.10566000000E+00 0. -1.
         -4    1    4    4    0  503 -0.93510873471E+01 -0.47924764258E+03 -0.25116367934E+03  0.54115518992E+03  0.00000000000E+00 0. -1.
<mgrwt>
<rscale>  2 0.10190736E+04</rscale>
<asrwt>0</asrwt>
<pdfrwt beam="1">  1       21 0.13245471E+00 0.10211109E+04</pdfrwt>
<pdfrwt beam="2">  1       21 0.23173729E+00 0.10211109E+04</pdfrwt>
<totfact> 0.15133644E+01</totfact>
</mgrwt>
</event>
<event>
 8    1  0.7208583E-006  0.1021186E+04  0.7818608E-02  0.8762289E-01
         21   -1    0    0  503  502  0.00000000000E+00  0.00000000000E+00  0.11556463233E+04  0.11556463233E+04  0.00000000000E+00 0. -1.
         21   -1    0    0  501  503 -0.00000000000E+00 -0.00000000000E+00 -0.91185876841E+03  0.91185876841E+03  0.00000000000E+00 0. -1.
    9000010    2    1    2  501    0  0.44738672747E+01 -0.17852405050E+03 -0.84983820259E+02  0.10247165654E+04  0.10054506142E+04 0.  0.
   -9000010    2    1    2    0  502 -0.44738672747E+01  0.17852405050E+03  0.32877137511E+03  0.10427885263E+04  0.97335833145E+03 0.  0.
        -13    1    3    3    0    0 -0.28654545679E+03 -0.15195534022E+03  0.36492572954E+03  0.48823101445E+03  0.10566000000E+00 0.  1.
          4    1    3    3  501    0  0.29101932407E+03 -0.26568710286E+02 -0.44990954980E+03  0.53648555092E+03  0.00000000000E+00 0.  1.
         13    1    4    4    0    0 -0.32633941274E+03  0.45421682882E+03  0.24590391542E+03  0.61096570008E+03  0.10566000000E+00 0. -1.
         -4    1    4    4    0  502  0.32186554547E+03 -0.27569277831E+03  0.82867459690E+02  0.43182282623E+03  0.00000000000E+00 0. -1.
<mgrwt>
<rscale>  2 0.10131977E+04</rscale>
<asrwt>0</asrwt>
<pdfrwt beam="1">  1       21 0.17779174E+00 0.10211865E+04</pdfrwt>
<pdfrwt beam="2">  1       21 0.14028596E+00 0.10211865E+04</pdfrwt>
<totfact> 0.33480549E+01</totfact>
</mgrwt>
</event>
<event>
 8    1  0.7208583E-006  0.1109395E+04  0.7818608E-02  0.8680294E-01
         21   -1    0    0  501  502  0.00000000000E+00  0.00000000000E+00  0.11829658467E+04  0.11829658467E+04  0.00000000000E+00 0.  1.
         21   -1    0    0  502  503 -0.00000000000E+00 -0.00000000000E+00 -0.13650014512E+04  0.13650014512E+04  0.00000000000E+00 0.  1.
    9000010    2    1    2  501    0  0.44496819572E+03  0.89848395999E+02  0.53926021994E+03  0.12335152500E+04  0.10122691626E+04 0.  0.
   -9000010    2    1    2    0  503 -0.44496819572E+03 -0.89848395999E+02 -0.72129582446E+03  0.13144520479E+04  0.10007232836E+04 0.  0.
        -13    1    3    3    0    0  0.77404330299E+03  0.54486900940E+02  0.41519878750E+03  0.88005789672E+03  0.10566000000E+00 0.  1.
          4    1    3    3  501    0 -0.32907510726E+03  0.35361495059E+02  0.12406143244E+03  0.35345735326E+03  0.00000000000E+00 0.  1.
         13    1    4    4    0    0  0.11029113958E+03  0.10660128295E+03 -0.70893133143E+03  0.72533551743E+03  0.10566000000E+00 0. -1.
         -4    1    4    4    0  503 -0.55525933530E+03 -0.19644967895E+03 -0.12364493035E+02  0.58911653048E+03  0.00000000000E+00 0. -1.
<mgrwt>
<rscale>  2 0.11067548E+04</rscale>
<asrwt>0</asrwt>
<pdfrwt beam="1">  1       21 0.18199475E+00 0.11093955E+04</pdfrwt>
<pdfrwt beam="2">  1       21 0.21000022E+00 0.11093955E+04</pdfrwt>
<totfact> 0.79649532E+00</totfact>
</mgrwt>
</event>
<event>
 8    1  0.7208583E-006  0.1021556E+04  0.7818608E-02  0.8757207E-01
         21   -1    0    0  503  502  0.00000000000E+00  0.00000000000E+00  0.17579690560E+04  0.17579690560E+04  0.00000000000E+00 0. -1.
         21   -1    0    0  501  503 -0.00000000000E+00 -0.00000000000E+00 -0.58963545938E+03  0.58963545938E+03  0.00000000000E+00 0. -1.
    9000010    2    1    2  501    0 -0.86799385899E+02 -0.70793438248E+02  0.66500876357E+03  0.12189397125E+04  0.10153972241E+04 0.  0.
   -9000010    2    1    2    0  502  0.86799385899E+02  0.70793438248E+02  0.50332483301E+03  0.11286648028E+04  0.10039932795E+04 0.  0.
        -13    1    3    3    0    0 -0.24903255470E+03 -0.42053382522E+03  0.47609536016E+02  0.49105253338E+03  0.10566000000E+00 0.  1.
          4    1    3    3  501    0  0.16223316880E+03  0.34974038697E+03  0.61739922755E+03  0.72788717911E+03  0.00000000000E+00 0.  1.
         13    1    4    4    0    0  0.38153986359E+03 -0.24434732313E+03 -0.16141837573E+02  0.45336392878E+03  0.10566000000E+00 0. -1.
         -4    1    4    4    0  502 -0.29474047769E+03  0.31514076138E+03  0.51946667058E+03  0.67530087407E+03  0.00000000000E+00 0. -1.
<mgrwt>
<rscale>  2 0.10187109E+04</rscale>
<asrwt>0</asrwt>
<pdfrwt beam="1">  1       21 0.27045677E+00 0.10215563E+04</pdfrwt>
<pdfrwt beam="2">  1       21 0.90713149E-01 0.10215563E+04</pdfrwt>
<totfact> 0.22058997E+01</totfact>
</mgrwt>
</event>
<event>
 8    1  0.7208583E-006  0.1123024E+04  0.7818608E-02  0.8668442E-01
         21   -1    0    0  501  502  0.00000000000E+00  0.00000000000E+00  0.15028806278E+04  0.15028806278E+04  0.00000000000E+00 0. -1.
         21   -1    0    0  502  503 -0.00000000000E+00 -0.00000000000E+00 -0.13007046516E+04  0.13007046516E+04  0.00000000000E+00 0. -1.
    9000010    2    1    2  501    0 -0.39968872868E+03 -0.15229829477E+03  0.94139476000E+03  0.14654036044E+04  0.10383822895E+04 0.  0.
   -9000010    2    1    2    0  503  0.39968872868E+03  0.15229829477E+03 -0.73921878380E+03  0.13381816750E+04  0.10302135384E+04 0.  0.
        -13    1    3    3    0    0 -0.58521251207E+03 -0.14437553147E+03  0.10778666742E+04  0.12349552854E+04  0.10566000000E+00 0.  1.
          4    1    3    3  501    0  0.18552378339E+03 -0.79227632917E+01 -0.13647191419E+03  0.23044831903E+03  0.00000000000E+00 0.  1.
         13    1    4    4    0    0  0.15095921991E+03 -0.10420116774E+03  0.23638739619E+03  0.29920825803E+03  0.10566000000E+00 0. -1.
         -4    1    4    4    0  503  0.24872950877E+03  0.25649946250E+03 -0.97560617999E+03  0.10389734170E+04  0.00000000000E+00 0. -1.
<mgrwt>
<rscale>  2 0.11211324E+04</rscale>
<asrwt>0</asrwt>
<pdfrwt beam="1">  1       21 0.23121240E+00 0.11230243E+04</pdfrwt>
<pdfrwt beam="2">  1       21 0.20010841E+00 0.11230243E+04</pdfrwt>
<totfact> 0.39403170E+00</totfact>
</mgrwt>
</event>
<event>
 8    1  0.7208583E-006  0.1021690E+04  0.7818608E-02  0.8761524E-01
         21   -1    0    0  503  502  0.00000000000E+00  0.00000000000E+00  0.51846508855E+03  0.51846508855E+03  0.00000000000E+00 0. -1.
         21   -1    0    0  501  503 -0.00000000000E+00 -0.00000000000E+00 -0.24169334833E+04  0.24169334833E+04  0.00000000000E+00 0. -1.
    9000010    2    1    2  501    0 -0.13880394108E+03 -0.16224566987E+03 -0.31854846886E+03  0.10701976758E+04  0.99912949455E+03 0.  0.
   -9000010    2    1    2    0  502  0.13880394108E+03  0.16224566987E+03 -0.15799199259E+04  0.18652008960E+04  0.96811012742E+03 0.  0.
        -13    1    3    3    0    0  0.82132855187E+02  0.78388767865E+02 -0.61721428494E+03  0.62756998775E+03  0.10566000000E+00 0.  1.
          4    1    3    3  501    0 -0.22093679626E+03 -0.24063443773E+03  0.29866581607E+03  0.44262768808E+03  0.00000000000E+00 0.  1.
         13    1    4    4    0    0  0.44111355080E+03  0.39021035012E+03 -0.75496189212E+03  0.95750339517E+03  0.10566000000E+00 0. -1.
         -4    1    4    4    0  502 -0.30230960972E+03 -0.22796468025E+03 -0.82495803374E+03  0.90769750083E+03  0.00000000000E+00 0. -1.
<mgrwt>
<rscale>  2 0.10140256E+04</rscale>
<asrwt>0</asrwt>
<pdfrwt beam="1">  1       21 0.79763859E-01 0.10216897E+04</pdfrwt>
<pdfrwt beam="2">  1       21 0.37183592E+00 0.10216897E+04</pdfrwt>
<totfact> 0.58796276E+00</totfact>
</mgrwt>
</event>
<event>
 8    1  0.7208583E-006  0.1011419E+04  0.7818608E-02  0.8768084E-01
         21   -1    0    0  503  502  0.00000000000E+00  0.00000000000E+00  0.92251015023E+03  0.92251015023E+03  0.00000000000E+00 0. -1.
         21   -1    0    0  501  503 -0.00000000000E+00 -0.00000000000E+00 -0.10997047851E+04  0.10997047851E+04  0.00000000000E+00 0. -1.
    9000010    2    1    2  501    0  0.12382327335E+03  0.15124663525E+02  0.94117937730E+01  0.99372540604E+03  0.98581978185E+03 0.  0.
   -9000010    2    1    2    0  502 -0.12382327335E+03 -0.15124663525E+02 -0.18660642869E+03  0.10284895293E+04  0.10036970630E+04 0.  0.
        -13    1    3    3    0    0  0.12254151382E+03 -0.37086015195E+03 -0.30526490480E+03  0.49572204731E+03  0.10566000000E+00 0.  1.
          4    1    3    3  501    0  0.12817595307E+01  0.38598481548E+03  0.31467669858E+03  0.49800335874E+03  0.00000000000E+00 0.  1.
         13    1    4    4    0    0  0.38171864124E+03  0.11664992892E+03 -0.29324055401E+03  0.49528412116E+03  0.10566000000E+00 0. -1.
         -4    1    4    4    0  502 -0.50554191460E+03 -0.13177459245E+03  0.10663412532E+03  0.53320540818E+03  0.00000000000E+00 0. -1.
<mgrwt>
<rscale>  2 0.10069551E+04</rscale>
<asrwt>0</asrwt>
<pdfrwt beam="1">  1       21 0.14192464E+00 0.10114192E+04</pdfrwt>
<pdfrwt beam="2">  1       21 0.16918535E+00 0.10114192E+04</pdfrwt>
<totfact> 0.38205049E+01</totfact>
</mgrwt>
</event>
<event>
 8    1  0.7208583E-006  0.1061949E+04  0.7818608E-02  0.8719768E-01
         21   -1    0    0  503  502  0.00000000000E+00  0.00000000000E+00  0.25873706797E+04  0.25873706797E+04  0.00000000000E+00 0. -1.
         21   -1    0    0  501  503 -0.00000000000E+00 -0.00000000000E+00 -0.46149673913E+03  0.46149673913E+03  0.00000000000E+00 0. -1.
    9000010    2    1    2  501    0  0.12856022721E+03  0.31032388734E+03  0.14416912017E+04  0.17905888560E+04  0.10074255720E+04 0.  0.
   -9000010    2    1    2    0  502 -0.12856022721E+03 -0.31032388734E+03  0.68418273887E+03  0.12582785628E+04  0.10011644592E+04 0.  0.
        -13    1    3    3    0    0  0.35920585053E+03  0.12784909817E+03  0.14470522590E+04  0.14964406057E+04  0.10566000000E+00 0.  1.
          4    1    3    3  501    0 -0.23064562332E+03  0.18247478917E+03 -0.53610572927E+01  0.29414825033E+03  0.00000000000E+00 0.  1.
         13    1    4    4    0    0 -0.27504159738E+03  0.13974289755E+03  0.72031168352E+03  0.78359740319E+03  0.10566000000E+00 0. -1.
         -4    1    4    4    0  502  0.14648137017E+03 -0.45006678488E+03 -0.36128944646E+02  0.47468115963E+03  0.00000000000E+00 0. -1.
<mgrwt>
<rscale>  2 0.10604611E+04</rscale>
<asrwt>0</asrwt>
<pdfrwt beam="1">  1       21 0.39805702E+00 0.10619486E+04</pdfrwt>
<pdfrwt beam="2">  1       21 0.70999500E-01 0.10619486E+04</pdfrwt>
<totfact> 0.50521910E+00</totfact>
</mgrwt>
</event>
<event>
 8    1  0.7208583E-006  0.1031155E+04  0.7818608E-02  0.8747133E-01
         21   -1    0    0  501  502  0.00000000000E+00  0.00000000000E+00  0.13143321774E+04  0.13143321774E+04  0.00000000000E+00 0. -1.
         21   -1    0    0  502  503 -0.00000000000E+00 -0.00000000000E+00 -0.13086519483E+04  0.13086519483E+04  0.00000000000E+00 0. -1.
    9000010    2    1    2  501    0 -0.20048856763E+03 -0.69871669173E+02  0.81678238148E+03  0.13110513866E+04  0.10033167814E+04 0.  0.
   -9000010    2    1    2    0  503  0.20048856763E+03  0.69871669173E+02 -0.81110215233E+03  0.13119327390E+04  0.10090605008E+04 0.  0.
        -13    1    3    3    0    0 -0.28941739549E+03  0.18115135995E+03 -0.10047874928E+03  0.35591323977E+03  0.10566000000E+00 0.  1.
          4    1    3    3  501    0  0.88928827864E+02 -0.25102302913E+03  0.91726113076E+03  0.95513814686E+03  0.00000000000E+00 0.  1.
         13    1    4    4    0    0  0.23464434969E+03  0.45667994751E+03 -0.76439197100E+03  0.92082009198E+03  0.10566000000E+00 0. -1.
         -4    1    4    4    0  503 -0.34155782060E+02 -0.38680827833E+03 -0.46710181334E+02  0.39111264704E+03  0.00000000000E+00 0. -1.
<mgrwt>
<rscale>  2 0.10297472E+04</rscale>
<asrwt>0</asrwt>
<pdfrwt beam="1">  1       21 0.20220495E+00 0.10311551E+04</pdfrwt>
<pdfrwt beam="2">  1       21 0.20133107E+00 0.10311551E+04</pdfrwt>
<totfact> 0.65418876E+00</totfact>
</mgrwt>
</event>
<event>
 8    1  0.7208583E-006  0.1072444E+04  0.7818608E-02  0.8711076E-01
         21   -1    0    0  501  502  0.00000000000E+00  0.00000000000E+00  0.74866855984E+03  0.74866855984E+03  0.00000000000E+00 0. -1.
         21   -1    0    0  502  503 -0.00000000000E+00 -0.00000000000E+00 -0.16895405808E+04  0.16895405808E+04  0.00000000000E+00 0. -1.
    9000010    2    1    2  501    0  0.34629351655E+03  0.65306538028E+02 -0.91411489500E+02  0.10763326496E+04  0.10128927726E+04 0.  0.
   -9000010    2    1    2    0  503 -0.34629351655E+03 -0.65306538028E+02 -0.84946053144E+03  0.13618764910E+04  0.10044601728E+04 0.  0.
        -13    1    3    3    0    0 -0.84813047859E+02 -0.30630490824E+03  0.25722583289E+03  0.40887784260E+03  0.10566000000E+00 0.  1.
          4    1    3    3  501    0  0.43110656441E+03  0.37161144626E+03 -0.34863732239E+03  0.66745480704E+03  0.00000000000E+00 0.  1.
         13    1    4    4    0    0 -0.12528657537E+03 -0.52254911130E+03 -0.30735573779E+03  0.61904915831E+03  0.10566000000E+00 0. -1.
         -4    1    4    4    0  503 -0.22100694118E+03  0.45724257327E+03 -0.54210479365E+03  0.74282733267E+03  0.00000000000E+00 0. -1.
<mgrwt>
<rscale>  2 0.10704481E+04</rscale>
<asrwt>0</asrwt>
<pdfrwt beam="1">  1       21 0.11517978E+00 0.10724439E+04</pdfrwt>
<pdfrwt beam="2">  1       21 0.25992932E+00 0.10724439E+04</pdfrwt>
<totfact> 0.13820367E+01</totfact>
</mgrwt>
</event>
<event>
 8    1  0.7208583E-006  0.1072000E+04  0.7818608E-02  0.8716874E-01
         21   -1    0    0  501  502  0.00000000000E+00  0.00000000000E+00  0.17773726881E+04  0.17773726881E+04  0.00000000000E+00 0. -1.
         21   -1    0    0  502  503 -0.00000000000E+00 -0.00000000000E+00 -0.67954270258E+03  0.67954270258E+03  0.00000000000E+00 0. -1.
    9000010    2    1    2  501    0  0.11853422643E+03 -0.21543220471E+03  0.89797123915E+03  0.13984047568E+04  0.10434184778E+04 0.  0.
   -9000010    2    1    2    0  503 -0.11853422643E+03  0.21543220471E+03  0.19985874637E+03  0.10585106339E+04  0.10099702203E+04 0.  0.
        -13    1    3    3    0    0 -0.11141906998E+03 -0.41805292801E+03  0.98832829514E+03  0.10788768650E+04  0.10566000000E+00 0.  1.
          4    1    3    3  501    0  0.22995329642E+03  0.20262072330E+03 -0.90357055991E+02  0.31952789176E+03  0.00000000000E+00 0.  1.
         13    1    4    4    0    0  0.23542151529E+03 -0.31662649844E+03  0.21945358715E+02  0.39516735608E+03  0.10566000000E+00 0. -1.
         -4    1    4    4    0  503 -0.35395574172E+03  0.53205870315E+03  0.17791338765E+03  0.66334327780E+03  0.00000000000E+00 0. -1.
<mgrwt>
<rscale>  2 0.10637735E+04</rscale>
<asrwt>0</asrwt>
<pdfrwt beam="1">  1       21 0.27344195E+00 0.10719998E+04</pdfrwt>
<pdfrwt beam="2">  1       21 0.10454503E+00 0.10719998E+04</pdfrwt>
<totfact> 0.14370427E+01</totfact>
</mgrwt>
</event>
<event>
 8    1  0.7208583E-006  0.1024697E+04  0.7818608E-02  0.8755857E-01
         21   -1    0    0  503  502  0.00000000000E+00  0.00000000000E+00  0.89177502251E+03  0.89177502251E+03  0.00000000000E+00 0.  1.
         21   -1    0    0  501  503 -0.00000000000E+00 -0.00000000000E+00 -0.13535599791E+04  0.13535599791E+04  0.00000000000E+00 0.  1.
    9000010    2    1    2  501    0 -0.15983241598E+03 -0.89159451196E+01  0.19875775568E+03  0.10261874114E+04  0.99394671015E+03 0.  0.
   -9000010    2    1    2    0  502  0.15983241598E+03  0.89159451196E+01 -0.66054271222E+03  0.12191475902E+04  0.10121157427E+04 0.  0.
        -13    1    3    3    0    0 -0.25834445306E+03 -0.46759301624E+03  0.14785041925E+03  0.55429671016E+03  0.10566000000E+00 0.  1.
          4    1    3    3  501    0  0.98512037081E+02  0.45867707112E+03  0.50907336424E+02  0.47189070124E+03  0.00000000000E+00 0.  1.
         13    1    4    4    0    0 -0.22908737988E+03  0.34093688845E+03 -0.56564140136E+03  0.69904877914E+03  0.10566000000E+00 0. -1.
         -4    1    4    4    0  502  0.38891979586E+03 -0.33202094333E+03 -0.94901310863E+02  0.52009881102E+03  0.00000000000E+00 0. -1.
<mgrwt>
<rscale>  2 0.10201819E+04</rscale>
<asrwt>0</asrwt>
<pdfrwt beam="1">  1       21 0.13719616E+00 0.10246971E+04</pdfrwt>
<pdfrwt beam="2">  1       21 0.20824000E+00 0.10246971E+04</pdfrwt>
<totfact> 0.20506329E+01</totfact>
</mgrwt>
</event>
<event>
 8    1  0.7208583E-006  0.1025516E+04  0.7818608E-02  0.8751454E-01
         21   -1    0    0  503  502  0.00000000000E+00  0.00000000000E+00  0.16808662262E+04  0.16808662262E+04  0.00000000000E+00 0.  1.
         21   -1    0    0  501  503 -0.00000000000E+00 -0.00000000000E+00 -0.63489309650E+03  0.63489309650E+03  0.00000000000E+00 0.  1.
    9000010    2    1    2  501    0  0.99536805343E+02  0.20555269138E+03  0.67228019289E+03  0.12262316941E+04  0.99976198433E+03 0.  0.
   -9000010    2    1    2    0  502 -0.99536805343E+02 -0.20555269138E+03  0.37369293685E+03  0.10895276286E+04  0.99762946927E+03 0.  0.
        -13    1    3    3    0    0  0.18877306233E+03 -0.37634685401E+03  0.17633784574E+03  0.45647263947E+03  0.10566000000E+00 0.  1.
          4    1    3    3  501    0 -0.89236256984E+02  0.58189954539E+03  0.49594234715E+03  0.76975905463E+03  0.00000000000E+00 0.  1.
         13    1    4    4    0    0 -0.14289271301E+03  0.38997499168E+03  0.75614280700E+02  0.42215678625E+03  0.10566000000E+00 0. -1.
         -4    1    4    4    0  502  0.43355907667E+02 -0.59552768306E+03  0.29807865615E+03  0.66737084239E+03  0.00000000000E+00 0. -1.
<mgrwt>
<rscale>  2 0.10249961E+04</rscale>
<asrwt>0</asrwt>
<pdfrwt beam="1">  1       21 0.25859480E+00 0.10255162E+04</pdfrwt>
<pdfrwt beam="2">  1       21 0.97675862E-01 0.10255162E+04</pdfrwt>
<totfact> 0.22194216E+01</totfact>
</mgrwt>
</event>
<event>
 8    1  0.7208583E-006  0.1183894E+04  0.7818608E-02  0.8650873E-01
         21   -1    0    0  503  502  0.00000000000E+00  0.00000000000E+00  0.12639028553E+04  0.12639028553E+04  0.00000000000E+00 0.  1.
         21   -1    0    0  501  503 -0.00000000000E+00 -0.00000000000E+00 -0.10136559623E+04  0.10136559623E+04  0.00000000000E+00 0.  1.
    9000010    2    1    2  501    0 -0.22747257876E+03  0.87663678360E+02 -0.12482204986E+03  0.10356726762E+04  0.99880361104E+03 0.  0.
   -9000010    2    1    2    0  502  0.22747257876E+03 -0.87663678360E+02  0.37506894286E+03  0.12418861415E+04  0.11585231038E+04 0.  0.
        -13    1    3    3    0    0 -0.51261164583E+03  0.16845181672E+03 -0.36732050637E+03  0.65274120412E+03  0.10566000000E+00 0.  1.
          4    1    3    3  501    0  0.28513906707E+03 -0.80788138364E+02  0.24249845651E+03  0.38293147204E+03  0.00000000000E+00 0.  1.
         13    1    4    4    0    0 -0.44805218348E+03 -0.16596170799E+02  0.33824350240E+03  0.56163588747E+03  0.10566000000E+00 0. -1.
         -4    1    4    4    0  502  0.67552476224E+03 -0.71067507560E+02  0.36825440461E+02  0.68025025402E+03  0.00000000000E+00 0. -1.
<mgrwt>
<rscale>  2 0.11428674E+04</rscale>
<asrwt>0</asrwt>
<pdfrwt beam="1">  1       21 0.19444659E+00 0.11838938E+04</pdfrwt>
<pdfrwt beam="2">  1       21 0.15594707E+00 0.11838938E+04</pdfrwt>
<totfact> 0.17175910E+01</totfact>
</mgrwt>
</event>
<event>
 8    1  0.7208583E-006  0.1021759E+04  0.7818608E-02  0.8781443E-01
         21   -1    0    0  501  502  0.00000000000E+00  0.00000000000E+00  0.19067691284E+04  0.19067691284E+04  0.00000000000E+00 0. -1.
         21   -1    0    0  502  503 -0.00000000000E+00 -0.00000000000E+00 -0.98709683726E+03  0.98709683726E+03  0.00000000000E+00 0. -1.
    9000010    2    1    2  501    0  0.17830975835E+03  0.85685863574E+02  0.14731472922E+04  0.17318303248E+04  0.88878394012E+03 0.  0.
   -9000010    2    1    2    0  503 -0.17830975835E+03 -0.85685863574E+02 -0.55347500110E+03  0.11620356408E+04  0.10024249681E+04 0.  0.
        -13    1    3    3    0    0 -0.30423656425E+03  0.22181421155E+03  0.86678929215E+03  0.94503180878E+03  0.10566000000E+00 0.  1.
          4    1    3    3  501    0  0.48254632259E+03 -0.13612834797E+03  0.60635800009E+03  0.78679851604E+03  0.00000000000E+00 0.  1.
         13    1    4    4    0    0  0.39652390604E+03 -0.18920586672E+02 -0.39951765880E+03  0.56320828077E+03  0.10566000000E+00 0. -1.
         -4    1    4    4    0  503 -0.57483366439E+03 -0.66765276902E+02 -0.15395734230E+03  0.59882736007E+03  0.00000000000E+00 0. -1.
<mgrwt>
<rscale>  2 0.99274017E+03</rscale>
<asrwt>0</asrwt>
<pdfrwt beam="1">  1       21 0.29334910E+00 0.10217594E+04</pdfrwt>
<pdfrwt beam="2">  1       21 0.15186105E+00 0.10217594E+04</pdfrwt>
<totfact> 0.36077529E+00</totfact>
</mgrwt>
</event>
<event>
 8    1  0.7208583E-006  0.1019475E+04  0.7818608E-02  0.8766818E-01
         21   -1    0    0  503  502  0.00000000000E+00  0.00000000000E+00  0.12342237942E+04  0.12342237942E+04  0.00000000000E+00 0.  1.
         21   -1    0    0  501  503 -0.00000000000E+00 -0.00000000000E+00 -0.86110341005E+03  0.86110341005E+03  0.00000000000E+00 0.  1.
    9000010    2    1    2  501    0  0.38825185945E+02 -0.11607244125E+03 -0.74048148462E+02  0.10221602903E+04  0.10121009456E+04 0.  0.
   -9000010    2    1    2    0  502 -0.38825185945E+02  0.11607244125E+03  0.44716853265E+03  0.10731669140E+04  0.96785707722E+03 0.  0.
        -13    1    3    3    0    0  0.12715702062E+03  0.43540005302E+03  0.27835839641E+02  0.45444137047E+03  0.10566000000E+00 0.  1.
          4    1    3    3  501    0 -0.88331834672E+02 -0.55147249427E+03 -0.10188398810E+03  0.56771891987E+03  0.00000000000E+00 0.  1.
         13    1    4    4    0    0  0.42203869579E+03 -0.13151891057E+03  0.28287127765E+03  0.52481430570E+03  0.10566000000E+00 0. -1.
         -4    1    4    4    0  502 -0.46086388173E+03  0.24759135182E+03  0.16429725500E+03  0.54835260826E+03  0.00000000000E+00 0. -1.
<mgrwt>
<rscale>  2 0.10083154E+04</rscale>
<asrwt>0</asrwt>
<pdfrwt beam="1">  1       21 0.18988058E+00 0.10194746E+04</pdfrwt>
<pdfrwt beam="2">  1       21 0.13247745E+00 0.10194746E+04</pdfrwt>
<totfact> 0.31663231E+01</totfact>
</mgrwt>
</event>
<event>
 8    1  0.7208583E-006  0.1031504E+04  0.7818608E-02  0.8746966E-01
         21   -1    0    0  503  502  0.00000000000E+00  0.00000000000E+00  0.10060740164E+04  0.10060740164E+04  0.00000000000E+00 0. -1.
         21   -1    0    0  501  503 -0.00000000000E+00 -0.00000000000E+00 -0.11197885077E+04  0.11197885077E+04  0.00000000000E+00 0. -1.
    9000010    2    1    2  501    0  0.24362030087E+03  0.16961237995E+03 -0.31985633145E+03  0.10739614274E+04  0.98130824123E+03 0.  0.
   -9000010    2    1    2    0  502 -0.24362030087E+03 -0.16961237995E+03  0.20614184007E+03  0.10519010967E+04  0.98786752585E+03 0.  0.
        -13    1    3    3    0    0  0.61327784015E+03  0.15516628194E+02 -0.27042360156E+03  0.67043225639E+03  0.10566000000E+00 0.  1.
          4    1    3    3  501    0 -0.36965753928E+03  0.15409575175E+03 -0.49432729895E+02  0.40352917099E+03  0.00000000000E+00 0.  1.
         13    1    4    4    0    0  0.34435723830E+03  0.11875209537E+03  0.15227719817E+03  0.39480669190E+03  0.10566000000E+00 0. -1.
         -4    1    4    4    0  502 -0.58797753917E+03 -0.28836447532E+03  0.53864641899E+02  0.65709440482E+03  0.00000000000E+00 0. -1.
<mgrwt>
<rscale>  2 0.10299309E+04</rscale>
<asrwt>0</asrwt>
<pdfrwt beam="1">  1       21 0.15478062E+00 0.10315045E+04</pdfrwt>
<pdfrwt beam="2">  1       21 0.17227516E+00 0.10315045E+04</pdfrwt>
<totfact> 0.27479867E+01</totfact>
</mgrwt>
</event>
<event>
 8    1  0.7208583E-006  0.1020219E+04  0.7818608E-02  0.8765575E-01
         21   -1    0    0  503  502  0.00000000000E+00  0.00000000000E+00  0.13860017453E+04  0.13860017453E+04  0.00000000000E+00 0. -1.
         21   -1    0    0  501  503 -0.00000000000E+00 -0.00000000000E+00 -0.84559955193E+03  0.84559955193E+03  0.00000000000E+00 0. -1.
    9000010    2    1    2  501    0  0.16769021484E+03  0.10288120786E+03 -0.16342817895E+03  0.99215657970E+03  0.95862472214E+03 0.  0.
   -9000010    2    1    2    0  502 -0.16769021484E+03 -0.10288120786E+03  0.70383037230E+03  0.12394447175E+04  0.10010701592E+04 0.  0.
        -13    1    3    3    0    0 -0.25181279467E+02  0.49429619706E+03  0.65740248346E+02  0.49928410618E+03  0.10566000000E+00 0.  1.
          4    1    3    3  501    0  0.19287149431E+03 -0.39141498921E+03 -0.22916842729E+03  0.49287247353E+03  0.00000000000E+00 0.  1.
         13    1    4    4    0    0  0.21450891158E+03  0.34506225176E+03  0.15614106170E+03  0.43527241246E+03  0.10566000000E+00 0. -1.
         -4    1    4    4    0  502 -0.38219912643E+03 -0.44794345961E+03  0.54768931060E+03  0.80417230504E+03  0.00000000000E+00 0. -1.
<mgrwt>
<rscale>  2 0.10096519E+04</rscale>
<asrwt>0</asrwt>
<pdfrwt beam="1">  1       21 0.21323104E+00 0.10202186E+04</pdfrwt>
<pdfrwt beam="2">  1       21 0.13009224E+00 0.10202186E+04</pdfrwt>
<totfact> 0.21958658E+01</totfact>
</mgrwt>
</event>
<event>
 8    1  0.7208583E-006  0.1031877E+04  0.7818608E-02  0.8748928E-01
         21   -1    0    0  501  502  0.00000000000E+00  0.00000000000E+00  0.19847603061E+04  0.19847603061E+04  0.00000000000E+00 0. -1.
         21   -1    0    0  502  503 -0.00000000000E+00 -0.00000000000E+00 -0.57572335369E+03  0.57572335369E+03  0.00000000000E+00 0. -1.
    9000010    2    1    2  501    0 -0.23691751119E+03  0.79286852089E+02  0.10678829973E+04  0.14736737455E+04  0.98433932172E+03 0.  0.
   -9000010    2    1    2    0  503  0.23691751119E+03 -0.79286852089E+02  0.34115395513E+03  0.10868099143E+04  0.10011760368E+04 0.  0.
        -13    1    3    3    0    0  0.10686329137E+02  0.31648681573E+03  0.10850920357E+04  0.11303551828E+04  0.10566000000E+00 0.  1.
          4    1    3    3  501    0 -0.24760384032E+03 -0.23719996364E+03 -0.17209038427E+02  0.34331856270E+03  0.00000000000E+00 0.  1.
         13    1    4    4    0    0  0.54207414700E+03  0.20492136016E+03  0.57254212374E+02  0.58233598609E+03  0.10566000000E+00 0. -1.
         -4    1    4    4    0  503 -0.30515663581E+03 -0.28420821225E+03  0.28389974275E+03  0.50447392819E+03  0.00000000000E+00 0. -1.
<mgrwt>
<rscale>  2 0.10277705E+04</rscale>
<asrwt>0</asrwt>
<pdfrwt beam="1">  1       21 0.30534774E+00 0.10318768E+04</pdfrwt>
<pdfrwt beam="2">  1       21 0.88572825E-01 0.10318768E+04</pdfrwt>
<totfact> 0.13223505E+01</totfact>
</mgrwt>
</event>
<event>
 8    1  0.7208583E-006  0.1080838E+04  0.7818608E-02  0.8707285E-01
         21   -1    0    0  503  502  0.00000000000E+00  0.00000000000E+00  0.97486334826E+03  0.97486334826E+03  0.00000000000E+00 0. -1.
         21   -1    0    0  501  503 -0.00000000000E+00 -0.00000000000E+00 -0.15956698006E+04  0.15956698006E+04  0.00000000000E+00 0. -1.
    9000010    2    1    2  501    0  0.28017667339E+03 -0.24840618725E+03 -0.97510235112E+03  0.14556909978E+04  0.10139068418E+04 0.  0.
   -9000010    2    1    2    0  502 -0.28017667339E+03  0.24840618725E+03  0.35429589873E+03  0.11148421511E+04  0.98850535446E+03 0.  0.
        -13    1    3    3    0    0  0.55818613612E+02 -0.63300434604E+03 -0.56255469083E+03  0.84869194120E+03  0.10566000000E+00 0.  1.
          4    1    3    3  501    0  0.22435805977E+03  0.38459815879E+03 -0.41254766028E+03  0.60699905662E+03  0.00000000000E+00 0.  1.
         13    1    4    4    0    0 -0.38224139630E+03 -0.37242129961E+02 -0.23628432788E+03  0.45091657328E+03  0.10566000000E+00 0. -1.
         -4    1    4    4    0  502  0.10206472292E+03  0.28564831721E+03  0.59058022661E+03  0.66392557780E+03  0.00000000000E+00 0. -1.
<mgrwt>
<rscale>  2 0.10748407E+04</rscale>
<asrwt>0</asrwt>
<pdfrwt beam="1">  1       21 0.14997898E+00 0.10808384E+04</pdfrwt>
<pdfrwt beam="2">  1       21 0.24548766E+00 0.10808384E+04</pdfrwt>
<totfact> 0.81484273E+00</totfact>
</mgrwt>
</event>
<event>
 8    1  0.7208583E-006  0.1259799E+04  0.7818608E-02  0.8564472E-01
         21   -1    0    0  503  502  0.00000000000E+00  0.00000000000E+00  0.10492718070E+04  0.10492718070E+04  0.00000000000E+00 0.  1.
         21   -1    0    0  501  503 -0.00000000000E+00 -0.00000000000E+00 -0.19515749722E+04  0.19515749722E+04  0.00000000000E+00 0. -1.
    9000010    2    1    2  501    0 -0.67158720299E+03  0.38552424606E+03 -0.11728741155E+04  0.17212575553E+04  0.99369792468E+03 0.  0.
   -9000010    2    1    2    0  502  0.67158720299E+03 -0.38552424606E+03  0.27057095029E+03  0.12795892239E+04  0.98208025506E+03 0.  0.
        -13    1    3    3    0    0  0.14173489049E+03 -0.18755349858E+03 -0.38943422003E+03  0.45488912595E+03  0.10566000000E+00 0.  1.
          4    1    3    3  501    0 -0.81332209348E+03  0.57307774464E+03 -0.78343989544E+03  0.12663684294E+04  0.00000000000E+00 0.  1.
         13    1    4    4    0    0 -0.19346860656E+03 -0.32234023514E+03  0.14614123910E+03  0.40334923062E+03  0.10566000000E+00 0. -1.
         -4    1    4    4    0  502  0.86505580955E+03 -0.63184010920E+02  0.12442971119E+03  0.87623999332E+03  0.00000000000E+00 0. -1.
<mgrwt>
<rscale>  2 0.12575071E+04</rscale>
<asrwt>0</asrwt>
<pdfrwt beam="1">  1       21 0.16142643E+00 0.12597991E+04</pdfrwt>
<pdfrwt beam="2">  1       21 0.30024230E+00 0.12597991E+04</pdfrwt>
<totfact> 0.25170469E+00</totfact>
</mgrwt>
</event>
<event>
 8    1  0.7208583E-006  0.1176918E+04  0.7818608E-02  0.8655610E-01
         21   -1    0    0  503  502  0.00000000000E+00  0.00000000000E+00  0.14017709605E+04  0.14017709605E+04  0.00000000000E+00 0.  1.
         21   -1    0    0  501  503 -0.00000000000E+00 -0.00000000000E+00 -0.93481287597E+03  0.93481287597E+03  0.00000000000E+00 0.  1.
    9000010    2    1    2  501    0  0.16485898669E+03  0.77527385756E+02 -0.10061101663E+03  0.10299581391E+04  0.10087131458E+04 0.  0.
   -9000010    2    1    2    0  502 -0.16485898669E+03 -0.77527385756E+02  0.56756910116E+03  0.13066256974E+04  0.11627325778E+04 0.  0.
        -13    1    3    3    0    0  0.53910984752E+02  0.49950991090E+03  0.15311557287E+03  0.52522465211E+03  0.10566000000E+00 0.  1.
          4    1    3    3  501    0  0.11094800194E+03 -0.42198252514E+03 -0.25372658950E+03  0.50473348698E+03  0.00000000000E+00 0.  1.
         13    1    4    4    0    0  0.23911766072E+03 -0.52286204833E+03  0.25479943802E+03  0.62887577631E+03  0.10566000000E+00 0. -1.
         -4    1    4    4    0  502 -0.40397664741E+03  0.44533466257E+03  0.31276966314E+03  0.67774992107E+03  0.00000000000E+00 0. -1.
<mgrwt>
<rscale>  2 0.11369570E+04</rscale>
<asrwt>0</asrwt>
<pdfrwt beam="1">  1       21 0.21565707E+00 0.11769180E+04</pdfrwt>
<pdfrwt beam="2">  1       21 0.14381737E+00 0.11769180E+04</pdfrwt>
<totfact> 0.15124387E+01</totfact>
</mgrwt>
</event>
<event>
 8    1  0.7208583E-006  0.1111249E+04  0.7818608E-02  0.8683035E-01
         21   -1    0    0  501  502  0.00000000000E+00  0.00000000000E+00  0.10376817127E+04  0.10376817127E+04  0.00000000000E+00 0.  1.
         21   -1    0    0  502  503 -0.00000000000E+00 -0.00000000000E+00 -0.12229010586E+04  0.12229010586E+04  0.00000000000E+00 0.  1.
    9000010    2    1    2  501    0  0.48899039263E+00  0.47489119363E+03  0.16802014721E+03  0.11238797145E+04  0.10046655950E+04 0.  0.
   -9000010    2    1    2    0  503 -0.48899039263E+00 -0.47489119363E+03 -0.35323949314E+03  0.11367030569E+04  0.97046062005E+03 0.  0.
        -13    1    3    3    0    0  0.50143159360E+03  0.20740672198E+03  0.10249520378E+03  0.55222863865E+03  0.10566000000E+00 0.  1.
          4    1    3    3  501    0 -0.50094260321E+03  0.26748447165E+03  0.65524943434E+02  0.57165107583E+03  0.00000000000E+00 0.  1.
         13    1    4    4    0    0 -0.85077448975E+02  0.14813971733E+03 -0.46743169349E+03  0.49767052094E+03  0.10566000000E+00 0. -1.
         -4    1    4    4    0  503  0.84588458582E+02 -0.62303091096E+03  0.11419220035E+03  0.63903253592E+03  0.00000000000E+00 0. -1.
<mgrwt>
<rscale>  2 0.11034614E+04</rscale>
<asrwt>0</asrwt>
<pdfrwt beam="1">  1       21 0.15964334E+00 0.11112492E+04</pdfrwt>
<pdfrwt beam="2">  1       21 0.18813862E+00 0.11112492E+04</pdfrwt>
<totfact> 0.18175248E+01</totfact>
</mgrwt>
</event>
<event>
 8    1  0.7208583E-006  0.1017790E+04  0.7818608E-02  0.8774964E-01
         21   -1    0    0  501  502  0.00000000000E+00  0.00000000000E+00  0.22813997677E+04  0.22813997677E+04  0.00000000000E+00 0. -1.
         21   -1    0    0  502  503 -0.00000000000E+00 -0.00000000000E+00 -0.43149376302E+03  0.43149376302E+03  0.00000000000E+00 0. -1.
    9000010    2    1    2  501    0  0.13582250200E+03 -0.11098506935E+03  0.11476241582E+04  0.15339287558E+04  0.10025621088E+04 0.  0.
   -9000010    2    1    2    0  503 -0.13582250200E+03  0.11098506935E+03  0.70228184653E+03  0.11789647749E+04  0.93058729349E+03 0.  0.
        -13    1    3    3    0    0  0.19941569810E+03  0.22478168681E+03 -0.35370981190E+02  0.30256329065E+03  0.10566000000E+00 0.  1.
          4    1    3    3  501    0 -0.63593196109E+02 -0.33576675616E+03  0.11829951394E+04  0.12313654652E+04  0.00000000000E+00 0.  1.
         13    1    4    4    0    0 -0.20514243324E+03  0.50556558425E+03  0.38168791351E+03  0.66585708104E+03  0.10566000000E+00 0. -1.
         -4    1    4    4    0  503  0.69319931241E+02 -0.39458051490E+03  0.32059393302E+03  0.51310769385E+03  0.00000000000E+00 0. -1.
<mgrwt>
<rscale>  2 0.99960406E+03</rscale>
<asrwt>0</asrwt>
<pdfrwt beam="1">  1       21 0.35098457E+00 0.10177899E+04</pdfrwt>
<pdfrwt beam="2">  1       21 0.66383657E-01 0.10177899E+04</pdfrwt>
<totfact> 0.12783084E+01</totfact>
</mgrwt>
</event>
<event>
 8    1  0.7208583E-006  0.1015820E+04  0.7818608E-02  0.8766583E-01
         21   -1    0    0  503  502  0.00000000000E+00  0.00000000000E+00  0.17645237233E+04  0.17645237233E+04  0.00000000000E+00 0. -1.
         21   -1    0    0  501  503 -0.00000000000E+00 -0.00000000000E+00 -0.12704130977E+04  0.12704130977E+04  0.00000000000E+00 0. -1.
    9000010    2    1    2  501    0  0.18920135280E+02  0.65438713018E+02 -0.87934365086E+03  0.13435535774E+04  0.10135337993E+04 0.  0.
   -9000010    2    1    2    0  502 -0.18920135280E+02 -0.65438713018E+02  0.13734542764E+04  0.16913832437E+04  0.98476414988E+03 0.  0.
        -13    1    3    3    0    0 -0.41924541243E+03  0.12995990899E+03 -0.10470263636E+03  0.45124156170E+03  0.10566000000E+00 0.  1.
          4    1    3    3  501    0  0.43816554771E+03 -0.64521195969E+02 -0.77464101451E+03  0.89231201565E+03  0.00000000000E+00 0.  1.
         13    1    4    4    0    0 -0.26650411593E+03  0.19489857295E+03  0.67608521847E+02  0.33701753802E+03  0.10566000000E+00 0. -1.
         -4    1    4    4    0  502  0.24758398065E+03 -0.26033728597E+03  0.13058457545E+04  0.13543657056E+04  0.00000000000E+00 0. -1.
<mgrwt>
<rscale>  2 0.10085673E+04</rscale>
<asrwt>0</asrwt>
<pdfrwt beam="1">  1       21 0.27146519E+00 0.10158203E+04</pdfrwt>
<pdfrwt beam="2">  1       21 0.19544817E+00 0.10158203E+04</pdfrwt>
<totfact> 0.22439405E+00</totfact>
</mgrwt>
</event>
<event>
 8    1  0.7208583E-006  0.1098639E+04  0.7818608E-02  0.8688986E-01
         21   -1    0    0  501  502  0.00000000000E+00  0.00000000000E+00  0.10542258967E+04  0.10542258967E+04  0.00000000000E+00 0. -1.
         21   -1    0    0  502  503 -0.00000000000E+00 -0.00000000000E+00 -0.13754103905E+04  0.13754103905E+04  0.00000000000E+00 0. -1.
    9000010    2    1    2  501    0 -0.41493051034E+03 -0.15358783261E+03  0.34627783807E+03  0.11519184005E+04  0.10056098197E+04 0.  0.
   -9000010    2    1    2    0  503  0.41493051034E+03  0.15358783261E+03 -0.66746233187E+03  0.12777178868E+04  0.99564073991E+03 0.  0.
        -13    1    3    3    0    0 -0.54552146841E+03 -0.47303269664E+03  0.35942549860E+03  0.80656078803E+03  0.10566000000E+00 0.  1.
          4    1    3    3  501    0  0.13059095807E+03  0.31944486403E+03 -0.13147660533E+02  0.34535761243E+03  0.00000000000E+00 0.  1.
         13    1    4    4    0    0 -0.57252933399E+02  0.49351219510E+03 -0.39777122972E+03  0.63643864390E+03  0.10566000000E+00 0. -1.
         -4    1    4    4    0  503  0.47218344374E+03 -0.33992436249E+03 -0.26969110216E+03  0.64127924287E+03  0.00000000000E+00 0. -1.
<mgrwt>
<rscale>  2 0.10963525E+04</rscale>
<asrwt>0</asrwt>
<pdfrwt beam="1">  1       21 0.16218860E+00 0.10986390E+04</pdfrwt>
<pdfrwt beam="2">  1       21 0.21160160E+00 0.10986390E+04</pdfrwt>
<totfact> 0.11356926E+01</totfact>
</mgrwt>
</event>
<event>
 8    1  0.7208583E-006  0.9930504E+03  0.7818608E-02  0.8785716E-01
         21   -1    0    0  503  502  0.00000000000E+00  0.00000000000E+00  0.27917251242E+04  0.27917251242E+04  0.00000000000E+00 0. -1.
         21   -1    0    0  501  503 -0.00000000000E+00 -0.00000000000E+00 -0.42840749518E+03  0.42840749518E+03  0.00000000000E+00 0. -1.
    9000010    2    1    2  501    0  0.22621368068E+03 -0.16133925929E+03  0.48687863205E+03  0.11059836566E+04  0.95338662689E+03 0.  0.
   -9000010    2    1    2    0  502 -0.22621368068E+03  0.16133925929E+03  0.18764389969E+04  0.21141489628E+04  0.93348783694E+03 0.  0.
        -13    1    3    3    0    0 -0.14388532591E+03  0.12237610196E+03 -0.20042631500E+03  0.27540809039E+03  0.10566000000E+00 0.  1.
          4    1    3    3  501    0  0.37009900659E+03 -0.28371536125E+03  0.68730494705E+03  0.83057556618E+03  0.00000000000E+00 0.  1.
         13    1    4    4    0    0 -0.30551034324E+02 -0.20433467303E+03  0.15090136170E+02  0.20715633631E+03  0.10566000000E+00 0. -1.
         -4    1    4    4    0  502 -0.19566264635E+03  0.36567393232E+03  0.18613488608E+04  0.19069926265E+04  0.00000000000E+00 0. -1.
<mgrwt>
<rscale>  2 0.98824356E+03</rscale>
<asrwt>0</asrwt>
<pdfrwt beam="1">  1       21 0.42949616E+00 0.99305037E+03</pdfrwt>
<pdfrwt beam="2">  1       21 0.65908847E-01 0.99305037E+03</pdfrwt>
<totfact> 0.37091474E+00</totfact>
</mgrwt>
</event>
<event>
 8    1  0.7208583E-006  0.1002729E+04  0.7818608E-02  0.8772788E-01
         21   -1    0    0  501  502  0.00000000000E+00  0.00000000000E+00  0.77022327149E+03  0.77022327149E+03  0.00000000000E+00 0. -1.
         21   -1    0    0  502  503 -0.00000000000E+00 -0.00000000000E+00 -0.14207455275E+04  0.14207455275E+04  0.00000000000E+00 0. -1.
    9000010    2    1    2  501    0 -0.22361601459E+02  0.13801328049E+02 -0.80017388033E+01  0.10027613693E+04  0.10023850648E+04 0.  0.
   -9000010    2    1    2    0  503  0.22361601459E+02 -0.13801328049E+02 -0.64252051724E+03  0.11882074297E+04  0.99915652579E+03 0.  0.
        -13    1    3    3    0    0 -0.27065653767E+03 -0.39243861746E+03  0.15218921862E+03  0.50042441916E+03  0.10566000000E+00 0.  1.
          4    1    3    3  501    0  0.24829493622E+03  0.40623994551E+03 -0.16019095742E+03  0.50233695018E+03  0.00000000000E+00 0.  1.
         13    1    4    4    0    0 -0.25878483521E+03  0.34433943028E+03 -0.58909105145E+03  0.72977223313E+03  0.10566000000E+00 0. -1.
         -4    1    4    4    0  503  0.28114643667E+03 -0.35814075833E+03 -0.53429465792E+02  0.45843519656E+03  0.00000000000E+00 0. -1.
<mgrwt>
<rscale>  2 0.10019216E+04</rscale>
<asrwt>0</asrwt>
<pdfrwt beam="1">  1       21 0.11849589E+00 0.10027294E+04</pdfrwt>
<pdfrwt beam="2">  1       21 0.21857623E+00 0.10027294E+04</pdfrwt>
<totfact> 0.26169333E+01</totfact>
</mgrwt>
</event>
<event>
 8    1  0.7208583E-006  0.1018692E+04  0.7818608E-02  0.8760459E-01
         21   -1    0    0  501  502  0.00000000000E+00  0.00000000000E+00  0.16669490004E+04  0.16669490004E+04  0.00000000000E+00 0. -1.
         21   -1    0    0  502  503 -0.00000000000E+00 -0.00000000000E+00 -0.65749337735E+03  0.65749337735E+03  0.00000000000E+00 0. -1.
    9000010    2    1    2  501    0 -0.18170558059E+03  0.47091758180E+02  0.80682563828E+03  0.12995000765E+04  0.10012483640E+04 0.  0.
   -9000010    2    1    2    0  503  0.18170558059E+03 -0.47091758180E+02  0.20262998474E+03  0.10249423013E+04  0.98702242045E+03 0.  0.
        -13    1    3    3    0    0  0.31563956642E+03  0.14227107407E+03  0.70150758071E+03  0.78229297029E+03  0.10566000000E+00 0.  1.
          4    1    3    3  501    0 -0.49734514701E+03 -0.95179315889E+02  0.10531805757E+03  0.51720710618E+03  0.00000000000E+00 0.  1.
         13    1    4    4    0    0  0.57429384459E+03 -0.56554717313E+02  0.25095540715E+03  0.62927774752E+03  0.10566000000E+00 0. -1.
         -4    1    4    4    0  503 -0.39258826400E+03  0.94629591323E+01 -0.48325422410E+02  0.39566455373E+03  0.00000000000E+00 0. -1.
<mgrwt>
<rscale>  2 0.10151789E+04</rscale>
<asrwt>0</asrwt>
<pdfrwt beam="1">  1       21 0.25645369E+00 0.10186917E+04</pdfrwt>
<pdfrwt beam="2">  1       21 0.10115283E+00 0.10186917E+04</pdfrwt>
<totfact> 0.21024136E+01</totfact>
</mgrwt>
</event>
<event>
 8    1  0.7208583E-006  0.1046473E+04  0.7818608E-02  0.8771822E-01
         21   -1    0    0  503  502  0.00000000000E+00  0.00000000000E+00  0.82722369374E+03  0.82722369374E+03  0.00000000000E+00 0.  1.
         21   -1    0    0  501  503 -0.00000000000E+00 -0.00000000000E+00 -0.11882398254E+04  0.11882398254E+04  0.00000000000E+00 0.  1.
    9000010    2    1    2  501    0 -0.25123078457E+03 -0.15695175655E+03 -0.39760874652E+03  0.96835096537E+03  0.83178129085E+03 0.  0.
   -9000010    2    1    2    0  502  0.25123078457E+03  0.15695175655E+03  0.36592614873E+02  0.10471125538E+04  0.10036707228E+04 0.  0.
        -13    1    3    3    0    0 -0.45594889836E+03 -0.36326808795E+03 -0.19765323747E+03  0.61556471235E+03  0.10566000000E+00 0.  1.
          4    1    3    3  501    0  0.20471811379E+03  0.20631633140E+03 -0.19995550906E+03  0.35278625302E+03  0.00000000000E+00 0.  1.
         13    1    4    4    0    0 -0.32815023295E+03 -0.78488833248E+02  0.21088393774E+03  0.39788832439E+03  0.10566000000E+00 0. -1.
         -4    1    4    4    0  502  0.57938101752E+03  0.23544058980E+03 -0.17429132287E+03  0.64922422938E+03  0.00000000000E+00 0. -1.
<mgrwt>
<rscale>  2 0.10029534E+04</rscale>
<asrwt>0</asrwt>
<pdfrwt beam="1">  1       21 0.12726518E+00 0.10464730E+04</pdfrwt>
<pdfrwt beam="2">  1       21 0.18280613E+00 0.10464730E+04</pdfrwt>
<totfact> 0.40285234E+01</totfact>
</mgrwt>
</event>
<event>
 8    1  0.7208583E-006  0.1066714E+04  0.7818608E-02  0.8716965E-01
         21   -1    0    0  501  502  0.00000000000E+00  0.00000000000E+00  0.15709208236E+04  0.15709208236E+04  0.00000000000E+00 0. -1.
         21   -1    0    0  502  503 -0.00000000000E+00 -0.00000000000E+00 -0.78235056390E+03  0.78235056390E+03  0.00000000000E+00 0. -1.
    9000010    2    1    2  501    0  0.32158282132E+03 -0.20142148371E+03  0.73867862050E+03  0.12975069419E+04  0.99694133971E+03 0.  0.
   -9000010    2    1    2    0  503 -0.32158282132E+03  0.20142148371E+03  0.49891639219E+02  0.10557644456E+04  0.98395287686E+03 0.  0.
        -13    1    3    3    0    0  0.16181195693E+02 -0.37476501243E+03  0.85002174353E+03  0.92911119962E+03  0.10566000000E+00 0.  1.
          4    1    3    3  501    0  0.30540162563E+03  0.17334352872E+03 -0.11134312302E+03  0.36839574228E+03  0.00000000000E+00 0.  1.
         13    1    4    4    0    0 -0.13489065580E+03 -0.37346807552E+03 -0.14181836378E+03  0.42164718892E+03  0.10566000000E+00 0. -1.
         -4    1    4    4    0  503 -0.18669216552E+03  0.57488955923E+03  0.19171000300E+03  0.63411725669E+03  0.00000000000E+00 0. -1.
<mgrwt>
<rscale>  2 0.10636685E+04</rscale>
<asrwt>0</asrwt>
<pdfrwt beam="1">  1       21 0.24168013E+00 0.10667137E+04</pdfrwt>
<pdfrwt beam="2">  1       21 0.12036163E+00 0.10667137E+04</pdfrwt>
<totfact> 0.16625737E+01</totfact>
</mgrwt>
</event>
<event>
 8    1  0.7208583E-006  0.1128985E+04  0.7818608E-02  0.8666975E-01
         21   -1    0    0  501  502  0.00000000000E+00  0.00000000000E+00  0.99284806284E+03  0.99284806284E+03  0.00000000000E+00 0. -1.
         21   -1    0    0  502  503 -0.00000000000E+00 -0.00000000000E+00 -0.16162931203E+04  0.16162931203E+04  0.00000000000E+00 0. -1.
    9000010    2    1    2  501    0 -0.46830231485E+03  0.12952759151E+03  0.30106131638E+03  0.11684372554E+04  0.10190796085E+04 0.  0.
   -9000010    2    1    2    0  503  0.46830231485E+03 -0.12952759151E+03 -0.92450637382E+03  0.14407039277E+04  0.99238667722E+03 0.  0.
        -13    1    3    3    0    0  0.13586090744E+03  0.41717693964E+01  0.50155728560E+03  0.51964921990E+03  0.10566000000E+00 0.  1.
          4    1    3    3  501    0 -0.60416322229E+03  0.12535582212E+03 -0.20049596922E+03  0.64878803548E+03  0.00000000000E+00 0.  1.
         13    1    4    4    0    0  0.23760895115E+03 -0.46973370120E+03 -0.12397882931E+03  0.54081283731E+03  0.10566000000E+00 0. -1.
         -4    1    4    4    0  503  0.23069336370E+03  0.34020610969E+03 -0.80052754451E+03  0.89989109044E+03  0.00000000000E+00 0. -1.
<mgrwt>
<rscale>  2 0.11229280E+04</rscale>
<asrwt>0</asrwt>
<pdfrwt beam="1">  1       21 0.15274586E+00 0.11289853E+04</pdfrwt>
<pdfrwt beam="2">  1       21 0.24866048E+00 0.11289853E+04</pdfrwt>
<totfact> 0.72199980E+00</totfact>
</mgrwt>
</event>
<event>
 8    1  0.7208583E-006  0.1056101E+04  0.7818608E-02  0.8731406E-01
         21   -1    0    0  503  502  0.00000000000E+00  0.00000000000E+00  0.74522768199E+03  0.74522768199E+03  0.00000000000E+00 0.  1.
         21   -1    0    0  501  503 -0.00000000000E+00 -0.00000000000E+00 -0.15516730588E+04  0.15516730588E+04  0.00000000000E+00 0.  1.
    9000010    2    1    2  501    0 -0.18721279035E+03 -0.13972968685E+03 -0.70693033691E+03  0.12708660605E+04  0.10299403032E+04 0.  0.
   -9000010    2    1    2    0  502  0.18721279035E+03  0.13972968685E+03 -0.99515039868E+02  0.10260346802E+04  0.99411815578E+03 0.  0.
        -13    1    3    3    0    0  0.40520339083E+03 -0.16129809090E+03 -0.16076337740E+03  0.46481365809E+03  0.10566000000E+00 0.  1.
          4    1    3    3  501    0 -0.59241618118E+03  0.21568404046E+02 -0.54616695951E+03  0.80605240241E+03  0.00000000000E+00 0.  1.
         13    1    4    4    0    0  0.17910712704E+03 -0.39161209346E+03 -0.21637875205E+03  0.48193274448E+03  0.10566000000E+00 0. -1.
         -4    1    4    4    0  502  0.81056633065E+01  0.53134178031E+03  0.11686371218E+03  0.54410193577E+03  0.00000000000E+00 0. -1.
<mgrwt>
<rscale>  2 0.10472650E+04</rscale>
<asrwt>0</asrwt>
<pdfrwt beam="1">  1       21 0.11465041E+00 0.10561013E+04</pdfrwt>
<pdfrwt beam="2">  1       21 0.23871893E+00 0.10561013E+04</pdfrwt>
<totfact> 0.20048376E+01</totfact>
</mgrwt>
</event>
<event>
 8    1  0.7208583E-006  0.1072560E+04  0.7818608E-02  0.8716552E-01
         21   -1    0    0  501  502  0.00000000000E+00  0.00000000000E+00  0.28281407205E+04  0.28281407205E+04  0.00000000000E+00 0.  1.
         21   -1    0    0  502  503 -0.00000000000E+00 -0.00000000000E+00 -0.72112771230E+03  0.72112771230E+03  0.00000000000E+00 0.  1.
    9000010    2    1    2  501    0 -0.32361410496E+03 -0.20617082306E+03  0.22573157731E+04  0.24991716241E+04  0.10015746654E+04 0.  0.
   -9000010    2    1    2    0  503  0.32361410496E+03  0.20617082306E+03 -0.15030276490E+03  0.10500968086E+04  0.96585707491E+03 0.  0.
        -13    1    3    3    0    0  0.25498055013E+03 -0.30531105534E+03  0.14330665487E+04  0.14872490261E+04  0.10566000000E+00 0.  1.
          4    1    3    3  501    0 -0.57859465509E+03  0.99140232280E+02  0.82424922443E+03  0.10119225981E+04  0.00000000000E+00 0.  1.
         13    1    4    4    0    0  0.34981990802E+02 -0.23402492461E+03  0.28258644073E+03  0.36857361905E+03  0.10566000000E+00 0. -1.
         -4    1    4    4    0  503  0.28863211416E+03  0.44019574767E+03 -0.43288920562E+03  0.68152318958E+03  0.00000000000E+00 0. -1.
<mgrwt>
<rscale>  2 0.10641423E+04</rscale>
<asrwt>0</asrwt>
<pdfrwt beam="1">  1       21 0.43509857E+00 0.10725597E+04</pdfrwt>
<pdfrwt beam="2">  1       21 0.11094273E+00 0.10725597E+04</pdfrwt>
<totfact> 0.90196165E-01</totfact>
</mgrwt>
</event>
<event>
 8    1  0.7208583E-006  0.1084054E+04  0.7818608E-02  0.8720401E-01
         21   -1    0    0  501  502  0.00000000000E+00  0.00000000000E+00  0.10205084762E+04  0.10205084762E+04  0.00000000000E+00 0. -1.
         21   -1    0    0  502  503 -0.00000000000E+00 -0.00000000000E+00 -0.15692122073E+04  0.15692122073E+04  0.00000000000E+00 0. -1.
    9000010    2    1    2  501    0 -0.10700508130E+03 -0.23492862560E+03  0.45885831729E+03  0.11771676214E+04  0.10528680388E+04 0.  0.
   -9000010    2    1    2    0  503  0.10700508130E+03  0.23492862560E+03 -0.10075620484E+04  0.14125530620E+04  0.95576321609E+03 0.  0.
        -13    1    3    3    0    0  0.27233607519E+02 -0.63568640645E+03  0.15003736812E+03  0.65372019987E+03  0.10566000000E+00 0.  1.
          4    1    3    3  501    0 -0.13423868882E+03  0.40075778084E+03  0.30882094917E+03  0.52344742155E+03  0.00000000000E+00 0.  1.
         13    1    4    4    0    0 -0.32154230178E+03 -0.20994713242E+02 -0.41144361059E+02  0.32484319206E+03  0.10566000000E+00 0. -1.
         -4    1    4    4    0  503  0.42854738308E+03  0.25592333884E+03 -0.96641768731E+03  0.10877098700E+04  0.00000000000E+00 0. -1.
<mgrwt>
<rscale>  2 0.10597375E+04</rscale>
<asrwt>0</asrwt>
<pdfrwt beam="1">  1       21 0.15700130E+00 0.10840538E+04</pdfrwt>
<pdfrwt beam="2">  1       21 0.24141726E+00 0.10840538E+04</pdfrwt>
<totfact> 0.75622726E+00</totfact>
</mgrwt>
</event>
<event>
 8    1  0.7208583E-006  0.1083153E+04  0.7818608E-02  0.8702383E-01
         21   -1    0    0  501  502  0.00000000000E+00  0.00000000000E+00  0.26595693558E+04  0.26595693558E+04  0.00000000000E+00 0. -1.
         21   -1    0    0  502  503 -0.00000000000E+00 -0.00000000000E+00 -0.45435463792E+03  0.45435463792E+03  0.00000000000E+00 0. -1.
    9000010    2    1    2  501    0 -0.33942067634E+03  0.12615560211E+03  0.14126861602E+04  0.17801413129E+04  0.10208326381E+04 0.  0.
   -9000010    2    1    2    0  503  0.33942067634E+03 -0.12615560211E+03  0.79252855759E+03  0.13337826808E+04  0.10098282496E+04 0.  0.
        -13    1    3    3    0    0  0.28181036371E+03  0.32519107438E+03  0.53497164543E+03  0.68655734541E+03  0.10566000000E+00 0.  1.
          4    1    3    3  501    0 -0.62123104005E+03 -0.19903547226E+03  0.87771451481E+03  0.10935839674E+04  0.00000000000E+00 0.  1.
         13    1    4    4    0    0  0.41188974506E+03 -0.42046994238E+03  0.12651682655E+03  0.60204206921E+03  0.10566000000E+00 0. -1.
         -4    1    4    4    0  503 -0.72469068718E+02  0.29431434027E+03  0.66601173104E+03  0.73174061161E+03  0.00000000000E+00 0. -1.
<mgrwt>
<rscale>  2 0.10805526E+04</rscale>
<asrwt>0</asrwt>
<pdfrwt beam="1">  1       21 0.40916451E+00 0.10831532E+04</pdfrwt>
<pdfrwt beam="2">  1       21 0.69900715E-01 0.10831532E+04</pdfrwt>
<totfact> 0.43723023E+00</totfact>
</mgrwt>
</event>
<event>
 8    1  0.7208583E-006  0.1087987E+04  0.7818608E-02  0.8704332E-01
         21   -1    0    0  503  502  0.00000000000E+00  0.00000000000E+00  0.24207325517E+04  0.24207325517E+04  0.00000000000E+00 0.  1.
         21   -1    0    0  501  503 -0.00000000000E+00 -0.00000000000E+00 -0.26712723179E+04  0.26712723179E+04  0.00000000000E+00 0.  1.
    9000010    2    1    2  501    0  0.38445578335E+03 -0.18875624846E+03 -0.24349953513E+04  0.26516030096E+04  0.95831153030E+03 0.  0.
   -9000010    2    1    2    0  502 -0.38445578335E+03  0.18875624846E+03  0.21844555851E+04  0.24404018601E+04  0.10001399226E+04 0.  0.
        -13    1    3    3    0    0  0.64871522663E+03  0.34494055927E+02 -0.11494418767E+04  0.13203173574E+04  0.10566000000E+00 0.  1.
          4    1    3    3  501    0 -0.26425944328E+03 -0.22325030439E+03 -0.12855534746E+04  0.13312856522E+04  0.00000000000E+00 0.  1.
         13    1    4    4    0    0  0.33217366259E+03 -0.27379970703E+02  0.79773310005E+03  0.86456180519E+03  0.10566000000E+00 0. -1.
         -4    1    4    4    0  502 -0.71662944595E+03  0.21613621917E+03  0.13867224850E+04  0.15758400549E+04  0.00000000000E+00 0. -1.
<mgrwt>
<rscale>  2 0.10782770E+04</rscale>
<asrwt>0</asrwt>
<pdfrwt beam="1">  1       21 0.37242039E+00 0.10879867E+04</pdfrwt>
<pdfrwt beam="2">  1       21 0.41096497E+00 0.10879867E+04</pdfrwt>
<totfact> 0.12151850E-02</totfact>
</mgrwt>
</event>
<event>
 8    1  0.7208583E-006  0.1442106E+04  0.7818608E-02  0.8443869E-01
         21   -1    0    0  503  502  0.00000000000E+00  0.00000000000E+00  0.23131978265E+04  0.23131978265E+04  0.00000000000E+00 0.  1.
         21   -1    0    0  501  503 -0.00000000000E+00 -0.00000000000E+00 -0.15442928313E+04  0.15442928313E+04  0.00000000000E+00 0. -1.
    9000010    2    1    2  501    0  0.37367141449E+03 -0.98241225992E+03 -0.86341465232E+03  0.16793864219E+04  0.98493132647E+03 0.  0.
   -9000010    2    1    2    0  502 -0.37367141449E+03  0.98241225992E+03  0.16323196475E+04  0.21781042358E+04  0.98737351394E+03 0.  0.
        -13    1    3    3    0    0  0.18996630442E+03 -0.94538264566E+03 -0.10425633810E+04  0.14201316693E+04  0.10566000000E+00 0.  1.
          4    1    3    3  501    0  0.18370511008E+03 -0.37029614256E+02  0.17914872865E+03  0.25925475266E+03  0.00000000000E+00 0.  1.
         13    1    4    4    0    0 -0.18622873222E+03  0.12723863829E+03  0.11631943257E+04  0.11848594272E+04  0.10566000000E+00 0. -1.
         -4    1    4    4    0  502 -0.18744268227E+03  0.85517362163E+03  0.46912532183E+03  0.99324480862E+03  0.00000000000E+00 0. -1.
<mgrwt>
<rscale>  2 0.14416884E+04</rscale>
<asrwt>0</asrwt>
<pdfrwt beam="1">  1       21 0.35587659E+00 0.14421063E+04</pdfrwt>
<pdfrwt beam="2">  1       21 0.23758351E+00 0.14421063E+04</pdfrwt>
<totfact> 0.24645058E-01</totfact>
</mgrwt>
</event>
<event>
 8    1  0.7208583E-006  0.1079412E+04  0.7818608E-02  0.8716993E-01
         21   -1    0    0  501  502  0.00000000000E+00  0.00000000000E+00  0.30950824348E+04  0.30950824348E+04  0.00000000000E+00 0. -1.
         21   -1    0    0  502  503 -0.00000000000E+00 -0.00000000000E+00 -0.44415854135E+03  0.44415854135E+03  0.00000000000E+00 0. -1.
    9000010    2    1    2  501    0 -0.14341700392E+03  0.87087008238E+02  0.56508596770E+03  0.12183809740E+04  0.10662914531E+04 0.  0.
   -9000010    2    1    2    0  503  0.14341700392E+03 -0.87087008238E+02  0.20858379257E+04  0.23208600021E+04  0.10037523165E+04 0.  0.
        -13    1    3    3    0    0 -0.38530914226E+03  0.47930574505E+03  0.37212020837E+03  0.71879801960E+03  0.10566000000E+00 0.  1.
          4    1    3    3  501    0  0.24189213834E+03 -0.39221873681E+03  0.19296575933E+03  0.49958295444E+03  0.00000000000E+00 0.  1.
         13    1    4    4    0    0 -0.28571301469E+03 -0.36932385811E+03  0.13070290646E+04  0.13879326445E+04  0.10566000000E+00 0. -1.
         -4    1    4    4    0  503  0.42913001861E+03  0.28223684987E+03  0.77880886115E+03  0.93292735757E+03  0.00000000000E+00 0. -1.
<mgrwt>
<rscale>  2 0.10636363E+04</rscale>
<asrwt>0</asrwt>
<pdfrwt beam="1">  1       21 0.47616651E+00 0.10794119E+04</pdfrwt>
<pdfrwt beam="2">  1       21 0.68332085E-01 0.10794119E+04</pdfrwt>
<totfact> 0.15846247E+00</totfact>
</mgrwt>
</event>
<event>
 8    1  0.7208583E-006  0.1041487E+04  0.7818608E-02  0.8752919E-01
         21   -1    0    0  503  502  0.00000000000E+00  0.00000000000E+00  0.15973042949E+04  0.15973042949E+04  0.00000000000E+00 0. -1.
         21   -1    0    0  501  503 -0.00000000000E+00 -0.00000000000E+00 -0.89118158787E+03  0.89118158787E+03  0.00000000000E+00 0. -1.
    9000010    2    1    2  501    0 -0.62772136706E+02 -0.41052443293E+02 -0.32401474773E+03  0.10236042428E+04  0.96806737623E+03 0.  0.
   -9000010    2    1    2    0  502  0.62772136706E+02  0.41052443293E+02  0.10301374547E+04  0.14648816399E+04  0.10387826525E+04 0.  0.
        -13    1    3    3    0    0 -0.25747104785E+02 -0.37217698767E+03 -0.51777202572E+03  0.63817435340E+03  0.10566000000E+00 0.  1.
          4    1    3    3  501    0 -0.37025031921E+02  0.33112454438E+03  0.19375727799E+03  0.38542988941E+03  0.00000000000E+00 0.  1.
         13    1    4    4    0    0 -0.37204001171E+03  0.34342370684E+03  0.57917135252E+03  0.76928088464E+03  0.10566000000E+00 0. -1.
         -4    1    4    4    0  502  0.43481214841E+03 -0.30237126355E+03  0.45096610220E+03  0.69560075529E+03  0.00000000000E+00 0. -1.
<mgrwt>
<rscale>  2 0.10233912E+04</rscale>
<asrwt>0</asrwt>
<pdfrwt beam="1">  1       21 0.24573912E+00 0.10414869E+04</pdfrwt>
<pdfrwt beam="2">  1       21 0.13710486E+00 0.10414869E+04</pdfrwt>
<totfact> 0.10736659E+01</totfact>
</mgrwt>
</event>
<event>
 8    1  0.7208583E-006  0.9897157E+03  0.7818608E-02  0.8796860E-01
         21   -1    0    0  501  502  0.00000000000E+00  0.00000000000E+00  0.13200734044E+04  0.13200734044E+04  0.00000000000E+00 0. -1.
         21   -1    0    0  502  503 -0.00000000000E+00 -0.00000000000E+00 -0.77918182576E+03  0.77918182576E+03  0.00000000000E+00 0. -1.
    9000010    2    1    2  501    0  0.85588784856E+02  0.13188947499E+03  0.58972654808E+03  0.11083354256E+04  0.92515390096E+03 0.  0.
   -9000010    2    1    2    0  503 -0.85588784856E+02 -0.13188947499E+03 -0.48834969408E+02  0.99091980457E+03  0.97714734362E+03 0.  0.
        -13    1    3    3    0    0 -0.35162060266E+03 -0.10019470822E+03  0.47641917341E+03  0.60054247787E+03  0.10566000000E+00 0.  1.
          4    1    3    3  501    0  0.43720938751E+03  0.23208418321E+03  0.11330737466E+03  0.50779294775E+03  0.00000000000E+00 0.  1.
         13    1    4    4    0    0 -0.14389618404E+03 -0.38735447461E+03 -0.38494212871E+03  0.56473892588E+03  0.10566000000E+00 0. -1.
         -4    1    4    4    0  503  0.58307399183E+02  0.25546499962E+03  0.33610715930E+03  0.42618087869E+03  0.00000000000E+00 0. -1.
<mgrwt>
<rscale>  2 0.97663444E+03</rscale>
<asrwt>0</asrwt>
<pdfrwt beam="1">  1       21 0.20308822E+00 0.98971572E+03</pdfrwt>
<pdfrwt beam="2">  1       21 0.11987413E+00 0.98971572E+03</pdfrwt>
<totfact> 0.33380793E+01</totfact>
</mgrwt>
</event>
<event>
 8    1  0.7208583E-006  0.1022879E+04  0.7818608E-02  0.8755196E-01
         21   -1    0    0  501  502  0.00000000000E+00  0.00000000000E+00  0.10353126383E+04  0.10353126383E+04  0.00000000000E+00 0.  1.
         21   -1    0    0  502  503 -0.00000000000E+00 -0.00000000000E+00 -0.10044291957E+04  0.10044291957E+04  0.00000000000E+00 0.  1.
    9000010    2    1    2  501    0 -0.11773370516E+03 -0.37924392374E+02 -0.25314674171E+02  0.10231921006E+04  0.10153727183E+04 0.  0.
   -9000010    2    1    2    0  503  0.11773370516E+03  0.37924392374E+02  0.56198116732E+02  0.10165497334E+04  0.10074302196E+04 0.  0.
        -13    1    3    3    0    0 -0.50422007665E+03 -0.26557415784E+03  0.33160135383E+02  0.57084772467E+03  0.10566000000E+00 0.  1.
          4    1    3    3  501    0  0.38648637150E+03  0.22764976547E+03 -0.58474809554E+02  0.45234437592E+03  0.00000000000E+00 0.  1.
         13    1    4    4    0    0  0.31734781069E+03 -0.41349966089E+03  0.19666719777E+02  0.52161134337E+03  0.10566000000E+00 0. -1.
         -4    1    4    4    0  503 -0.19961410553E+03  0.45142405326E+03  0.36531396955E+02  0.49493839006E+03  0.00000000000E+00 0. -1.
<mgrwt>
<rscale>  2 0.10209022E+04</rscale>
<asrwt>0</asrwt>
<pdfrwt beam="1">  1       21 0.15927887E+00 0.10228789E+04</pdfrwt>
<pdfrwt beam="2">  1       21 0.15452757E+00 0.10228789E+04</pdfrwt>
<totfact> 0.35671897E+01</totfact>
</mgrwt>
</event>
<event>
 8    1  0.7208583E-006  0.1086276E+04  0.7818608E-02  0.8704092E-01
         21   -1    0    0  501  502  0.00000000000E+00  0.00000000000E+00  0.60166500788E+03  0.60166500788E+03  0.00000000000E+00 0. -1.
         21   -1    0    0  502  503 -0.00000000000E+00 -0.00000000000E+00 -0.21731650936E+04  0.21731650936E+04  0.00000000000E+00 0. -1.
    9000010    2    1    2  501    0  0.23533587641E+03 -0.21064439341E+03 -0.28990980345E+03  0.10948097070E+04  0.10073760793E+04 0.  0.
   -9000010    2    1    2    0  503 -0.23533587641E+03  0.21064439341E+03 -0.12815902823E+04  0.16800203945E+04  0.10393463518E+04 0.  0.
        -13    1    3    3    0    0  0.15914092176E+03 -0.59756089651E+03 -0.32556336415E+03  0.69885361362E+03  0.10566000000E+00 0.  1.
          4    1    3    3  501    0  0.76194954645E+02  0.38691650311E+03  0.35653560708E+02  0.39595609338E+03  0.00000000000E+00 0.  1.
         13    1    4    4    0    0 -0.26988561542E+03  0.59767693788E+03 -0.56834562036E+03  0.86779762781E+03  0.10566000000E+00 0. -1.
         -4    1    4    4    0  503  0.34549739010E+02 -0.38703254448E+03 -0.71324466193E+03  0.81222276669E+03  0.00000000000E+00 0. -1.
<mgrwt>
<rscale>  2 0.10785568E+04</rscale>
<asrwt>0</asrwt>
<pdfrwt beam="1">  1       21 0.92563848E-01 0.10862757E+04</pdfrwt>
<pdfrwt beam="2">  1       21 0.33433309E+00 0.10862757E+04</pdfrwt>
<totfact> 0.72981198E+00</totfact>
</mgrwt>
</event>
<event>
 8    1  0.7208583E-006  0.1122945E+04  0.7818608E-02  0.8669481E-01
         21   -1    0    0  501  502  0.00000000000E+00  0.00000000000E+00  0.16209621916E+04  0.16209621916E+04  0.00000000000E+00 0. -1.
         21   -1    0    0  502  503 -0.00000000000E+00 -0.00000000000E+00 -0.84378081771E+03  0.84378081771E+03  0.00000000000E+00 0. -1.
    9000010    2    1    2  501    0 -0.22205229542E+03 -0.45219476696E+03  0.20885840710E+02  0.11108639414E+04  0.98984602277E+03 0.  0.
   -9000010    2    1    2    0  503  0.22205229542E+03  0.45219476696E+03  0.75629553321E+03  0.13538790679E+04  0.10036026444E+04 0.  0.
        -13    1    3    3    0    0 -0.48383622731E+03  0.83535619219E+02 -0.10343543795E+03  0.50177145746E+03  0.10566000000E+00 0.  1.
          4    1    3    3  501    0  0.26178393188E+03 -0.53573038618E+03  0.12432127866E+03  0.60909248394E+03  0.00000000000E+00 0.  1.
         13    1    4    4    0    0 -0.33048511717E+03  0.34725927650E+03  0.10024327965E+03  0.48975314605E+03  0.10566000000E+00 0. -1.
         -4    1    4    4    0  503  0.55253741259E+03  0.10493549046E+03  0.65605225356E+03  0.86412592189E+03  0.00000000000E+00 0. -1.
<mgrwt>
<rscale>  2 0.11198630E+04</rscale>
<asrwt>0</asrwt>
<pdfrwt beam="1">  1       21 0.24937880E+00 0.11229451E+04</pdfrwt>
<pdfrwt beam="2">  1       21 0.12981243E+00 0.11229451E+04</pdfrwt>
<totfact> 0.11632136E+01</totfact>
</mgrwt>
</event>
<event>
 8    1  0.7208583E-006  0.1097830E+04  0.7818608E-02  0.8701455E-01
         21   -1    0    0  501  502  0.00000000000E+00  0.00000000000E+00  0.14946414012E+04  0.14946414012E+04  0.00000000000E+00 0. -1.
         21   -1    0    0  502  503 -0.00000000000E+00 -0.00000000000E+00 -0.87780704453E+03  0.87780704453E+03  0.00000000000E+00 0. -1.
    9000010    2    1    2  501    0  0.19697083310E+03 -0.20182662960E+03 -0.11710503560E+03  0.11040576943E+04  0.10609893051E+04 0.  0.
   -9000010    2    1    2    0  503 -0.19697083310E+03  0.20182662960E+03  0.73393939224E+03  0.12683907514E+04  0.99529722660E+03 0.  0.
        -13    1    3    3    0    0  0.13308730409E+03  0.40867003011E+03  0.11967111151E+03  0.44614415845E+03  0.10566000000E+00 0.  1.
          4    1    3    3  501    0  0.63883529013E+02 -0.61049665971E+03 -0.23677614711E+03  0.65791353584E+03  0.00000000000E+00 0.  1.
         13    1    4    4    0    0 -0.50919768058E+03 -0.15802097709E+03  0.52472714546E+03  0.74805848399E+03  0.10566000000E+00 0. -1.
         -4    1    4    4    0  503  0.31222684748E+03  0.35984760668E+03  0.20921224677E+03  0.52033226742E+03  0.00000000000E+00 0. -1.
<mgrwt>
<rscale>  2 0.10816374E+04</rscale>
<asrwt>0</asrwt>
<pdfrwt beam="1">  1       21 0.22994483E+00 0.10978296E+04</pdfrwt>
<pdfrwt beam="2">  1       21 0.13504724E+00 0.10978296E+04</pdfrwt>
<totfact> 0.14488744E+01</totfact>
</mgrwt>
</event>
<event>
 8    1  0.7208583E-006  0.1146440E+04  0.7818608E-02  0.8649192E-01
         21   -1    0    0  503  502  0.00000000000E+00  0.00000000000E+00  0.11682935065E+04  0.11682935065E+04  0.00000000000E+00 0.  1.
         21   -1    0    0  501  503 -0.00000000000E+00 -0.00000000000E+00 -0.16048484188E+04  0.16048484188E+04  0.00000000000E+00 0.  1.
    9000010    2    1    2  501    0  0.42554850774E+03 -0.33220124775E+03 -0.98059987038E+03  0.15041620014E+04  0.10047278334E+04 0.  0.
   -9000010    2    1    2    0  502 -0.42554850774E+03  0.33220124775E+03  0.54404495800E+03  0.12689799239E+04  0.10113732889E+04 0.  0.
        -13    1    3    3    0    0  0.82174074535E+02  0.91020247528E+02 -0.95045327795E+03  0.95833121034E+03  0.10566000000E+00 0.  1.
          4    1    3    3  501    0  0.34337443321E+03 -0.42322149528E+03 -0.30146592426E+02  0.54583079107E+03  0.00000000000E+00 0.  1.
         13    1    4    4    0    0 -0.67436623849E+03  0.13626649510E+03  0.60098312575E+02  0.69061581189E+03  0.10566000000E+00 0. -1.
         -4    1    4    4    0  502  0.24881773075E+03  0.19593475265E+03  0.48394664543E+03  0.57836411200E+03  0.00000000000E+00 0. -1.
<mgrwt>
<rscale>  2 0.11449728E+04</rscale>
<asrwt>0</asrwt>
<pdfrwt beam="1">  1       21 0.17973746E+00 0.11464402E+04</pdfrwt>
<pdfrwt beam="2">  1       21 0.24689976E+00 0.11464402E+04</pdfrwt>
<totfact> 0.43693631E+00</totfact>
</mgrwt>
</event>
<event>
 8    1  0.7208583E-006  0.1008214E+04  0.7818608E-02  0.8768464E-01
         21   -1    0    0  501  502  0.00000000000E+00  0.00000000000E+00  0.79476650674E+03  0.79476650674E+03  0.00000000000E+00 0.  1.
         21   -1    0    0  502  503 -0.00000000000E+00 -0.00000000000E+00 -0.12775879587E+04  0.12775879587E+04  0.00000000000E+00 0.  1.
    9000010    2    1    2  501    0  0.84715951097E+02 -0.66698712471E+02 -0.16536653086E+03  0.10216856458E+04  0.10024320220E+04 0.  0.
   -9000010    2    1    2    0  503 -0.84715951097E+02  0.66698712471E+02 -0.31745492105E+03  0.10506688196E+04  0.99574184955E+03 0.  0.
        -13    1    3    3    0    0  0.15256451872E+03  0.33855140120E+03 -0.40221375656E+03  0.54742022319E+03  0.10566000000E+00 0.  1.
          4    1    3    3  501    0 -0.67848567622E+02 -0.40525011367E+03  0.23684722569E+03  0.47426542261E+03  0.00000000000E+00 0.  1.
         13    1    4    4    0    0 -0.38645793234E+03  0.38804987347E+03 -0.25961269110E+03  0.60607854138E+03  0.10566000000E+00 0. -1.
         -4    1    4    4    0  503  0.30174198124E+03 -0.32135116100E+03 -0.57842229948E+02  0.44459027822E+03  0.00000000000E+00 0. -1.
<mgrwt>
<rscale>  2 0.10065470E+04</rscale>
<asrwt>0</asrwt>
<pdfrwt beam="1">  1       21 0.12227177E+00 0.10082140E+04</pdfrwt>
<pdfrwt beam="2">  1       21 0.19655199E+00 0.10082140E+04</pdfrwt>
<totfact> 0.35363814E+01</totfact>
</mgrwt>
</event>
<event>
 8    1  0.7208583E-006  0.1095945E+04  0.7818608E-02  0.8699651E-01
         21   -1    0    0  501  502  0.00000000000E+00  0.00000000000E+00  0.24285829681E+04  0.24285829681E+04  0.00000000000E+00 0. -1.
         21   -1    0    0  502  503 -0.00000000000E+00 -0.00000000000E+00 -0.62195724405E+03  0.62195724405E+03  0.00000000000E+00 0. -1.
    9000010    2    1    2  501    0 -0.10529988036E+03  0.27220983419E+03  0.17278007176E+03  0.11094814263E+04  0.10563663302E+04 0.  0.
   -9000010    2    1    2    0  503  0.10529988036E+03 -0.27220983419E+03  0.16338456523E+04  0.19410587858E+04  0.10065144489E+04 0.  0.
        -13    1    3    3    0    0 -0.11355363992E+03  0.35405150270E+03  0.58279272957E+03  0.69129897476E+03  0.10566000000E+00 0.  1.
          4    1    3    3  501    0  0.82537595606E+01 -0.81841668512E+02 -0.41001265780E+03  0.41818245158E+03  0.00000000000E+00 0.  1.
         13    1    4    4    0    0  0.88836233684E+01 -0.21563745936E+03 -0.75060233045E+02  0.22850050852E+03  0.10566000000E+00 0. -1.
         -4    1    4    4    0  503  0.96416256987E+02 -0.56572374826E+02  0.17089058854E+04  0.17125582773E+04  0.00000000000E+00 0. -1.
<mgrwt>
<rscale>  2 0.10837514E+04</rscale>
<asrwt>0</asrwt>
<pdfrwt beam="1">  1       21 0.37362814E+00 0.10959453E+04</pdfrwt>
<pdfrwt beam="2">  1       21 0.95685731E-01 0.10959453E+04</pdfrwt>
<totfact> 0.35464026E+00</totfact>
</mgrwt>
</event>
<event>
 8    1  0.7208583E-006  0.1156301E+04  0.7818608E-02  0.8647067E-01
         21   -1    0    0  501  502  0.00000000000E+00  0.00000000000E+00  0.16945963218E+04  0.16945963218E+04  0.00000000000E+00 0. -1.
         21   -1    0    0  502  503 -0.00000000000E+00 -0.00000000000E+00 -0.79963395556E+03  0.79963395556E+03  0.00000000000E+00 0. -1.
    9000010    2    1    2  501    0 -0.47404963003E+03 -0.20555566026E+03  0.18454526269E+03  0.11371290344E+04  0.99600667951E+03 0.  0.
   -9000010    2    1    2    0  503  0.47404963003E+03  0.20555566026E+03  0.71041710353E+03  0.13571012430E+04  0.10344346966E+04 0.  0.
        -13    1    3    3    0    0 -0.73947220120E+03 -0.16518611349E+02  0.29023040712E+03  0.79456006774E+03  0.10566000000E+00 0.  1.
          4    1    3    3  501    0  0.26542257116E+03 -0.18903704891E+03 -0.10568514443E+03  0.34256896663E+03  0.00000000000E+00 0.  1.
         13    1    4    4    0    0 -0.22589664383E+03  0.37337682726E+03  0.27776059174E+03  0.51729151000E+03  0.10566000000E+00 0. -1.
         -4    1    4    4    0  503  0.69994627386E+03 -0.16782116701E+03  0.43265651179E+03  0.83980973296E+03  0.00000000000E+00 0. -1.
<mgrwt>
<rscale>  2 0.11476423E+04</rscale>
<asrwt>0</asrwt>
<pdfrwt beam="1">  1       21 0.26070713E+00 0.11563007E+04</pdfrwt>
<pdfrwt beam="2">  1       21 0.12302061E+00 0.11563007E+04</pdfrwt>
<totfact> 0.11148819E+01</totfact>
</mgrwt>
</event>
<event>
 8    1  0.7208583E-006  0.1052696E+04  0.7818608E-02  0.8731660E-01
         21   -1    0    0  503  502  0.00000000000E+00  0.00000000000E+00  0.15347971274E+04  0.15347971274E+04  0.00000000000E+00 0. -1.
         21   -1    0    0  501  503 -0.00000000000E+00 -0.00000000000E+00 -0.75189160644E+03  0.75189160644E+03  0.00000000000E+00 0. -1.
    9000010    2    1    2  501    0  0.25767413470E+03 -0.61995602518E+02  0.11472843918E+03  0.10589295466E+04  0.10187883762E+04 0.  0.
   -9000010    2    1    2    0  502 -0.25767413470E+03  0.61995602518E+02  0.66817708182E+03  0.12277591873E+04  0.99533541826E+03 0.  0.
        -13    1    3    3    0    0  0.13204966630E+03  0.37969920196E+02  0.56469996529E+03  0.58117543924E+03  0.10566000000E+00 0.  1.
          4    1    3    3  501    0  0.12562446840E+03 -0.99965522714E+02 -0.44997152611E+03  0.47775410737E+03  0.00000000000E+00 0.  1.
         13    1    4    4    0    0 -0.21298358337E+03 -0.26773134826E+03 -0.12766449543E+03  0.36515793321E+03  0.10566000000E+00 0. -1.
         -4    1    4    4    0  502 -0.44690551333E+02  0.32972695078E+03  0.79584157725E+03  0.86260125407E+03  0.00000000000E+00 0. -1.
<mgrwt>
<rscale>  2 0.10469796E+04</rscale>
<asrwt>0</asrwt>
<pdfrwt beam="1">  1       21 0.23612263E+00 0.10526961E+04</pdfrwt>
<pdfrwt beam="2">  1       21 0.11567563E+00 0.10526961E+04</pdfrwt>
<totfact> 0.20458855E+01</totfact>
</mgrwt>
</event>
<event>
 8    1  0.7208583E-006  0.1074568E+04  0.7818608E-02  0.8759499E-01
         21   -1    0    0  501  502  0.00000000000E+00  0.00000000000E+00  0.64855567527E+03  0.64855567527E+03  0.00000000000E+00 0.  1.
         21   -1    0    0  502  503 -0.00000000000E+00 -0.00000000000E+00 -0.18383354004E+04  0.18383354004E+04  0.00000000000E+00 0.  1.
    9000010    2    1    2  501    0 -0.24688642767E+03  0.32777863775E+03 -0.72161864493E+02  0.10769879220E+04  0.99312834317E+03 0.  0.
   -9000010    2    1    2    0  503  0.24688642767E+03 -0.32777863775E+03 -0.11176178607E+04  0.14099031536E+04  0.75522544758E+03 0.  0.
        -13    1    3    3    0    0 -0.30456113217E+03  0.46810851861E+03  0.32894772052E+03  0.64814325764E+03  0.10566000000E+00 0.  1.
          4    1    3    3  501    0  0.57674704504E+02 -0.14032988086E+03 -0.40110958501E+03  0.42884466440E+03  0.00000000000E+00 0.  1.
         13    1    4    4    0    0  0.25871820177E+03 -0.44006052988E+03 -0.31599310559E+03  0.60036658120E+03  0.10566000000E+00 0. -1.
         -4    1    4    4    0  503 -0.11831774101E+02  0.11228189213E+03 -0.80162475507E+03  0.80953657244E+03  0.00000000000E+00 0. -1.
<mgrwt>
<rscale>  2 0.10162207E+04</rscale>
<asrwt>0</asrwt>
<pdfrwt beam="1">  1       21 0.99777798E-01 0.10745677E+04</pdfrwt>
<pdfrwt beam="2">  1       21 0.28282083E+00 0.10745677E+04</pdfrwt>
<totfact> 0.13927585E+01</totfact>
</mgrwt>
</event>
<event>
 8    1  0.7208583E-006  0.1019111E+04  0.7818608E-02  0.8760297E-01
         21   -1    0    0  503  502  0.00000000000E+00  0.00000000000E+00  0.80316726308E+03  0.80316726308E+03  0.00000000000E+00 0.  1.
         21   -1    0    0  501  503 -0.00000000000E+00 -0.00000000000E+00 -0.16673407398E+04  0.16673407398E+04  0.00000000000E+00 0.  1.
    9000010    2    1    2  501    0 -0.19997491398E+01 -0.16484288485E+03 -0.10294314546E+04  0.14380853438E+04  0.99054689969E+03 0.  0.
   -9000010    2    1    2    0  502  0.19997491398E+01  0.16484288485E+03  0.16525797797E+03  0.10324226591E+04  0.10056884070E+04 0.  0.
        -13    1    3    3    0    0  0.35180781597E+03 -0.36297952031E+03 -0.26023948265E+03  0.56854856524E+03  0.10566000000E+00 0.  1.
          4    1    3    3  501    0 -0.35380756511E+03  0.19813663546E+03 -0.76919197199E+03  0.86953677853E+03  0.00000000000E+00 0.  1.
         13    1    4    4    0    0 -0.15596220255E+03  0.38011428242E+03  0.47198159515E+03  0.62576170676E+03  0.10566000000E+00 0. -1.
         -4    1    4    4    0  502  0.15796195169E+03 -0.21527139757E+03 -0.30672361718E+03  0.40666095231E+03  0.00000000000E+00 0. -1.
<mgrwt>
<rscale>  2 0.10153551E+04</rscale>
<asrwt>0</asrwt>
<pdfrwt beam="1">  1       21 0.12356420E+00 0.10191106E+04</pdfrwt>
<pdfrwt beam="2">  1       21 0.25651395E+00 0.10191106E+04</pdfrwt>
<totfact> 0.12174797E+01</totfact>
</mgrwt>
</event>
<event>
 8    1  0.7208583E-006  0.1090040E+04  0.7818608E-02  0.8709578E-01
         21   -1    0    0  501  502  0.00000000000E+00  0.00000000000E+00  0.85492724058E+03  0.85492724058E+03  0.00000000000E+00 0.  1.
         21   -1    0    0  502  503 -0.00000000000E+00 -0.00000000000E+00 -0.15505062335E+04  0.15505062335E+04  0.00000000000E+00 0.  1.
    9000010    2    1    2  501    0 -0.20756042976E+02 -0.22166709645E+03 -0.83836260845E+03  0.13751507034E+04  0.10670616096E+04 0.  0.
   -9000010    2    1    2    0  503  0.20756042976E+02  0.22166709645E+03  0.14278361551E+03  0.10302827707E+04  0.99575514653E+03 0.  0.
        -13    1    3    3    0    0 -0.33488985976E+03  0.32038444358E+03 -0.36470571283E+03  0.58975221745E+03  0.10566000000E+00 0.  1.
          4    1    3    3  501    0  0.31413381678E+03 -0.54205154003E+03 -0.47365689562E+03  0.78539848591E+03  0.00000000000E+00 0.  1.
         13    1    4    4    0    0 -0.73450875241E+01 -0.23337361160E+03 -0.30976247693E+03  0.38790462252E+03  0.10566000000E+00 0. -1.
         -4    1    4    4    0  503  0.28101130500E+02  0.45504070805E+03  0.45254609244E+03  0.64237814821E+03  0.00000000000E+00 0. -1.
<mgrwt>
<rscale>  2 0.10721812E+04</rscale>
<asrwt>0</asrwt>
<pdfrwt beam="1">  1       21 0.13152727E+00 0.10900402E+04</pdfrwt>
<pdfrwt beam="2">  1       21 0.23853942E+00 0.10900402E+04</pdfrwt>
<totfact> 0.13541346E+01</totfact>
</mgrwt>
</event>
<event>
 8    1  0.7208583E-006  0.1060005E+04  0.7818608E-02  0.8748138E-01
         21   -1    0    0  501  502  0.00000000000E+00  0.00000000000E+00  0.10817532920E+04  0.10817532920E+04  0.00000000000E+00 0.  1.
         21   -1    0    0  502  503 -0.00000000000E+00 -0.00000000000E+00 -0.18138283467E+04  0.18138283467E+04  0.00000000000E+00 0.  1.
    9000010    2    1    2  501    0  0.18857460462E+03 -0.47870859018E+02 -0.13677201071E+04  0.16595979511E+04  0.91964942623E+03 0.  0.
   -9000010    2    1    2    0  503 -0.18857460462E+03  0.47870859018E+02  0.63564505243E+03  0.12359836876E+04  0.10419976213E+04 0.  0.
        -13    1    3    3    0    0  0.51567601491E+03  0.11347069510E+03 -0.10525384601E+04  0.11775544880E+04  0.10566000000E+00 0.  1.
          4    1    3    3  501    0 -0.32710141029E+03 -0.16134155412E+03 -0.31518164699E+03  0.48204346308E+03  0.00000000000E+00 0.  1.
         13    1    4    4    0    0 -0.46533050497E+03 -0.25116086645E+03  0.62064772390E+02  0.53241553962E+03  0.10566000000E+00 0. -1.
         -4    1    4    4    0  503  0.27675590035E+03  0.29903172547E+03  0.57358028004E+03  0.70356814799E+03  0.00000000000E+00 0. -1.
<mgrwt>
<rscale>  2 0.10286400E+04</rscale>
<asrwt>0</asrwt>
<pdfrwt beam="1">  1       21 0.16642359E+00 0.10600052E+04</pdfrwt>
<pdfrwt beam="2">  1       21 0.27905051E+00 0.10600052E+04</pdfrwt>
<totfact> 0.33765070E+00</totfact>
</mgrwt>
</event>
<event>
 8    1  0.7208583E-006  0.1029393E+04  0.7818608E-02  0.8788012E-01
         21   -1    0    0  503  502  0.00000000000E+00  0.00000000000E+00  0.46835207840E+03  0.46835207840E+03  0.00000000000E+00 0. -1.
         21   -1    0    0  501  503 -0.00000000000E+00 -0.00000000000E+00 -0.19631690534E+04  0.19631690534E+04  0.00000000000E+00 0. -1.
    9000010    2    1    2  501    0 -0.16982872415E+03  0.40901462401E+02 -0.86924286025E+03  0.12269493143E+04  0.84811953435E+03 0.  0.
   -9000010    2    1    2    0  502  0.16982872415E+03 -0.40901462401E+02 -0.62557411471E+03  0.12045718175E+04  0.10144631907E+04 0.  0.
        -13    1    3    3    0    0 -0.42485124703E+03 -0.23700627354E+03 -0.53316671809E+03  0.72175987437E+03  0.10566000000E+00 0.  1.
          4    1    3    3  501    0  0.25502252288E+03  0.27790773594E+03 -0.33607614216E+03  0.50518943992E+03  0.00000000000E+00 0.  1.
         13    1    4    4    0    0  0.19665846064E+03 -0.88256805271E+02  0.24841026208E+03  0.32889433453E+03  0.10566000000E+00 0. -1.
         -4    1    4    4    0  502 -0.26829736489E+02  0.47355342870E+02 -0.87398437679E+03  0.87567748294E+03  0.00000000000E+00 0. -1.
<mgrwt>
<rscale>  2 0.98583832E+03</rscale>
<asrwt>0</asrwt>
<pdfrwt beam="1">  1       21 0.72054167E-01 0.10293932E+04</pdfrwt>
<pdfrwt beam="2">  1       21 0.30202600E+00 0.10293932E+04</pdfrwt>
<totfact> 0.23181924E+01</totfact>
</mgrwt>
</event>
<event>
 8    1  0.7208583E-006  0.1075842E+04  0.7818608E-02  0.8718103E-01
         21   -1    0    0  503  502  0.00000000000E+00  0.00000000000E+00  0.15047868306E+04  0.15047868306E+04  0.00000000000E+00 0.  1.
         21   -1    0    0  501  503 -0.00000000000E+00 -0.00000000000E+00 -0.85451513784E+03  0.85451513784E+03  0.00000000000E+00 0.  1.
    9000010    2    1    2  501    0 -0.13177753346E+03 -0.12735909313E+03 -0.12877624475E+03  0.10310132418E+04  0.10063892521E+04 0.  0.
   -9000010    2    1    2    0  502  0.13177753346E+03  0.12735909313E+03  0.77904793749E+03  0.13282887266E+04  0.10601177271E+04 0.  0.
        -13    1    3    3    0    0  0.27624202376E+03  0.28761057440E+02  0.30698099780E+03  0.41397366860E+03  0.10566000000E+00 0.  1.
          4    1    3    3  501    0 -0.40801955722E+03 -0.15612015057E+03 -0.43575724256E+03  0.61703957323E+03  0.00000000000E+00 0.  1.
         13    1    4    4    0    0 -0.46677196013E+03  0.46893748303E+02  0.38822942303E+03  0.60893118040E+03  0.10566000000E+00 0. -1.
         -4    1    4    4    0  502  0.59854949359E+03  0.80465344824E+02  0.39081851446E+03  0.71935754618E+03  0.00000000000E+00 0. -1.
<mgrwt>
<rscale>  2 0.10623650E+04</rscale>
<asrwt>0</asrwt>
<pdfrwt beam="1">  1       21 0.23150567E+00 0.10758416E+04</pdfrwt>
<pdfrwt beam="2">  1       21 0.13146387E+00 0.10758416E+04</pdfrwt>
<totfact> 0.15334007E+01</totfact>
</mgrwt>
</event>
<event>
 8    1  0.7208583E-006  0.1022911E+04  0.7818608E-02  0.8760060E-01
         21   -1    0    0  503  502  0.00000000000E+00  0.00000000000E+00  0.17786046198E+04  0.17786046198E+04  0.00000000000E+00 0.  1.
         21   -1    0    0  501  503 -0.00000000000E+00 -0.00000000000E+00 -0.57196209360E+03  0.57196209360E+03  0.00000000000E+00 0.  1.
    9000010    2    1    2  501    0  0.20904758821E+02  0.38436709326E+02  0.61438910231E+03  0.11685723637E+04  0.99306244042E+03 0.  0.
   -9000010    2    1    2    0  502 -0.20904758821E+02 -0.38436709326E+02  0.59225342386E+03  0.11819943497E+04  0.10219746254E+04 0.  0.
        -13    1    3    3    0    0  0.31871861509E+03  0.36916816224E+03  0.52131233434E+03  0.71388601942E+03  0.10566000000E+00 0.  1.
          4    1    3    3  501    0 -0.29781385627E+03 -0.33073145292E+03  0.93076767972E+02  0.45468634427E+03  0.00000000000E+00 0.  1.
         13    1    4    4    0    0  0.49000979590E+03 -0.50192430680E+02  0.40508496445E+03  0.63774816328E+03  0.10566000000E+00 0. -1.
         -4    1    4    4    0  502 -0.51091455472E+03  0.11755721353E+02  0.18716845941E+03  0.54424618640E+03  0.00000000000E+00 0. -1.
<mgrwt>
<rscale>  2 0.10156118E+04</rscale>
<asrwt>0</asrwt>
<pdfrwt beam="1">  1       21 0.27363148E+00 0.10229108E+04</pdfrwt>
<pdfrwt beam="2">  1       21 0.87994169E-01 0.10229108E+04</pdfrwt>
<totfact> 0.22629246E+01</totfact>
</mgrwt>
</event>
<event>
 8    1  0.7208583E-006  0.1120104E+04  0.7818608E-02  0.8675466E-01
         21   -1    0    0  503  502  0.00000000000E+00  0.00000000000E+00  0.28953807956E+04  0.28953807956E+04  0.00000000000E+00 0. -1.
         21   -1    0    0  501  503 -0.00000000000E+00 -0.00000000000E+00 -0.65544430477E+03  0.65544430477E+03  0.00000000000E+00 0. -1.
    9000010    2    1    2  501    0  0.34575070245E+03  0.20559313708E+03  0.69913843411E+02  0.11222834819E+04  0.10453804006E+04 0.  0.
   -9000010    2    1    2    0  502 -0.34575070245E+03 -0.20559313708E+03  0.21700226475E+04  0.24285416186E+04  0.10134120664E+04 0.  0.
        -13    1    3    3    0    0 -0.12474939853E+02  0.31628051037E+03 -0.40702460618E+03  0.51561422262E+03  0.10566000000E+00 0.  1.
          4    1    3    3  501    0  0.35822564230E+03 -0.11068737329E+03  0.47693844959E+03  0.60666925924E+03  0.00000000000E+00 0.  1.
         13    1    4    4    0    0 -0.58513182918E+03 -0.43576611900E+03  0.17277432913E+04  0.18754648116E+04  0.10566000000E+00 0. -1.
         -4    1    4    4    0  502  0.23938112674E+03  0.23017298192E+03  0.44227935618E+03  0.55307680692E+03  0.00000000000E+00 0. -1.
<mgrwt>
<rscale>  2 0.11125845E+04</rscale>
<asrwt>0</asrwt>
<pdfrwt beam="1">  1       21 0.44544319E+00 0.11201037E+04</pdfrwt>
<pdfrwt beam="2">  1       21 0.10083759E+00 0.11201037E+04</pdfrwt>
<totfact> 0.97655051E-01</totfact>
</mgrwt>
</event>
<event>
 8    1  0.7208583E-006  0.1043433E+04  0.7818608E-02  0.8739330E-01
         21   -1    0    0  503  502  0.00000000000E+00  0.00000000000E+00  0.22211807356E+04  0.22211807356E+04  0.00000000000E+00 0. -1.
         21   -1    0    0  501  503 -0.00000000000E+00 -0.00000000000E+00 -0.48345486912E+03  0.48345486912E+03  0.00000000000E+00 0. -1.
    9000010    2    1    2  501    0  0.19479949716E+03  0.90003844417E+02  0.77727384887E+03  0.13011178491E+04  0.10211295143E+04 0.  0.
   -9000010    2    1    2    0  502 -0.19479949716E+03 -0.90003844417E+02  0.96045201763E+03  0.14035177556E+04  0.10006730116E+04 0.  0.
        -13    1    3    3    0    0  0.35941029314E+03 -0.39331920719E+03  0.40311809847E+03  0.66811673384E+03  0.10566000000E+00 0.  1.
          4    1    3    3  501    0 -0.16461079598E+03  0.48332305160E+03  0.37415575040E+03  0.63300111526E+03  0.00000000000E+00 0.  1.
         13    1    4    4    0    0  0.16078710587E+03  0.37852812335E+03  0.54788135536E+03  0.68506205872E+03  0.10566000000E+00 0. -1.
         -4    1    4    4    0  502 -0.35558660303E+03 -0.46853196777E+03  0.41257066228E+03  0.71845569692E+03  0.00000000000E+00 0. -1.
<mgrwt>
<rscale>  2 0.10383943E+04</rscale>
<asrwt>0</asrwt>
<pdfrwt beam="1">  1       21 0.34172011E+00 0.10434333E+04</pdfrwt>
<pdfrwt beam="2">  1       21 0.74377674E-01 0.10434333E+04</pdfrwt>
<totfact> 0.11267296E+01</totfact>
</mgrwt>
</event>
<event>
 8    1  0.7208583E-006  0.1044536E+04  0.7818608E-02  0.8747508E-01
         21   -1    0    0  501  502  0.00000000000E+00  0.00000000000E+00  0.77341832603E+03  0.77341832603E+03  0.00000000000E+00 0. -1.
         21   -1    0    0  502  503 -0.00000000000E+00 -0.00000000000E+00 -0.14534970350E+04  0.14534970350E+04  0.00000000000E+00 0. -1.
    9000010    2    1    2  501    0  0.94389233437E+02  0.37840657777E+02 -0.65338045224E+03  0.11820382981E+04  0.97977919962E+03 0.  0.
   -9000010    2    1    2    0  503 -0.94389233437E+02 -0.37840657777E+02 -0.26698256738E+02  0.10448770630E+04  0.10395739690E+04 0.  0.
        -13    1    3    3    0    0  0.30765733255E+03  0.38489651358E+03 -0.11337001776E+03  0.50561955315E+03  0.10566000000E+00 0.  1.
          4    1    3    3  501    0 -0.21326809912E+03 -0.34705585580E+03 -0.54001043449E+03  0.67641874494E+03  0.00000000000E+00 0.  1.
         13    1    4    4    0    0 -0.15119882647E+03  0.42021273032E+03 -0.27127119234E+03  0.52252071233E+03  0.10566000000E+00 0. -1.
         -4    1    4    4    0  503  0.56809593036E+02 -0.45805338810E+03  0.24457293560E+03  0.52235635063E+03  0.00000000000E+00 0. -1.
<mgrwt>
<rscale>  2 0.10293339E+04</rscale>
<asrwt>0</asrwt>
<pdfrwt beam="1">  1       21 0.11898743E+00 0.10445359E+04</pdfrwt>
<pdfrwt beam="2">  1       21 0.22361493E+00 0.10445359E+04</pdfrwt>
<totfact> 0.23481500E+01</totfact>
</mgrwt>
</event>
<event>
 8    1  0.7208583E-006  0.1262736E+04  0.7818608E-02  0.8561560E-01
         21   -1    0    0  503  502  0.00000000000E+00  0.00000000000E+00  0.27521721957E+04  0.27521721957E+04  0.00000000000E+00 0.  1.
         21   -1    0    0  501  503 -0.00000000000E+00 -0.00000000000E+00 -0.82684267778E+03  0.82684267778E+03  0.00000000000E+00 0. -1.
    9000010    2    1    2  501    0 -0.68174555417E+03 -0.31589589892E+03 -0.21635631334E+02  0.12584167514E+04  0.10092459562E+04 0.  0.
   -9000010    2    1    2    0  502  0.68174555417E+03  0.31589589892E+03  0.19469651493E+04  0.23205981221E+04  0.10148571980E+04 0.  0.
        -13    1    3    3    0    0  0.15566293149E+03 -0.28018219607E+03  0.21684343924E+03  0.38698074828E+03  0.10566000000E+00 0.  1.
          4    1    3    3  501    0 -0.83740848566E+03 -0.35713702844E+02 -0.23847907057E+03  0.87143600312E+03  0.00000000000E+00 0.  1.
         13    1    4    4    0    0  0.48660339415E+03 -0.17892354567E+03  0.32086714160E+03  0.60971487772E+03  0.10566000000E+00 0. -1.
         -4    1    4    4    0  502  0.19514216003E+03  0.49481944458E+03  0.16260980077E+04  0.17108832444E+04  0.00000000000E+00 0. -1.
<mgrwt>
<rscale>  2 0.12616082E+04</rscale>
<asrwt>0</asrwt>
<pdfrwt beam="1">  1       21 0.42341110E+00 0.12627361E+04</pdfrwt>
<pdfrwt beam="2">  1       21 0.12720657E+00 0.12627361E+04</pdfrwt>
<totfact> 0.71159068E-01</totfact>
</mgrwt>
</event>
<event>
 8    1  0.7208583E-006  0.1035011E+04  0.7818608E-02  0.8743891E-01
         21   -1    0    0  503  502  0.00000000000E+00  0.00000000000E+00  0.59602896467E+03  0.59602896467E+03  0.00000000000E+00 0. -1.
         21   -1    0    0  501  503 -0.00000000000E+00 -0.00000000000E+00 -0.18043994738E+04  0.18043994738E+04  0.00000000000E+00 0. -1.
    9000010    2    1    2  501    0 -0.17278626805E+03  0.18121262833E+03 -0.72839139880E+03  0.12656233565E+04  0.10042685595E+04 0.  0.
   -9000010    2    1    2    0  502  0.17278626805E+03 -0.18121262833E+03 -0.47997911030E+03  0.11348050819E+04  0.99735125033E+03 0.  0.
        -13    1    3    3    0    0  0.29109244056E+03  0.41608497892E+03 -0.43476710357E+03  0.66849380263E+03  0.10566000000E+00 0.  1.
          4    1    3    3  501    0 -0.46387870861E+03 -0.23487235060E+03 -0.29362429523E+03  0.59712955389E+03  0.00000000000E+00 0.  1.
         13    1    4    4    0    0 -0.25335811371E+03 -0.17713329448E+03 -0.61452983029E+03  0.68790512520E+03  0.10566000000E+00 0. -1.
         -4    1    4    4    0  502  0.42614438176E+03 -0.40793338524E+01  0.13455071999E+03  0.44689995673E+03  0.00000000000E+00 0. -1.
<mgrwt>
<rscale>  2 0.10333296E+04</rscale>
<asrwt>0</asrwt>
<pdfrwt beam="1">  1       21 0.91696765E-01 0.10350113E+04</pdfrwt>
<pdfrwt beam="2">  1       21 0.27759991E+00 0.10350113E+04</pdfrwt>
<totfact> 0.19021796E+01</totfact>
</mgrwt>
</event>
<event>
 8    1  0.7208583E-006  0.1009362E+04  0.7818608E-02  0.8766435E-01
         21   -1    0    0  503  502  0.00000000000E+00  0.00000000000E+00  0.86042497033E+03  0.86042497033E+03  0.00000000000E+00 0.  1.
         21   -1    0    0  501  503 -0.00000000000E+00 -0.00000000000E+00 -0.11965468487E+04  0.11965468487E+04  0.00000000000E+00 0.  1.
    9000010    2    1    2  501    0  0.95835013062E+02  0.29686311109E+01 -0.51002368443E+02  0.10081126999E+04  0.10022458838E+04 0.  0.
   -9000010    2    1    2    0  502 -0.95835013062E+02 -0.29686311109E+01 -0.28511950994E+03  0.10488591191E+04  0.10047980664E+04 0.  0.
        -13    1    3    3    0    0 -0.62452896599E+02  0.35586052487E+03 -0.36227658910E+03  0.51164579118E+03  0.10566000000E+00 0.  1.
          4    1    3    3  501    0  0.15828790966E+03 -0.35289189376E+03  0.31127422066E+03  0.49646690874E+03  0.00000000000E+00 0.  1.
         13    1    4    4    0    0 -0.15954723081E+03  0.25597148939E+03  0.28781307293E+03  0.41690898089E+03  0.10566000000E+00 0. -1.
         -4    1    4    4    0  502  0.63712217749E+02 -0.25894012050E+03 -0.57293258286E+03  0.63195013822E+03  0.00000000000E+00 0. -1.
<mgrwt>
<rscale>  2 0.10087266E+04</rscale>
<asrwt>0</asrwt>
<pdfrwt beam="1">  1       21 0.13237307E+00 0.10093623E+04</pdfrwt>
<pdfrwt beam="2">  1       21 0.18408413E+00 0.10093623E+04</pdfrwt>
<totfact> 0.35406049E+01</totfact>
</mgrwt>
</event>
<event>
 8    1  0.7208583E-006  0.1188527E+04  0.7818608E-02  0.8657138E-01
         21   -1    0    0  503  502  0.00000000000E+00  0.00000000000E+00  0.10658143141E+04  0.10658143141E+04  0.00000000000E+00 0.  1.
         21   -1    0    0  501  503 -0.00000000000E+00 -0.00000000000E+00 -0.11138552909E+04  0.11138552909E+04  0.00000000000E+00 0.  1.
    9000010    2    1    2  501    0 -0.12845681547E+03  0.55094638983E+02  0.24149696245E+02  0.98895223416E+03  0.97872710238E+03 0.  0.
   -9000010    2    1    2    0  502  0.12845681547E+03 -0.55094638983E+02 -0.72190673024E+02  0.11907173708E+04  0.11802795394E+04 0.  0.
        -13    1    3    3    0    0  0.17399016893E+03  0.45359161051E+03 -0.23704477772E+02  0.48639473829E+03  0.10566000000E+00 0.  1.
          4    1    3    3  501    0 -0.30244698440E+03 -0.39849697152E+03  0.47854174016E+02  0.50255749587E+03  0.00000000000E+00 0.  1.
         13    1    4    4    0    0  0.48065820367E+03  0.33456615267E+03  0.17358048492E+03  0.61081667887E+03  0.10566000000E+00 0. -1.
         -4    1    4    4    0  502 -0.35220138821E+03 -0.38966079166E+03 -0.24577115794E+03  0.57990069192E+03  0.00000000000E+00 0. -1.
<mgrwt>
<rscale>  2 0.11350585E+04</rscale>
<asrwt>0</asrwt>
<pdfrwt beam="1">  1       21 0.16397143E+00 0.11885270E+04</pdfrwt>
<pdfrwt beam="2">  1       21 0.17136235E+00 0.11885270E+04</pdfrwt>
<totfact> 0.22527733E+01</totfact>
</mgrwt>
</event>
<event>
 8    1  0.7208583E-006  0.1001085E+04  0.7818608E-02  0.8781327E-01
         21   -1    0    0  501  502  0.00000000000E+00  0.00000000000E+00  0.13605718685E+04  0.13605718685E+04  0.00000000000E+00 0. -1.
         21   -1    0    0  502  503 -0.00000000000E+00 -0.00000000000E+00 -0.76029598925E+03  0.76029598925E+03  0.00000000000E+00 0. -1.
    9000010    2    1    2  501    0 -0.10842908083E+03  0.23106431819E+03  0.56959773747E+03  0.11517868127E+04  0.96799984224E+03 0.  0.
   -9000010    2    1    2    0  503  0.10842908083E+03 -0.23106431819E+03  0.30678141800E+02  0.96908104512E+03  0.93436039027E+03 0.  0.
        -13    1    3    3    0    0 -0.43200651118E+03 -0.18714779748E+03  0.23678580569E+03  0.52699283937E+03  0.10566000000E+00 0.  1.
          4    1    3    3  501    0  0.32357743035E+03  0.41821211568E+03  0.33281193178E+03  0.62479397329E+03  0.00000000000E+00 0.  1.
         13    1    4    4    0    0  0.38488069371E+03 -0.38054835501E+03 -0.20234827816E+03  0.57783651298E+03  0.10566000000E+00 0. -1.
         -4    1    4    4    0  503 -0.27645161288E+03  0.14948403682E+03  0.23302641996E+03  0.39124453214E+03  0.00000000000E+00 0. -1.
<mgrwt>
<rscale>  2 0.99286185E+03</rscale>
<asrwt>0</asrwt>
<pdfrwt beam="1">  1       21 0.20931875E+00 0.10010851E+04</pdfrwt>
<pdfrwt beam="2">  1       21 0.11696861E+00 0.10010851E+04</pdfrwt>
<totfact> 0.31911123E+01</totfact>
</mgrwt>
</event>
<event>
 8    1  0.7208583E-006  0.1011368E+04  0.7818608E-02  0.8766052E-01
         21   -1    0    0  503  502  0.00000000000E+00  0.00000000000E+00  0.10886283794E+04  0.10886283794E+04  0.00000000000E+00 0.  1.
         21   -1    0    0  501  503 -0.00000000000E+00 -0.00000000000E+00 -0.10464882957E+04  0.10464882957E+04  0.00000000000E+00 0.  1.
    9000010    2    1    2  501    0  0.70333290955E+01  0.11422547233E+03 -0.33294415317E+03  0.10647611197E+04  0.10048718857E+04 0.  0.
   -9000010    2    1    2    0  502 -0.70333290955E+01 -0.11422547233E+03  0.37508423686E+03  0.10703555553E+04  0.99592966806E+03 0.  0.
        -13    1    3    3    0    0  0.16657827179E+02  0.79377099192E+01  0.36159741412E+03  0.36206793770E+03  0.10566000000E+00 0.  1.
          4    1    3    3  501    0 -0.96244980835E+01  0.10628776241E+03 -0.69454156729E+03  0.70269318205E+03  0.00000000000E+00 0.  1.
         13    1    4    4    0    0  0.35482756353E+01  0.35112952210E+03 -0.13827103457E+03  0.37739027772E+03  0.10566000000E+00 0. -1.
         -4    1    4    4    0  502 -0.10581604731E+02 -0.46535499443E+03  0.51335527143E+03  0.69296527756E+03  0.00000000000E+00 0. -1.
<mgrwt>
<rscale>  2 0.10091392E+04</rscale>
<asrwt>0</asrwt>
<pdfrwt beam="1">  1       21 0.16748129E+00 0.10113676E+04</pdfrwt>
<pdfrwt beam="2">  1       21 0.16099820E+00 0.10113676E+04</pdfrwt>
<totfact> 0.26741906E+01</totfact>
</mgrwt>
</event>
<event>
 8    1  0.7208583E-006  0.1050656E+04  0.7818608E-02  0.8734552E-01
         21   -1    0    0  501  502  0.00000000000E+00  0.00000000000E+00  0.14645503144E+04  0.14645503144E+04  0.00000000000E+00 0. -1.
         21   -1    0    0  502  503 -0.00000000000E+00 -0.00000000000E+00 -0.10788567029E+04  0.10788567029E+04  0.00000000000E+00 0. -1.
    9000010    2    1    2  501    0 -0.27408538192E+03  0.70317269662E+02  0.90986410574E+03  0.13692550910E+04  0.98333081831E+03 0.  0.
   -9000010    2    1    2    0  503  0.27408538192E+03 -0.70317269662E+02 -0.52417049430E+03  0.11741519264E+04  0.10118353246E+04 0.  0.
        -13    1    3    3    0    0  0.32877244802E+03  0.22796427398E+03  0.35061379222E+03  0.53196717497E+03  0.10566000000E+00 0.  1.
          4    1    3    3  501    0 -0.60285782995E+03 -0.15764700432E+03  0.55925031352E+03  0.83728791600E+03  0.00000000000E+00 0.  1.
         13    1    4    4    0    0  0.65455976305E+03 -0.45523087113E+02 -0.24013432984E+03  0.69870261371E+03  0.10566000000E+00 0. -1.
         -4    1    4    4    0  503 -0.38047438113E+03 -0.24794182548E+02 -0.28403616446E+03  0.47544931266E+03  0.00000000000E+00 0. -1.
<mgrwt>
<rscale>  2 0.10437322E+04</rscale>
<asrwt>0</asrwt>
<pdfrwt beam="1">  1       21 0.22531543E+00 0.10506560E+04</pdfrwt>
<pdfrwt beam="2">  1       21 0.16597795E+00 0.10506560E+04</pdfrwt>
<totfact> 0.83971882E+00</totfact>
</mgrwt>
</event>
<event>
 8    1  0.7208583E-006  0.1196408E+04  0.7818608E-02  0.8624467E-01
         21   -1    0    0  501  502  0.00000000000E+00  0.00000000000E+00  0.77410175898E+03  0.77410175898E+03  0.00000000000E+00 0. -1.
         21   -1    0    0  502  503 -0.00000000000E+00 -0.00000000000E+00 -0.21149740888E+04  0.21149740888E+04  0.00000000000E+00 0. -1.
    9000010    2    1    2  501    0  0.22750821357E+03  0.39130662992E+03 -0.36855369368E+02  0.11193718971E+04  0.10231100918E+04 0.  0.
   -9000010    2    1    2    0  503 -0.22750821357E+03 -0.39130662992E+03 -0.13040169604E+04  0.17697039506E+04  0.11074795591E+04 0.  0.
        -13    1    3    3    0    0 -0.52992090002E+02  0.69273609416E+03 -0.10295706420E+03  0.70234722608E+03  0.10566000000E+00 0.  1.
          4    1    3    3  501    0  0.28050030357E+03 -0.30142946424E+03  0.66101694829E+02  0.41702467107E+03  0.00000000000E+00 0.  1.
         13    1    4    4    0    0 -0.34339740281E+03 -0.36981403192E+03 -0.46638115275E+02  0.50681290377E+03  0.10566000000E+00 0. -1.
         -4    1    4    4    0  503  0.11588918924E+03 -0.21492597991E+02 -0.12573788451E+04  0.12628910468E+04  0.00000000000E+00 0. -1.
<mgrwt>
<rscale>  2 0.11765061E+04</rscale>
<asrwt>0</asrwt>
<pdfrwt beam="1">  1       21 0.11909258E+00 0.11964079E+04</pdfrwt>
<pdfrwt beam="2">  1       21 0.32538063E+00 0.11964079E+04</pdfrwt>
<totfact> 0.42067912E+00</totfact>
</mgrwt>
</event>
<event>
 8    1  0.7208583E-006  0.1015957E+04  0.7818608E-02  0.8762193E-01
         21   -1    0    0  501  502  0.00000000000E+00  0.00000000000E+00  0.81011939590E+03  0.81011939590E+03  0.00000000000E+00 0. -1.
         21   -1    0    0  502  503 -0.00000000000E+00 -0.00000000000E+00 -0.13343919339E+04  0.13343919339E+04  0.00000000000E+00 0. -1.
    9000010    2    1    2  501    0 -0.93129567999E+02 -0.72121515989E+02 -0.11730611948E+02  0.10160251369E+04  0.10091059617E+04 0.  0.
   -9000010    2    1    2    0  503  0.93129567999E+02  0.72121515989E+02 -0.51254192605E+03  0.11284861929E+04  0.99845241859E+03 0.  0.
        -13    1    3    3    0    0  0.42762056625E+03  0.84184342948E+02  0.12878659155E+03  0.45445830349E+03  0.10566000000E+00 0.  1.
          4    1    3    3  501    0 -0.52075013425E+03 -0.15630585894E+03 -0.14051720349E+03  0.56156683337E+03  0.00000000000E+00 0.  1.
         13    1    4    4    0    0 -0.22980963197E+03 -0.26811952241E+03 -0.55462616941E+03  0.65750341764E+03  0.10566000000E+00 0. -1.
         -4    1    4    4    0  503  0.32293919997E+03  0.34024103840E+03  0.42084243363E+02  0.47098277530E+03  0.00000000000E+00 0. -1.
<mgrwt>
<rscale>  2 0.10133018E+04</rscale>
<asrwt>0</asrwt>
<pdfrwt beam="1">  1       21 0.12463376E+00 0.10159574E+04</pdfrwt>
<pdfrwt beam="2">  1       21 0.20529106E+00 0.10159574E+04</pdfrwt>
<totfact> 0.28590766E+01</totfact>
</mgrwt>
</event>
<event>
 8    1  0.7208583E-006  0.1023581E+04  0.7818608E-02  0.8754869E-01
         21   -1    0    0  503  502  0.00000000000E+00  0.00000000000E+00  0.87828349473E+03  0.87828349473E+03  0.00000000000E+00 0.  1.
         21   -1    0    0  501  503 -0.00000000000E+00 -0.00000000000E+00 -0.11898892527E+04  0.11898892527E+04  0.00000000000E+00 0.  1.
    9000010    2    1    2  501    0 -0.28131654164E+01 -0.16454776214E+03 -0.23986282143E+03  0.10513096666E+04  0.10102643031E+04 0.  0.
   -9000010    2    1    2    0  502  0.28131654164E+01  0.16454776214E+03 -0.71742936556E+02  0.10168630809E+04  0.10008894026E+04 0.  0.
        -13    1    3    3    0    0 -0.79082212678E+02  0.76119799527E+02 -0.60085297341E+03  0.61079663315E+03  0.10566000000E+00 0.  1.
          4    1    3    3  501    0  0.76269047261E+02 -0.24066756167E+03  0.36099015198E+03  0.44051303345E+03  0.00000000000E+00 0.  1.
         13    1    4    4    0    0  0.56620656082E+02  0.58031364860E+03 -0.11863320817E+03  0.59501569617E+03  0.10566000000E+00 0. -1.
         -4    1    4    4    0  502 -0.53807490666E+02 -0.41576588646E+03  0.46890271613E+02  0.42184738468E+03  0.00000000000E+00 0. -1.
<mgrwt>
<rscale>  2 0.10212601E+04</rscale>
<asrwt>0</asrwt>
<pdfrwt beam="1">  1       21 0.13512054E+00 0.10235809E+04</pdfrwt>
<pdfrwt beam="2">  1       21 0.18305989E+00 0.10235809E+04</pdfrwt>
<totfact> 0.33877480E+01</totfact>
</mgrwt>
</event>
<event>
 8    1  0.7208583E-006  0.1096916E+04  0.7818608E-02  0.8695416E-01
         21   -1    0    0  503  502  0.00000000000E+00  0.00000000000E+00  0.24298798497E+04  0.24298798497E+04  0.00000000000E+00 0. -1.
         21   -1    0    0  501  503 -0.00000000000E+00 -0.00000000000E+00 -0.50152618588E+03  0.50152618588E+03  0.00000000000E+00 0. -1.
    9000010    2    1    2  501    0  0.18068529536E+03 -0.59622234090E+02  0.12768340714E+04  0.16833092004E+04  0.10802882170E+04 0.  0.
   -9000010    2    1    2    0  502 -0.18068529536E+03  0.59622234090E+02  0.65151959247E+03  0.12480968351E+04  0.10474091578E+04 0.  0.
        -13    1    3    3    0    0 -0.45655801514E+02  0.13710737712E+03 -0.15995021174E+03  0.21556197826E+03  0.10566000000E+00 0.  1.
          4    1    3    3  501    0  0.22634109688E+03 -0.19672961121E+03  0.14367842831E+04  0.14677472222E+04  0.00000000000E+00 0.  1.
         13    1    4    4    0    0 -0.45495188765E+03  0.24904966625E+03  0.27017116553E+01  0.51866585269E+03  0.10566000000E+00 0. -1.
         -4    1    4    4    0  502  0.27426659228E+03 -0.18942743216E+03  0.64881788082E+03  0.72943098245E+03  0.00000000000E+00 0. -1.
<mgrwt>
<rscale>  2 0.10887335E+04</rscale>
<asrwt>0</asrwt>
<pdfrwt beam="1">  1       21 0.37382766E+00 0.10969160E+04</pdfrwt>
<pdfrwt beam="2">  1       21 0.77157876E-01 0.10969160E+04</pdfrwt>
<totfact> 0.60708401E+00</totfact>
</mgrwt>
</event>
<event>
 8    1  0.7208583E-006  0.1081063E+04  0.7818608E-02  0.8709593E-01
         21   -1    0    0  503  502  0.00000000000E+00  0.00000000000E+00  0.17322081695E+04  0.17322081695E+04  0.00000000000E+00 0. -1.
         21   -1    0    0  501  503 -0.00000000000E+00 -0.00000000000E+00 -0.78007044137E+03  0.78007044137E+03  0.00000000000E+00 0. -1.
    9000010    2    1    2  501    0 -0.29649590876E+03 -0.13207466844E+03 -0.24424687867E+02  0.10813386317E+04  0.10311853030E+04 0.  0.
   -9000010    2    1    2    0  502  0.29649590876E+03  0.13207466844E+03  0.97656241596E+03  0.14309399791E+04  0.99426431578E+03 0.  0.
        -13    1    3    3    0    0 -0.13027429930E+03 -0.21823087368E+03  0.48008462667E+03  0.54321024218E+03  0.10566000000E+00 0.  1.
          4    1    3    3  501    0 -0.16622160946E+03  0.86156205233E+02 -0.50450931454E+03  0.53812838952E+03  0.00000000000E+00 0.  1.
         13    1    4    4    0    0  0.66452091484E+03  0.12517609703E+03  0.59402582087E+03  0.90006876879E+03  0.10566000000E+00 0. -1.
         -4    1    4    4    0  502 -0.36802500607E+03  0.68985714134E+01  0.38253659510E+03  0.53087121034E+03  0.00000000000E+00 0. -1.
<mgrwt>
<rscale>  2 0.10721638E+04</rscale>
<asrwt>0</asrwt>
<pdfrwt beam="1">  1       21 0.26649356E+00 0.10810628E+04</pdfrwt>
<pdfrwt beam="2">  1       21 0.12001084E+00 0.10810628E+04</pdfrwt>
<totfact> 0.11039708E+01</totfact>
</mgrwt>
</event>
<event>
 8    1  0.7208583E-006  0.1060215E+04  0.7818608E-02  0.8726115E-01
         21   -1    0    0  501  502  0.00000000000E+00  0.00000000000E+00  0.12013809584E+04  0.12013809584E+04  0.00000000000E+00 0. -1.
         21   -1    0    0  502  503 -0.00000000000E+00 -0.00000000000E+00 -0.11338165342E+04  0.11338165342E+04  0.00000000000E+00 0. -1.
    9000010    2    1    2  501    0  0.16185295983E+03 -0.19918596709E+03 -0.48366447475E+03  0.11402455690E+04  0.10001785858E+04 0.  0.
   -9000010    2    1    2    0  503 -0.16185295983E+03  0.19918596709E+03  0.55122889897E+03  0.11949519236E+04  0.10286813747E+04 0.  0.
        -13    1    3    3    0    0 -0.18211788041E+03 -0.37672054820E+03  0.10897753752E+03  0.43239034292E+03  0.10566000000E+00 0.  1.
          4    1    3    3  501    0  0.34397084024E+03  0.17753458111E+03 -0.59264201227E+03  0.70785522611E+03  0.00000000000E+00 0.  1.
         13    1    4    4    0    0  0.27409093406E+03  0.44922201393E+03  0.13724830375E+03  0.54384130588E+03  0.10566000000E+00 0. -1.
         -4    1    4    4    0  503 -0.43594389389E+03 -0.25003604683E+03  0.41398059523E+03  0.65111061776E+03  0.00000000000E+00 0. -1.
<mgrwt>
<rscale>  2 0.10532389E+04</rscale>
<asrwt>0</asrwt>
<pdfrwt beam="1">  1       21 0.18482784E+00 0.10602155E+04</pdfrwt>
<pdfrwt beam="2">  1       21 0.17443331E+00 0.10602155E+04</pdfrwt>
<totfact> 0.14651533E+01</totfact>
</mgrwt>
</event>
<event>
 8    1  0.7208583E-006  0.1013461E+04  0.7818608E-02  0.8766200E-01
         21   -1    0    0  503  502  0.00000000000E+00  0.00000000000E+00  0.57737131709E+03  0.57737131709E+03  0.00000000000E+00 0.  1.
         21   -1    0    0  501  503 -0.00000000000E+00 -0.00000000000E+00 -0.18641890461E+04  0.18641890461E+04  0.00000000000E+00 0.  1.
    9000010    2    1    2  501    0  0.14054419036E+03  0.26279495584E+03 -0.95377033041E+03  0.13916831680E+04  0.96865387977E+03 0.  0.
   -9000010    2    1    2    0  502 -0.14054419036E+03 -0.26279495584E+03 -0.33304739856E+03  0.10498771951E+04  0.95000405097E+03 0.  0.
        -13    1    3    3    0    0  0.43156834446E+03  0.92816898025E+02 -0.71445509386E+02  0.44718081855E+03  0.10566000000E+00 0.  1.
          4    1    3    3  501    0 -0.29102415410E+03  0.16997805782E+03 -0.88232482102E+03  0.94450234950E+03  0.00000000000E+00 0.  1.
         13    1    4    4    0    0  0.40384870733E+03 -0.14758812589E+03 -0.74834015754E+02  0.43643576205E+03  0.10566000000E+00 0. -1.
         -4    1    4    4    0  502 -0.54439289770E+03 -0.11520682995E+03 -0.25821338281E+03  0.61344143306E+03  0.00000000000E+00 0. -1.
<mgrwt>
<rscale>  2 0.10089793E+04</rscale>
<asrwt>0</asrwt>
<pdfrwt beam="1">  1       21 0.88826357E-01 0.10134615E+04</pdfrwt>
<pdfrwt beam="2">  1       21 0.28679831E+00 0.10134615E+04</pdfrwt>
<totfact> 0.17837103E+01</totfact>
</mgrwt>
</event>
<event>
 8    1  0.7208583E-006  0.1016071E+04  0.7818608E-02  0.8762093E-01
         21   -1    0    0  501  502  0.00000000000E+00  0.00000000000E+00  0.15833647750E+04  0.15833647750E+04  0.00000000000E+00 0. -1.
         21   -1    0    0  502  503 -0.00000000000E+00 -0.00000000000E+00 -0.66115100337E+03  0.66115100337E+03  0.00000000000E+00 0. -1.
    9000010    2    1    2  501    0 -0.11914709884E+03  0.17880365674E+03  0.63282573785E+03  0.11880374154E+04  0.98224116547E+03 0.  0.
   -9000010    2    1    2    0  503  0.11914709884E+03 -0.17880365674E+03  0.28938803374E+03  0.10564783629E+04  0.99309330799E+03 0.  0.
        -13    1    3    3    0    0 -0.23040656283E+03 -0.32952603437E+03  0.51697624406E+03  0.65493437810E+03  0.10566000000E+00 0.  1.
          4    1    3    3  501    0  0.11125946399E+03  0.50832969112E+03  0.11584949379E+03  0.53310303733E+03  0.00000000000E+00 0.  1.
         13    1    4    4    0    0  0.49506741575E+03 -0.34218008787E+03  0.12384607823E+03  0.61442397490E+03  0.10566000000E+00 0. -1.
         -4    1    4    4    0  503 -0.37592031691E+03  0.16337643113E+03  0.16554195550E+03  0.44205438799E+03  0.00000000000E+00 0. -1.
<mgrwt>
<rscale>  2 0.10134099E+04</rscale>
<asrwt>0</asrwt>
<pdfrwt beam="1">  1       21 0.24359458E+00 0.10160714E+04</pdfrwt>
<pdfrwt beam="2">  1       21 0.10171554E+00 0.10160714E+04</pdfrwt>
<totfact> 0.25712729E+01</totfact>
</mgrwt>
</event>
<event>
 8    1  0.7208583E-006  0.1080477E+04  0.7818608E-02  0.8705237E-01
         21   -1    0    0  503  502  0.00000000000E+00  0.00000000000E+00  0.23312140298E+04  0.23312140298E+04  0.00000000000E+00 0.  1.
         21   -1    0    0  501  503 -0.00000000000E+00 -0.00000000000E+00 -0.68300919953E+03  0.68300919953E+03  0.00000000000E+00 0.  1.
    9000010    2    1    2  501    0 -0.32188251840E+03  0.15487889593E+03  0.29359692590E+02  0.10679217821E+04  0.10059816663E+04 0.  0.
   -9000010    2    1    2    0  502  0.32188251840E+03 -0.15487889593E+03  0.16188451377E+04  0.19463014473E+04  0.10197224700E+04 0.  0.
        -13    1    3    3    0    0 -0.17291917711E+03  0.57546752118E+03  0.11966520253E+03  0.61268563032E+03  0.10566000000E+00 0.  1.
          4    1    3    3  501    0 -0.14896334130E+03 -0.42058862524E+03 -0.90305509937E+02  0.45523615175E+03  0.00000000000E+00 0.  1.
         13    1    4    4    0    0 -0.13978871592E+03 -0.46668788660E+03  0.10080502079E+04  0.11195997952E+04  0.10566000000E+00 0. -1.
         -4    1    4    4    0  502  0.46167123433E+03  0.31180899067E+03  0.61079492981E+03  0.82670165208E+03  0.00000000000E+00 0. -1.
<mgrwt>
<rscale>  2 0.10772223E+04</rscale>
<asrwt>0</asrwt>
<pdfrwt beam="1">  1       21 0.35864831E+00 0.10804766E+04</pdfrwt>
<pdfrwt beam="2">  1       21 0.10507834E+00 0.10804766E+04</pdfrwt>
<totfact> 0.35468046E+00</totfact>
</mgrwt>
</event>
<event>
 8    1  0.7208583E-006  0.1058228E+04  0.7818608E-02  0.8729007E-01
         21   -1    0    0  501  502  0.00000000000E+00  0.00000000000E+00  0.18094664682E+04  0.18094664682E+04  0.00000000000E+00 0. -1.
         21   -1    0    0  502  503 -0.00000000000E+00 -0.00000000000E+00 -0.67726429087E+03  0.67726429087E+03  0.00000000000E+00 0. -1.
    9000010    2    1    2  501    0 -0.11731159774E+03 -0.25344389942E+03  0.97833980255E+03  0.14173757220E+04  0.98681778814E+03 0.  0.
   -9000010    2    1    2    0  503  0.11731159774E+03  0.25344389942E+03  0.15386237480E+03  0.10693550371E+04  0.10207109012E+04 0.  0.
        -13    1    3    3    0    0 -0.43380422344E+03 -0.13591820127E+03  0.85142200475E+02  0.46250304558E+03  0.10566000000E+00 0.  1.
          4    1    3    3  501    0  0.31649262570E+03 -0.11752569815E+03  0.89319760207E+03  0.95487267643E+03  0.00000000000E+00 0.  1.
         13    1    4    4    0    0  0.32906187974E+03 -0.27788580962E+03  0.23663854205E+03  0.49142655059E+03  0.10566000000E+00 0. -1.
         -4    1    4    4    0  503 -0.21175028200E+03  0.53132970903E+03 -0.82776167245E+02  0.57792848649E+03  0.00000000000E+00 0. -1.
<mgrwt>
<rscale>  2 0.10499687E+04</rscale>
<asrwt>0</asrwt>
<pdfrwt beam="1">  1       21 0.27837946E+00 0.10582280E+04</pdfrwt>
<pdfrwt beam="2">  1       21 0.10419451E+00 0.10582280E+04</pdfrwt>
<totfact> 0.13410260E+01</totfact>
</mgrwt>
</event>
<event>
 8    1  0.7208583E-006  0.1078381E+04  0.7818608E-02  0.8705268E-01
         21   -1    0    0  503  502  0.00000000000E+00  0.00000000000E+00  0.30622164766E+04  0.30622164766E+04  0.00000000000E+00 0. -1.
         21   -1    0    0  501  503 -0.00000000000E+00 -0.00000000000E+00 -0.39506927426E+03  0.39506927426E+03  0.00000000000E+00 0. -1.
    9000010    2    1    2  501    0 -0.40405057267E+03  0.60720942189E+02  0.97793858739E+03  0.14557709010E+04  0.99797852557E+03 0.  0.
   -9000010    2    1    2    0  502  0.40405057267E+03 -0.60720942189E+02  0.16892086149E+04  0.20015148498E+04  0.99282025116E+03 0.  0.
        -13    1    3    3    0    0 -0.20908102976E+03  0.48999695853E+03  0.77967867123E+03  0.94430436720E+03  0.10566000000E+00 0.  1.
          4    1    3    3  501    0 -0.19496954292E+03 -0.42927601634E+03  0.19825991615E+03  0.51146653383E+03  0.00000000000E+00 0.  1.
         13    1    4    4    0    0  0.42343386022E+02 -0.39845994858E+03  0.13325973525E+04  0.13915383603E+04  0.10566000000E+00 0. -1.
         -4    1    4    4    0  502  0.36170718665E+03  0.33773900639E+03  0.35661126242E+03  0.60997648955E+03  0.00000000000E+00 0. -1.
<mgrwt>
<rscale>  2 0.10771858E+04</rscale>
<asrwt>0</asrwt>
<pdfrwt beam="1">  1       21 0.47111021E+00 0.10783807E+04</pdfrwt>
<pdfrwt beam="2">  1       21 0.60779890E-01 0.10783807E+04</pdfrwt>
<totfact> 0.22584242E+00</totfact>
</mgrwt>
</event>
<event>
 8    1  0.7208583E-006  0.1001720E+04  0.7818608E-02  0.8783634E-01
         21   -1    0    0  501  502  0.00000000000E+00  0.00000000000E+00  0.16890101182E+04  0.16890101182E+04  0.00000000000E+00 0.  1.
         21   -1    0    0  502  503 -0.00000000000E+00 -0.00000000000E+00 -0.58794102407E+03  0.58794102407E+03  0.00000000000E+00 0.  1.
    9000010    2    1    2  501    0 -0.91077433487E+01  0.60458292084E+02  0.74776997768E+03  0.12147538953E+04  0.95536847891E+03 0.  0.
   -9000010    2    1    2    0  503  0.91077433487E+01 -0.60458292084E+02  0.35329911643E+03  0.10621972470E+04  0.99985227395E+03 0.  0.
        -13    1    3    3    0    0 -0.47109568567E+03  0.68571026349E+01  0.24941313987E+03  0.53309013348E+03  0.10566000000E+00 0.  1.
          4    1    3    3  501    0  0.46198794232E+03  0.53601189449E+02  0.49835683781E+03  0.68166376180E+03  0.00000000000E+00 0.  1.
         13    1    4    4    0    0 -0.16431216373E+03 -0.18485699844E+03 -0.29191402237E+03  0.38260214929E+03  0.10566000000E+00 0. -1.
         -4    1    4    4    0  503  0.17341990708E+03  0.12439870636E+03  0.64521313879E+03  0.67959509768E+03  0.00000000000E+00 0. -1.
<mgrwt>
<rscale>  2 0.99043124E+03</rscale>
<asrwt>0</asrwt>
<pdfrwt beam="1">  1       21 0.25984771E+00 0.10017199E+04</pdfrwt>
<pdfrwt beam="2">  1       21 0.90452466E-01 0.10017199E+04</pdfrwt>
<totfact> 0.26602849E+01</totfact>
</mgrwt>
</event>
<event>
 8    1  0.7208583E-006  0.1010737E+04  0.7818608E-02  0.8771675E-01
         21   -1    0    0  503  502  0.00000000000E+00  0.00000000000E+00  0.10588553933E+04  0.10588553933E+04  0.00000000000E+00 0.  1.
         21   -1    0    0  501  503 -0.00000000000E+00 -0.00000000000E+00 -0.11643910350E+04  0.11643910350E+04  0.00000000000E+00 0.  1.
    9000010    2    1    2  501    0  0.62367621845E+02 -0.39174710953E+02 -0.54544344450E+03  0.11485202832E+04  0.10080505501E+04 0.  0.
   -9000010    2    1    2    0  502 -0.62367621845E+02  0.39174710953E+02  0.43990780283E+03  0.10747261451E+04  0.97780009904E+03 0.  0.
        -13    1    3    3    0    0  0.45126513911E+03 -0.83893346520E+02  0.21568876027E+02  0.45950358752E+03  0.10566000000E+00 0.  1.
          4    1    3    3  501    0 -0.38889751726E+03  0.44718635567E+02 -0.56701232052E+03  0.68901669568E+03  0.00000000000E+00 0.  1.
         13    1    4    4    0    0  0.19247471469E+03 -0.96088945537E+02  0.67127218891E+03  0.70490138603E+03  0.10566000000E+00 0. -1.
         -4    1    4    4    0  502 -0.25484233654E+03  0.13526365649E+03 -0.23136438608E+03  0.36982475905E+03  0.00000000000E+00 0. -1.
<mgrwt>
<rscale>  2 0.10031097E+04</rscale>
<asrwt>0</asrwt>
<pdfrwt beam="1">  1       21 0.16290083E+00 0.10107375E+04</pdfrwt>
<pdfrwt beam="2">  1       21 0.17913708E+00 0.10107375E+04</pdfrwt>
<totfact> 0.20613000E+01</totfact>
</mgrwt>
</event>
<event>
 8    1  0.7208583E-006  0.1139144E+04  0.7818608E-02  0.8659226E-01
         21   -1    0    0  503  502  0.00000000000E+00  0.00000000000E+00  0.11489263568E+04  0.11489263568E+04  0.00000000000E+00 0.  1.
         21   -1    0    0  501  503 -0.00000000000E+00 -0.00000000000E+00 -0.16197374146E+04  0.16197374146E+04  0.00000000000E+00 0.  1.
    9000010    2    1    2  501    0 -0.33204585028E+03 -0.40610480213E+03 -0.10151140301E+04  0.15061608431E+04  0.98126878793E+03 0.  0.
   -9000010    2    1    2    0  502  0.33204585028E+03  0.40610480213E+03  0.54430297224E+03  0.12625029284E+04  0.10111737544E+04 0.  0.
        -13    1    3    3    0    0  0.19795326998E+03 -0.40992188355E+03 -0.82653278629E+03  0.94359838157E+03  0.10566000000E+00 0.  1.
          4    1    3    3  501    0 -0.52999912026E+03  0.38170814262E+01 -0.18858124377E+03  0.56256246150E+03  0.00000000000E+00 0.  1.
         13    1    4    4    0    0 -0.11027034573E+03  0.28283733373E+03 -0.21720214859E+03  0.37327374809E+03  0.10566000000E+00 0. -1.
         -4    1    4    4    0  502  0.44231619601E+03  0.12326746840E+03  0.76150512083E+03  0.88922918028E+03  0.00000000000E+00 0. -1.
<mgrwt>
<rscale>  2 0.11324700E+04</rscale>
<asrwt>0</asrwt>
<pdfrwt beam="1">  1       21 0.17675790E+00 0.11391435E+04</pdfrwt>
<pdfrwt beam="2">  1       21 0.24919037E+00 0.11391435E+04</pdfrwt>
<totfact> 0.44552469E+00</totfact>
</mgrwt>
</event>
<event>
 8    1  0.7208583E-006  0.1083890E+04  0.7818608E-02  0.8701703E-01
         21   -1    0    0  503  502  0.00000000000E+00  0.00000000000E+00  0.10354218212E+04  0.10354218212E+04  0.00000000000E+00 0. -1.
         21   -1    0    0  501  503 -0.00000000000E+00 -0.00000000000E+00 -0.12469947561E+04  0.12469947561E+04  0.00000000000E+00 0. -1.
    9000010    2    1    2  501    0 -0.35141384187E+02  0.41982990744E+03  0.25210430160E+03  0.11128222318E+04  0.99866144041E+03 0.  0.
   -9000010    2    1    2    0  502  0.35141384187E+02 -0.41982990744E+03 -0.46367723649E+03  0.11695943456E+04  0.98765494255E+03 0.  0.
        -13    1    3    3    0    0 -0.41521781471E+03 -0.11043221424E+03  0.68565673714E+02  0.43508892237E+03  0.10566000000E+00 0.  1.
          4    1    3    3  501    0  0.38007643052E+03  0.53026212169E+03  0.18353862788E+03  0.67773330939E+03  0.00000000000E+00 0.  1.
         13    1    4    4    0    0  0.40349082912E+03 -0.87246848723E+02 -0.52684115316E+03  0.66931194045E+03  0.10566000000E+00 0. -1.
         -4    1    4    4    0  502 -0.36834944494E+03 -0.33258305872E+03  0.63163916670E+02  0.50028240515E+03  0.00000000000E+00 0. -1.
<mgrwt>
<rscale>  2 0.10813476E+04</rscale>
<asrwt>0</asrwt>
<pdfrwt beam="1">  1       21 0.15929566E+00 0.10838896E+04</pdfrwt>
<pdfrwt beam="2">  1       21 0.19184535E+00 0.10838896E+04</pdfrwt>
<totfact> 0.17199732E+01</totfact>
</mgrwt>
</event>
<event>
 8    1  0.7208583E-006  0.1004434E+04  0.7818608E-02  0.8775415E-01
         21   -1    0    0  501  502  0.00000000000E+00  0.00000000000E+00  0.63689095899E+03  0.63689095899E+03  0.00000000000E+00 0. -1.
         21   -1    0    0  502  503 -0.00000000000E+00 -0.00000000000E+00 -0.17558596938E+04  0.17558596938E+04  0.00000000000E+00 0. -1.
    9000010    2    1    2  501    0  0.32896316793E+02 -0.21019356650E+03 -0.96285162484E+03  0.13762569417E+04  0.96007104685E+03 0.  0.
   -9000010    2    1    2    0  503 -0.32896316793E+02  0.21019356650E+03 -0.15611710997E+03  0.10164937111E+04  0.98164321913E+03 0.  0.
        -13    1    3    3    0    0 -0.45091869014E+03 -0.21234025927E+03 -0.52151215956E+03  0.72138131010E+03  0.10566000000E+00 0.  1.
          4    1    3    3  501    0  0.48381500693E+03  0.21466927725E+01 -0.44133946527E+03  0.65487563158E+03  0.00000000000E+00 0.  1.
         13    1    4    4    0    0 -0.24949023260E+03 -0.29237915855E+03 -0.25379010280E+03  0.46058699065E+03  0.10566000000E+00 0. -1.
         -4    1    4    4    0  503  0.21659391580E+03  0.50257272505E+03  0.97672992833E+02  0.55590672046E+03  0.00000000000E+00 0. -1.
<mgrwt>
<rscale>  2 0.99912365E+03</rscale>
<asrwt>0</asrwt>
<pdfrwt beam="1">  1       21 0.97983225E-01 0.10044336E+04</pdfrwt>
<pdfrwt beam="2">  1       21 0.27013226E+00 0.10044336E+04</pdfrwt>
<totfact> 0.18277217E+01</totfact>
</mgrwt>
</event>
<event>
 8    1  0.7208583E-006  0.1100090E+04  0.7818608E-02  0.8691826E-01
         21   -1    0    0  503  502  0.00000000000E+00  0.00000000000E+00  0.10389164980E+04  0.10389164980E+04  0.00000000000E+00 0.  1.
         21   -1    0    0  501  503 -0.00000000000E+00 -0.00000000000E+00 -0.24609416818E+04  0.24609416818E+04  0.00000000000E+00 0.  1.
    9000010    2    1    2  501    0 -0.46572673992E+03 -0.39169906143E+02 -0.19995986804E+04  0.22822341326E+04  0.99587251971E+03 0.  0.
   -9000010    2    1    2    0  502  0.46572673992E+03  0.39169906143E+02  0.57757349660E+03  0.12176240472E+04  0.96466652193E+03 0.  0.
        -13    1    3    3    0    0 -0.76379869280E+03 -0.82128586980E+02 -0.11698912984E+04  0.13995639354E+04  0.10566000000E+00 0.  1.
          4    1    3    3  501    0  0.29807195288E+03  0.42958680837E+02 -0.82970738196E+03  0.88267019720E+03  0.00000000000E+00 0.  1.
         13    1    4    4    0    0  0.14504922296E+03 -0.27215147969E+02 -0.27071004419E+03  0.30832431067E+03  0.10566000000E+00 0. -1.
         -4    1    4    4    0  502  0.32067751696E+03  0.66385054112E+02  0.84828354079E+03  0.90929973653E+03  0.00000000000E+00 0. -1.
<mgrwt>
<rscale>  2 0.10929793E+04</rscale>
<asrwt>0</asrwt>
<pdfrwt beam="1">  1       21 0.15983331E+00 0.11000899E+04</pdfrwt>
<pdfrwt beam="2">  1       21 0.37860641E+00 0.11000899E+04</pdfrwt>
<totfact> 0.75796762E-01</totfact>
</mgrwt>
</event>
<event>
 8    1  0.7208583E-006  0.1317189E+04  0.7818608E-02  0.8524783E-01
         21   -1    0    0  501  502  0.00000000000E+00  0.00000000000E+00  0.12217697777E+04  0.12217697777E+04  0.00000000000E+00 0.  1.
         21   -1    0    0  502  503 -0.00000000000E+00 -0.00000000000E+00 -0.17090673392E+04  0.17090673392E+04  0.00000000000E+00 0.  1.
    9000010    2    1    2  501    0 -0.60493498924E+03  0.60738522062E+03  0.37023182801E+03  0.13591045705E+04  0.98753758386E+03 0.  0.
   -9000010    2    1    2    0  503  0.60493498924E+03 -0.60738522062E+03 -0.85752938949E+03  0.15717325464E+04  0.10000616962E+04 0.  0.
        -13    1    3    3    0    0 -0.61238748875E+03 -0.82243565657E+02  0.18526528496E+03  0.64506253762E+03  0.10566000000E+00 0.  1.
          4    1    3    3  501    0  0.74524995112E+01  0.68962878628E+03  0.18496654306E+03  0.71404203284E+03  0.00000000000E+00 0.  1.
         13    1    4    4    0    0  0.51675593855E+03 -0.20211425990E+03 -0.99122474442E+03  0.11359636346E+04  0.10566000000E+00 0. -1.
         -4    1    4    4    0  503  0.88179050683E+02 -0.40527096072E+03  0.13369535492E+03  0.43576891182E+03  0.00000000000E+00 0. -1.
<mgrwt>
<rscale>  2 0.13148116E+04</rscale>
<asrwt>0</asrwt>
<pdfrwt beam="1">  1       21 0.18796458E+00 0.13171889E+04</pdfrwt>
<pdfrwt beam="2">  1       21 0.26293343E+00 0.13171889E+04</pdfrwt>
<totfact> 0.27637530E+00</totfact>
</mgrwt>
</event>
<event>
 8    1  0.7208583E-006  0.1160489E+04  0.7818608E-02  0.8643991E-01
         21   -1    0    0  503  502  0.00000000000E+00  0.00000000000E+00  0.72863979432E+03  0.72863979432E+03  0.00000000000E+00 0. -1.
         21   -1    0    0  501  503 -0.00000000000E+00 -0.00000000000E+00 -0.27889735673E+04  0.27889735673E+04  0.00000000000E+00 0. -1.
    9000010    2    1    2  501    0 -0.14593477982E+03  0.49920143769E+03 -0.20918025222E+04  0.23921481533E+04  0.10374179294E+04 0.  0.
   -9000010    2    1    2    0  502  0.14593477982E+03 -0.49920143769E+03  0.31468749252E+02  0.11254652082E+04  0.99758840081E+03 0.  0.
        -13    1    3    3    0    0 -0.15813537204E+02  0.80440032853E+03 -0.12414284939E+04  0.14793426490E+04  0.10566000000E+00 0.  1.
          4    1    3    3  501    0 -0.13012124261E+03 -0.30519889084E+03 -0.85037402832E+03  0.91280550436E+03  0.00000000000E+00 0.  1.
         13    1    4    4    0    0  0.48378198076E+03 -0.58497470268E+03 -0.70283795338E+02  0.76235177624E+03  0.10566000000E+00 0. -1.
         -4    1    4    4    0  502 -0.33784720094E+03  0.85773264993E+02  0.10175254459E+03  0.36311343200E+03  0.00000000000E+00 0. -1.
<mgrwt>
<rscale>  2 0.11515197E+04</rscale>
<asrwt>0</asrwt>
<pdfrwt beam="1">  1       21 0.11209843E+00 0.11604891E+04</pdfrwt>
<pdfrwt beam="2">  1       21 0.42907285E+00 0.11604891E+04</pdfrwt>
<totfact> 0.94642814E-01</totfact>
</mgrwt>
</event>
<event>
 8    1  0.7208583E-006  0.1113245E+04  0.7818608E-02  0.8688361E-01
         21   -1    0    0  503  502  0.00000000000E+00  0.00000000000E+00  0.90403779721E+03  0.90403779721E+03  0.00000000000E+00 0.  1.
         21   -1    0    0  501  503 -0.00000000000E+00 -0.00000000000E+00 -0.13323020617E+04  0.13323020617E+04  0.00000000000E+00 0.  1.
    9000010    2    1    2  501    0 -0.36888211323E+03  0.69103196586E+02 -0.39721257733E+03  0.11226622619E+04  0.98068519795E+03 0.  0.
   -9000010    2    1    2    0  502  0.36888211323E+03 -0.69103196586E+02 -0.31051687174E+02  0.11136775970E+04  0.10480764846E+04 0.  0.
        -13    1    3    3    0    0  0.31998400765E+03 -0.79759181980E+02 -0.21848985711E+03  0.39558705880E+03  0.10566000000E+00 0.  1.
          4    1    3    3  501    0 -0.68886612088E+03  0.14886237857E+03 -0.17872272023E+03  0.72707520311E+03  0.00000000000E+00 0.  1.
         13    1    4    4    0    0  0.40226843525E+03 -0.48244479096E+03  0.17295395768E+03  0.65152586515E+03  0.10566000000E+00 0. -1.
         -4    1    4    4    0  502 -0.33386322021E+02  0.41334159438E+03 -0.20400564485E+03  0.46215173187E+03  0.00000000000E+00 0. -1.
<mgrwt>
<rscale>  2 0.10970965E+04</rscale>
<asrwt>0</asrwt>
<pdfrwt beam="1">  1       21 0.13908274E+00 0.11132446E+04</pdfrwt>
<pdfrwt beam="2">  1       21 0.20496955E+00 0.11132446E+04</pdfrwt>
<totfact> 0.20463005E+01</totfact>
</mgrwt>
</event>
<event>
 8    1  0.7208583E-006  0.1039665E+04  0.7818608E-02  0.8743822E-01
         21   -1    0    0  503  502  0.00000000000E+00  0.00000000000E+00  0.84862823694E+03  0.84862823694E+03  0.00000000000E+00 0. -1.
         21   -1    0    0  501  503 -0.00000000000E+00 -0.00000000000E+00 -0.13125811234E+04  0.13125811234E+04  0.00000000000E+00 0. -1.
    9000010    2    1    2  501    0  0.88674751885E+00 -0.15671998126E+03  0.18585230921E+02  0.10150216607E+04  0.10026772272E+04 0.  0.
   -9000010    2    1    2    0  502 -0.88674751885E+00  0.15671998126E+03 -0.48253811738E+03  0.11461876997E+04  0.10277846415E+04 0.  0.
        -13    1    3    3    0    0  0.41908111142E+01 -0.57939773517E+03 -0.68516670671E+02  0.58344994964E+03  0.10566000000E+00 0.  1.
          4    1    3    3  501    0 -0.33040635953E+01  0.42267775390E+03  0.87101901592E+02  0.43157171101E+03  0.00000000000E+00 0.  1.
         13    1    4    4    0    0 -0.89883380263E+02 -0.31198174469E+03 -0.57490893512E+03  0.66025141114E+03  0.10566000000E+00 0. -1.
         -4    1    4    4    0  502  0.88996632744E+02  0.46870172596E+03  0.92370817736E+02  0.48593628854E+03  0.00000000000E+00 0. -1.
<mgrwt>
<rscale>  2 0.10334053E+04</rscale>
<asrwt>0</asrwt>
<pdfrwt beam="1">  1       21 0.13055819E+00 0.10396649E+04</pdfrwt>
<pdfrwt beam="2">  1       21 0.20193556E+00 0.10396649E+04</pdfrwt>
<totfact> 0.26429059E+01</totfact>
</mgrwt>
</event>
<event>
 8    1  0.7208583E-006  0.9981279E+03  0.7818608E-02  0.8823856E-01
         21   -1    0    0  503  502  0.00000000000E+00  0.00000000000E+00  0.15065676385E+04  0.15065676385E+04  0.00000000000E+00 0.  1.
         21   -1    0    0  501  503 -0.00000000000E+00 -0.00000000000E+00 -0.57787268828E+03  0.57787268828E+03  0.00000000000E+00 0.  1.
    9000010    2    1    2  501    0  0.13348636542E+03 -0.22717096655E+02  0.26588168305E+03  0.10329338781E+04  0.98890072859E+03 0.  0.
   -9000010    2    1    2    0  502 -0.13348636542E+03  0.22717096655E+02  0.66281326721E+03  0.10515064487E+04  0.80499050191E+03 0.  0.
        -13    1    3    3    0    0 -0.21197060316E+03 -0.31499888255E+03 -0.15954740193E+03  0.41183882435E+03  0.10566000000E+00 0.  1.
          4    1    3    3  501    0  0.34545696858E+03  0.29228178590E+03  0.42542908497E+03  0.62109505380E+03  0.00000000000E+00 0.  1.
         13    1    4    4    0    0 -0.36470209423E+03 -0.97410917197E+02  0.69306192094E+03  0.78919664327E+03  0.10566000000E+00 0. -1.
         -4    1    4    4    0  502  0.23121572881E+03  0.12012801385E+03 -0.30248653727E+02  0.26230980540E+03  0.00000000000E+00 0. -1.
<mgrwt>
<rscale>  2 0.94918746E+03</rscale>
<asrwt>0</asrwt>
<pdfrwt beam="1">  1       21 0.23177963E+00 0.99812791E+03</pdfrwt>
<pdfrwt beam="2">  1       21 0.88903491E-01 0.99812791E+03</pdfrwt>
<totfact> 0.44616249E+01</totfact>
</mgrwt>
</event>
<event>
 8    1  0.7208583E-006  0.1011398E+04  0.7818608E-02  0.8776415E-01
         21   -1    0    0  503  502  0.00000000000E+00  0.00000000000E+00  0.13019009972E+04  0.13019009972E+04  0.00000000000E+00 0. -1.
         21   -1    0    0  501  503 -0.00000000000E+00 -0.00000000000E+00 -0.87288844432E+03  0.87288844432E+03  0.00000000000E+00 0. -1.
    9000010    2    1    2  501    0 -0.60162183069E+02  0.11300721690E+03 -0.19573008823E+03  0.10301628818E+04  0.10032622670E+04 0.  0.
   -9000010    2    1    2    0  502  0.60162183069E+02 -0.11300721690E+03  0.62474264108E+03  0.11446265597E+04  0.95051379481E+03 0.  0.
        -13    1    3    3    0    0  0.32566644544E+03  0.39070113949E+03 -0.22000268297E+03  0.55417254152E+03  0.10566000000E+00 0.  1.
          4    1    3    3  501    0 -0.38582862851E+03 -0.27769392259E+03  0.24272594741E+02  0.47599034032E+03  0.00000000000E+00 0.  1.
         13    1    4    4    0    0 -0.28981901415E+03  0.75778628688E+01 -0.11936462216E+03  0.31352896064E+03  0.10566000000E+00 0. -1.
         -4    1    4    4    0  502  0.34998119722E+03 -0.12058507977E+03  0.74410726324E+03  0.83109759901E+03  0.00000000000E+00 0. -1.
<mgrwt>
<rscale>  2 0.99806098E+03</rscale>
<asrwt>0</asrwt>
<pdfrwt beam="1">  1       21 0.20029246E+00 0.10113977E+04</pdfrwt>
<pdfrwt beam="2">  1       21 0.13429053E+00 0.10113977E+04</pdfrwt>
<totfact> 0.25238589E+01</totfact>
</mgrwt>
</event>
<event>
 8    1  0.7208583E-006  0.1051296E+04  0.7818608E-02  0.8754471E-01
         21   -1    0    0  501  502  0.00000000000E+00  0.00000000000E+00  0.70465129503E+03  0.70465129503E+03  0.00000000000E+00 0. -1.
         21   -1    0    0  502  503 -0.00000000000E+00 -0.00000000000E+00 -0.19038760644E+04  0.19038760644E+04  0.00000000000E+00 0. -1.
    9000010    2    1    2  501    0  0.21157615591E+03  0.91370537270E+02  0.93317241180E+02  0.94242773644E+03  0.90903734031E+03 0.  0.
   -9000010    2    1    2    0  503 -0.21157615591E+03 -0.91370537270E+02 -0.12925420105E+04  0.16660996230E+04  0.10257241636E+04 0.  0.
        -13    1    3    3    0    0  0.60721596582E+01 -0.30006848189E+03 -0.24362419800E+03  0.38656270638E+03  0.10566000000E+00 0.  1.
          4    1    3    3  501    0  0.20550399625E+03  0.39143901916E+03  0.33694143918E+03  0.55586503006E+03  0.00000000000E+00 0.  1.
         13    1    4    4    0    0  0.32961207370E+03 -0.20754737926E+03 -0.91953054675E+03  0.99862729351E+03  0.10566000000E+00 0. -1.
         -4    1    4    4    0  503 -0.54118822961E+03  0.11617684199E+03 -0.37301146379E+03  0.66747232947E+03  0.00000000000E+00 0. -1.
<mgrwt>
<rscale>  2 0.10216940E+04</rscale>
<asrwt>0</asrwt>
<pdfrwt beam="1">  1       21 0.10840789E+00 0.10512959E+04</pdfrwt>
<pdfrwt beam="2">  1       21 0.29290400E+00 0.10512959E+04</pdfrwt>
<totfact> 0.95271481E+00</totfact>
</mgrwt>
</event>
<event>
 8    1  0.7208583E-006  0.1060928E+04  0.7818608E-02  0.8723437E-01
         21   -1    0    0  503  502  0.00000000000E+00  0.00000000000E+00  0.22000286800E+04  0.22000286800E+04  0.00000000000E+00 0. -1.
         21   -1    0    0  501  503 -0.00000000000E+00 -0.00000000000E+00 -0.50486772846E+03  0.50486772846E+03  0.00000000000E+00 0. -1.
    9000010    2    1    2  501    0 -0.21636907713E+03 -0.26777964974E+03  0.92783929357E+03  0.13955645706E+04  0.98396808772E+03 0.  0.
   -9000010    2    1    2    0  502  0.21636907713E+03  0.26777964974E+03  0.76732165793E+03  0.13093318378E+04  0.10035167246E+04 0.  0.
        -13    1    3    3    0    0  0.62681831904E+02  0.31389651271E+03  0.58038431720E+03  0.66280162911E+03  0.10566000000E+00 0.  1.
          4    1    3    3  501    0 -0.27905090904E+03 -0.58167616245E+03  0.34745497637E+03  0.73276294148E+03  0.00000000000E+00 0.  1.
         13    1    4    4    0    0  0.11844941556E+03 -0.94959270729E+02 -0.21180380151E+03  0.26059238025E+03  0.10566000000E+00 0. -1.
         -4    1    4    4    0  502  0.97919661574E+02  0.36273892047E+03  0.97912545944E+03  0.10487394576E+04  0.00000000000E+00 0. -1.
<mgrwt>
<rscale>  2 0.10562793E+04</rscale>
<asrwt>0</asrwt>
<pdfrwt beam="1">  1       21 0.33846595E+00 0.10609276E+04</pdfrwt>
<pdfrwt beam="2">  1       21 0.77671959E-01 0.10609276E+04</pdfrwt>
<totfact> 0.10658032E+01</totfact>
</mgrwt>
</event>
<event>
 8    1  0.7208583E-006  0.1180228E+04  0.7818608E-02  0.8622548E-01
         21   -1    0    0  501  502  0.00000000000E+00  0.00000000000E+00  0.14676109690E+04  0.14676109690E+04  0.00000000000E+00 0. -1.
         21   -1    0    0  502  503 -0.00000000000E+00 -0.00000000000E+00 -0.14658870987E+04  0.14658870987E+04  0.00000000000E+00 0. -1.
    9000010    2    1    2  501    0 -0.30894742542E+03 -0.52621302890E+03  0.87505058968E+03  0.14692348031E+04  0.10102419060E+04 0.  0.
   -9000010    2    1    2    0  503  0.30894742542E+03  0.52621302890E+03 -0.87332671930E+03  0.14642632646E+04  0.10044992215E+04 0.  0.
        -13    1    3    3    0    0 -0.12855656347E+03 -0.74067010632E+03  0.26359268434E+03  0.79661792021E+03  0.10566000000E+00 0.  1.
          4    1    3    3  501    0 -0.18039086195E+03  0.21445707742E+03  0.61145790534E+03  0.67261688288E+03  0.00000000000E+00 0.  1.
         13    1    4    4    0    0  0.20354748392E+03 -0.28583015087E+03 -0.32888448710E+03  0.48093187706E+03  0.10566000000E+00 0. -1.
         -4    1    4    4    0  503  0.10539994150E+03  0.81204317977E+03 -0.54444223220E+03  0.98333138752E+03  0.00000000000E+00 0. -1.
<mgrwt>
<rscale>  2 0.11789978E+04</rscale>
<asrwt>0</asrwt>
<pdfrwt beam="1">  1       21 0.22578630E+00 0.11802277E+04</pdfrwt>
<pdfrwt beam="2">  1       21 0.22552109E+00 0.11802277E+04</pdfrwt>
<totfact> 0.27295178E+00</totfact>
</mgrwt>
</event>
<event>
 8    1  0.7208583E-006  0.1041739E+04  0.7818608E-02  0.8738018E-01
         21   -1    0    0  503  502  0.00000000000E+00  0.00000000000E+00  0.47709914123E+03  0.47709914123E+03  0.00000000000E+00 0. -1.
         21   -1    0    0  501  503 -0.00000000000E+00 -0.00000000000E+00 -0.27681660866E+04  0.27681660866E+04  0.00000000000E+00 0. -1.
    9000010    2    1    2  501    0  0.19138537482E+03 -0.16975065768E+03 -0.18385668965E+04  0.21094937839E+04  0.10020938798E+04 0.  0.
   -9000010    2    1    2    0  502 -0.19138537482E+03  0.16975065768E+03 -0.45250004891E+03  0.11357714440E+04  0.10098400028E+04 0.  0.
        -13    1    3    3    0    0 -0.38504005541E+03  0.99834339878E+02 -0.69234793073E+03  0.79847880877E+03  0.10566000000E+00 0.  1.
          4    1    3    3  501    0  0.57642543023E+03 -0.26958499756E+03 -0.11462189657E+04  0.13110149751E+04  0.00000000000E+00 0.  1.
         13    1    4    4    0    0 -0.26429246575E+03 -0.39294068745E+03 -0.18385191702E+03  0.50799058049E+03  0.10566000000E+00 0. -1.
         -4    1    4    4    0  502  0.72907090931E+02  0.56269134514E+03 -0.26864813189E+03  0.62778086349E+03  0.00000000000E+00 0. -1.
<mgrwt>
<rscale>  2 0.10398573E+04</rscale>
<asrwt>0</asrwt>
<pdfrwt beam="1">  1       21 0.73399869E-01 0.10417392E+04</pdfrwt>
<pdfrwt beam="2">  1       21 0.42587170E+00 0.10417392E+04</pdfrwt>
<totfact> 0.30115848E+00</totfact>
</mgrwt>
</event>
<event>
 8    1  0.7208583E-006  0.1081630E+04  0.7818608E-02  0.8711416E-01
         21   -1    0    0  503  502  0.00000000000E+00  0.00000000000E+00  0.19025784139E+04  0.19025784139E+04  0.00000000000E+00 0.  1.
         21   -1    0    0  501  503 -0.00000000000E+00 -0.00000000000E+00 -0.10256675488E+04  0.10256675488E+04  0.00000000000E+00 0.  1.
    9000010    2    1    2  501    0  0.15904114575E+03  0.19826057823E+03 -0.52184522148E+03  0.11600712238E+04  0.10044110046E+04 0.  0.
   -9000010    2    1    2    0  502 -0.15904114575E+03 -0.19826057823E+03  0.13987560865E+04  0.17681747389E+04  0.10513429386E+04 0.  0.
        -13    1    3    3    0    0 -0.31555687919E+03 -0.19407625591E+03 -0.37480011612E+03  0.52698849638E+03  0.10566000000E+00 0.  1.
          4    1    3    3  501    0  0.47459802495E+03  0.39233683414E+03 -0.14704510536E+03  0.63308272739E+03  0.00000000000E+00 0.  1.
         13    1    4    4    0    0 -0.36249117353E+03 -0.96317268025E+00  0.22661824160E+02  0.36320014871E+03  0.10566000000E+00 0. -1.
         -4    1    4    4    0  502  0.20345002777E+03 -0.19729740555E+03  0.13760942624E+04  0.14049745902E+04  0.00000000000E+00 0. -1.
<mgrwt>
<rscale>  2 0.10700557E+04</rscale>
<asrwt>0</asrwt>
<pdfrwt beam="1">  1       21 0.29270437E+00 0.10816299E+04</pdfrwt>
<pdfrwt beam="2">  1       21 0.15779501E+00 0.10816299E+04</pdfrwt>
<totfact> 0.31859640E+00</totfact>
</mgrwt>
</event>
<event>
 8    1  0.7208583E-006  0.1040958E+04  0.7818608E-02  0.8738625E-01
         21   -1    0    0  503  502  0.00000000000E+00  0.00000000000E+00  0.11375099800E+04  0.11375099800E+04  0.00000000000E+00 0.  1.
         21   -1    0    0  501  503 -0.00000000000E+00 -0.00000000000E+00 -0.10975515194E+04  0.10975515194E+04  0.00000000000E+00 0.  1.
    9000010    2    1    2  501    0  0.10147542544E+03  0.29029490484E+03 -0.39517824903E+03  0.11068159686E+04  0.98707008167E+03 0.  0.
   -9000010    2    1    2    0  502 -0.10147542544E+03 -0.29029490484E+03  0.43513670963E+03  0.11282455307E+04  0.99449767613E+03 0.  0.
        -13    1    3    3    0    0 -0.11391657250E+02 -0.27084937651E+03  0.15551901742E+03  0.31253052740E+03  0.10566000000E+00 0.  1.
          4    1    3    3  501    0  0.11286708269E+03  0.56114428135E+03 -0.55069726645E+03  0.79428544122E+03  0.00000000000E+00 0.  1.
         13    1    4    4    0    0 -0.51644898252E+03 -0.34690074562E+03  0.25952651845E+03  0.67410214641E+03  0.10566000000E+00 0. -1.
         -4    1    4    4    0  502  0.41497355708E+03  0.56605840774E+02  0.17561019117E+03  0.45414338433E+03  0.00000000000E+00 0. -1.
<mgrwt>
<rscale>  2 0.10391802E+04</rscale>
<asrwt>0</asrwt>
<pdfrwt beam="1">  1       21 0.17500154E+00 0.10409582E+04</pdfrwt>
<pdfrwt beam="2">  1       21 0.16885408E+00 0.10409582E+04</pdfrwt>
<totfact> 0.19707265E+01</totfact>
</mgrwt>
</event>
<event>
 8    1  0.7208583E-006  0.1000231E+04  0.7818608E-02  0.8775797E-01
         21   -1    0    0  503  502  0.00000000000E+00  0.00000000000E+00  0.62875692190E+03  0.62875692190E+03  0.00000000000E+00 0.  1.
         21   -1    0    0  501  503 -0.00000000000E+00 -0.00000000000E+00 -0.18518243143E+04  0.18518243143E+04  0.00000000000E+00 0.  1.
    9000010    2    1    2  501    0  0.76009180166E+02 -0.20326318105E+02 -0.13931276618E+03  0.10098862512E+04  0.99713170590E+03 0.  0.
   -9000010    2    1    2    0  502 -0.76009180166E+02  0.20326318105E+02 -0.10837546262E+04  0.14706949850E+04  0.99107471681E+03 0.  0.
        -13    1    3    3    0    0  0.46634462490E+03  0.20764672691E+03 -0.21068769865E+03  0.55225337473E+03  0.10566000000E+00 0.  1.
          4    1    3    3  501    0 -0.39033544473E+03 -0.22797304501E+03  0.71374932471E+02  0.45763287650E+03  0.00000000000E+00 0.  1.
         13    1    4    4    0    0  0.23807238342E+03 -0.39944121498E+03 -0.58269425200E+03  0.74549604053E+03  0.10566000000E+00 0. -1.
         -4    1    4    4    0  502 -0.31408156358E+03  0.41976753308E+03 -0.50106037422E+03  0.72519894444E+03  0.00000000000E+00 0. -1.
<mgrwt>
<rscale>  2 0.99871811E+03</rscale>
<asrwt>0</asrwt>
<pdfrwt beam="1">  1       21 0.96731835E-01 0.10002311E+04</pdfrwt>
<pdfrwt beam="2">  1       21 0.28489605E+00 0.10002311E+04</pdfrwt>
<totfact> 0.14840460E+01</totfact>
</mgrwt>
</event>
<event>
 8    1  0.7208583E-006  0.1108078E+04  0.7818608E-02  0.8685389E-01
         21   -1    0    0  501  502  0.00000000000E+00  0.00000000000E+00  0.16442897313E+04  0.16442897313E+04  0.00000000000E+00 0.  1.
         21   -1    0    0  502  503 -0.00000000000E+00 -0.00000000000E+00 -0.78726052031E+03  0.78726052031E+03  0.00000000000E+00 0.  1.
    9000010    2    1    2  501    0 -0.21748467888E+03  0.36762666489E+03  0.97553260552E+02  0.11123640489E+04  0.10224422665E+04 0.  0.
   -9000010    2    1    2    0  503  0.21748467888E+03 -0.36762666489E+03  0.75947595047E+03  0.13191862027E+04  0.99045422297E+03 0.  0.
        -13    1    3    3    0    0 -0.19683320003E+02  0.39750300752E+03 -0.40721353442E+03  0.56940227243E+03  0.10566000000E+00 0.  1.
          4    1    3    3  501    0 -0.19780135888E+03 -0.29876342629E+02  0.50476679497E+03  0.54296177649E+03  0.00000000000E+00 0.  1.
         13    1    4    4    0    0 -0.11739188743E+03 -0.16862135892E+02  0.82173976766E+03  0.83025384298E+03  0.10566000000E+00 0. -1.
         -4    1    4    4    0  503  0.33487656631E+03 -0.35076452900E+03 -0.62263817191E+02  0.48893235974E+03  0.00000000000E+00 0. -1.
<mgrwt>
<rscale>  2 0.11006423E+04</rscale>
<asrwt>0</asrwt>
<pdfrwt beam="1">  1       21 0.25296765E+00 0.11080781E+04</pdfrwt>
<pdfrwt beam="2">  1       21 0.12111700E+00 0.11080781E+04</pdfrwt>
<totfact> 0.13391839E+01</totfact>
</mgrwt>
</event>
<event>
 8    1  0.7208583E-006  0.1035040E+04  0.7818608E-02  0.8745903E-01
         21   -1    0    0  501  502  0.00000000000E+00  0.00000000000E+00  0.11195354015E+04  0.11195354015E+04  0.00000000000E+00 0. -1.
         21   -1    0    0  502  503 -0.00000000000E+00 -0.00000000000E+00 -0.99852349243E+03  0.99852349243E+03  0.00000000000E+00 0. -1.
    9000010    2    1    2  501    0 -0.14330667996E+03 -0.98567656030E+02  0.31177197908E+03  0.10809758846E+04  0.10203208852E+04 0.  0.
   -9000010    2    1    2    0  503  0.14330667996E+03  0.98567656030E+02 -0.19076007002E+03  0.10370830093E+04  0.10044398322E+04 0.  0.
        -13    1    3    3    0    0 -0.79548578477E+02  0.45863172972E+03  0.21137828865E+03  0.51122581304E+03  0.10566000000E+00 0.  1.
          4    1    3    3  501    0 -0.63758101479E+02 -0.55719938575E+03  0.10039369043E+03  0.56975007158E+03  0.00000000000E+00 0.  1.
         13    1    4    4    0    0  0.18826050419E+03  0.35898131327E+03 -0.49126603755E+03  0.63690810290E+03  0.10566000000E+00 0. -1.
         -4    1    4    4    0  503 -0.44953824237E+02 -0.26041365724E+03  0.30050596753E+03  0.40017490640E+03  0.00000000000E+00 0. -1.
<mgrwt>
<rscale>  2 0.10311043E+04</rscale>
<asrwt>0</asrwt>
<pdfrwt beam="1">  1       21 0.17223622E+00 0.10350397E+04</pdfrwt>
<pdfrwt beam="2">  1       21 0.15361900E+00 0.10350397E+04</pdfrwt>
<totfact> 0.28131570E+01</totfact>
</mgrwt>
</event>
<event>
 8    1  0.7208583E-006  0.1089902E+04  0.7818608E-02  0.8697112E-01
         21   -1    0    0  501  502  0.00000000000E+00  0.00000000000E+00  0.10965107826E+04  0.10965107826E+04  0.00000000000E+00 0. -1.
         21   -1    0    0  502  503 -0.00000000000E+00 -0.00000000000E+00 -0.12658197063E+04  0.12658197063E+04  0.00000000000E+00 0. -1.
    9000010    2    1    2  501    0 -0.24785667792E+03  0.27077883150E+03  0.37933616930E+03  0.11421266370E+04  0.10128194396E+04 0.  0.
   -9000010    2    1    2    0  503  0.24785667792E+03 -0.27077883150E+03 -0.54864509302E+03  0.12202038518E+04  0.10262221463E+04 0.  0.
        -13    1    3    3    0    0 -0.63441558437E+03  0.61656065068E+02  0.20944938730E+03  0.67093491566E+03  0.10566000000E+00 0.  1.
          4    1    3    3  501    0  0.38655890645E+03  0.20912276643E+03  0.16988678201E+03  0.47119172138E+03  0.00000000000E+00 0.  1.
         13    1    4    4    0    0  0.63210567601E+03 -0.25842217313E+03 -0.22910390627E+03  0.72029731100E+03  0.10566000000E+00 0. -1.
         -4    1    4    4    0  503 -0.38424899808E+03 -0.12356658371E+02 -0.31954118675E+03  0.49990654083E+03  0.00000000000E+00 0. -1.
<mgrwt>
<rscale>  2 0.10867355E+04</rscale>
<asrwt>0</asrwt>
<pdfrwt beam="1">  1       21 0.16869397E+00 0.10899018E+04</pdfrwt>
<pdfrwt beam="2">  1       21 0.19474149E+00 0.10899018E+04</pdfrwt>
<totfact> 0.13545489E+01</totfact>
</mgrwt>
</event>
<event>
 8    1  0.7208583E-006  0.1024869E+04  0.7818608E-02  0.8754152E-01
         21   -1    0    0  503  502  0.00000000000E+00  0.00000000000E+00  0.97915780321E+03  0.97915780321E+03  0.00000000000E+00 0.  1.
         21   -1    0    0  501  503 -0.00000000000E+00 -0.00000000000E+00 -0.11351404232E+04  0.11351404232E+04  0.00000000000E+00 0.  1.
    9000010    2    1    2  501    0 -0.99267490402E+01 -0.22548234019E+03 -0.34782431730E+03  0.10716286391E+04  0.98816261733E+03 0.  0.
   -9000010    2    1    2    0  502  0.99267490402E+01  0.22548234019E+03  0.19184169728E+03  0.10426695874E+04  0.99970786008E+03 0.  0.
        -13    1    3    3    0    0 -0.39721053383E+03  0.17576322415E+03 -0.44027726110E+02  0.43658604075E+03  0.10566000000E+00 0.  1.
          4    1    3    3  501    0  0.38728378479E+03 -0.40124556435E+03 -0.30379659119E+03  0.63504259832E+03  0.00000000000E+00 0.  1.
         13    1    4    4    0    0 -0.81439733587E+02  0.39968434270E+03 -0.30433676763E+03  0.50892129382E+03  0.10566000000E+00 0. -1.
         -4    1    4    4    0  502  0.91366482627E+02 -0.17420200251E+03  0.49617846490E+03  0.53374829354E+03  0.00000000000E+00 0. -1.
<mgrwt>
<rscale>  2 0.10220428E+04</rscale>
<asrwt>0</asrwt>
<pdfrwt beam="1">  1       21 0.15063966E+00 0.10248691E+04</pdfrwt>
<pdfrwt beam="2">  1       21 0.17463699E+00 0.10248691E+04</pdfrwt>
<totfact> 0.28615194E+01</totfact>
</mgrwt>
</event>
<event>
 8    1  0.7208583E-006  0.1112199E+04  0.7818608E-02  0.8677467E-01
         21   -1    0    0  503  502  0.00000000000E+00  0.00000000000E+00  0.13168941493E+04  0.13168941493E+04  0.00000000000E+00 0.  1.
         21   -1    0    0  501  503 -0.00000000000E+00 -0.00000000000E+00 -0.11251349589E+04  0.11251349589E+04  0.00000000000E+00 0.  1.
    9000010    2    1    2  501    0  0.11756582037E+03  0.45246848589E+03 -0.40966757164E+03  0.11776319862E+04  0.10002200372E+04 0.  0.
   -9000010    2    1    2    0  502 -0.11756582037E+03 -0.45246848589E+03  0.60142676200E+03  0.12643971219E+04  0.10091761388E+04 0.  0.
        -13    1    3    3    0    0  0.26929792497E+03  0.50847733492E+03  0.15036620848E+03  0.59471050128E+03  0.10566000000E+00 0.  1.
          4    1    3    3  501    0 -0.15173210460E+03 -0.56008849029E+02 -0.56003378012E+03  0.58292148495E+03  0.00000000000E+00 0.  1.
         13    1    4    4    0    0  0.19703054097E+03  0.26353480290E+03  0.15286788308E+03  0.36282258371E+03  0.10566000000E+00 0. -1.
         -4    1    4    4    0  502 -0.31459636133E+03 -0.71600328879E+03  0.44855887892E+03  0.90157453822E+03  0.00000000000E+00 0. -1.
<mgrwt>
<rscale>  2 0.11101631E+04</rscale>
<asrwt>0</asrwt>
<pdfrwt beam="1">  1       21 0.20259910E+00 0.11121987E+04</pdfrwt>
<pdfrwt beam="2">  1       21 0.17309769E+00 0.11121987E+04</pdfrwt>
<totfact> 0.10744591E+01</totfact>
</mgrwt>
</event>
<event>
 8    1  0.7208583E-006  0.1051974E+04  0.7818608E-02  0.8738510E-01
         21   -1    0    0  501  502  0.00000000000E+00  0.00000000000E+00  0.71838053205E+03  0.71838053205E+03  0.00000000000E+00 0. -1.
         21   -1    0    0  502  503 -0.00000000000E+00 -0.00000000000E+00 -0.18002745979E+04  0.18002745979E+04  0.00000000000E+00 0. -1.
    9000010    2    1    2  501    0 -0.18639330674E+03 -0.26357607943E+03 -0.11130540369E+02  0.10520324672E+04  0.10012160649E+04 0.  0.
   -9000010    2    1    2    0  503  0.18639330674E+03  0.26357607943E+03 -0.10707635255E+04  0.14666226628E+04  0.94880593012E+03 0.  0.
        -13    1    3    3    0    0  0.87434893569E+02 -0.49117460098E+03 -0.30982550956E+03  0.58727268522E+03  0.10566000000E+00 0.  1.
          4    1    3    3  501    0 -0.27382820031E+03  0.22759852155E+03  0.29869496919E+03  0.46475978195E+03  0.00000000000E+00 0.  1.
         13    1    4    4    0    0  0.33395109685E+03 -0.21016933513E+03 -0.15279662744E+03  0.42313272745E+03  0.10566000000E+00 0. -1.
         -4    1    4    4    0  503 -0.14755779010E+03  0.47374541456E+03 -0.91796689805E+03  0.10434899353E+04  0.00000000000E+00 0. -1.
<mgrwt>
<rscale>  2 0.10393086E+04</rscale>
<asrwt>0</asrwt>
<pdfrwt beam="1">  1       21 0.11052008E+00 0.10519736E+04</pdfrwt>
<pdfrwt beam="2">  1       21 0.27696532E+00 0.10519736E+04</pdfrwt>
<totfact> 0.11734471E+01</totfact>
</mgrwt>
</event>
<event>
 8    1  0.7208583E-006  0.1008462E+04  0.7818608E-02  0.8808124E-01
         21   -1    0    0  503  502  0.00000000000E+00  0.00000000000E+00  0.91161535196E+03  0.91161535196E+03  0.00000000000E+00 0. -1.
         21   -1    0    0  501  503 -0.00000000000E+00 -0.00000000000E+00 -0.19254145792E+04  0.19254145792E+04  0.00000000000E+00 0. -1.
    9000010    2    1    2  501    0 -0.83136463191E+01  0.58715425711E+02 -0.15400857323E+04  0.18408854977E+04  0.10067168098E+04 0.  0.
   -9000010    2    1    2    0  502  0.83136463191E+01 -0.58715425711E+02  0.52628650505E+03  0.99614443340E+03  0.84368811113E+03 0.  0.
        -13    1    3    3    0    0 -0.17975793454E+03  0.49737570421E+03 -0.93380065502E+03  0.10731631659E+04  0.10566000000E+00 0.  1.
          4    1    3    3  501    0  0.17144428823E+03 -0.43866027850E+03 -0.60628507724E+03  0.76772233183E+03  0.00000000000E+00 0.  1.
         13    1    4    4    0    0  0.26583772918E+03  0.18737433553E+03  0.55020312776E+03  0.63914187223E+03  0.10566000000E+00 0. -1.
         -4    1    4    4    0  502 -0.25752408286E+03 -0.24608976124E+03 -0.23916622710E+02  0.35700256117E+03  0.00000000000E+00 0. -1.
<mgrwt>
<rscale>  2 0.96506737E+03</rscale>
<asrwt>0</asrwt>
<pdfrwt beam="1">  1       21 0.14024852E+00 0.10084619E+04</pdfrwt>
<pdfrwt beam="2">  1       21 0.29621763E+00 0.10084619E+04</pdfrwt>
<totfact> 0.43993401E+00</totfact>
</mgrwt>
</event>
<event>
 8    1  0.7208583E-006  0.1251493E+04  0.7818608E-02  0.8569914E-01
         21   -1    0    0  503  502  0.00000000000E+00  0.00000000000E+00  0.28561625446E+04  0.28561625446E+04  0.00000000000E+00 0.  1.
         21   -1    0    0  501  503 -0.00000000000E+00 -0.00000000000E+00 -0.85223962286E+03  0.85223962286E+03  0.00000000000E+00 0.  1.
    9000010    2    1    2  501    0  0.73710268932E+03 -0.16592821612E+03 -0.11196612967E+03  0.12501055280E+04  0.98963370466E+03 0.  0.
   -9000010    2    1    2    0  502 -0.73710268932E+03  0.16592821612E+03  0.21158890514E+04  0.24582966394E+04  0.99768900073E+03 0.  0.
        -13    1    3    3    0    0  0.92952337493E+03 -0.29873278431E+02 -0.26754250610E+03  0.96772161340E+03  0.10566000000E+00 0.  1.
          4    1    3    3  501    0 -0.19242068561E+03 -0.13605493769E+03  0.15557637642E+03  0.28238391459E+03  0.00000000000E+00 0.  1.
         13    1    4    4    0    0 -0.85114967678E+03  0.31285045972E+03  0.11003609839E+04  0.14258770944E+04  0.10566000000E+00 0. -1.
         -4    1    4    4    0  502  0.11404698745E+03 -0.14692224360E+03  0.10155280675E+04  0.10324195450E+04  0.00000000000E+00 0. -1.
<mgrwt>
<rscale>  2 0.12498873E+04</rscale>
<asrwt>0</asrwt>
<pdfrwt beam="1">  1       21 0.43940962E+00 0.12514935E+04</pdfrwt>
<pdfrwt beam="2">  1       21 0.13111379E+00 0.12514935E+04</pdfrwt>
<totfact> 0.50655157E-01</totfact>
</mgrwt>
</event>
<event>
 8    1  0.7208583E-006  0.1062240E+04  0.7818608E-02  0.8718901E-01
         21   -1    0    0  503  502  0.00000000000E+00  0.00000000000E+00  0.52879702629E+03  0.52879702629E+03  0.00000000000E+00 0.  1.
         21   -1    0    0  501  503 -0.00000000000E+00 -0.00000000000E+00 -0.23435523599E+04  0.23435523599E+04  0.00000000000E+00 0. -1.
    9000010    2    1    2  501    0  0.38242041170E+03 -0.90897468901E+02 -0.13422268374E+04  0.17097505932E+04  0.98344622982E+03 0.  0.
   -9000010    2    1    2    0  502 -0.38242041170E+03  0.90897468901E+02 -0.47252849628E+03  0.11625987930E+04  0.98683587924E+03 0.  0.
        -13    1    3    3    0    0 -0.10240957364E+03 -0.32225266681E+03 -0.94189158266E+02  0.35100728018E+03  0.10566000000E+00 0.  1.
          4    1    3    3  501    0  0.48482998534E+03  0.23135519791E+03 -0.12480376791E+04  0.13587433130E+04  0.00000000000E+00 0.  1.
         13    1    4    4    0    0 -0.55141295503E+03 -0.22819828421E+03 -0.52857005933E+03  0.79719321540E+03  0.10566000000E+00 0. -1.
         -4    1    4    4    0  502  0.16899254333E+03  0.31909575311E+03  0.56041563053E+02  0.36540557760E+03  0.00000000000E+00 0. -1.
<mgrwt>
<rscale>  2 0.10614516E+04</rscale>
<asrwt>0</asrwt>
<pdfrwt beam="1">  1       21 0.81353389E-01 0.10622395E+04</pdfrwt>
<pdfrwt beam="2">  1       21 0.36054651E+00 0.10622395E+04</pdfrwt>
<totfact> 0.66625485E+00</totfact>
</mgrwt>
</event>
<event>
 8    1  0.7208583E-006  0.1084010E+04  0.7818608E-02  0.8710079E-01
         21   -1    0    0  503  502  0.00000000000E+00  0.00000000000E+00  0.11460031139E+04  0.11460031139E+04  0.00000000000E+00 0.  1.
         21   -1    0    0  501  503 -0.00000000000E+00 -0.00000000000E+00 -0.13478818480E+04  0.13478818480E+04  0.00000000000E+00 0.  1.
    9000010    2    1    2  501    0  0.33295684480E+03  0.98449292736E+02 -0.75079705702E+03  0.12788177118E+04  0.97525688691E+03 0.  0.
   -9000010    2    1    2    0  502 -0.33295684480E+03 -0.98449292736E+02  0.54891832290E+03  0.12150672500E+04  0.10269004690E+04 0.  0.
        -13    1    3    3    0    0  0.39576293025E+03  0.38540309053E+03 -0.95387144283E+02  0.56059125716E+03  0.10566000000E+00 0.  1.
          4    1    3    3  501    0 -0.62806085454E+02 -0.28695379779E+03 -0.65540991273E+03  0.71822645464E+03  0.00000000000E+00 0.  1.
         13    1    4    4    0    0 -0.31682935712E+03 -0.38721588113E+02 -0.25514282760E+03  0.40862951014E+03  0.10566000000E+00 0. -1.
         -4    1    4    4    0  502 -0.16127487675E+02 -0.59727704624E+02  0.80406115051E+03  0.80643773989E+03  0.00000000000E+00 0. -1.
<mgrwt>
<rscale>  2 0.10716006E+04</rscale>
<asrwt>0</asrwt>
<pdfrwt beam="1">  1       21 0.17630817E+00 0.10840097E+04</pdfrwt>
<pdfrwt beam="2">  1       21 0.20736644E+00 0.10840097E+04</pdfrwt>
<totfact> 0.93433554E+00</totfact>
</mgrwt>
</event>
<event>
 8    1  0.7208583E-006  0.1062089E+04  0.7818608E-02  0.8718366E-01
         21   -1    0    0  501  502  0.00000000000E+00  0.00000000000E+00  0.19805991736E+04  0.19805991736E+04  0.00000000000E+00 0. -1.
         21   -1    0    0  502  503 -0.00000000000E+00 -0.00000000000E+00 -0.91902956451E+03  0.91902956451E+03  0.00000000000E+00 0. -1.
    9000010    2    1    2  501    0  0.88842318918E+02 -0.34243333743E+03  0.14249242439E+04  0.17772005287E+04  0.10014385003E+04 0.  0.
   -9000010    2    1    2    0  503 -0.88842318918E+02  0.34243333743E+03 -0.36335463481E+03  0.11224282095E+04  0.10013315867E+04 0.  0.
        -13    1    3    3    0    0  0.19312562782E+03  0.20691243745E+03  0.10883716716E+04  0.11245724394E+04  0.10566000000E+00 0.  1.
          4    1    3    3  501    0 -0.10428330891E+03 -0.54934577488E+03  0.33655257234E+03  0.65262808923E+03  0.00000000000E+00 0.  1.
         13    1    4    4    0    0  0.32128313528E+03  0.10740354099E+03 -0.52332226927E+03  0.62339761173E+03  0.10566000000E+00 0. -1.
         -4    1    4    4    0  503 -0.41012545420E+03  0.23502979644E+03  0.15996763446E+03  0.49903059773E+03  0.00000000000E+00 0. -1.
<mgrwt>
<rscale>  2 0.10620636E+04</rscale>
<asrwt>0</asrwt>
<pdfrwt beam="1">  1       21 0.30470757E+00 0.10620888E+04</pdfrwt>
<pdfrwt beam="2">  1       21 0.14138916E+00 0.10620888E+04</pdfrwt>
<totfact> 0.36891057E+00</totfact>
</mgrwt>
</event>
<event>
 8    1  0.7208583E-006  0.1037120E+04  0.7818608E-02  0.8741688E-01
         21   -1    0    0  503  502  0.00000000000E+00  0.00000000000E+00  0.24231501629E+04  0.24231501629E+04  0.00000000000E+00 0. -1.
         21   -1    0    0  501  503 -0.00000000000E+00 -0.00000000000E+00 -0.51296944169E+03  0.51296944169E+03  0.00000000000E+00 0. -1.
    9000010    2    1    2  501    0  0.28050880372E+03  0.71225049770E+02  0.40533080763E+03  0.11085005139E+04  0.99031415675E+03 0.  0.
   -9000010    2    1    2    0  502 -0.28050880372E+03 -0.71225049770E+02  0.15048499136E+04  0.18276190907E+04  0.99592172459E+03 0.  0.
        -13    1    3    3    0    0  0.14791112365E+03  0.43657499092E+03 -0.99317764484E+02  0.47152884610E+03  0.10566000000E+00 0.  1.
          4    1    3    3  501    0  0.13259768007E+03 -0.36534994115E+03  0.50464857211E+03  0.63697166781E+03  0.00000000000E+00 0.  1.
         13    1    4    4    0    0  0.28602390858E+03 -0.64683046892E+02  0.10809541682E+04  0.11200247755E+04  0.10566000000E+00 0. -1.
         -4    1    4    4    0  502 -0.56653271230E+03 -0.65420028782E+01  0.42389574538E+03  0.70759431517E+03  0.00000000000E+00 0. -1.
<mgrwt>
<rscale>  2 0.10357717E+04</rscale>
<asrwt>0</asrwt>
<pdfrwt beam="1">  1       21 0.37279233E+00 0.10371202E+04</pdfrwt>
<pdfrwt beam="2">  1       21 0.78918377E-01 0.10371202E+04</pdfrwt>
<totfact> 0.59210141E+00</totfact>
</mgrwt>
</event>
<event>
 8    1  0.7208583E-006  0.1007402E+04  0.7818608E-02  0.8770144E-01
         21   -1    0    0  501  502  0.00000000000E+00  0.00000000000E+00  0.18041986923E+04  0.18041986923E+04  0.00000000000E+00 0. -1.
         21   -1    0    0  502  503 -0.00000000000E+00 -0.00000000000E+00 -0.60302730139E+03  0.60302730139E+03  0.00000000000E+00 0. -1.
    9000010    2    1    2  501    0 -0.96807692014E+02  0.15994136528E+02  0.93159400779E+03  0.13643781514E+04  0.99198427562E+03 0.  0.
   -9000010    2    1    2    0  503  0.96807692014E+02 -0.15994136528E+02  0.26957738315E+03  0.10428478423E+04  0.10026126446E+04 0.  0.
        -13    1    3    3    0    0 -0.78404533602E+02  0.41488936991E+02 -0.20707523065E+03  0.22527486565E+03  0.10566000000E+00 0.  1.
          4    1    3    3  501    0 -0.18403158412E+02 -0.25494800463E+02  0.11386692384E+04  0.11391032858E+04  0.00000000000E+00 0.  1.
         13    1    4    4    0    0 -0.41163569202E+03 -0.11599869654E+02 -0.88183294290E+02  0.42113513802E+03  0.10566000000E+00 0. -1.
         -4    1    4    4    0  503  0.50844338403E+03 -0.43942668740E+01  0.35776067744E+03  0.62171270428E+03  0.00000000000E+00 0. -1.
<mgrwt>
<rscale>  2 0.10047476E+04</rscale>
<asrwt>0</asrwt>
<pdfrwt beam="1">  1       21 0.27756903E+00 0.10074024E+04</pdfrwt>
<pdfrwt beam="2">  1       21 0.92773432E-01 0.10074024E+04</pdfrwt>
<totfact> 0.18589682E+01</totfact>
</mgrwt>
</event>
<event>
 8    1  0.7208583E-006  0.1109663E+04  0.7818608E-02  0.8689828E-01
         21   -1    0    0  501  502  0.00000000000E+00  0.00000000000E+00  0.87831345417E+03  0.87831345417E+03  0.00000000000E+00 0.  1.
         21   -1    0    0  502  503 -0.00000000000E+00 -0.00000000000E+00 -0.17354322637E+04  0.17354322637E+04  0.00000000000E+00 0.  1.
    9000010    2    1    2  501    0  0.17279342429E+03  0.19386407135E+03  0.20999635343E+03  0.10742369722E+04  0.10210023302E+04 0.  0.
   -9000010    2    1    2    0  503 -0.17279342429E+03 -0.19386407135E+03 -0.10671151630E+04  0.15395087457E+04  0.10788473300E+04 0.  0.
        -13    1    3    3    0    0 -0.36061385860E+03 -0.10064768917E+03  0.27055648150E+03  0.46192329796E+03  0.10566000000E+00 0.  1.
          4    1    3    3  501    0  0.53340728289E+03  0.29451176053E+03 -0.60560128072E+02  0.61231367422E+03  0.00000000000E+00 0.  1.
         13    1    4    4    0    0  0.17967771286E+03  0.46008336303E+02  0.15716918329E+03  0.24311110803E+03  0.10566000000E+00 0. -1.
         -4    1    4    4    0  503 -0.35247113715E+03 -0.23987240766E+03 -0.12242843463E+04  0.12963976377E+04  0.00000000000E+00 0. -1.
<mgrwt>
<rscale>  2 0.10953508E+04</rscale>
<asrwt>0</asrwt>
<pdfrwt beam="1">  1       21 0.13512515E+00 0.11096632E+04</pdfrwt>
<pdfrwt beam="2">  1       21 0.26698958E+00 0.11096632E+04</pdfrwt>
<totfact> 0.77421409E+00</totfact>
</mgrwt>
</event>
<event>
 8    1  0.7208583E-006  0.1044493E+04  0.7818608E-02  0.8735824E-01
         21   -1    0    0  501  502  0.00000000000E+00  0.00000000000E+00  0.99750135273E+03  0.99750135273E+03  0.00000000000E+00 0. -1.
         21   -1    0    0  502  503 -0.00000000000E+00 -0.00000000000E+00 -0.11933766471E+04  0.11933766471E+04  0.00000000000E+00 0. -1.
    9000010    2    1    2  501    0 -0.28433018258E+03 -0.94543592015E+02 -0.42903945388E+03  0.11291766309E+04  0.10005912588E+04 0.  0.
   -9000010    2    1    2    0  503  0.28433018258E+03  0.94543592015E+02  0.23316415954E+03  0.10617013689E+04  0.99149489556E+03 0.  0.
        -13    1    3    3    0    0  0.32624565004E+03 -0.18547749502E+03  0.36900370017E+01  0.37530221538E+03  0.10566000000E+00 0.  1.
          4    1    3    3  501    0 -0.61057583262E+03  0.90933903006E+02 -0.43272949088E+03  0.75387441552E+03  0.00000000000E+00 0.  1.
         13    1    4    4    0    0  0.30393384309E+03 -0.17866314342E+03  0.54346338828E+03  0.64780302975E+03  0.10566000000E+00 0. -1.
         -4    1    4    4    0  503 -0.19603660516E+02  0.27320673544E+03 -0.31029922874E+03  0.41389833915E+03  0.00000000000E+00 0. -1.
<mgrwt>
<rscale>  2 0.10423082E+04</rscale>
<asrwt>0</asrwt>
<pdfrwt beam="1">  1       21 0.15346175E+00 0.10444927E+04</pdfrwt>
<pdfrwt beam="2">  1       21 0.18359641E+00 0.10444927E+04</pdfrwt>
<totfact> 0.22720475E+01</totfact>
</mgrwt>
</event>
<event>
 8    1  0.7208583E-006  0.1004243E+04  0.7818608E-02  0.8771007E-01
         21   -1    0    0  501  502  0.00000000000E+00  0.00000000000E+00  0.12461159319E+04  0.12461159319E+04  0.00000000000E+00 0.  1.
         21   -1    0    0  502  503 -0.00000000000E+00 -0.00000000000E+00 -0.83078584296E+03  0.83078584296E+03  0.00000000000E+00 0.  1.
    9000010    2    1    2  501    0  0.72929501437E+02  0.67332971263E+02  0.37959529224E+03  0.10720234206E+04  0.99764181312E+03 0.  0.
   -9000010    2    1    2    0  503 -0.72929501437E+02 -0.67332971263E+02  0.35734796692E+02  0.10048783542E+04  0.99932531735E+03 0.  0.
        -13    1    3    3    0    0 -0.15240154688E+02  0.92124618540E+02 -0.33694962164E+03  0.34964877569E+03  0.10566000000E+00 0.  1.
          4    1    3    3  501    0  0.88169656126E+02 -0.24791647276E+02  0.71654491388E+03  0.72237464493E+03  0.00000000000E+00 0.  1.
         13    1    4    4    0    0  0.41342994563E+03 -0.10653675919E+03  0.22369648747E+03  0.48199017694E+03  0.10566000000E+00 0. -1.
         -4    1    4    4    0  503 -0.48635944706E+03  0.39203787931E+02 -0.18796169078E+03  0.52288817728E+03  0.00000000000E+00 0. -1.
<mgrwt>
<rscale>  2 0.10038237E+04</rscale>
<asrwt>0</asrwt>
<pdfrwt beam="1">  1       21 0.19171014E+00 0.10042428E+04</pdfrwt>
<pdfrwt beam="2">  1       21 0.12781321E+00 0.10042428E+04</pdfrwt>
<totfact> 0.34074375E+01</totfact>
</mgrwt>
</event>
<event>
 8    1  0.7208583E-006  0.1280137E+04  0.7818608E-02  0.8549086E-01
         21   -1    0    0  503  502  0.00000000000E+00  0.00000000000E+00  0.82168232229E+03  0.82168232229E+03  0.00000000000E+00 0. -1.
         21   -1    0    0  501  503 -0.00000000000E+00 -0.00000000000E+00 -0.24228239618E+04  0.24228239618E+04  0.00000000000E+00 0. -1.
    9000010    2    1    2  501    0 -0.52002557890E+03 -0.59777501812E+03 -0.14858056156E+04  0.19591842393E+04  0.10015103501E+04 0.  0.
   -9000010    2    1    2    0  502  0.52002557890E+03  0.59777501812E+03 -0.11533602393E+03  0.12853220448E+04  0.10054793809E+04 0.  0.
        -13    1    3    3    0    0 -0.23362231045E+03 -0.43608478808E+03 -0.62830831265E+02  0.49869534874E+03  0.10566000000E+00 0.  1.
          4    1    3    3  501    0 -0.28640326845E+03 -0.16169023004E+03 -0.14229747843E+04  0.14604888906E+04  0.00000000000E+00 0.  1.
         13    1    4    4    0    0  0.62042711571E+03  0.74473601186E+03  0.13447312124E+03  0.97859315589E+03  0.10566000000E+00 0. -1.
         -4    1    4    4    0  502 -0.10040153680E+03 -0.14696099374E+03 -0.24980914517E+03  0.30672888890E+03  0.00000000000E+00 0. -1.
<mgrwt>
<rscale>  2 0.12793574E+04</rscale>
<asrwt>0</asrwt>
<pdfrwt beam="1">  1       21 0.12641267E+00 0.12801369E+04</pdfrwt>
<pdfrwt beam="2">  1       21 0.37274215E+00 0.12801369E+04</pdfrwt>
<totfact> 0.16247389E+00</totfact>
</mgrwt>
</event>
<event>
 8    1  0.7208583E-006  0.1046585E+04  0.7818608E-02  0.8739000E-01
         21   -1    0    0  503  502  0.00000000000E+00  0.00000000000E+00  0.26258376962E+04  0.26258376962E+04  0.00000000000E+00 0. -1.
         21   -1    0    0  501  503 -0.00000000000E+00 -0.00000000000E+00 -0.16451066249E+04  0.16451066249E+04  0.00000000000E+00 0. -1.
    9000010    2    1    2  501    0  0.11092565039E+03 -0.26953656708E+03 -0.13619203185E+04  0.17176052916E+04  0.10051798461E+04 0.  0.
   -9000010    2    1    2    0  502 -0.11092565039E+03  0.26953656708E+03  0.23426513898E+04  0.25533390294E+04  0.97291839540E+03 0.  0.
        -13    1    3    3    0    0 -0.85453221618E+02 -0.25568049355E+03  0.64886001258E+02  0.27728139532E+03  0.10566000000E+00 0.  1.
          4    1    3    3  501    0  0.19637887201E+03 -0.13856073535E+02 -0.14268063198E+04  0.14403238963E+04  0.00000000000E+00 0.  1.
         13    1    4    4    0    0 -0.53762380878E+03  0.62135280647E+02  0.12445069617E+04  0.13570916483E+04  0.10566000000E+00 0. -1.
         -4    1    4    4    0  502  0.42669815839E+03  0.20740128644E+03  0.10981444281E+04  0.11962473812E+04  0.00000000000E+00 0. -1.
<mgrwt>
<rscale>  2 0.10387618E+04</rscale>
<asrwt>0</asrwt>
<pdfrwt beam="1">  1       21 0.40397503E+00 0.10465854E+04</pdfrwt>
<pdfrwt beam="2">  1       21 0.25309333E+00 0.10465854E+04</pdfrwt>
<totfact> 0.95960289E-02</totfact>
</mgrwt>
</event>
<event>
 8    1  0.7208583E-006  0.1420335E+04  0.7818608E-02  0.8462485E-01
         21   -1    0    0  503  502  0.00000000000E+00  0.00000000000E+00  0.12970230707E+04  0.12970230707E+04  0.00000000000E+00 0. -1.
         21   -1    0    0  501  503 -0.00000000000E+00 -0.00000000000E+00 -0.17448509978E+04  0.17448509978E+04  0.00000000000E+00 0. -1.
    9000010    2    1    2  501    0  0.70188366184E+03 -0.65057846135E+03 -0.77199360780E+03  0.15850163514E+04  0.10002048263E+04 0.  0.
   -9000010    2    1    2    0  502 -0.70188366184E+03  0.65057846135E+03  0.32416568067E+03  0.14568577172E+04  0.10495036972E+04 0.  0.
        -13    1    3    3    0    0  0.24317789819E+03  0.26512231582E+03 -0.18447202452E+03  0.40429601965E+03  0.10566000000E+00 0.  1.
          4    1    3    3  501    0  0.45870576366E+03 -0.91570077717E+03 -0.58752158327E+03  0.11807203317E+04  0.00000000000E+00 0.  1.
         13    1    4    4    0    0 -0.83383483046E+02 -0.36644187554E+02  0.50638335946E+03  0.51450920267E+03  0.10566000000E+00 0. -1.
         -4    1    4    4    0  502 -0.61850017880E+03  0.68722264891E+03 -0.18221767879E+03  0.94234851451E+03  0.00000000000E+00 0. -1.
<mgrwt>
<rscale>  2 0.14112406E+04</rscale>
<asrwt>0</asrwt>
<pdfrwt beam="1">  1       21 0.19954201E+00 0.14203348E+04</pdfrwt>
<pdfrwt beam="2">  1       21 0.26843862E+00 0.14203348E+04</pdfrwt>
<totfact> 0.20010454E+00</totfact>
</mgrwt>
</event>
<event>
 8    1  0.7208583E-006  0.1049507E+04  0.7818608E-02  0.8733869E-01
         21   -1    0    0  503  502  0.00000000000E+00  0.00000000000E+00  0.11623171255E+04  0.11623171255E+04  0.00000000000E+00 0. -1.
         21   -1    0    0  501  503 -0.00000000000E+00 -0.00000000000E+00 -0.10309739775E+04  0.10309739775E+04  0.00000000000E+00 0. -1.
    9000010    2    1    2  501    0 -0.22934744192E+03 -0.17386879775E+03 -0.27733902177E+03  0.10855332234E+04  0.10092744117E+04 0.  0.
   -9000010    2    1    2    0  502  0.22934744192E+03  0.17386879775E+03  0.40868216974E+03  0.11077578797E+04  0.98857260541E+03 0.  0.
        -13    1    3    3    0    0  0.39954864100E+03 -0.48813646859E+02 -0.16269409525E+03  0.43415581124E+03  0.10566000000E+00 0.  1.
          4    1    3    3  501    0 -0.62889608292E+03 -0.12505515089E+03 -0.11464492652E+03  0.65137741215E+03  0.00000000000E+00 0.  1.
         13    1    4    4    0    0  0.55223102033E+03 -0.85338647320E+01  0.47808386965E+03  0.73047664182E+03  0.10566000000E+00 0. -1.
         -4    1    4    4    0  502 -0.32288357841E+03  0.18240266248E+03 -0.69401699909E+02  0.37728123785E+03  0.00000000000E+00 0. -1.
<mgrwt>
<rscale>  2 0.10444984E+04</rscale>
<asrwt>0</asrwt>
<pdfrwt beam="1">  1       21 0.17881802E+00 0.10495072E+04</pdfrwt>
<pdfrwt beam="2">  1       21 0.15861138E+00 0.10495072E+04</pdfrwt>
<totfact> 0.22378296E+01</totfact>
</mgrwt>
</event>
<event>
 8    1  0.7208583E-006  0.1320849E+04  0.7818608E-02  0.8549407E-01
         21   -1    0    0  501  502  0.00000000000E+00  0.00000000000E+00  0.33199947509E+04  0.33199947509E+04  0.00000000000E+00 0. -1.
         21   -1    0    0  502  503 -0.00000000000E+00 -0.00000000000E+00 -0.75510341620E+03  0.75510341620E+03  0.00000000000E+00 0. -1.
    9000010    2    1    2  501    0  0.43976635319E+03 -0.40720433165E+03  0.25972059578E+04  0.29137812569E+04  0.11770440149E+04 0.  0.
   -9000010    2    1    2    0  503 -0.43976635319E+03  0.40720433165E+03 -0.32314623112E+02  0.11613169101E+04  0.99418454914E+03 0.  0.
        -13    1    3    3    0    0  0.72004353450E+03  0.11344133852E+03  0.13890589934E+04  0.15686989919E+04  0.10566000000E+00 0.  1.
          4    1    3    3  501    0 -0.28027718131E+03 -0.52064567017E+03  0.12081469643E+04  0.13450822650E+04  0.00000000000E+00 0.  1.
         13    1    4    4    0    0  0.20507588242E+03  0.44826038962E+03 -0.12502538219E+03  0.50855171990E+03  0.10566000000E+00 0. -1.
         -4    1    4    4    0  503 -0.64484223560E+03 -0.41056057977E+02  0.92710759076E+02  0.65276519022E+03  0.00000000000E+00 0. -1.
<mgrwt>
<rscale>  2 0.12788969E+04</rscale>
<asrwt>0</asrwt>
<pdfrwt beam="1">  1       21 0.51076842E+00 0.13208491E+04</pdfrwt>
<pdfrwt beam="2">  1       21 0.11616976E+00 0.13208491E+04</pdfrwt>
<totfact> 0.22441274E-01</totfact>
</mgrwt>
</event>
<event>
 8    1  0.7208583E-006  0.1096915E+04  0.7818608E-02  0.8695647E-01
         21   -1    0    0  503  502  0.00000000000E+00  0.00000000000E+00  0.15961504948E+04  0.15961504948E+04  0.00000000000E+00 0. -1.
         21   -1    0    0  501  503 -0.00000000000E+00 -0.00000000000E+00 -0.79523673462E+03  0.79523673462E+03  0.00000000000E+00 0. -1.
    9000010    2    1    2  501    0  0.63135616400E+02  0.37902827596E+03  0.74586076451E+03  0.13264726691E+04  0.10274107854E+04 0.  0.
   -9000010    2    1    2    0  502 -0.63135616400E+02 -0.37902827596E+03  0.55052995632E+02  0.10649145603E+04  0.99164693732E+03 0.  0.
        -13    1    3    3    0    0  0.18111759556E+03 -0.16335069169E+03  0.73164569403E+03  0.77122789411E+03  0.10566000000E+00 0.  1.
          4    1    3    3  501    0 -0.11798197916E+03  0.54237896765E+03  0.14215070479E+02  0.55524477502E+03  0.00000000000E+00 0.  1.
         13    1    4    4    0    0  0.31540317711E+03 -0.33967604934E+03  0.35213273725E+03  0.58211378478E+03  0.10566000000E+00 0. -1.
         -4    1    4    4    0  502 -0.37853879351E+03 -0.39352226622E+02 -0.29707974162E+03  0.48280077548E+03  0.00000000000E+00 0. -1.
<mgrwt>
<rscale>  2 0.10884613E+04</rscale>
<asrwt>0</asrwt>
<pdfrwt beam="1">  1       21 0.24556161E+00 0.10969145E+04</pdfrwt>
<pdfrwt beam="2">  1       21 0.12234411E+00 0.10969145E+04</pdfrwt>
<totfact> 0.14774925E+01</totfact>
</mgrwt>
</event>
<event>
 8    1  0.7208583E-006  0.1015631E+04  0.7818608E-02  0.8762186E-01
         21   -1    0    0  503  502  0.00000000000E+00  0.00000000000E+00  0.22307394749E+04  0.22307394749E+04  0.00000000000E+00 0. -1.
         21   -1    0    0  501  503 -0.00000000000E+00 -0.00000000000E+00 -0.55272892626E+03  0.55272892626E+03  0.00000000000E+00 0. -1.
    9000010    2    1    2  501    0 -0.15645208357E+03  0.11112535263E+02  0.26028510275E+03  0.10394927876E+04  0.99408056907E+03 0.  0.
   -9000010    2    1    2    0  502  0.15645208357E+03 -0.11112535263E+02  0.14177254458E+04  0.17439756135E+04  0.10034464400E+04 0.  0.
        -13    1    3    3    0    0  0.42381786704E+03  0.33592165378E+02  0.12663413688E+03  0.44360594426E+03  0.10566000000E+00 0.  1.
          4    1    3    3  501    0 -0.58026995061E+03 -0.22479630115E+02  0.13365096587E+03  0.59588684331E+03  0.00000000000E+00 0.  1.
         13    1    4    4    0    0 -0.28155854198E+03 -0.13407578675E+02  0.23834640781E+02  0.28288350428E+03  0.10566000000E+00 0. -1.
         -4    1    4    4    0  502  0.43801062555E+03  0.22950434120E+01  0.13938908051E+04  0.14610921093E+04  0.00000000000E+00 0. -1.
<mgrwt>
<rscale>  2 0.10133095E+04</rscale>
<asrwt>0</asrwt>
<pdfrwt beam="1">  1       21 0.34319068E+00 0.10156306E+04</pdfrwt>
<pdfrwt beam="2">  1       21 0.85035221E-01 0.10156306E+04</pdfrwt>
<totfact> 0.79830565E+00</totfact>
</mgrwt>
</event>
<event>
 8    1  0.7208583E-006  0.1015753E+04  0.7818608E-02  0.8786329E-01
         21   -1    0    0  501  502  0.00000000000E+00  0.00000000000E+00  0.11181432520E+04  0.11181432520E+04  0.00000000000E+00 0. -1.
         21   -1    0    0  502  503 -0.00000000000E+00 -0.00000000000E+00 -0.86547751572E+03  0.86547751572E+03  0.00000000000E+00 0. -1.
    9000010    2    1    2  501    0  0.13648497112E+03  0.98363641879E+02 -0.88639623770E+02  0.91205997530E+03  0.89201617825E+03 0.  0.
   -9000010    2    1    2    0  503 -0.13648497112E+03 -0.98363641879E+02  0.34130536010E+03  0.10715607925E+04  0.10017233299E+04 0.  0.
        -13    1    3    3    0    0 -0.10044270630E+02  0.32123116558E+03  0.30069693124E+03  0.44012385158E+03  0.10566000000E+00 0.  1.
          4    1    3    3  501    0  0.14652924175E+03 -0.22286752370E+03 -0.38933655501E+03  0.47193612372E+03  0.00000000000E+00 0.  1.
         13    1    4    4    0    0  0.29031418014E+03 -0.32047023038E+03 -0.70663498906E+02  0.43815160959E+03  0.10566000000E+00 0. -1.
         -4    1    4    4    0  503 -0.42679915125E+03  0.22210658850E+03  0.41196885900E+03  0.63340918288E+03  0.00000000000E+00 0. -1.
<mgrwt>
<rscale>  2 0.98760117E+03</rscale>
<asrwt>0</asrwt>
<pdfrwt beam="1">  1       21 0.17202204E+00 0.10157525E+04</pdfrwt>
<pdfrwt beam="2">  1       21 0.13315039E+00 0.10157525E+04</pdfrwt>
<totfact> 0.43649334E+01</totfact>
</mgrwt>
</event>
<event>
 8    1  0.7208583E-006  0.1033464E+04  0.7818608E-02  0.8761517E-01
         21   -1    0    0  503  502  0.00000000000E+00  0.00000000000E+00  0.11570359435E+04  0.11570359435E+04  0.00000000000E+00 0. -1.
         21   -1    0    0  501  503 -0.00000000000E+00 -0.00000000000E+00 -0.96216142171E+03  0.96216142171E+03  0.00000000000E+00 0. -1.
    9000010    2    1    2  501    0  0.23609853844E+03 -0.14299960827E+03 -0.24962962185E+03  0.10631856167E+04  0.99592032792E+03 0.  0.
   -9000010    2    1    2    0  502 -0.23609853844E+03  0.14299960827E+03  0.44450414363E+03  0.10560117485E+04  0.91727066426E+03 0.  0.
        -13    1    3    3    0    0  0.57772664627E+03 -0.91916081200E+02  0.74229758146E+02  0.58968356935E+03  0.10566000000E+00 0.  1.
          4    1    3    3  501    0 -0.34162810784E+03 -0.51083527071E+02 -0.32385938000E+03  0.47350204732E+03  0.00000000000E+00 0.  1.
         13    1    4    4    0    0 -0.20034221497E+02 -0.62797781628E+02  0.67546893782E+03  0.67867755859E+03  0.10566000000E+00 0. -1.
         -4    1    4    4    0  502 -0.21606431694E+03  0.20579738990E+03 -0.23096479419E+03  0.37733418994E+03  0.00000000000E+00 0. -1.
<mgrwt>
<rscale>  2 0.10140327E+04</rscale>
<asrwt>0</asrwt>
<pdfrwt beam="1">  1       21 0.17800553E+00 0.10334644E+04</pdfrwt>
<pdfrwt beam="2">  1       21 0.14802483E+00 0.10334644E+04</pdfrwt>
<totfact> 0.28275380E+01</totfact>
</mgrwt>
</event>
<event>
 8    1  0.7208583E-006  0.9939643E+03  0.7818608E-02  0.8804325E-01
         21   -1    0    0  501  502  0.00000000000E+00  0.00000000000E+00  0.14558145799E+04  0.14558145799E+04  0.00000000000E+00 0. -1.
         21   -1    0    0  502  503 -0.00000000000E+00 -0.00000000000E+00 -0.66255679732E+03  0.66255679732E+03  0.00000000000E+00 0. -1.
    9000010    2    1    2  501    0  0.86496277129E+02 -0.13346698889E+03  0.66295982385E+03  0.11159031453E+04  0.88341895977E+03 0.  0.
   -9000010    2    1    2    0  503 -0.86496277129E+02  0.13346698889E+03  0.13029795872E+03  0.10024682320E+04  0.98115745676E+03 0.  0.
        -13    1    3    3    0    0 -0.91972273948E+02  0.28005311919E+01 -0.20216109829E+03  0.22211677779E+03  0.10566000000E+00 0.  1.
          4    1    3    3  501    0  0.17846855108E+03 -0.13626752008E+03  0.86512092214E+03  0.89378636747E+03  0.00000000000E+00 0.  1.
         13    1    4    4    0    0 -0.23982839954E+03 -0.32339859783E+03 -0.16738533865E+03  0.43603001854E+03  0.10566000000E+00 0. -1.
         -4    1    4    4    0  503  0.15333212241E+03  0.45686558672E+03  0.29768329737E+03  0.56643821343E+03  0.00000000000E+00 0. -1.
<mgrwt>
<rscale>  2 0.96895003E+03</rscale>
<asrwt>0</asrwt>
<pdfrwt beam="1">  1       21 0.22397147E+00 0.99396428E+03</pdfrwt>
<pdfrwt beam="2">  1       21 0.10193182E+00 0.99396428E+03</pdfrwt>
<totfact> 0.35892696E+01</totfact>
</mgrwt>
</event>
<event>
 8    1  0.7208583E-006  0.1009106E+04  0.7818608E-02  0.8769789E-01
         21   -1    0    0  503  502  0.00000000000E+00  0.00000000000E+00  0.10869747567E+04  0.10869747567E+04  0.00000000000E+00 0.  1.
         21   -1    0    0  501  503 -0.00000000000E+00 -0.00000000000E+00 -0.11860422601E+04  0.11860422601E+04  0.00000000000E+00 0.  1.
    9000010    2    1    2  501    0  0.70178585922E+02  0.21367078660E+02 -0.58526777712E+03  0.11528894830E+04  0.99057266424E+03 0.  0.
   -9000010    2    1    2    0  502 -0.70178585922E+02 -0.21367078660E+02  0.48620027376E+03  0.11201275338E+04  0.10064359889E+04 0.  0.
        -13    1    3    3    0    0 -0.26503075379E+03 -0.32917420899E+03 -0.42115491570E+02  0.42470070181E+03  0.10566000000E+00 0.  1.
          4    1    3    3  501    0  0.33520933971E+03  0.35054128765E+03 -0.54315228555E+03  0.72818878121E+03  0.00000000000E+00 0.  1.
         13    1    4    4    0    0  0.20406261112E+02 -0.48841753358E+03  0.41059959664E+03  0.63840437226E+03  0.10566000000E+00 0. -1.
         -4    1    4    4    0  502 -0.90584847034E+02  0.46705045492E+03  0.75600677117E+02  0.48172316151E+03  0.00000000000E+00 0. -1.
<mgrwt>
<rscale>  2 0.10051274E+04</rscale>
<asrwt>0</asrwt>
<pdfrwt beam="1">  1       21 0.16722689E+00 0.10091060E+04</pdfrwt>
<pdfrwt beam="2">  1       21 0.18246804E+00 0.10091060E+04</pdfrwt>
<totfact> 0.17802162E+01</totfact>
</mgrwt>
</event>
<event>
 8    1  0.7208583E-006  0.1108424E+04  0.7818608E-02  0.8680127E-01
         21   -1    0    0  501  502  0.00000000000E+00  0.00000000000E+00  0.19505258634E+04  0.19505258634E+04  0.00000000000E+00 0.  1.
         21   -1    0    0  502  503 -0.00000000000E+00 -0.00000000000E+00 -0.72894645414E+03  0.72894645414E+03  0.00000000000E+00 0.  1.
    9000010    2    1    2  501    0 -0.65372295657E+02 -0.45972017648E+03  0.11115080432E+04  0.15655963175E+04  0.10000127607E+04 0.  0.
   -9000010    2    1    2    0  503  0.65372295657E+02  0.45972017648E+03  0.11007136610E+03  0.11138760001E+04  0.10064729804E+04 0.  0.
        -13    1    3    3    0    0 -0.20673987748E+03 -0.34937415685E+02 -0.12940937100E+03  0.24639155103E+03  0.10566000000E+00 0.  1.
          4    1    3    3  501    0  0.14136758182E+03 -0.42478276080E+03  0.12409174142E+04  0.13192047665E+04  0.00000000000E+00 0.  1.
         13    1    4    4    0    0  0.37109679315E+03  0.12565046954E+03  0.41282693611E+03  0.56914581674E+03  0.10566000000E+00 0. -1.
         -4    1    4    4    0  503 -0.30572449749E+03  0.33406970694E+03 -0.30275557000E+03  0.54473018333E+03  0.00000000000E+00 0. -1.
<mgrwt>
<rscale>  2 0.11069555E+04</rscale>
<asrwt>0</asrwt>
<pdfrwt beam="1">  1       21 0.30008090E+00 0.11084241E+04</pdfrwt>
<pdfrwt beam="2">  1       21 0.11214561E+00 0.11084241E+04</pdfrwt>
<totfact> 0.76296519E+00</totfact>
</mgrwt>
</event>
<event>
 8    1  0.7208583E-006  0.1007377E+04  0.7818608E-02  0.8772367E-01
         21   -1    0    0  501  502  0.00000000000E+00  0.00000000000E+00  0.93953326152E+03  0.93953326152E+03  0.00000000000E+00 0.  1.
         21   -1    0    0  502  503 -0.00000000000E+00 -0.00000000000E+00 -0.12500554551E+04  0.12500554551E+04  0.00000000000E+00 0.  1.
    9000010    2    1    2  501    0  0.70145162249E+02  0.47395454964E+02  0.27413223874E+03  0.10248443998E+04  0.98386527865E+03 0.  0.
   -9000010    2    1    2    0  503 -0.70145162249E+02 -0.47395454964E+02 -0.58465443233E+03  0.11647443168E+04  0.10038136507E+04 0.  0.
        -13    1    3    3    0    0  0.31217882057E+03  0.40388222440E+03  0.30190740297E+03  0.59306370512E+03  0.10566000000E+00 0.  1.
          4    1    3    3  501    0 -0.24203365832E+03 -0.35648676944E+03 -0.27775164230E+02  0.43178069467E+03  0.00000000000E+00 0.  1.
         13    1    4    4    0    0  0.25816136920E+03 -0.20734949877E+03 -0.70609821309E+03  0.77988191726E+03  0.10566000000E+00 0. -1.
         -4    1    4    4    0  503 -0.32830653145E+03  0.15995404380E+03  0.12144378076E+03  0.38486239957E+03  0.00000000000E+00 0. -1.
<mgrwt>
<rscale>  2 0.10023708E+04</rscale>
<asrwt>0</asrwt>
<pdfrwt beam="1">  1       21 0.14454358E+00 0.10073770E+04</pdfrwt>
<pdfrwt beam="2">  1       21 0.19231622E+00 0.10073770E+04</pdfrwt>
<totfact> 0.23448637E+01</totfact>
</mgrwt>
</event>
<event>
 8    1  0.7208583E-006  0.1094159E+04  0.7818608E-02  0.8698684E-01
         21   -1    0    0  501  502  0.00000000000E+00  0.00000000000E+00  0.15055336878E+04  0.15055336878E+04  0.00000000000E+00 0.  1.
         21   -1    0    0  502  503 -0.00000000000E+00 -0.00000000000E+00 -0.87686970235E+03  0.87686970235E+03  0.00000000000E+00 0.  1.
    9000010    2    1    2  501    0  0.14688515190E+03 -0.38931104688E+03  0.73715680747E+03  0.13193118815E+04  0.10119512551E+04 0.  0.
   -9000010    2    1    2    0  503 -0.14688515190E+03  0.38931104688E+03 -0.10849282198E+03  0.10630915087E+04  0.97224200919E+03 0.  0.
        -13    1    3    3    0    0 -0.74044413703E+02  0.24128474527E+03 -0.79056731874E+02  0.26448228962E+03  0.10566000000E+00 0.  1.
          4    1    3    3  501    0  0.22092956560E+03 -0.63059579215E+03  0.81621353934E+03  0.10548295919E+04  0.00000000000E+00 0.  1.
         13    1    4    4    0    0  0.89052033458E+02  0.63598921929E+03 -0.25586959539E+03  0.69128996284E+03  0.10566000000E+00 0. -1.
         -4    1    4    4    0  503 -0.23593718536E+03 -0.24667817241E+03  0.14737677341E+03  0.37180154588E+03  0.00000000000E+00 0. -1.
<mgrwt>
<rscale>  2 0.10848872E+04</rscale>
<asrwt>0</asrwt>
<pdfrwt beam="1">  1       21 0.23162057E+00 0.10941589E+04</pdfrwt>
<pdfrwt beam="2">  1       21 0.13490303E+00 0.10941589E+04</pdfrwt>
<totfact> 0.14134975E+01</totfact>
</mgrwt>
</event>
<event>
 8    1  0.7208583E-006  0.1020733E+04  0.7818608E-02  0.8760471E-01
         21   -1    0    0  503  502  0.00000000000E+00  0.00000000000E+00  0.21986364321E+04  0.21986364321E+04  0.00000000000E+00 0.  1.
         21   -1    0    0  501  503 -0.00000000000E+00 -0.00000000000E+00 -0.68847785291E+03  0.68847785291E+03  0.00000000000E+00 0.  1.
    9000010    2    1    2  501    0  0.26146107583E+03  0.33100228669E+02 -0.75312072175E+02  0.10014809019E+04  0.96324169829E+03 0.  0.
   -9000010    2    1    2    0  502 -0.26146107583E+03 -0.33100228669E+02  0.15854706514E+04  0.18856333832E+04  0.98612298924E+03 0.  0.
        -13    1    3    3    0    0  0.51229473404E+03  0.30856871711E+03 -0.16070002836E+03  0.61926170395E+03  0.10566000000E+00 0.  1.
          4    1    3    3  501    0 -0.25083365821E+03 -0.27546848844E+03  0.85387956184E+02  0.38221919794E+03  0.00000000000E+00 0.  1.
         13    1    4    4    0    0 -0.28544245550E+03 -0.34824069433E+02  0.17225876128E+04  0.17464244061E+04  0.10566000000E+00 0. -1.
         -4    1    4    4    0  502  0.23981379662E+02  0.17238407642E+01 -0.13711696139E+03  0.13920897708E+03  0.00000000000E+00 0. -1.
<mgrwt>
<rscale>  2 0.10151657E+04</rscale>
<asrwt>0</asrwt>
<pdfrwt beam="1">  1       21 0.33825176E+00 0.10207331E+04</pdfrwt>
<pdfrwt beam="2">  1       21 0.10591967E+00 0.10207331E+04</pdfrwt>
<totfact> 0.48951376E+00</totfact>
</mgrwt>
</event>
<event>
 8    1  0.7208583E-006  0.1049019E+04  0.7818608E-02  0.8730252E-01
         21   -1    0    0  503  502  0.00000000000E+00  0.00000000000E+00  0.27378088942E+04  0.27378088942E+04  0.00000000000E+00 0. -1.
         21   -1    0    0  501  503 -0.00000000000E+00 -0.00000000000E+00 -0.66019950970E+03  0.66019950970E+03  0.00000000000E+00 0. -1.
    9000010    2    1    2  501    0 -0.24516371269E+03  0.16008955097E+03 -0.24710103092E+02  0.10493104439E+04  0.10073271108E+04 0.  0.
   -9000010    2    1    2    0  502  0.24516371269E+03 -0.16008955097E+03  0.21023194876E+04  0.23486979600E+04  0.10054357110E+04 0.  0.
        -13    1    3    3    0    0  0.20491153286E+03  0.82261437446E+02  0.37971020791E+03  0.43924427548E+03  0.10566000000E+00 0.  1.
          4    1    3    3  501    0 -0.45007524554E+03  0.77828113526E+02 -0.40442031100E+03  0.61006616842E+03  0.00000000000E+00 0.  1.
         13    1    4    4    0    0  0.44290566434E+03  0.13044281559E+03  0.40125166426E+03  0.61170553772E+03  0.10566000000E+00 0. -1.
         -4    1    4    4    0  502 -0.19774195166E+03 -0.29053236657E+03  0.17010678233E+04  0.17369924223E+04  0.00000000000E+00 0. -1.
<mgrwt>
<rscale>  2 0.10485651E+04</rscale>
<asrwt>0</asrwt>
<pdfrwt beam="1">  1       21 0.42120136E+00 0.10490195E+04</pdfrwt>
<pdfrwt beam="2">  1       21 0.10156916E+00 0.10490195E+04</pdfrwt>
<totfact> 0.14323624E+00</totfact>
</mgrwt>
</event>
<event>
 8    1  0.7208583E-006  0.1046551E+04  0.7818608E-02  0.8733084E-01
         21   -1    0    0  501  502  0.00000000000E+00  0.00000000000E+00  0.72321967956E+03  0.72321967956E+03  0.00000000000E+00 0. -1.
         21   -1    0    0  502  503 -0.00000000000E+00 -0.00000000000E+00 -0.19200936725E+04  0.19200936725E+04  0.00000000000E+00 0. -1.
    9000010    2    1    2  501    0  0.17295266254E+03  0.23335836879E+03  0.15147923915E+02  0.10419805366E+04  0.10005624555E+04 0.  0.
   -9000010    2    1    2    0  503 -0.17295266254E+03 -0.23335836879E+03 -0.12120219168E+04  0.16013328154E+04  0.10054356802E+04 0.  0.
        -13    1    3    3    0    0 -0.35134746569E+03  0.19789332639E+03  0.24125260454E+03  0.46990386319E+03  0.10566000000E+00 0.  1.
          4    1    3    3  501    0  0.52430012823E+03  0.35465042394E+02 -0.22610468062E+03  0.57207667344E+03  0.00000000000E+00 0.  1.
         13    1    4    4    0    0 -0.57354576280E+03  0.10530692957E+02 -0.73521080618E+03  0.93252376818E+03  0.10566000000E+00 0. -1.
         -4    1    4    4    0  503  0.40059310026E+03 -0.24388906174E+03 -0.47681111064E+03  0.66880904722E+03  0.00000000000E+00 0. -1.
<mgrwt>
<rscale>  2 0.10453791E+04</rscale>
<asrwt>0</asrwt>
<pdfrwt beam="1">  1       21 0.11126457E+00 0.10465513E+04</pdfrwt>
<pdfrwt beam="2">  1       21 0.29539902E+00 0.10465513E+04</pdfrwt>
<totfact> 0.85342284E+00</totfact>
</mgrwt>
</event>
<event>
 8    1  0.7208583E-006  0.1013258E+04  0.7818608E-02  0.8765006E-01
         21   -1    0    0  501  502  0.00000000000E+00  0.00000000000E+00  0.10706029537E+04  0.10706029537E+04  0.00000000000E+00 0.  1.
         21   -1    0    0  502  503 -0.00000000000E+00 -0.00000000000E+00 -0.10844064052E+04  0.10844064052E+04  0.00000000000E+00 0.  1.
    9000010    2    1    2  501    0 -0.71003904670E+02  0.18030142905E+03  0.37565041622E+03  0.10694838504E+04  0.98241147753E+03 0.  0.
   -9000010    2    1    2    0  503  0.71003904670E+02 -0.18030142905E+03 -0.38945386778E+03  0.10855255086E+04  0.99455575752E+03 0.  0.
        -13    1    3    3    0    0 -0.19254672806E+03  0.50541600747E+03 -0.22455498735E+02  0.54131676834E+03  0.10566000000E+00 0.  1.
          4    1    3    3  501    0  0.12154282339E+03 -0.32511457842E+03  0.39810591495E+03  0.52816708203E+03  0.00000000000E+00 0.  1.
         13    1    4    4    0    0 -0.46130272097E+03 -0.97972232509E+02 -0.14002759751E+03  0.49194155948E+03  0.10566000000E+00 0. -1.
         -4    1    4    4    0  503  0.53230662564E+03 -0.82329196541E+02 -0.24942627027E+03  0.59358394908E+03  0.00000000000E+00 0. -1.
<mgrwt>
<rscale>  2 0.10102652E+04</rscale>
<asrwt>0</asrwt>
<pdfrwt beam="1">  1       21 0.16470815E+00 0.10132578E+04</pdfrwt>
<pdfrwt beam="2">  1       21 0.16683175E+00 0.10132578E+04</pdfrwt>
<totfact> 0.25161716E+01</totfact>
</mgrwt>
</event>
<event>
 8    1  0.7208583E-006  0.1166050E+04  0.7818608E-02  0.8648906E-01
         21   -1    0    0  501  502  0.00000000000E+00  0.00000000000E+00  0.61901396026E+03  0.61901396026E+03  0.00000000000E+00 0. -1.
         21   -1    0    0  502  503 -0.00000000000E+00 -0.00000000000E+00 -0.24998560029E+04  0.24998560029E+04  0.00000000000E+00 0. -1.
    9000010    2    1    2  501    0  0.43564596877E+03  0.83807574207E+02 -0.16312866741E+04  0.20051852623E+04  0.10783601456E+04 0.  0.
   -9000010    2    1    2    0  503 -0.43564596877E+03 -0.83807574207E+02 -0.24955536858E+03  0.11136847009E+04  0.99055772743E+03 0.  0.
        -13    1    3    3    0    0  0.57669613309E+03 -0.15548199012E+01 -0.17227021219E+04  0.18166682304E+04  0.10566000000E+00 0.  1.
          4    1    3    3  501    0 -0.14105016432E+03  0.85362394108E+02  0.91415447889E+02  0.18851703184E+03  0.00000000000E+00 0.  1.
         13    1    4    4    0    0  0.91337370934E+02  0.37398096486E+03 -0.53903509081E+02  0.38872853878E+03  0.10566000000E+00 0. -1.
         -4    1    4    4    0  503 -0.52698333971E+03 -0.45778853907E+03 -0.19565185950E+03  0.72495616209E+03  0.00000000000E+00 0. -1.
<mgrwt>
<rscale>  2 0.11453327E+04</rscale>
<asrwt>0</asrwt>
<pdfrwt beam="1">  1       21 0.95232920E-01 0.11660496E+04</pdfrwt>
<pdfrwt beam="2">  1       21 0.38459322E+00 0.11660496E+04</pdfrwt>
<totfact> 0.29630073E+00</totfact>
</mgrwt>
</event>
<event>
 8    1  0.7208583E-006  0.1010974E+04  0.7818608E-02  0.8767735E-01
         21   -1    0    0  501  502  0.00000000000E+00  0.00000000000E+00  0.14288514335E+04  0.14288514335E+04  0.00000000000E+00 0.  1.
         21   -1    0    0  502  503 -0.00000000000E+00 -0.00000000000E+00 -0.12778293165E+04  0.12778293165E+04  0.00000000000E+00 0.  1.
    9000010    2    1    2  501    0 -0.11039717722E+03 -0.10398679890E+02  0.98124460162E+03  0.13984993998E+04  0.99028477408E+03 0.  0.
   -9000010    2    1    2    0  503  0.11039717722E+03  0.10398679890E+02 -0.83022248462E+03  0.13081813502E+04  0.10048748189E+04 0.  0.
        -13    1    3    3    0    0 -0.15346035757E+03  0.14505298626E+03  0.11475495937E+04  0.11668164086E+04  0.10566000000E+00 0.  1.
          4    1    3    3  501    0  0.43063180349E+02 -0.15545166615E+03 -0.16630499211E+03  0.23168299120E+03  0.00000000000E+00 0.  1.
         13    1    4    4    0    0 -0.42336933099E+03  0.23904007749E+02 -0.16460150217E+03  0.45486993492E+03  0.10566000000E+00 0. -1.
         -4    1    4    4    0  503  0.53376650821E+03 -0.13505327859E+02 -0.66562098246E+03  0.85331141528E+03  0.00000000000E+00 0. -1.
<mgrwt>
<rscale>  2 0.10073295E+04</rscale>
<asrwt>0</asrwt>
<pdfrwt beam="1">  1       21 0.21982330E+00 0.10109743E+04</pdfrwt>
<pdfrwt beam="2">  1       21 0.19658913E+00 0.10109743E+04</pdfrwt>
<totfact> 0.52524756E+00</totfact>
</mgrwt>
</event>
<event>
 8    1  0.7208583E-006  0.1063798E+04  0.7818608E-02  0.8721521E-01
         21   -1    0    0  501  502  0.00000000000E+00  0.00000000000E+00  0.56528781604E+03  0.56528781604E+03  0.00000000000E+00 0. -1.
         21   -1    0    0  502  503 -0.00000000000E+00 -0.00000000000E+00 -0.21736886497E+04  0.21736886497E+04  0.00000000000E+00 0. -1.
    9000010    2    1    2  501    0 -0.17271412171E+03 -0.28575858081E+03 -0.12240027059E+04  0.16078579956E+04  0.98769255109E+03 0.  0.
   -9000010    2    1    2    0  503  0.17271412171E+03  0.28575858081E+03 -0.38439812780E+03  0.11311184702E+04  0.10100390778E+04 0.  0.
        -13    1    3    3    0    0  0.41406009628E+03 -0.13790095455E+03 -0.47717434786E+03  0.64665122440E+03  0.10566000000E+00 0.  1.
          4    1    3    3  501    0 -0.58677421799E+03 -0.14785762626E+03 -0.74682835804E+03  0.96120677116E+03  0.00000000000E+00 0.  1.
         13    1    4    4    0    0 -0.22642578164E+03  0.85527508044E+02 -0.59133426889E+03  0.63895212493E+03  0.10566000000E+00 0. -1.
         -4    1    4    4    0  503  0.39913990335E+03  0.20023107276E+03  0.20693614109E+03  0.49216634529E+03  0.00000000000E+00 0. -1.
<mgrwt>
<rscale>  2 0.10584600E+04</rscale>
<asrwt>0</asrwt>
<pdfrwt beam="1">  1       21 0.86967358E-01 0.10637984E+04</pdfrwt>
<pdfrwt beam="2">  1       21 0.33441363E+00 0.10637984E+04</pdfrwt>
<totfact> 0.85954135E+00</totfact>
</mgrwt>
</event>
<event>
 8    1  0.7208583E-006  0.1973653E+04  0.7818608E-02  0.8180228E-01
         21   -1    0    0  503  502  0.00000000000E+00  0.00000000000E+00  0.16944261530E+04  0.16944261530E+04  0.00000000000E+00 0. -1.
         21   -1    0    0  501  503 -0.00000000000E+00 -0.00000000000E+00 -0.25755776219E+04  0.25755776219E+04  0.00000000000E+00 0. -1.
    9000010    2    1    2  501    0  0.15987133713E+04 -0.53251921509E+03 -0.11556961861E+04  0.22871246697E+04  0.10275429052E+04 0.  0.
   -9000010    2    1    2    0  502 -0.15987133713E+04  0.53251921509E+03  0.27454471711E+03  0.19828791053E+04  0.10084510828E+04 0.  0.
        -13    1    3    3    0    0  0.10630844930E+04 -0.79977540881E+01 -0.21567982245E+03  0.10847720499E+04  0.10566000000E+00 0.  1.
          4    1    3    3  501    0  0.53562887836E+03 -0.52452146100E+03 -0.94001636363E+03  0.12023526198E+04  0.00000000000E+00 0.  1.
         13    1    4    4    0    0 -0.26445925686E+03  0.50982890128E+03 -0.12920164920E+03  0.58869116219E+03  0.10566000000E+00 0. -1.
         -4    1    4    4    0  502 -0.13342541145E+04  0.22690313811E+02  0.40374636631E+03  0.13941879431E+04  0.00000000000E+00 0. -1.
<mgrwt>
<rscale>  2 0.19711802E+04</rscale>
<asrwt>0</asrwt>
<pdfrwt beam="1">  1       21 0.26068095E+00 0.19736529E+04</pdfrwt>
<pdfrwt beam="2">  1       21 0.39624271E+00 0.19736529E+04</pdfrwt>
<totfact> 0.79745832E-02</totfact>
</mgrwt>
</event>
<event>
 8    1  0.7208583E-006  0.1010599E+04  0.7818608E-02  0.8766254E-01
         21   -1    0    0  503  502  0.00000000000E+00  0.00000000000E+00  0.79103412230E+03  0.79103412230E+03  0.00000000000E+00 0. -1.
         21   -1    0    0  501  503 -0.00000000000E+00 -0.00000000000E+00 -0.13301294013E+04  0.13301294013E+04  0.00000000000E+00 0. -1.
    9000010    2    1    2  501    0  0.40734995061E+02  0.70446122235E+02 -0.68138108381E+02  0.10062143881E+04  0.10006011178E+04 0.  0.
   -9000010    2    1    2    0  502 -0.40734995061E+02 -0.70446122235E+02 -0.47095717062E+03  0.11149491355E+04  0.10073176869E+04 0.  0.
        -13    1    3    3    0    0  0.41146594136E+03 -0.27620257382E+03 -0.53520923225E+02  0.49845419355E+03  0.10566000000E+00 0.  1.
          4    1    3    3  501    0 -0.37073094630E+03  0.34664869605E+03 -0.14617185155E+02  0.50776019450E+03  0.00000000000E+00 0.  1.
         13    1    4    4    0    0  0.13881294224E+03 -0.51382411784E+03 -0.24697999601E+03  0.58675666728E+03  0.10566000000E+00 0. -1.
         -4    1    4    4    0  502 -0.17954793730E+03  0.44337799560E+03 -0.22397717461E+03  0.52819246826E+03  0.00000000000E+00 0. -1.
<mgrwt>
<rscale>  2 0.10089215E+04</rscale>
<asrwt>0</asrwt>
<pdfrwt beam="1">  1       21 0.12169756E+00 0.10105993E+04</pdfrwt>
<pdfrwt beam="2">  1       21 0.20463529E+00 0.10105993E+04</pdfrwt>
<totfact> 0.30981016E+01</totfact>
</mgrwt>
</event>
<event>
 8    1  0.7208583E-006  0.1054566E+04  0.7818608E-02  0.8727385E-01
         21   -1    0    0  503  502  0.00000000000E+00  0.00000000000E+00  0.43125546230E+03  0.43125546230E+03  0.00000000000E+00 0.  1.
         21   -1    0    0  501  503 -0.00000000000E+00 -0.00000000000E+00 -0.25709067995E+04  0.25709067995E+04  0.00000000000E+00 0.  1.
    9000010    2    1    2  501    0 -0.21237229270E+03 -0.23998180650E+03 -0.12044349380E+04  0.16008662756E+04  0.10046969964E+04 0.  0.
   -9000010    2    1    2    0  502  0.21237229270E+03  0.23998180650E+03 -0.93521639917E+03  0.14012959861E+04  0.99313013714E+03 0.  0.
        -13    1    3    3    0    0 -0.19786199188E+03 -0.32727274596E+03  0.10630337401E+02  0.38258310642E+03  0.10566000000E+00 0.  1.
          4    1    3    3  501    0 -0.14510300818E+02  0.87290939469E+02 -0.12150652754E+04  0.12182831692E+04  0.00000000000E+00 0.  1.
         13    1    4    4    0    0  0.50116950875E+03  0.35645022303E+03 -0.89696974999E+03  0.10875579900E+04  0.10566000000E+00 0. -1.
         -4    1    4    4    0  502 -0.28879721606E+03 -0.11646841654E+03 -0.38246649182E+02  0.31373799615E+03  0.00000000000E+00 0. -1.
<mgrwt>
<rscale>  2 0.10518016E+04</rscale>
<asrwt>0</asrwt>
<pdfrwt beam="1">  1       21 0.66346994E-01 0.10545659E+04</pdfrwt>
<pdfrwt beam="2">  1       21 0.39552412E+00 0.10545659E+04</pdfrwt>
<totfact> 0.61871882E+00</totfact>
</mgrwt>
</event>
<event>
 8    1  0.7208583E-006  0.1019874E+04  0.7818608E-02  0.8758523E-01
         21   -1    0    0  503  502  0.00000000000E+00  0.00000000000E+00  0.96429131492E+03  0.96429131492E+03  0.00000000000E+00 0.  1.
         21   -1    0    0  501  503 -0.00000000000E+00 -0.00000000000E+00 -0.24233872653E+04  0.24233872653E+04  0.00000000000E+00 0.  1.
    9000010    2    1    2  501    0 -0.47461488841E+02 -0.18910602114E+03 -0.19947722268E+04  0.22356841878E+04  0.99053211495E+03 0.  0.
   -9000010    2    1    2    0  502  0.47461488841E+02  0.18910602114E+03  0.53567627643E+03  0.11519943924E+04  0.10010635978E+04 0.  0.
        -13    1    3    3    0    0 -0.42374867916E+03 -0.27744994987E+03 -0.16198935910E+04  0.16972320628E+04  0.10566000000E+00 0.  1.
          4    1    3    3  501    0  0.37628719032E+03  0.88343928733E+02 -0.37487863581E+03  0.53845212501E+03  0.00000000000E+00 0.  1.
         13    1    4    4    0    0 -0.23645187361E+02 -0.36606891357E+03 -0.14552699959E+02  0.36712032988E+03  0.10566000000E+00 0. -1.
         -4    1    4    4    0  502  0.71106676202E+02  0.55517493471E+03  0.55022897639E+03  0.78487406251E+03  0.00000000000E+00 0. -1.
<mgrwt>
<rscale>  2 0.10172798E+04</rscale>
<asrwt>0</asrwt>
<pdfrwt beam="1">  1       21 0.14835251E+00 0.10198735E+04</pdfrwt>
<pdfrwt beam="2">  1       21 0.37282881E+00 0.10198735E+04</pdfrwt>
<totfact> 0.10715424E+00</totfact>
</mgrwt>
</event>
<event>
 8    1  0.7208583E-006  0.1116743E+04  0.7818608E-02  0.8676453E-01
         21   -1    0    0  501  502  0.00000000000E+00  0.00000000000E+00  0.10144869304E+04  0.10144869304E+04  0.00000000000E+00 0. -1.
         21   -1    0    0  502  503 -0.00000000000E+00 -0.00000000000E+00 -0.13838522808E+04  0.13838522808E+04  0.00000000000E+00 0.  1.
    9000010    2    1    2  501    0 -0.37048316123E+03 -0.26356377556E+03  0.24673009671E+03  0.11229222791E+04  0.99667199610E+03 0.  0.
   -9000010    2    1    2    0  503  0.37048316123E+03  0.26356377556E+03 -0.61609544707E+03  0.12754169320E+04  0.10199956441E+04 0.  0.
        -13    1    3    3    0    0 -0.71344985794E+03 -0.12631113862E+03  0.19132031199E+03  0.74937886045E+03  0.10566000000E+00 0.  1.
          4    1    3    3  501    0  0.34296669671E+03 -0.13725263694E+03  0.55409784713E+02  0.37354341868E+03  0.00000000000E+00 0.  1.
         13    1    4    4    0    0  0.77656622752E+02  0.45891113896E+02  0.28729660400E+03  0.30112438497E+03  0.10566000000E+00 0. -1.
         -4    1    4    4    0  503  0.29282653848E+03  0.21767266166E+03 -0.90339205107E+03  0.97429254704E+03  0.00000000000E+00 0. -1.
<mgrwt>
<rscale>  2 0.11113891E+04</rscale>
<asrwt>0</asrwt>
<pdfrwt beam="1">  1       21 0.15607491E+00 0.11167429E+04</pdfrwt>
<pdfrwt beam="2">  1       21 0.21290035E+00 0.11167429E+04</pdfrwt>
<totfact> 0.12490928E+01</totfact>
</mgrwt>
</event>
<event>
 8    1  0.7208583E-006  0.1067822E+04  0.7818608E-02  0.8716365E-01
         21   -1    0    0  501  502  0.00000000000E+00  0.00000000000E+00  0.57027380614E+03  0.57027380614E+03  0.00000000000E+00 0.  1.
         21   -1    0    0  502  503 -0.00000000000E+00 -0.00000000000E+00 -0.21343758259E+04  0.21343758259E+04  0.00000000000E+00 0.  1.
    9000010    2    1    2  501    0  0.19538413210E+03 -0.20478458066E+03 -0.11483570717E+04  0.15587488581E+04  0.10153139194E+04 0.  0.
   -9000010    2    1    2    0  503 -0.19538413210E+03  0.20478458066E+03 -0.41574494812E+03  0.11459007740E+04  0.10296276213E+04 0.  0.
        -13    1    3    3    0    0 -0.13385964574E+02  0.18725748436E+03 -0.10954779311E+04  0.11114479107E+04  0.10566000000E+00 0.  1.
          4    1    3    3  501    0  0.20877009668E+03 -0.39204206502E+03 -0.52879140579E+02  0.44730094737E+03  0.00000000000E+00 0.  1.
         13    1    4    4    0    0  0.14785549130E+03 -0.28474071077E+02 -0.65145887614E+03  0.66863345527E+03  0.10566000000E+00 0. -1.
         -4    1    4    4    0  503 -0.34323962340E+03  0.23325865174E+03  0.23571392803E+03  0.47726731875E+03  0.00000000000E+00 0. -1.
<mgrwt>
<rscale>  2 0.10643569E+04</rscale>
<asrwt>0</asrwt>
<pdfrwt beam="1">  1       21 0.87734433E-01 0.10678224E+04</pdfrwt>
<pdfrwt beam="2">  1       21 0.32836551E+00 0.10678224E+04</pdfrwt>
<totfact> 0.92603631E+00</totfact>
</mgrwt>
</event>
<event>
 8    1  0.7208583E-006  0.1045633E+04  0.7818608E-02  0.8735266E-01
         21   -1    0    0  503  502  0.00000000000E+00  0.00000000000E+00  0.14550634670E+04  0.14550634670E+04  0.00000000000E+00 0. -1.
         21   -1    0    0  501  503 -0.00000000000E+00 -0.00000000000E+00 -0.89347185981E+03  0.89347185981E+03  0.00000000000E+00 0. -1.
    9000010    2    1    2  501    0  0.29387802066E+02  0.28204500717E+03  0.76278043211E+03  0.12942884361E+04  0.10064469878E+04 0.  0.
   -9000010    2    1    2    0  502 -0.29387802066E+02 -0.28204500717E+03 -0.20118882492E+03  0.10542468907E+04  0.99526204306E+03 0.  0.
        -13    1    3    3    0    0  0.25835761600E+03 -0.14084252944E+03 -0.96432722087E+02  0.30965231615E+03  0.10566000000E+00 0.  1.
          4    1    3    3  501    0 -0.22896981393E+03  0.42288753662E+03  0.85921315420E+03  0.98463611993E+03  0.00000000000E+00 0.  1.
         13    1    4    4    0    0  0.17779455924E+03 -0.38623383496E+03 -0.51258735608E+03  0.66598294973E+03  0.10566000000E+00 0. -1.
         -4    1    4    4    0  502 -0.20718236131E+03  0.10418882778E+03  0.31139853116E+03  0.38826394099E+03  0.00000000000E+00 0. -1.
<mgrwt>
<rscale>  2 0.10429323E+04</rscale>
<asrwt>0</asrwt>
<pdfrwt beam="1">  1       21 0.22385592E+00 0.10456331E+04</pdfrwt>
<pdfrwt beam="2">  1       21 0.13745721E+00 0.10456331E+04</pdfrwt>
<totfact> 0.15448609E+01</totfact>
</mgrwt>
</event>
<event>
 8    1  0.7208583E-006  0.1025829E+04  0.7818608E-02  0.8757656E-01
         21   -1    0    0  501  502  0.00000000000E+00  0.00000000000E+00  0.15790728428E+04  0.15790728428E+04  0.00000000000E+00 0.  1.
         21   -1    0    0  502  503 -0.00000000000E+00 -0.00000000000E+00 -0.73772976239E+03  0.73772976239E+03  0.00000000000E+00 0.  1.
    9000010    2    1    2  501    0 -0.18808863327E+03 -0.63981411047E+02  0.83232879125E+03  0.13210208353E+04  0.10064064168E+04 0.  0.
   -9000010    2    1    2    0  503  0.18808863327E+03  0.63981411047E+02  0.90142891854E+01  0.99578176989E+03  0.97571979631E+03 0.  0.
        -13    1    3    3    0    0 -0.28544621306E+03 -0.49323334763E+03  0.58252828539E+03  0.81492201480E+03  0.10566000000E+00 0.  1.
          4    1    3    3  501    0  0.97357579798E+02  0.42925193658E+03  0.24980050586E+03  0.50609882052E+03  0.00000000000E+00 0.  1.
         13    1    4    4    0    0  0.42217253972E+03 -0.20938624062E+01 -0.35931847564E+03  0.55438598075E+03  0.10566000000E+00 0. -1.
         -4    1    4    4    0  503 -0.23408390645E+03  0.66075273453E+02  0.36833276483E+03  0.44139578914E+03  0.00000000000E+00 0. -1.
<mgrwt>
<rscale>  2 0.10182227E+04</rscale>
<asrwt>0</asrwt>
<pdfrwt beam="1">  1       21 0.24293428E+00 0.10258289E+04</pdfrwt>
<pdfrwt beam="2">  1       21 0.11349689E+00 0.10258289E+04</pdfrwt>
<totfact> 0.19329024E+01</totfact>
</mgrwt>
</event>
<event>
 8    1  0.7208583E-006  0.9973939E+03  0.7818608E-02  0.8784621E-01
         21   -1    0    0  501  502  0.00000000000E+00  0.00000000000E+00  0.86073735845E+03  0.86073735845E+03  0.00000000000E+00 0.  1.
         21   -1    0    0  502  503 -0.00000000000E+00 -0.00000000000E+00 -0.11811867805E+04  0.11811867805E+04  0.00000000000E+00 0.  1.
    9000010    2    1    2  501    0 -0.96219471420E+02  0.73832960370E+01  0.75700857406E+02  0.96873743010E+03  0.96094166780E+03 0.  0.
   -9000010    2    1    2    0  503  0.96219471420E+02 -0.73832960370E+01 -0.39615027944E+03  0.10731867088E+04  0.99271444453E+03 0.  0.
        -13    1    3    3    0    0 -0.11428095463E+03 -0.47212846418E+03  0.46914692169E+02  0.48802297362E+03  0.10566000000E+00 0.  1.
          4    1    3    3  501    0  0.18061483206E+02  0.47951176021E+03  0.28786165236E+02  0.48071445648E+03  0.00000000000E+00 0.  1.
         13    1    4    4    0    0  0.41219139947E+03 -0.31634389173E+03 -0.70746304118E+02  0.52438560081E+03  0.10566000000E+00 0. -1.
         -4    1    4    4    0  503 -0.31597192805E+03  0.30896059569E+03 -0.32540397532E+03  0.54880110802E+03  0.00000000000E+00 0. -1.
<mgrwt>
<rscale>  2 0.98939349E+03</rscale>
<asrwt>0</asrwt>
<pdfrwt beam="1">  1       21 0.13242113E+00 0.99739394E+03</pdfrwt>
<pdfrwt beam="2">  1       21 0.18172104E+00 0.99739394E+03</pdfrwt>
<totfact> 0.37063428E+01</totfact>
</mgrwt>
</event>
<event>
 8    1  0.7208583E-006  0.1042822E+04  0.7818608E-02  0.8740897E-01
         21   -1    0    0  501  502  0.00000000000E+00  0.00000000000E+00  0.11923662214E+04  0.11923662214E+04  0.00000000000E+00 0. -1.
         21   -1    0    0  502  503 -0.00000000000E+00 -0.00000000000E+00 -0.97657725398E+03  0.97657725398E+03  0.00000000000E+00 0. -1.
    9000010    2    1    2  501    0 -0.23406252864E+03 -0.55003647022E+02  0.42818236691E+03  0.11047124636E+04  0.98956496472E+03 0.  0.
   -9000010    2    1    2    0  503  0.23406252864E+03  0.55003647022E+02 -0.21239339946E+03  0.10642310118E+04  0.10147246039E+04 0.  0.
        -13    1    3    3    0    0  0.99505302728E+01 -0.42021932836E+03  0.50687436728E+03  0.65848685055E+03  0.10566000000E+00 0.  1.
          4    1    3    3  501    0 -0.24401305892E+03  0.36521568134E+03 -0.78692000372E+02  0.44622561305E+03  0.00000000000E+00 0.  1.
         13    1    4    4    0    0  0.41129071221E+03  0.19178948855E+03 -0.51589745899E+03  0.68709057425E+03  0.10566000000E+00 0. -1.
         -4    1    4    4    0  503 -0.17722818356E+03 -0.13678584153E+03  0.30350405953E+03  0.37714043756E+03  0.00000000000E+00 0. -1.
<mgrwt>
<rscale>  2 0.10366506E+04</rscale>
<asrwt>0</asrwt>
<pdfrwt beam="1">  1       21 0.18344096E+00 0.10428215E+04</pdfrwt>
<pdfrwt beam="2">  1       21 0.15024265E+00 0.10428215E+04</pdfrwt>
<totfact> 0.24342285E+01</totfact>
</mgrwt>
</event>
<event>
 8    1  0.7208583E-006  0.1023247E+04  0.7818608E-02  0.8754793E-01
         21   -1    0    0  501  502  0.00000000000E+00  0.00000000000E+00  0.83339898628E+03  0.83339898628E+03  0.00000000000E+00 0.  1.
         21   -1    0    0  502  503 -0.00000000000E+00 -0.00000000000E+00 -0.12717484951E+04  0.12717484951E+04  0.00000000000E+00 0.  1.
    9000010    2    1    2  501    0  0.13338390367E+03 -0.97095442239E+02 -0.73241260370E+02  0.10258652871E+04  0.10098596509E+04 0.  0.
   -9000010    2    1    2    0  503 -0.13338390367E+03  0.97095442239E+02 -0.36510824849E+03  0.10792821943E+04  0.10021612800E+04 0.  0.
        -13    1    3    3    0    0 -0.12914538175E+03 -0.43868943696E+03 -0.29210760031E+03  0.54263598576E+03  0.10566000000E+00 0.  1.
          4    1    3    3  501    0  0.26252928542E+03  0.34159399472E+03  0.21886633994E+03  0.48322930136E+03  0.00000000000E+00 0.  1.
         13    1    4    4    0    0 -0.51072428472E+03 -0.12166758918E+03 -0.23991859936E+02  0.52556438023E+03  0.10566000000E+00 0. -1.
         -4    1    4    4    0  503  0.37734038105E+03  0.21876303142E+03 -0.34111638855E+03  0.55371781408E+03  0.00000000000E+00 0. -1.
<mgrwt>
<rscale>  2 0.10213429E+04</rscale>
<asrwt>0</asrwt>
<pdfrwt beam="1">  1       21 0.12821523E+00 0.10232474E+04</pdfrwt>
<pdfrwt beam="2">  1       21 0.19565361E+00 0.10232474E+04</pdfrwt>
<totfact> 0.31296122E+01</totfact>
</mgrwt>
</event>
<event>
 8    1  0.7208583E-006  0.9970615E+03  0.7818608E-02  0.8789491E-01
         21   -1    0    0  503  502  0.00000000000E+00  0.00000000000E+00  0.10929988157E+04  0.10929988157E+04  0.00000000000E+00 0. -1.
         21   -1    0    0  501  503 -0.00000000000E+00 -0.00000000000E+00 -0.90561489403E+03  0.90561489403E+03  0.00000000000E+00 0. -1.
    9000010    2    1    2  501    0  0.39106915551E+02  0.67025122337E+02 -0.12168920073E+03  0.95474690292E+03  0.94377522175E+03 0.  0.
   -9000010    2    1    2    0  502 -0.39106915551E+02 -0.67025122337E+02  0.30907312240E+03  0.10438668068E+04  0.99403722138E+03 0.  0.
        -13    1    3    3    0    0  0.25466838430E+02  0.71838957603E+02 -0.53539257775E+03  0.54079073510E+03  0.10566000000E+00 0.  1.
          4    1    3    3  501    0  0.13640077121E+02 -0.48138352667E+01  0.41370337703E+03  0.41395616782E+03  0.00000000000E+00 0.  1.
         13    1    4    4    0    0 -0.33985816795E+03  0.26980924502E+03 -0.87750603568E+02  0.44271975629E+03  0.10566000000E+00 0. -1.
         -4    1    4    4    0  502  0.30075125240E+03 -0.33683436735E+03  0.39682372596E+03  0.60114705051E+03  0.00000000000E+00 0. -1.
<mgrwt>
<rscale>  2 0.98429299E+03</rscale>
<asrwt>0</asrwt>
<pdfrwt beam="1">  1       21 0.16815366E+00 0.99706154E+03</pdfrwt>
<pdfrwt beam="2">  1       21 0.13932537E+00 0.99706154E+03</pdfrwt>
<totfact> 0.41319609E+01</totfact>
</mgrwt>
</event>
<event>
 8    1  0.7208583E-006  0.1017725E+04  0.7818608E-02  0.8771975E-01
         21   -1    0    0  501  502  0.00000000000E+00  0.00000000000E+00  0.10879780479E+04  0.10879780479E+04  0.00000000000E+00 0. -1.
         21   -1    0    0  502  503 -0.00000000000E+00 -0.00000000000E+00 -0.12285829771E+04  0.12285829771E+04  0.00000000000E+00 0. -1.
    9000010    2    1    2  501    0 -0.15989397001E+03 -0.11991287954E+03  0.52870273301E+03  0.11468612946E+04  0.99790734477E+03 0.  0.
   -9000010    2    1    2    0  503  0.15989397001E+03  0.11991287954E+03 -0.66930766216E+03  0.11696997305E+04  0.93823213147E+03 0.  0.
        -13    1    3    3    0    0  0.13763683707E+03  0.27983010340E+03 -0.11538552959E+03  0.33250957473E+03  0.10566000000E+00 0.  1.
          4    1    3    3  501    0 -0.29753080708E+03 -0.39974298294E+03  0.64408826260E+03  0.81435171983E+03  0.00000000000E+00 0.  1.
         13    1    4    4    0    0 -0.30951177911E+03  0.21719895617E+03 -0.56378489763E+03  0.67884191822E+03  0.10566000000E+00 0. -1.
         -4    1    4    4    0  503  0.46940574912E+03 -0.97286076629E+02 -0.10552276453E+03  0.49085781225E+03  0.00000000000E+00 0. -1.
<mgrwt>
<rscale>  2 0.10027890E+04</rscale>
<asrwt>0</asrwt>
<pdfrwt beam="1">  1       21 0.16738124E+00 0.10177250E+04</pdfrwt>
<pdfrwt beam="2">  1       21 0.18901276E+00 0.10177250E+04</pdfrwt>
<totfact> 0.15688242E+01</totfact>
</mgrwt>
</event>
<event>
 8    1  0.7208583E-006  0.1063841E+04  0.7818608E-02  0.8719034E-01
         21   -1    0    0  503  502  0.00000000000E+00  0.00000000000E+00  0.67814972735E+03  0.67814972735E+03  0.00000000000E+00 0. -1.
         21   -1    0    0  501  503 -0.00000000000E+00 -0.00000000000E+00 -0.19446899347E+04  0.19446899347E+04  0.00000000000E+00 0. -1.
    9000010    2    1    2  501    0  0.10242326911E+03 -0.31489676276E+03 -0.12283534593E+03  0.10608477528E+04  0.10003294134E+04 0.  0.
   -9000010    2    1    2    0  502 -0.10242326911E+03  0.31489676276E+03 -0.11437048614E+04  0.15619919092E+04  0.10109932824E+04 0.  0.
        -13    1    3    3    0    0  0.50253542624E+03  0.57918417157E+02 -0.36323765155E+02  0.50716449477E+03  0.10566000000E+00 0.  1.
          4    1    3    3  501    0 -0.40011215714E+03 -0.37281517992E+03 -0.86511580780E+02  0.55368325808E+03  0.00000000000E+00 0.  1.
         13    1    4    4    0    0 -0.23883322503E+03  0.41742409382E+03 -0.83467305334E+02  0.48810960419E+03  0.10566000000E+00 0. -1.
         -4    1    4    4    0  502  0.13640995592E+03 -0.10252733105E+03 -0.10602375561E+04  0.10738823050E+04  0.00000000000E+00 0. -1.
<mgrwt>
<rscale>  2 0.10612998E+04</rscale>
<asrwt>0</asrwt>
<pdfrwt beam="1">  1       21 0.10433073E+00 0.10638411E+04</pdfrwt>
<pdfrwt beam="2">  1       21 0.29918306E+00 0.10638411E+04</pdfrwt>
<totfact> 0.94996565E+00</totfact>
</mgrwt>
</event>
<event>
 8    1  0.7208583E-006  0.9915163E+03  0.7818608E-02  0.8784314E-01
         21   -1    0    0  501  502  0.00000000000E+00  0.00000000000E+00  0.10222576275E+04  0.10222576275E+04  0.00000000000E+00 0.  1.
         21   -1    0    0  502  503 -0.00000000000E+00 -0.00000000000E+00 -0.19513438390E+04  0.19513438390E+04  0.00000000000E+00 0.  1.
    9000010    2    1    2  501    0 -0.30847310661E+02  0.35226485830E+02  0.59881957624E+03  0.11521732920E+04  0.98322222717E+03 0.  0.
   -9000010    2    1    2    0  503  0.30847310661E+02 -0.35226485830E+02 -0.15279057877E+04  0.18214281746E+04  0.99041003485E+03 0.  0.
        -13    1    3    3    0    0  0.23651878730E+03  0.96135099334E+02 -0.18922114374E+03  0.31778569268E+03  0.10566000000E+00 0.  1.
          4    1    3    3  501    0 -0.26736609796E+03 -0.60908613504E+02  0.78804071998E+03  0.83438759931E+03  0.00000000000E+00 0.  1.
         13    1    4    4    0    0 -0.17134494028E+01 -0.18168333233E+03 -0.16299090755E+04  0.16400046874E+04  0.10566000000E+00 0. -1.
         -4    1    4    4    0  503  0.32560760064E+02  0.14645684650E+03  0.10200328777E+03  0.18142348718E+03  0.00000000000E+00 0. -1.
<mgrwt>
<rscale>  2 0.98971644E+03</rscale>
<asrwt>0</asrwt>
<pdfrwt beam="1">  1       21 0.15727041E+00 0.99151626E+03</pdfrwt>
<pdfrwt beam="2">  1       21 0.30020674E+00 0.99151626E+03</pdfrwt>
<totfact> 0.29153319E+00</totfact>
</mgrwt>
</event>
<event>
 8    1  0.7208583E-006  0.1030195E+04  0.7818608E-02  0.8751387E-01
         21   -1    0    0  501  502  0.00000000000E+00  0.00000000000E+00  0.17113045146E+04  0.17113045146E+04  0.00000000000E+00 0.  1.
         21   -1    0    0  502  503 -0.00000000000E+00 -0.00000000000E+00 -0.63204537724E+03  0.63204537724E+03  0.00000000000E+00 0.  1.
    9000010    2    1    2  501    0 -0.27379559552E+03  0.54482267910E+02  0.77341362004E+03  0.12882041642E+04  0.99164963335E+03 0.  0.
   -9000010    2    1    2    0  503  0.27379559552E+03 -0.54482267910E+02  0.30584551729E+03  0.10551457276E+04  0.97049403936E+03 0.  0.
        -13    1    3    3    0    0 -0.22734216608E+03  0.54222030887E+02 -0.20367437172E+03  0.31001249970E+03  0.10566000000E+00 0.  1.
          4    1    3    3  501    0 -0.46453429434E+02  0.26023702300E+00  0.97708799176E+03  0.97819166448E+03  0.00000000000E+00 0.  1.
         13    1    4    4    0    0 -0.34133074711E+03 -0.58438194168E+02 -0.41401108630E+02  0.34876319247E+03  0.10566000000E+00 0. -1.
         -4    1    4    4    0  503  0.61512634263E+03  0.39559262587E+01  0.34724662592E+03  0.70638253515E+03  0.00000000000E+00 0. -1.
<mgrwt>
<rscale>  2 0.10250697E+04</rscale>
<asrwt>0</asrwt>
<pdfrwt beam="1">  1       21 0.26327762E+00 0.10301948E+04</pdfrwt>
<pdfrwt beam="2">  1       21 0.97237751E-01 0.10301948E+04</pdfrwt>
<totfact> 0.20752863E+01</totfact>
</mgrwt>
</event>
<event>
 8    1  0.7208583E-006  0.1106560E+04  0.7818608E-02  0.8682503E-01
         21   -1    0    0  501  502  0.00000000000E+00  0.00000000000E+00  0.11642226361E+04  0.11642226361E+04  0.00000000000E+00 0.  1.
         21   -1    0    0  502  503 -0.00000000000E+00 -0.00000000000E+00 -0.10976705799E+04  0.10976705799E+04  0.00000000000E+00 0.  1.
    9000010    2    1    2  501    0 -0.26837832149E+03 -0.35764872219E+03  0.28707468570E+03  0.11431913481E+04  0.10121931887E+04 0.  0.
   -9000010    2    1    2    0  503  0.26837832149E+03  0.35764872219E+03 -0.22052262949E+03  0.11187018679E+04  0.10014609863E+04 0.  0.
        -13    1    3    3    0    0 -0.10067234504E+03 -0.19138041384E+03  0.66403949841E+03  0.69836226306E+03  0.10566000000E+00 0.  1.
          4    1    3    3  501    0 -0.16770597645E+03 -0.16626830835E+03 -0.37696481271E+03  0.44482908507E+03  0.00000000000E+00 0.  1.
         13    1    4    4    0    0  0.43599615716E+03 -0.16079066203E+03 -0.32081689500E+03  0.56468555616E+03  0.10566000000E+00 0. -1.
         -4    1    4    4    0  503 -0.16761783567E+03  0.51843938422E+03  0.10029426552E+03  0.55401631171E+03  0.00000000000E+00 0. -1.
<mgrwt>
<rscale>  2 0.11040995E+04</rscale>
<asrwt>0</asrwt>
<pdfrwt beam="1">  1       21 0.17911118E+00 0.11065598E+04</pdfrwt>
<pdfrwt beam="2">  1       21 0.16887240E+00 0.11065598E+04</pdfrwt>
<totfact> 0.17960818E+01</totfact>
</mgrwt>
</event>
<event>
 8    1  0.7208583E-006  0.1040042E+04  0.7818608E-02  0.8740231E-01
         21   -1    0    0  503  502  0.00000000000E+00  0.00000000000E+00  0.57422181606E+03  0.57422181606E+03  0.00000000000E+00 0.  1.
         21   -1    0    0  501  503 -0.00000000000E+00 -0.00000000000E+00 -0.21484153219E+04  0.21484153219E+04  0.00000000000E+00 0.  1.
    9000010    2    1    2  501    0 -0.27477585231E+03  0.13393074049E+03 -0.12783380567E+04  0.16413332614E+04  0.98305008802E+03 0.  0.
   -9000010    2    1    2    0  502  0.27477585231E+03 -0.13393074049E+03 -0.29585544906E+03  0.10813038765E+04  0.99410684249E+03 0.  0.
        -13    1    3    3    0    0 -0.12696544452E+03  0.39290034376E+03 -0.98626786464E+02  0.42452109300E+03  0.10566000000E+00 0.  1.
          4    1    3    3  501    0 -0.14781040779E+03 -0.25896960327E+03 -0.11797112703E+04  0.12168121684E+04  0.00000000000E+00 0.  1.
         13    1    4    4    0    0  0.26298051172E+03 -0.54842688833E+03 -0.78909010214E+02  0.61331675703E+03  0.10566000000E+00 0. -1.
         -4    1    4    4    0  502  0.11795340591E+02  0.41449614785E+03 -0.21694643885E+03  0.46798711945E+03  0.00000000000E+00 0. -1.
<mgrwt>
<rscale>  2 0.10373912E+04</rscale>
<asrwt>0</asrwt>
<pdfrwt beam="1">  1       21 0.88341819E-01 0.10400421E+04</pdfrwt>
<pdfrwt beam="2">  1       21 0.33052543E+00 0.10400421E+04</pdfrwt>
<totfact> 0.88398986E+00</totfact>
</mgrwt>
</event>
<event>
 8    1  0.7208583E-006  0.1047711E+04  0.7818608E-02  0.8741602E-01
         21   -1    0    0  503  502  0.00000000000E+00  0.00000000000E+00  0.10626734556E+04  0.10626734556E+04  0.00000000000E+00 0. -1.
         21   -1    0    0  501  503 -0.00000000000E+00 -0.00000000000E+00 -0.18278457526E+04  0.18278457526E+04  0.00000000000E+00 0. -1.
    9000010    2    1    2  501    0  0.23579725858E+03 -0.15292709181E+02 -0.13670732658E+04  0.17223784884E+04  0.10207174581E+04 0.  0.
   -9000010    2    1    2    0  502 -0.23579725858E+03  0.15292709181E+02  0.60190096881E+03  0.11681407198E+04  0.97284826715E+03 0.  0.
        -13    1    3    3    0    0 -0.10126692852E+03 -0.31379397138E+02 -0.13805952269E+04  0.13846598316E+04  0.10566000000E+00 0.  1.
          4    1    3    3  501    0  0.33706418710E+03  0.16086687957E+02  0.13521961148E+02  0.33771865686E+03  0.00000000000E+00 0.  1.
         13    1    4    4    0    0 -0.55392653672E+03  0.20262753232E+03  0.52799751351E+03  0.79162738102E+03  0.10566000000E+00 0. -1.
         -4    1    4    4    0  502  0.31812927814E+03 -0.18733482314E+03  0.73903455295E+02  0.37651333878E+03  0.00000000000E+00 0. -1.
<mgrwt>
<rscale>  2 0.10358673E+04</rscale>
<asrwt>0</asrwt>
<pdfrwt beam="1">  1       21 0.16348823E+00 0.10477110E+04</pdfrwt>
<pdfrwt beam="2">  1       21 0.28120703E+00 0.10477110E+04</pdfrwt>
<totfact> 0.34625654E+00</totfact>
</mgrwt>
</event>
<event>
 8    1  0.7208583E-006  0.1032798E+04  0.7818608E-02  0.8750898E-01
         21   -1    0    0  503  502  0.00000000000E+00  0.00000000000E+00  0.47891711543E+03  0.47891711543E+03  0.00000000000E+00 0. -1.
         21   -1    0    0  501  503 -0.00000000000E+00 -0.00000000000E+00 -0.21732914247E+04  0.21732914247E+04  0.00000000000E+00 0. -1.
    9000010    2    1    2  501    0 -0.19544297591E+03 -0.77471067186E+02 -0.91066322276E+03  0.13557226196E+04  0.98207769197E+03 0.  0.
   -9000010    2    1    2    0  502  0.19544297591E+03  0.77471067186E+02 -0.78371108651E+03  0.12964859205E+04  0.10111740462E+04 0.  0.
        -13    1    3    3    0    0 -0.61215289876E+02 -0.33963953907E+03  0.52002323892E+02  0.34900799571E+03  0.10566000000E+00 0.  1.
          4    1    3    3  501    0 -0.13422768604E+03  0.26216847188E+03 -0.96266554665E+03  0.10067146239E+04  0.00000000000E+00 0.  1.
         13    1    4    4    0    0  0.56323433492E+03  0.15453022395E+03 -0.69971580170E+03  0.91143552732E+03  0.10566000000E+00 0. -1.
         -4    1    4    4    0  502 -0.36779135901E+03 -0.77059156762E+02 -0.83995284812E+02  0.38505039316E+03  0.00000000000E+00 0. -1.
<mgrwt>
<rscale>  2 0.10256063E+04</rscale>
<asrwt>0</asrwt>
<pdfrwt beam="1">  1       21 0.73679558E-01 0.10327985E+04</pdfrwt>
<pdfrwt beam="2">  1       21 0.33435252E+00 0.10327985E+04</pdfrwt>
<totfact> 0.13010909E+01</totfact>
</mgrwt>
</event>
<event>
 8    1  0.7208583E-006  0.1091462E+04  0.7818608E-02  0.8705420E-01
         21   -1    0    0  501  502  0.00000000000E+00  0.00000000000E+00  0.44374103705E+03  0.44374103705E+03  0.00000000000E+00 0.  1.
         21   -1    0    0  502  503 -0.00000000000E+00 -0.00000000000E+00 -0.27880084497E+04  0.27880084497E+04  0.00000000000E+00 0.  1.
    9000010    2    1    2  501    0 -0.25259709152E+03 -0.33800243193E+03 -0.16184697178E+04  0.19209968807E+04  0.94484594183E+03 0.  0.
   -9000010    2    1    2    0  503  0.25259709152E+03  0.33800243193E+03 -0.72579769488E+03  0.13107526060E+04  0.10065978172E+04 0.  0.
        -13    1    3    3    0    0 -0.21352463248E+03  0.25005622132E+03 -0.19975358420E+03  0.38473677763E+03  0.10566000000E+00 0.  1.
          4    1    3    3  501    0 -0.39072459038E+02 -0.58805865325E+03 -0.14187161336E+04  0.15362601031E+04  0.00000000000E+00 0.  1.
         13    1    4    4    0    0  0.21033537375E+03 -0.10454703808E+03 -0.82285122954E+03  0.85571911848E+03  0.10566000000E+00 0. -1.
         -4    1    4    4    0  503  0.42261717773E+02  0.44254947002E+03  0.97053534659E+02  0.45503348755E+03  0.00000000000E+00 0. -1.
<mgrwt>
<rscale>  2 0.10770090E+04</rscale>
<asrwt>0</asrwt>
<pdfrwt beam="1">  1       21 0.68267853E-01 0.10914624E+04</pdfrwt>
<pdfrwt beam="2">  1       21 0.42892437E+00 0.10914624E+04</pdfrwt>
<totfact> 0.33734453E+00</totfact>
</mgrwt>
</event>
<event>
 8    1  0.7208583E-006  0.1076310E+04  0.7818608E-02  0.8706682E-01
         21   -1    0    0  501  502  0.00000000000E+00  0.00000000000E+00  0.11702788482E+04  0.11702788482E+04  0.00000000000E+00 0. -1.
         21   -1    0    0  502  503 -0.00000000000E+00 -0.00000000000E+00 -0.11079300848E+04  0.11079300848E+04  0.00000000000E+00 0. -1.
    9000010    2    1    2  501    0 -0.31941425778E+03 -0.22846700699E+03  0.40737122560E+03  0.11479508458E+04  0.99880788316E+03 0.  0.
   -9000010    2    1    2    0  503  0.31941425778E+03  0.22846700699E+03 -0.34502246227E+03  0.11302580872E+04  0.10021078799E+04 0.  0.
        -13    1    3    3    0    0  0.50713226538E+02  0.10474478672E+02  0.64521807735E+03  0.64729276572E+03  0.10566000000E+00 0.  1.
          4    1    3    3  501    0 -0.37012748432E+03 -0.23894148567E+03 -0.23784685175E+03  0.50065808004E+03  0.00000000000E+00 0.  1.
         13    1    4    4    0    0  0.23703361452E+03 -0.32348125196E+03 -0.40380603864E+03  0.56910841040E+03  0.10566000000E+00 0. -1.
         -4    1    4    4    0  503  0.82380643268E+02  0.55194825895E+03  0.58783576371E+02  0.56114967682E+03  0.00000000000E+00 0. -1.
<mgrwt>
<rscale>  2 0.10755410E+04</rscale>
<asrwt>0</asrwt>
<pdfrwt beam="1">  1       21 0.18004290E+00 0.10763098E+04</pdfrwt>
<pdfrwt beam="2">  1       21 0.17045078E+00 0.10763098E+04</pdfrwt>
<totfact> 0.17232587E+01</totfact>
</mgrwt>
</event>
<event>
 8    1  0.7208583E-006  0.1038300E+04  0.7818608E-02  0.8746740E-01
         21   -1    0    0  503  502  0.00000000000E+00  0.00000000000E+00  0.24456860748E+04  0.24456860748E+04  0.00000000000E+00 0. -1.
         21   -1    0    0  501  503 -0.00000000000E+00 -0.00000000000E+00 -0.54195755695E+03  0.54195755695E+03  0.00000000000E+00 0. -1.
    9000010    2    1    2  501    0 -0.17674190975E+02  0.33710274549E+02  0.27656135717E+03  0.10745016896E+04  0.10376024947E+04 0.  0.
   -9000010    2    1    2    0  502  0.17674190975E+02 -0.33710274549E+02  0.16271671607E+04  0.19131419422E+04  0.10054801652E+04 0.  0.
        -13    1    3    3    0    0 -0.27693432404E+02  0.52712640483E+03  0.23934694052E+03  0.57958273091E+03  0.10566000000E+00 0.  1.
          4    1    3    3  501    0  0.10019241428E+02 -0.49341613028E+03  0.37214416652E+02  0.49491895864E+03  0.00000000000E+00 0.  1.
         13    1    4    4    0    0  0.34619172940E+03  0.20310792521E+03  0.13834197705E+04  0.14404693039E+04  0.10566000000E+00 0. -1.
         -4    1    4    4    0  502 -0.32851753843E+03 -0.23681819976E+03  0.24374739012E+03  0.47267263828E+03  0.00000000000E+00 0. -1.
<mgrwt>
<rscale>  2 0.10301806E+04</rscale>
<asrwt>0</asrwt>
<pdfrwt beam="1">  1       21 0.37625939E+00 0.10383004E+04</pdfrwt>
<pdfrwt beam="2">  1       21 0.83378087E-01 0.10383004E+04</pdfrwt>
<totfact> 0.48902207E+00</totfact>
</mgrwt>
</event>
<event>
 8    1  0.7208583E-006  0.1070035E+04  0.7818608E-02  0.8714971E-01
         21   -1    0    0  501  502  0.00000000000E+00  0.00000000000E+00  0.18516834550E+04  0.18516834550E+04  0.00000000000E+00 0.  1.
         21   -1    0    0  502  503 -0.00000000000E+00 -0.00000000000E+00 -0.85034872791E+03  0.85034872791E+03  0.00000000000E+00 0.  1.
    9000010    2    1    2  501    0 -0.26603188292E+02 -0.37982037133E+03  0.12231302642E+04  0.16251222579E+04  0.10000017329E+04 0.  0.
   -9000010    2    1    2    0  503  0.26603188292E+02  0.37982037133E+03 -0.22179553705E+03  0.10769099251E+04  0.98263446021E+03 0.  0.
        -13    1    3    3    0    0  0.63248603983E+02  0.29690176435E+03  0.70666233001E+03  0.76910513157E+03  0.10566000000E+00 0.  1.
          4    1    3    3  501    0 -0.89851792275E+02 -0.67672213568E+03  0.51646793417E+03  0.85601712630E+03  0.00000000000E+00 0.  1.
         13    1    4    4    0    0 -0.18478489189E+03  0.56598366154E+03  0.14659995928E+03  0.61316761218E+03  0.10566000000E+00 0. -1.
         -4    1    4    4    0  503  0.21138808018E+03 -0.18616329021E+03 -0.36839549633E+03  0.46374231291E+03  0.00000000000E+00 0. -1.
<mgrwt>
<rscale>  2 0.10659586E+04</rscale>
<asrwt>0</asrwt>
<pdfrwt beam="1">  1       21 0.28487438E+00 0.10700349E+04</pdfrwt>
<pdfrwt beam="2">  1       21 0.13082288E+00 0.10700349E+04</pdfrwt>
<totfact> 0.63977726E+00</totfact>
</mgrwt>
</event>
<event>
 8    1  0.7208583E-006  0.1035305E+04  0.7818608E-02  0.8743868E-01
         21   -1    0    0  503  502  0.00000000000E+00  0.00000000000E+00  0.83175339795E+03  0.83175339795E+03  0.00000000000E+00 0.  1.
         21   -1    0    0  501  503 -0.00000000000E+00 -0.00000000000E+00 -0.14235720514E+04  0.14235720514E+04  0.00000000000E+00 0.  1.
    9000010    2    1    2  501    0 -0.21655101449E+03  0.13921955783E+03 -0.65425710348E+03  0.12181394757E+04  0.99475373724E+03 0.  0.
   -9000010    2    1    2    0  502  0.21655101449E+03 -0.13921955783E+03  0.62438450061E+02  0.10371859736E+04  0.10027859974E+04 0.  0.
        -13    1    3    3    0    0  0.33771051800E+03  0.73234472553E+02 -0.55114919771E+03  0.65052066166E+03  0.10566000000E+00 0.  1.
          4    1    3    3  501    0 -0.55426153249E+03  0.65985085275E+02 -0.10310790577E+03  0.56761881409E+03  0.00000000000E+00 0.  1.
         13    1    4    4    0    0 -0.33749723585E+03 -0.91632426723E+02  0.27187704226E+03  0.44296503599E+03  0.10566000000E+00 0. -1.
         -4    1    4    4    0  502  0.55404825034E+03 -0.47587131105E+02 -0.20943859220E+03  0.59422093758E+03  0.00000000000E+00 0. -1.
<mgrwt>
<rscale>  2 0.10333549E+04</rscale>
<asrwt>0</asrwt>
<pdfrwt beam="1">  1       21 0.12796206E+00 0.10353049E+04</pdfrwt>
<pdfrwt beam="2">  1       21 0.21901108E+00 0.10353049E+04</pdfrwt>
<totfact> 0.20746424E+01</totfact>
</mgrwt>
</event>
<event>
 8    1  0.7208583E-006  0.1022383E+04  0.7818608E-02  0.8761747E-01
         21   -1    0    0  501  502  0.00000000000E+00  0.00000000000E+00  0.12498402321E+04  0.12498402321E+04  0.00000000000E+00 0. -1.
         21   -1    0    0  502  503 -0.00000000000E+00 -0.00000000000E+00 -0.81063811602E+03  0.81063811602E+03  0.00000000000E+00 0. -1.
    9000010    2    1    2  501    0 -0.11010795361E+03 -0.52401373098E+01  0.27278417357E+03  0.10581484089E+04  0.10164229580E+04 0.  0.
   -9000010    2    1    2    0  503  0.11010795361E+03  0.52401373098E+01  0.16641794249E+03  0.10023299392E+04  0.98225208316E+03 0.  0.
        -13    1    3    3    0    0 -0.33207237407E+03 -0.41758225719E+03  0.25030303831E+03  0.58932047758E+03  0.10566000000E+00 0.  1.
          4    1    3    3  501    0  0.22196442046E+03  0.41234211988E+03  0.22481135256E+02  0.46882793136E+03  0.00000000000E+00 0.  1.
         13    1    4    4    0    0 -0.11140337013E+03 -0.42069879296E+03  0.26869187587E+03  0.51146213994E+03  0.10566000000E+00 0. -1.
         -4    1    4    4    0  503  0.22151132374E+03  0.42593893027E+03 -0.10227393338E+03  0.49086779922E+03  0.00000000000E+00 0. -1.
<mgrwt>
<rscale>  2 0.10137838E+04</rscale>
<asrwt>0</asrwt>
<pdfrwt beam="1">  1       21 0.19228311E+00 0.10223829E+04</pdfrwt>
<pdfrwt beam="2">  1       21 0.12471356E+00 0.10223829E+04</pdfrwt>
<totfact> 0.36020487E+01</totfact>
</mgrwt>
</event>
<event>
 8    1  0.7208583E-006  0.1105699E+04  0.7818608E-02  0.8686675E-01
         21   -1    0    0  501  502  0.00000000000E+00  0.00000000000E+00  0.85622461799E+03  0.85622461799E+03  0.00000000000E+00 0. -1.
         21   -1    0    0  502  503 -0.00000000000E+00 -0.00000000000E+00 -0.18977163912E+04  0.18977163912E+04  0.00000000000E+00 0. -1.
    9000010    2    1    2  501    0 -0.46878109641E+03  0.15712920501E+03 -0.12253328405E+04  0.16330626443E+04  0.95969147471E+03 0.  0.
   -9000010    2    1    2    0  503  0.46878109641E+03 -0.15712920501E+03  0.18384106727E+03  0.11208783650E+04  0.98900225864E+03 0.  0.
        -13    1    3    3    0    0 -0.46050261062E+03 -0.29021559506E+03 -0.98446343884E+03  0.11249248951E+04  0.10566000000E+00 0.  1.
          4    1    3    3  501    0 -0.82784857899E+01  0.44734480007E+03 -0.24086940168E+03  0.50813774918E+03  0.00000000000E+00 0.  1.
         13    1    4    4    0    0  0.13647766081E+03  0.10967812383E+02  0.56893234067E+03  0.58517558410E+03  0.10566000000E+00 0. -1.
         -4    1    4    4    0  503  0.33230343561E+03 -0.16809701739E+03 -0.38509127339E+03  0.53570278086E+03  0.00000000000E+00 0. -1.
<mgrwt>
<rscale>  2 0.10991061E+04</rscale>
<asrwt>0</asrwt>
<pdfrwt beam="1">  1       21 0.13172686E+00 0.11056992E+04</pdfrwt>
<pdfrwt beam="2">  1       21 0.29195637E+00 0.11056992E+04</pdfrwt>
<totfact> 0.55406908E+00</totfact>
</mgrwt>
</event>
<event>
 8    1  0.7208583E-006  0.1098742E+04  0.7818608E-02  0.8691496E-01
         21   -1    0    0  503  502  0.00000000000E+00  0.00000000000E+00  0.20352225189E+04  0.20352225189E+04  0.00000000000E+00 0.  1.
         21   -1    0    0  501  503 -0.00000000000E+00 -0.00000000000E+00 -0.10291983983E+04  0.10291983983E+04  0.00000000000E+00 0.  1.
    9000010    2    1    2  501    0  0.48859084445E+02  0.45386444366E+03 -0.51006408757E+03  0.11920542829E+04  0.97593437100E+03 0.  0.
   -9000010    2    1    2    0  502 -0.48859084445E+02 -0.45386444366E+03  0.15160882082E+04  0.18723666343E+04  0.99942644295E+03 0.  0.
        -13    1    3    3    0    0  0.11762910263E+03  0.69854289348E+03 -0.10824318675E+03  0.71659987333E+03  0.10566000000E+00 0.  1.
          4    1    3    3  501    0 -0.68770018181E+02 -0.24467844982E+03 -0.40182090082E+03  0.47545440953E+03  0.00000000000E+00 0.  1.
         13    1    4    4    0    0  0.20807253631E+00 -0.61998024499E+03  0.38870766516E+03  0.73175761533E+03  0.10566000000E+00 0. -1.
         -4    1    4    4    0  502 -0.49067156982E+02  0.16611580133E+03  0.11273805430E+04  0.11406090190E+04  0.00000000000E+00 0. -1.
<mgrwt>
<rscale>  2 0.10933714E+04</rscale>
<asrwt>0</asrwt>
<pdfrwt beam="1">  1       21 0.31311115E+00 0.10987417E+04</pdfrwt>
<pdfrwt beam="2">  1       21 0.15833822E+00 0.10987417E+04</pdfrwt>
<totfact> 0.22513958E+00</totfact>
</mgrwt>
</event>
<event>
 8    1  0.7208583E-006  0.9913852E+03  0.7818608E-02  0.8840724E-01
         21   -1    0    0  503  502  0.00000000000E+00  0.00000000000E+00  0.21910421885E+04  0.21910421885E+04  0.00000000000E+00 0.  1.
         21   -1    0    0  501  503 -0.00000000000E+00 -0.00000000000E+00 -0.35985164941E+03  0.35985164941E+03  0.00000000000E+00 0.  1.
    9000010    2    1    2  501    0 -0.13570648392E+03 -0.76686394575E+02  0.92853074421E+03  0.12101330887E+04  0.76023397484E+03 0.  0.
   -9000010    2    1    2    0  502  0.13570648392E+03  0.76686394575E+02  0.90265979491E+03  0.13407607493E+04  0.97905445635E+03 0.  0.
        -13    1    3    3    0    0  0.60081371077E+02 -0.39143121691E+03  0.57289933755E+03  0.69644944601E+03  0.10566000000E+00 0.  1.
          4    1    3    3  501    0 -0.19578785500E+03  0.31474482233E+03  0.35563140666E+03  0.51368364267E+03  0.00000000000E+00 0.  1.
         13    1    4    4    0    0 -0.12766171835E+03  0.35363426636E+03  0.17225366687E+02  0.37636608920E+03  0.10566000000E+00 0. -1.
         -4    1    4    4    0  502  0.26336820227E+03 -0.27694787179E+03  0.88543442823E+03  0.96439466006E+03  0.00000000000E+00 0. -1.
<mgrwt>
<rscale>  2 0.93251147E+03</rscale>
<asrwt>0</asrwt>
<pdfrwt beam="1">  1       21 0.33708341E+00 0.99138523E+03</pdfrwt>
<pdfrwt beam="2">  1       21 0.55361793E-01 0.99138523E+03</pdfrwt>
<totfact> 0.24423265E+01</totfact>
</mgrwt>
</event>
<event>
 8    1  0.7208583E-006  0.1006423E+04  0.7818608E-02  0.8770123E-01
         21   -1    0    0  503  502  0.00000000000E+00  0.00000000000E+00  0.10489327096E+04  0.10489327096E+04  0.00000000000E+00 0.  1.
         21   -1    0    0  501  503 -0.00000000000E+00 -0.00000000000E+00 -0.95954066094E+03  0.95954066094E+03  0.00000000000E+00 0.  1.
    9000010    2    1    2  501    0  0.40930707172E+02 -0.75567105856E+02  0.59933471110E+02  0.10016191218E+04  0.99612405549E+03 0.  0.
   -9000010    2    1    2    0  502 -0.40930707172E+02  0.75567105856E+02  0.29458577518E+02  0.10068542487E+04  0.10027472065E+04 0.  0.
        -13    1    3    3    0    0 -0.19631946989E+03 -0.16828188192E+03  0.45979638087E+03  0.52751573348E+03  0.10566000000E+00 0.  1.
          4    1    3    3  501    0  0.23725017706E+03  0.92714776064E+02 -0.39986290976E+03  0.47410338832E+03  0.00000000000E+00 0.  1.
         13    1    4    4    0    0  0.47180592884E+03  0.39488703582E+02  0.11133423707E+03  0.48636973149E+03  0.10566000000E+00 0. -1.
         -4    1    4    4    0  502 -0.51273663602E+03  0.36078402273E+02 -0.81875659556E+02  0.52048451721E+03  0.00000000000E+00 0. -1.
<mgrwt>
<rscale>  2 0.10047694E+04</rscale>
<asrwt>0</asrwt>
<pdfrwt beam="1">  1       21 0.16137426E+00 0.10064232E+04</pdfrwt>
<pdfrwt beam="2">  1       21 0.14762164E+00 0.10064232E+04</pdfrwt>
<totfact> 0.39555069E+01</totfact>
</mgrwt>
</event>
<event>
 8    1  0.7208583E-006  0.1048040E+04  0.7818608E-02  0.8733129E-01
         21   -1    0    0  503  502  0.00000000000E+00  0.00000000000E+00  0.10910573212E+04  0.10910573212E+04  0.00000000000E+00 0. -1.
         21   -1    0    0  501  503 -0.00000000000E+00 -0.00000000000E+00 -0.10280045141E+04  0.10280045141E+04  0.00000000000E+00 0. -1.
    9000010    2    1    2  501    0 -0.90014482250E+02 -0.24236181815E+03 -0.15450396389E+03  0.10486791168E+04  0.10044971664E+04 0.  0.
   -9000010    2    1    2    0  502  0.90014482250E+02  0.24236181815E+03  0.21755677092E+03  0.10703827185E+04  0.10156507065E+04 0.  0.
        -13    1    3    3    0    0  0.27614905201E+03  0.28169319884E+03 -0.17509388334E+02  0.39486193415E+03  0.10566000000E+00 0.  1.
          4    1    3    3  501    0 -0.36616353426E+03 -0.52405501699E+03 -0.13699457556E+03  0.65381718269E+03  0.00000000000E+00 0.  1.
         13    1    4    4    0    0  0.18543935657E+03  0.49057392274E+03  0.46961696639E+03  0.70398198480E+03  0.10566000000E+00 0. -1.
         -4    1    4    4    0  502 -0.95424874321E+02 -0.24821210459E+03 -0.25206019546E+03  0.36640073368E+03  0.00000000000E+00 0. -1.
<mgrwt>
<rscale>  2 0.10453284E+04</rscale>
<asrwt>0</asrwt>
<pdfrwt beam="1">  1       21 0.16785497E+00 0.10480402E+04</pdfrwt>
<pdfrwt beam="2">  1       21 0.15815454E+00 0.10480402E+04</pdfrwt>
<totfact> 0.27862603E+01</totfact>
</mgrwt>
</event>
<event>
 8    1  0.7208583E-006  0.1052277E+04  0.7818608E-02  0.8728142E-01
         21   -1    0    0  501  502  0.00000000000E+00  0.00000000000E+00  0.15427560201E+04  0.15427560201E+04  0.00000000000E+00 0. -1.
         21   -1    0    0  502  503 -0.00000000000E+00 -0.00000000000E+00 -0.90623910736E+03  0.90623910736E+03  0.00000000000E+00 0. -1.
    9000010    2    1    2  501    0  0.28871268912E+03 -0.12271544375E+03  0.88270091525E+03  0.13734804864E+04  0.10044270226E+04 0.  0.
   -9000010    2    1    2    0  503 -0.28871268912E+03  0.12271544375E+03 -0.24618400253E+03  0.10755146410E+04  0.99885488584E+03 0.  0.
        -13    1    3    3    0    0  0.25171131128E+03 -0.31042799068E+03  0.10473828403E+04  0.11210419024E+04  0.10566000000E+00 0.  1.
          4    1    3    3  501    0  0.37001377843E+02  0.18771254693E+03 -0.16468192508E+03  0.25243858398E+03  0.00000000000E+00 0.  1.
         13    1    4    4    0    0  0.22571662363E+03 -0.29241778764E+03  0.20440169475E+01  0.36940539503E+03  0.10566000000E+00 0. -1.
         -4    1    4    4    0  503 -0.51442931275E+03  0.41513323139E+03 -0.24822801948E+03  0.70610924599E+03  0.00000000000E+00 0. -1.
<mgrwt>
<rscale>  2 0.10509455E+04</rscale>
<asrwt>0</asrwt>
<pdfrwt beam="1">  1       21 0.23734708E+00 0.10522774E+04</pdfrwt>
<pdfrwt beam="2">  1       21 0.13942140E+00 0.10522774E+04</pdfrwt>
<totfact> 0.11740443E+01</totfact>
</mgrwt>
</event>
<event>
 8    1  0.7208583E-006  0.1043262E+04  0.7818608E-02  0.8745779E-01
         21   -1    0    0  501  502  0.00000000000E+00  0.00000000000E+00  0.76448558870E+03  0.76448558870E+03  0.00000000000E+00 0.  1.
         21   -1    0    0  502  503 -0.00000000000E+00 -0.00000000000E+00 -0.14963874253E+04  0.14963874253E+04  0.00000000000E+00 0.  1.
    9000010    2    1    2  501    0  0.33622404579E+03 -0.55446110964E+02 -0.32380465558E+02  0.10437645838E+04  0.98604012683E+03 0.  0.
   -9000010    2    1    2    0  503 -0.33622404579E+03  0.55446110964E+02 -0.69952137102E+03  0.12171084301E+04  0.93589630945E+03 0.  0.
        -13    1    3    3    0    0 -0.21937576068E+03  0.36377793377E+02  0.31240204854E+03  0.38346332200E+03  0.10566000000E+00 0.  1.
          4    1    3    3  501    0  0.55559980646E+03 -0.91823904342E+02 -0.34478251409E+03  0.66030126183E+03  0.00000000000E+00 0.  1.
         13    1    4    4    0    0  0.81735281699E+01 -0.40826518587E+03 -0.20597360853E+03  0.45735370025E+03  0.10566000000E+00 0. -1.
         -4    1    4    4    0  503 -0.34439757396E+03  0.46371129683E+03 -0.49354776248E+03  0.75975472990E+03  0.00000000000E+00 0. -1.
<mgrwt>
<rscale>  2 0.10312413E+04</rscale>
<asrwt>0</asrwt>
<pdfrwt beam="1">  1       21 0.11761317E+00 0.10432622E+04</pdfrwt>
<pdfrwt beam="2">  1       21 0.23021345E+00 0.10432622E+04</pdfrwt>
<totfact> 0.21659009E+01</totfact>
</mgrwt>
</event>
<event>
 8    1  0.7208583E-006  0.1022763E+04  0.7818608E-02  0.8757942E-01
         21   -1    0    0  503  502  0.00000000000E+00  0.00000000000E+00  0.43633375903E+03  0.43633375903E+03  0.00000000000E+00 0.  1.
         21   -1    0    0  501  503 -0.00000000000E+00 -0.00000000000E+00 -0.25628948441E+04  0.25628948441E+04  0.00000000000E+00 0.  1.
    9000010    2    1    2  501    0 -0.25489213799E+02 -0.16422673103E+03 -0.15023145609E+04  0.18174141347E+04  0.10091704405E+04 0.  0.
   -9000010    2    1    2    0  502  0.25489213799E+02  0.16422673103E+03 -0.62424652414E+03  0.11818144684E+04  0.98963710299E+03 0.  0.
        -13    1    3    3    0    0  0.11294772446E+03  0.41323510209E+03 -0.60040984846E+03  0.73757198656E+03  0.10566000000E+00 0.  1.
          4    1    3    3  501    0 -0.13843693826E+03 -0.57746183312E+03 -0.90190471242E+03  0.10798421481E+04  0.00000000000E+00 0.  1.
         13    1    4    4    0    0 -0.21919553723E+03 -0.24430630648E+03  0.74168876583E+02  0.33650154286E+03  0.10566000000E+00 0. -1.
         -4    1    4    4    0  502  0.24468475103E+03  0.40853303751E+03 -0.69841540073E+03  0.84531292555E+03  0.00000000000E+00 0. -1.
<mgrwt>
<rscale>  2 0.10179119E+04</rscale>
<asrwt>0</asrwt>
<pdfrwt beam="1">  1       21 0.67128272E-01 0.10227635E+04</pdfrwt>
<pdfrwt beam="2">  1       21 0.39429151E+00 0.10227635E+04</pdfrwt>
<totfact> 0.61817318E+00</totfact>
</mgrwt>
</event>
<event>
 8    1  0.7208583E-006  0.1079374E+04  0.7818608E-02  0.8708606E-01
         21   -1    0    0  503  502  0.00000000000E+00  0.00000000000E+00  0.28884985012E+04  0.28884985012E+04  0.00000000000E+00 0.  1.
         21   -1    0    0  501  503 -0.00000000000E+00 -0.00000000000E+00 -0.59817233679E+03  0.59817233679E+03  0.00000000000E+00 0.  1.
    9000010    2    1    2  501    0  0.32043377553E+03 -0.24895842036E+03  0.11917411245E+03  0.10620161876E+04  0.97417545345E+03 0.  0.
   -9000010    2    1    2    0  502 -0.32043377553E+03  0.24895842036E+03  0.21711520519E+04  0.24246546504E+04  0.10001954016E+04 0.  0.
        -13    1    3    3    0    0  0.30042635629E+03 -0.11103288997E+02 -0.39426407639E+03  0.49580586088E+03  0.10566000000E+00 0.  1.
          4    1    3    3  501    0  0.20007419245E+02 -0.23785513136E+03  0.51343818885E+03  0.56621032674E+03  0.00000000000E+00 0.  1.
         13    1    4    4    0    0 -0.28440167490E+03  0.60844061243E+02  0.50279964453E+02  0.29515148393E+03  0.10566000000E+00 0. -1.
         -4    1    4    4    0  502 -0.36032100631E+02  0.18811435911E+03  0.21208720875E+04  0.21295031664E+04  0.00000000000E+00 0. -1.
<mgrwt>
<rscale>  2 0.10733069E+04</rscale>
<asrwt>0</asrwt>
<pdfrwt beam="1">  1       21 0.44438438E+00 0.10793743E+04</pdfrwt>
<pdfrwt beam="2">  1       21 0.92026515E-01 0.10793743E+04</pdfrwt>
<totfact> 0.12688901E+00</totfact>
</mgrwt>
</event>
<event>
 8    1  0.7208583E-006  0.1108444E+04  0.7818608E-02  0.8688809E-01
         21   -1    0    0  501  502  0.00000000000E+00  0.00000000000E+00  0.16464390660E+04  0.16464390660E+04  0.00000000000E+00 0. -1.
         21   -1    0    0  502  503 -0.00000000000E+00 -0.00000000000E+00 -0.84837507606E+03  0.84837507606E+03  0.00000000000E+00 0. -1.
    9000010    2    1    2  501    0 -0.40335432704E+03  0.20130320255E+03  0.90060726291E+03  0.14281952189E+04  0.10126353977E+04 0.  0.
   -9000010    2    1    2    0  503  0.40335432704E+03 -0.20130320255E+03 -0.10254327301E+03  0.10666189232E+04  0.96121959608E+03 0.  0.
        -13    1    3    3    0    0 -0.57213349494E+03  0.25722150907E+03  0.10315991909E+04  0.12073510437E+04  0.10566000000E+00 0.  1.
          4    1    3    3  501    0  0.16877916790E+03 -0.55918306521E+02 -0.13099192800E+03  0.22084417521E+03  0.00000000000E+00 0.  1.
         13    1    4    4    0    0  0.23356700487E+03 -0.58772544624E+03 -0.73500539592E+00  0.63243600255E+03  0.10566000000E+00 0. -1.
         -4    1    4    4    0  503  0.16978732218E+03  0.38642224369E+03 -0.10180826762E+03  0.43418292060E+03  0.00000000000E+00 0. -1.
<mgrwt>
<rscale>  2 0.10965629E+04</rscale>
<asrwt>0</asrwt>
<pdfrwt beam="1">  1       21 0.25329832E+00 0.11084440E+04</pdfrwt>
<pdfrwt beam="2">  1       21 0.13051924E+00 0.11084440E+04</pdfrwt>
<totfact> 0.10757997E+01</totfact>
</mgrwt>
</event>
<event>
 8    1  0.7208583E-006  0.1400202E+04  0.7818608E-02  0.8470128E-01
         21   -1    0    0  501  502  0.00000000000E+00  0.00000000000E+00  0.18324251062E+04  0.18324251062E+04  0.00000000000E+00 0. -1.
         21   -1    0    0  502  503 -0.00000000000E+00 -0.00000000000E+00 -0.13312792907E+04  0.13312792907E+04  0.00000000000E+00 0.  1.
    9000010    2    1    2  501    0  0.94816757033E+03  0.26303182776E+03  0.95685250682E+03  0.16959164303E+04  0.99617184012E+03 0.  0.
   -9000010    2    1    2    0  503 -0.94816757033E+03 -0.26303182776E+03 -0.45570669130E+03  0.14677879666E+04  0.98920444935E+03 0.  0.
        -13    1    3    3    0    0  0.11438687319E+04  0.11442811183E+03  0.73206301365E+03  0.13628814093E+04  0.10566000000E+00 0.  1.
          4    1    3    3  501    0 -0.19570116157E+03  0.14860371592E+03  0.22478949317E+03  0.33303502108E+03  0.00000000000E+00 0.  1.
         13    1    4    4    0    0 -0.11304899774E+04 -0.31076850176E+03 -0.26982286873E+03  0.12030748282E+04  0.10566000000E+00 0. -1.
         -4    1    4    4    0  503  0.18232240704E+03  0.47736674005E+02 -0.18588382258E+03  0.26471313841E+03  0.00000000000E+00 0. -1.
<mgrwt>
<rscale>  2 0.13989633E+04</rscale>
<asrwt>0</asrwt>
<pdfrwt beam="1">  1       21 0.28191155E+00 0.14002021E+04</pdfrwt>
<pdfrwt beam="2">  1       21 0.20481220E+00 0.14002021E+04</pdfrwt>
<totfact> 0.14628557E+00</totfact>
</mgrwt>
</event>
<event>
 8    1  0.7208583E-006  0.1062953E+04  0.7818608E-02  0.8723661E-01
         21   -1    0    0  503  502  0.00000000000E+00  0.00000000000E+00  0.13827391854E+04  0.13827391854E+04  0.00000000000E+00 0.  1.
         21   -1    0    0  501  503 -0.00000000000E+00 -0.00000000000E+00 -0.93010037474E+03  0.93010037474E+03  0.00000000000E+00 0.  1.
    9000010    2    1    2  501    0 -0.29316123037E+03 -0.11540289673E+03 -0.21501683704E+03  0.10575972361E+04  0.98641691895E+03 0.  0.
   -9000010    2    1    2    0  502  0.29316123037E+03  0.11540289673E+03  0.66765564764E+03  0.12552423240E+04  0.10151885995E+04 0.  0.
        -13    1    3    3    0    0  0.13871123397E+03  0.14508190410E+03 -0.45630620400E+03  0.49850268636E+03  0.10566000000E+00 0.  1.
          4    1    3    3  501    0 -0.43187246434E+03 -0.26048480083E+03  0.24128936697E+03  0.55909454973E+03  0.00000000000E+00 0.  1.
         13    1    4    4    0    0  0.29791859374E+03 -0.27204010246E+03 -0.81710583985E+02  0.41162839618E+03  0.10566000000E+00 0. -1.
         -4    1    4    4    0  502 -0.47573633652E+01  0.38744299919E+03  0.74936623163E+03  0.84361392783E+03  0.00000000000E+00 0. -1.
<mgrwt>
<rscale>  2 0.10560247E+04</rscale>
<asrwt>0</asrwt>
<pdfrwt beam="1">  1       21 0.21272911E+00 0.10629531E+04</pdfrwt>
<pdfrwt beam="2">  1       21 0.14309237E+00 0.10629531E+04</pdfrwt>
<totfact> 0.16564359E+01</totfact>
</mgrwt>
</event>
<event>
 8    1  0.7208583E-006  0.1067354E+04  0.7818608E-02  0.8723918E-01
         21   -1    0    0  503  502  0.00000000000E+00  0.00000000000E+00  0.10059864798E+04  0.10059864798E+04  0.00000000000E+00 0.  1.
         21   -1    0    0  501  503 -0.00000000000E+00 -0.00000000000E+00 -0.12859657664E+04  0.12859657664E+04  0.00000000000E+00 0.  1.
    9000010    2    1    2  501    0  0.21677702521E+03  0.82470973296E+01 -0.59094397700E+03  0.11802223351E+04  0.99832343609E+03 0.  0.
   -9000010    2    1    2    0  502 -0.21677702521E+03 -0.82470973296E+01  0.31096469041E+03  0.11117299112E+04  0.10450761042E+04 0.  0.
        -13    1    3    3    0    0 -0.23926054498E+03 -0.30552962984E+03 -0.47724754563E+03  0.61510909119E+03  0.10566000000E+00 0.  1.
          4    1    3    3  501    0  0.45603757019E+03  0.31377672717E+03 -0.11369643137E+03  0.56511324391E+03  0.00000000000E+00 0.  1.
         13    1    4    4    0    0  0.35929950742E+01  0.22334746682E+03 -0.32824166625E+03  0.39703854117E+03  0.10566000000E+00 0. -1.
         -4    1    4    4    0  502 -0.22037002029E+03 -0.23159456415E+03  0.63920635665E+03  0.71469137001E+03  0.00000000000E+00 0. -1.
<mgrwt>
<rscale>  2 0.10557323E+04</rscale>
<asrwt>0</asrwt>
<pdfrwt beam="1">  1       21 0.15476715E+00 0.10673539E+04</pdfrwt>
<pdfrwt beam="2">  1       21 0.19784089E+00 0.10673539E+04</pdfrwt>
<totfact> 0.16953013E+01</totfact>
</mgrwt>
</event>
<event>
 8    1  0.7208583E-006  0.1051878E+04  0.7818608E-02  0.8735396E-01
         21   -1    0    0  503  502  0.00000000000E+00  0.00000000000E+00  0.12987227640E+04  0.12987227640E+04  0.00000000000E+00 0. -1.
         21   -1    0    0  501  503 -0.00000000000E+00 -0.00000000000E+00 -0.18296429044E+04  0.18296429044E+04  0.00000000000E+00 0. -1.
    9000010    2    1    2  501    0 -0.39872482117E+02 -0.17787032972E+03 -0.14234613783E+04  0.17488446782E+04  0.99949374377E+03 0.  0.
   -9000010    2    1    2    0  502  0.39872482117E+02  0.17787032972E+03  0.89254123791E+03  0.13795209901E+04  0.10359636248E+04 0.  0.
        -13    1    3    3    0    0  0.46294188300E+03 -0.69094442780E+02 -0.45796778419E+03  0.65484634196E+03  0.10566000000E+00 0.  1.
          4    1    3    3  501    0 -0.50281436512E+03 -0.10877588694E+03 -0.96549359414E+03  0.10939983362E+04  0.00000000000E+00 0.  1.
         13    1    4    4    0    0  0.29668074962E+03 -0.30674452634E+03  0.14160809088E+03  0.44962710572E+03  0.10566000000E+00 0. -1.
         -4    1    4    4    0  502 -0.25680826750E+03  0.48461485606E+03  0.75093314703E+03  0.92989388442E+03  0.00000000000E+00 0. -1.
<mgrwt>
<rscale>  2 0.10427867E+04</rscale>
<asrwt>0</asrwt>
<pdfrwt beam="1">  1       21 0.19980350E+00 0.10518785E+04</pdfrwt>
<pdfrwt beam="2">  1       21 0.28148352E+00 0.10518785E+04</pdfrwt>
<totfact> 0.17423946E+00</totfact>
</mgrwt>
</event>
<event>
 8    1  0.7208583E-006  0.1044531E+04  0.7818608E-02  0.8743884E-01
         21   -1    0    0  501  502  0.00000000000E+00  0.00000000000E+00  0.12639758134E+04  0.12639758134E+04  0.00000000000E+00 0.  1.
         21   -1    0    0  502  503 -0.00000000000E+00 -0.00000000000E+00 -0.84081957043E+03  0.84081957043E+03  0.00000000000E+00 0.  1.
    9000010    2    1    2  501    0 -0.10101140695E+03  0.11758974393E+03  0.34120426110E+03  0.10570545008E+04  0.98838920358E+03 0.  0.
   -9000010    2    1    2    0  503  0.10101140695E+03 -0.11758974393E+03  0.81951981830E+02  0.10477408829E+04  0.10329637836E+04 0.  0.
        -13    1    3    3    0    0  0.37304738549E+03 -0.92832971767E+02  0.37533741296E+03  0.53727134411E+03  0.10566000000E+00 0.  1.
          4    1    3    3  501    0 -0.47405879244E+03  0.21042271569E+03 -0.34133151863E+02  0.51978315674E+03  0.00000000000E+00 0.  1.
         13    1    4    4    0    0 -0.26556206858E+03 -0.26252570860E+03 -0.31483896003E+03  0.48843274036E+03  0.10566000000E+00 0. -1.
         -4    1    4    4    0  503  0.36657347553E+03  0.14493596468E+03  0.39679094186E+03  0.55930814258E+03  0.00000000000E+00 0. -1.
<mgrwt>
<rscale>  2 0.10333375E+04</rscale>
<asrwt>0</asrwt>
<pdfrwt beam="1">  1       21 0.19445782E+00 0.10445309E+04</pdfrwt>
<pdfrwt beam="2">  1       21 0.12935686E+00 0.10445309E+04</pdfrwt>
<totfact> 0.31031178E+01</totfact>
</mgrwt>
</event>
<event>
 8    1  0.7208583E-006  0.9669951E+03  0.7818608E-02  0.8845539E-01
         21   -1    0    0  503  502  0.00000000000E+00  0.00000000000E+00  0.47738556499E+03  0.47738556499E+03  0.00000000000E+00 0. -1.
         21   -1    0    0  501  503 -0.00000000000E+00 -0.00000000000E+00 -0.18287517897E+04  0.18287517897E+04  0.00000000000E+00 0. -1.
    9000010    2    1    2  501    0  0.33597205799E+02 -0.14868715019E+03 -0.10637516310E+04  0.14375837830E+04  0.95490468635E+03 0.  0.
   -9000010    2    1    2    0  502 -0.33597205799E+02  0.14868715019E+03 -0.28761459379E+03  0.86855357169E+03  0.80524934738E+03 0.  0.
        -13    1    3    3    0    0  0.26541256976E+03  0.29803375874E+03 -0.22153690118E+03  0.45644995705E+03  0.10566000000E+00 0.  1.
          4    1    3    3  501    0 -0.23181536396E+03 -0.44672090893E+03 -0.84221472977E+03  0.98113382599E+03  0.00000000000E+00 0.  1.
         13    1    4    4    0    0  0.24482028485E+03  0.37608243942E+03 -0.87741241395E+02  0.45724556829E+03  0.10566000000E+00 0. -1.
         -4    1    4    4    0  502 -0.27841749065E+03 -0.22739528923E+03 -0.19987335240E+03  0.41130800340E+03  0.00000000000E+00 0. -1.
<mgrwt>
<rscale>  2 0.92781664E+03</rscale>
<asrwt>0</asrwt>
<pdfrwt beam="1">  1       21 0.73443932E-01 0.96699514E+03</pdfrwt>
<pdfrwt beam="2">  1       21 0.28134643E+00 0.96699514E+03</pdfrwt>
<totfact> 0.31479082E+01</totfact>
</mgrwt>
</event>
<event>
 8    1  0.7208583E-006  0.1017828E+04  0.7818608E-02  0.8760578E-01
         21   -1    0    0  501  502  0.00000000000E+00  0.00000000000E+00  0.79872030277E+03  0.79872030277E+03  0.00000000000E+00 0.  1.
         21   -1    0    0  502  503 -0.00000000000E+00 -0.00000000000E+00 -0.12917287690E+04  0.12917287690E+04  0.00000000000E+00 0.  1.
    9000010    2    1    2  501    0 -0.26770816041E+02 -0.21025201995E+03 -0.33120283332E+03  0.10598399979E+04  0.98419658399E+03 0.  0.
   -9000010    2    1    2    0  503  0.26770816041E+02  0.21025201995E+03 -0.16180563295E+03  0.10306090739E+04  0.99551565121E+03 0.  0.
        -13    1    3    3    0    0  0.18506473995E+03 -0.48128620917E+03 -0.46149087620E+03  0.69199654124E+03  0.10566000000E+00 0.  1.
          4    1    3    3  501    0 -0.21183555599E+03  0.27103418923E+03  0.13028804288E+03  0.36784345669E+03  0.00000000000E+00 0.  1.
         13    1    4    4    0    0 -0.14697474318E+03  0.11764832490E+03  0.39632711581E+03  0.43876861485E+03  0.10566000000E+00 0. -1.
         -4    1    4    4    0  503  0.17374555922E+03  0.92603695041E+02 -0.55813274877E+03  0.59184045902E+03  0.00000000000E+00 0. -1.
<mgrwt>
<rscale>  2 0.10150497E+04</rscale>
<asrwt>0</asrwt>
<pdfrwt beam="1">  1       21 0.12288005E+00 0.10178281E+04</pdfrwt>
<pdfrwt beam="2">  1       21 0.19872750E+00 0.10178281E+04</pdfrwt>
<totfact> 0.33455264E+01</totfact>
</mgrwt>
</event>
<event>
 8    1  0.7208583E-006  0.1071070E+04  0.7818608E-02  0.8720591E-01
         21   -1    0    0  501  502  0.00000000000E+00  0.00000000000E+00  0.12053809326E+04  0.12053809326E+04  0.00000000000E+00 0.  1.
         21   -1    0    0  502  503 -0.00000000000E+00 -0.00000000000E+00 -0.11237434974E+04  0.11237434974E+04  0.00000000000E+00 0.  1.
    9000010    2    1    2  501    0 -0.12862406279E+03 -0.34886950325E+03  0.54724019874E+03  0.12027732559E+04  0.10044588544E+04 0.  0.
   -9000010    2    1    2    0  503  0.12862406279E+03  0.34886950325E+03 -0.46560276354E+03  0.11263511742E+04  0.95583835160E+03 0.  0.
        -13    1    3    3    0    0 -0.46754271864E+03  0.10007888856E+03  0.39455247354E+03  0.61990615679E+03  0.10566000000E+00 0.  1.
          4    1    3    3  501    0  0.33891865584E+03 -0.44894839181E+03  0.15268772520E+03  0.58286709910E+03  0.00000000000E+00 0.  1.
         13    1    4    4    0    0 -0.21947481003E+03 -0.94398289465E+02  0.15750372714E+03  0.28616020779E+03  0.10566000000E+00 0. -1.
         -4    1    4    4    0  503  0.34809887282E+03  0.44326779272E+03 -0.62310649068E+03  0.84019096642E+03  0.00000000000E+00 0. -1.
<mgrwt>
<rscale>  2 0.10595204E+04</rscale>
<asrwt>0</asrwt>
<pdfrwt beam="1">  1       21 0.18544322E+00 0.10710703E+04</pdfrwt>
<pdfrwt beam="2">  1       21 0.17288361E+00 0.10710703E+04</pdfrwt>
<totfact> 0.14883874E+01</totfact>
</mgrwt>
</event>
<event>
 8    1  0.7208583E-006  0.1237461E+04  0.7818608E-02  0.8623080E-01
         21   -1    0    0  503  502  0.00000000000E+00  0.00000000000E+00  0.70579419200E+03  0.70579419200E+03  0.00000000000E+00 0.  1.
         21   -1    0    0  501  503 -0.00000000000E+00 -0.00000000000E+00 -0.19372658135E+04  0.19372658135E+04  0.00000000000E+00 0.  1.
    9000010    2    1    2  501    0 -0.11703433910E+03 -0.58979365505E+02 -0.32237174621E+03  0.12787621026E+04  0.12305012678E+04 0.  0.
   -9000010    2    1    2    0  502  0.11703433910E+03  0.58979365505E+02 -0.90909987529E+03  0.13642979029E+04  0.10087966012E+04 0.  0.
        -13    1    3    3    0    0 -0.72728020493E+02  0.24704637662E+03  0.40978375463E+03  0.48398761750E+03  0.10566000000E+00 0.  1.
          4    1    3    3  501    0 -0.44306318609E+02 -0.30602574213E+03 -0.73215550084E+03  0.79477448507E+03  0.00000000000E+00 0.  1.
         13    1    4    4    0    0  0.22327210050E+03  0.50468312086E+03 -0.57688337500E+03  0.79834198365E+03  0.10566000000E+00 0. -1.
         -4    1    4    4    0  502 -0.10623776140E+03 -0.44570375536E+03 -0.33221650029E+03  0.56595591927E+03  0.00000000000E+00 0. -1.
<mgrwt>
<rscale>  2 0.11783059E+04</rscale>
<asrwt>0</asrwt>
<pdfrwt beam="1">  1       21 0.10858372E+00 0.12374607E+04</pdfrwt>
<pdfrwt beam="2">  1       21 0.29804089E+00 0.12374607E+04</pdfrwt>
<totfact> 0.83852887E+00</totfact>
</mgrwt>
</event>
<event>
 8    1  0.7208583E-006  0.1016298E+04  0.7818608E-02  0.8771941E-01
         21   -1    0    0  503  502  0.00000000000E+00  0.00000000000E+00  0.32048959514E+04  0.32048959514E+04  0.00000000000E+00 0. -1.
         21   -1    0    0  501  503 -0.00000000000E+00 -0.00000000000E+00 -0.32328883880E+03  0.32328883880E+03  0.00000000000E+00 0. -1.
    9000010    2    1    2  501    0  0.13852052902E+03 -0.16070086150E+02  0.99360278004E+03  0.13840247609E+04  0.95332673809E+03 0.  0.
   -9000010    2    1    2    0  502 -0.13852052902E+03  0.16070086150E+02  0.18880043325E+04  0.21441600293E+04  0.10066854956E+04 0.  0.
        -13    1    3    3    0    0  0.35770533897E+03 -0.59226886883E+02  0.10840038582E+04  0.11430333807E+04  0.10566000000E+00 0.  1.
          4    1    3    3  501    0 -0.21918480995E+03  0.43156800734E+02 -0.90401078182E+02  0.24099138013E+03  0.00000000000E+00 0.  1.
         13    1    4    4    0    0 -0.14040643732E+01  0.34118313930E+03  0.15349195624E+03  0.37412257046E+03  0.10566000000E+00 0. -1.
         -4    1    4    4    0  502 -0.13711646464E+03 -0.32511305315E+03  0.17345123763E+04  0.17700374588E+04  0.00000000000E+00 0. -1.
<mgrwt>
<rscale>  2 0.10028260E+04</rscale>
<asrwt>0</asrwt>
<pdfrwt beam="1">  1       21 0.49306089E+00 0.10162981E+04</pdfrwt>
<pdfrwt beam="2">  1       21 0.49736747E-01 0.10162981E+04</pdfrwt>
<totfact> 0.25317848E+00</totfact>
</mgrwt>
</event>
<event>
 8    1  0.7208583E-006  0.1005623E+04  0.7818608E-02  0.8781948E-01
         21   -1    0    0  501  502  0.00000000000E+00  0.00000000000E+00  0.10663982538E+04  0.10663982538E+04  0.00000000000E+00 0. -1.
         21   -1    0    0  502  503 -0.00000000000E+00 -0.00000000000E+00 -0.95833889846E+03  0.95833889846E+03  0.00000000000E+00 0. -1.
    9000010    2    1    2  501    0  0.46660260531E+01 -0.12616441621E+03 -0.19839820869E+03  0.97345482821E+03  0.94462332262E+03 0.  0.
   -9000010    2    1    2    0  503 -0.46660260531E+01  0.12616441621E+03  0.30645756399E+03  0.10512823240E+04  0.99766680536E+03 0.  0.
        -13    1    3    3    0    0  0.45491936221E+03 -0.18927743340E+03 -0.50292174310E+02  0.49528465236E+03  0.10566000000E+00 0.  1.
          4    1    3    3  501    0 -0.45025333615E+03  0.63113017188E+02 -0.14810603438E+03  0.47817017585E+03  0.00000000000E+00 0.  1.
         13    1    4    4    0    0 -0.37695407784E+03  0.16050015206E+03 -0.17177503227E+03  0.44425369833E+03  0.10566000000E+00 0. -1.
         -4    1    4    4    0  503  0.37228805178E+03 -0.34335735843E+02  0.47823259626E+03  0.60702862567E+03  0.00000000000E+00 0. -1.
<mgrwt>
<rscale>  2 0.99220710E+03</rscale>
<asrwt>0</asrwt>
<pdfrwt beam="1">  1       21 0.16406127E+00 0.10056233E+04</pdfrwt>
<pdfrwt beam="2">  1       21 0.14743675E+00 0.10056233E+04</pdfrwt>
<totfact> 0.37665842E+01</totfact>
</mgrwt>
</event>
<event>
 8    1  0.7208583E-006  0.1257166E+04  0.7818608E-02  0.8567081E-01
         21   -1    0    0  501  502  0.00000000000E+00  0.00000000000E+00  0.21103563374E+04  0.21103563374E+04  0.00000000000E+00 0. -1.
         21   -1    0    0  502  503 -0.00000000000E+00 -0.00000000000E+00 -0.85562110166E+03  0.85562110166E+03  0.00000000000E+00 0.  1.
    9000010    2    1    2  501    0  0.73949528830E+03 -0.14388256305E+03  0.11671466185E+04  0.17057642266E+04  0.98987115046E+03 0.  0.
   -9000010    2    1    2    0  503 -0.73949528830E+03  0.14388256305E+03  0.87588617289E+02  0.12602132124E+04  0.10064343503E+04 0.  0.
        -13    1    3    3    0    0 -0.12215300418E+03  0.23040860477E+03  0.88540893952E+02  0.27540694009E+03  0.10566000000E+00 0.  1.
          4    1    3    3  501    0  0.86164829248E+03 -0.37429116782E+03  0.10786057245E+04  0.14303572865E+04  0.00000000000E+00 0.  1.
         13    1    4    4    0    0 -0.48213689709E+03  0.56136076677E+03  0.17901755438E+03  0.76133382556E+03  0.10566000000E+00 0. -1.
         -4    1    4    4    0  503 -0.25735839120E+03 -0.41747820372E+03 -0.91428937094E+02  0.49887938687E+03  0.00000000000E+00 0. -1.
<mgrwt>
<rscale>  2 0.12538475E+04</rscale>
<asrwt>0</asrwt>
<pdfrwt beam="1">  1       21 0.32467020E+00 0.12571657E+04</pdfrwt>
<pdfrwt beam="2">  1       21 0.13163402E+00 0.12571657E+04</pdfrwt>
<totfact> 0.31582416E+00</totfact>
</mgrwt>
</event>
<event>
 8    1  0.7208583E-006  0.1175559E+04  0.7818608E-02  0.8639229E-01
         21   -1    0    0  501  502  0.00000000000E+00  0.00000000000E+00  0.25357184978E+04  0.25357184978E+04  0.00000000000E+00 0. -1.
         21   -1    0    0  502  503 -0.00000000000E+00 -0.00000000000E+00 -0.64027263048E+03  0.64027263048E+03  0.00000000000E+00 0. -1.
    9000010    2    1    2  501    0  0.47415226617E+03 -0.22965903909E+03  0.16324464208E+04  0.19713722502E+04  0.97152642080E+03 0.  0.
   -9000010    2    1    2    0  503 -0.47415226617E+03  0.22965903909E+03  0.26299944649E+03  0.12046188781E+04  0.10508921385E+04 0.  0.
        -13    1    3    3    0    0  0.24755067250E+03 -0.39199839789E+03  0.16278491600E+04  0.16925829310E+04  0.10566000000E+00 0.  1.
          4    1    3    3  501    0  0.22660159368E+03  0.16233935880E+03  0.45972607505E+01  0.27878931916E+03  0.00000000000E+00 0.  1.
         13    1    4    4    0    0  0.33718601812E+03  0.82068669809E+02  0.12290120896E+03  0.36814996362E+03  0.10566000000E+00 0. -1.
         -4    1    4    4    0  503 -0.81133828430E+03  0.14759036928E+03  0.14009823753E+03  0.83646891444E+03  0.00000000000E+00 0. -1.
<mgrwt>
<rscale>  2 0.11575550E+04</rscale>
<asrwt>0</asrwt>
<pdfrwt beam="1">  1       21 0.39011053E+00 0.11755586E+04</pdfrwt>
<pdfrwt beam="2">  1       21 0.98503483E-01 0.11755586E+04</pdfrwt>
<totfact> 0.24797833E+00</totfact>
</mgrwt>
</event>
<event>
 8    1  0.7208583E-006  0.1064262E+04  0.7818608E-02  0.8736678E-01
         21   -1    0    0  503  502  0.00000000000E+00  0.00000000000E+00  0.12291230792E+04  0.12291230792E+04  0.00000000000E+00 0. -1.
         21   -1    0    0  501  503 -0.00000000000E+00 -0.00000000000E+00 -0.86048862667E+03  0.86048862667E+03  0.00000000000E+00 0. -1.
    9000010    2    1    2  501    0 -0.47023413497E+02  0.83893835170E+02  0.58149979247E+02  0.10658491982E+04  0.10599074093E+04 0.  0.
   -9000010    2    1    2    0  502  0.47023413497E+02 -0.83893835170E+02  0.31048447327E+03  0.10237625076E+04  0.97079332861E+03 0.  0.
        -13    1    3    3    0    0  0.91055236059E+02 -0.32785141982E+03 -0.33685413789E+03  0.47879884176E+03  0.10566000000E+00 0.  1.
          4    1    3    3  501    0 -0.13807864956E+03  0.41174525499E+03  0.39500411714E+03  0.58705035647E+03  0.00000000000E+00 0.  1.
         13    1    4    4    0    0  0.41300240371E+03 -0.19619564181E+03 -0.94048605008E+02  0.46680709785E+03  0.10566000000E+00 0. -1.
         -4    1    4    4    0  502 -0.36597899022E+03  0.11230180664E+03  0.40453307828E+03  0.55695540977E+03  0.00000000000E+00 0. -1.
<mgrwt>
<rscale>  2 0.10413536E+04</rscale>
<asrwt>0</asrwt>
<pdfrwt beam="1">  1       21 0.18909586E+00 0.10642618E+04</pdfrwt>
<pdfrwt beam="2">  1       21 0.13238287E+00 0.10642618E+04</pdfrwt>
<totfact> 0.31873619E+01</totfact>
</mgrwt>
</event>
<event>
 8    1  0.7208583E-006  0.9998499E+03  0.7818608E-02  0.8776991E-01
         21   -1    0    0  503  502  0.00000000000E+00  0.00000000000E+00  0.34249653329E+03  0.34249653329E+03  0.00000000000E+00 0. -1.
         21   -1    0    0  501  503 -0.00000000000E+00 -0.00000000000E+00 -0.44705542426E+04  0.44705542426E+04  0.00000000000E+00 0. -1.
    9000010    2    1    2  501    0 -0.20211374124E+01  0.34340426112E+02 -0.35008936438E+04  0.36408729984E+04  0.99925799220E+03 0.  0.
   -9000010    2    1    2    0  502  0.20211374124E+01 -0.34340426112E+02 -0.62716406546E+03  0.11721777775E+04  0.98968814645E+03 0.  0.
        -13    1    3    3    0    0  0.91042415266E+02  0.31302512695E+03 -0.35765572706E+03  0.48393293104E+03  0.10566000000E+00 0.  1.
          4    1    3    3  501    0 -0.93063552678E+02 -0.27868470083E+03 -0.31432379168E+04  0.31569400673E+04  0.00000000000E+00 0.  1.
         13    1    4    4    0    0  0.30070816467E+03  0.16768157241E+03  0.10168876778E+03  0.35900296194E+03  0.10566000000E+00 0. -1.
         -4    1    4    4    0  502 -0.29868702726E+03 -0.20202199852E+03 -0.72885283324E+03  0.81317481556E+03  0.00000000000E+00 0. -1.
<mgrwt>
<rscale>  2 0.99745027E+03</rscale>
<asrwt>0</asrwt>
<pdfrwt beam="1">  1       21 0.52691777E-01 0.99984993E+03</pdfrwt>
<pdfrwt beam="2">  1       21 0.68777754E+00 0.99984993E+03</pdfrwt>
<totfact> 0.73095586E-02</totfact>
</mgrwt>
</event>
<event>
 8    1  0.7208583E-006  0.1050673E+04  0.7818608E-02  0.8728416E-01
         21   -1    0    0  501  502  0.00000000000E+00  0.00000000000E+00  0.11835976238E+04  0.11835976238E+04  0.00000000000E+00 0.  1.
         21   -1    0    0  502  503 -0.00000000000E+00 -0.00000000000E+00 -0.11929999405E+04  0.11929999405E+04  0.00000000000E+00 0.  1.
    9000010    2    1    2  501    0  0.24201862345E+03  0.19434704311E+03 -0.55992733366E+03  0.11905595438E+04  0.10037776751E+04 0.  0.
   -9000010    2    1    2    0  503 -0.24201862345E+03 -0.19434704311E+03  0.55052501698E+03  0.11860380205E+04  0.10036257293E+04 0.  0.
        -13    1    3    3    0    0  0.22435788322E+03  0.14283151443E+03 -0.85246732381E+03  0.89299375732E+03  0.10566000000E+00 0.  1.
          4    1    3    3  501    0  0.17660740227E+02  0.51515528675E+02  0.29253999015E+03  0.29756578647E+03  0.00000000000E+00 0.  1.
         13    1    4    4    0    0  0.30293113353E+02  0.37648739226E+03  0.36901870492E+03  0.52804852522E+03  0.10566000000E+00 0. -1.
         -4    1    4    4    0  503 -0.27231173680E+03 -0.57083443537E+03  0.18150631206E+03  0.65798949530E+03  0.00000000000E+00 0. -1.
<mgrwt>
<rscale>  2 0.10506365E+04</rscale>
<asrwt>0</asrwt>
<pdfrwt beam="1">  1       21 0.18209194E+00 0.10506728E+04</pdfrwt>
<pdfrwt beam="2">  1       21 0.18353845E+00 0.10506728E+04</pdfrwt>
<totfact> 0.13016534E+01</totfact>
</mgrwt>
</event>
<event>
 8    1  0.7208583E-006  0.1068069E+04  0.7818608E-02  0.8717302E-01
         21   -1    0    0  503  502  0.00000000000E+00  0.00000000000E+00  0.18496363716E+04  0.18496363716E+04  0.00000000000E+00 0. -1.
         21   -1    0    0  501  503 -0.00000000000E+00 -0.00000000000E+00 -0.99262258079E+03  0.99262258079E+03  0.00000000000E+00 0. -1.
    9000010    2    1    2  501    0  0.16081166930E+03  0.32033919256E+03 -0.46094675354E+03  0.11458535965E+04  0.98591630664E+03 0.  0.
   -9000010    2    1    2    0  502 -0.16081166930E+03 -0.32033919256E+03  0.13179605444E+04  0.16964053560E+04  0.10061279958E+04 0.  0.
        -13    1    3    3    0    0 -0.31164843212E+03  0.45991044407E+03 -0.26731136080E+03  0.61652067004E+03  0.10566000000E+00 0.  1.
          4    1    3    3  501    0  0.47246010143E+03 -0.13957125152E+03 -0.19363539274E+03  0.52933292644E+03  0.00000000000E+00 0.  1.
         13    1    4    4    0    0 -0.49153484643E+03 -0.28040851830E+03  0.33291892986E+03  0.65655956882E+03  0.10566000000E+00 0. -1.
         -4    1    4    4    0  502  0.33072317713E+03 -0.39930674251E+02  0.98504161454E+03  0.10398457871E+04  0.00000000000E+00 0. -1.
<mgrwt>
<rscale>  2 0.10632824E+04</rscale>
<asrwt>0</asrwt>
<pdfrwt beam="1">  1       21 0.28455944E+00 0.10680689E+04</pdfrwt>
<pdfrwt beam="2">  1       21 0.15271117E+00 0.10680689E+04</pdfrwt>
<totfact> 0.40452131E+00</totfact>
</mgrwt>
</event>
<event>
 8    1  0.7208583E-006  0.1063325E+04  0.7818608E-02  0.8725855E-01
         21   -1    0    0  503  502  0.00000000000E+00  0.00000000000E+00  0.10591070771E+04  0.10591070771E+04  0.00000000000E+00 0.  1.
         21   -1    0    0  501  503 -0.00000000000E+00 -0.00000000000E+00 -0.11440880633E+04  0.11440880633E+04  0.00000000000E+00 0.  1.
    9000010    2    1    2  501    0  0.21591067008E+03  0.28078432745E+03 -0.39091644754E+03  0.10967337835E+04  0.96153630551E+03 0.  0.
   -9000010    2    1    2    0  502 -0.21591067008E+03 -0.28078432745E+03  0.30593546136E+03  0.11064613570E+04  0.10025981109E+04 0.  0.
        -13    1    3    3    0    0  0.40214810693E+01 -0.30094368501E+03 -0.37042096742E+03  0.47727872164E+03  0.10566000000E+00 0.  1.
          4    1    3    3  501    0  0.21188918901E+03  0.58172801247E+03 -0.20495480124E+02  0.61945506182E+03  0.00000000000E+00 0.  1.
         13    1    4    4    0    0 -0.57860181679E+03 -0.33259663818E+02  0.15059550937E+02  0.57975259281E+03  0.10566000000E+00 0. -1.
         -4    1    4    4    0  502  0.36269114671E+03 -0.24752466364E+03  0.29087591042E+03  0.52670876419E+03  0.00000000000E+00 0. -1.
<mgrwt>
<rscale>  2 0.10535343E+04</rscale>
<asrwt>0</asrwt>
<pdfrwt beam="1">  1       21 0.16293955E+00 0.10633251E+04</pdfrwt>
<pdfrwt beam="2">  1       21 0.17601355E+00 0.10633251E+04</pdfrwt>
<totfact> 0.21587510E+01</totfact>
</mgrwt>
</event>
<event>
 8    1  0.7208583E-006  0.1104217E+04  0.7818608E-02  0.8685013E-01
         21   -1    0    0  501  502  0.00000000000E+00  0.00000000000E+00  0.75507989974E+03  0.75507989974E+03  0.00000000000E+00 0. -1.
         21   -1    0    0  502  503 -0.00000000000E+00 -0.00000000000E+00 -0.29083766670E+04  0.29083766670E+04  0.00000000000E+00 0. -1.
    9000010    2    1    2  501    0  0.43545794885E+03 -0.82033160364E+02  0.15014310865E+03  0.11143779445E+04  0.10114060438E+04 0.  0.
   -9000010    2    1    2    0  503 -0.43545794885E+03  0.82033160364E+02 -0.23034398759E+04  0.25490786222E+04  0.99780433749E+03 0.  0.
        -13    1    3    3    0    0 -0.15647578218E+03 -0.40132550146E+03  0.36597872852E+02  0.43230341659E+03  0.10566000000E+00 0.  1.
          4    1    3    3  501    0  0.59193373103E+03  0.31929234110E+03  0.11354523580E+03  0.68207452789E+03  0.00000000000E+00 0.  1.
         13    1    4    4    0    0 -0.92575769395E+02  0.52242752234E+03 -0.10272341144E+04  0.11561620675E+04  0.10566000000E+00 0. -1.
         -4    1    4    4    0  503 -0.34288217946E+03 -0.44039436198E+03 -0.12762057614E+04  0.13929165548E+04  0.00000000000E+00 0. -1.
<mgrwt>
<rscale>  2 0.11010926E+04</rscale>
<asrwt>0</asrwt>
<pdfrwt beam="1">  1       21 0.11616614E+00 0.11042170E+04</pdfrwt>
<pdfrwt beam="2">  1       21 0.44744257E+00 0.11042170E+04</pdfrwt>
<totfact> 0.64801232E-01</totfact>
</mgrwt>
</event>
<event>
 8    1  0.7208583E-006  0.1081099E+04  0.7818608E-02  0.8703394E-01
         21   -1    0    0  501  502  0.00000000000E+00  0.00000000000E+00  0.15199943425E+04  0.15199943425E+04  0.00000000000E+00 0.  1.
         21   -1    0    0  502  503 -0.00000000000E+00 -0.00000000000E+00 -0.10314699108E+04  0.10314699108E+04  0.00000000000E+00 0.  1.
    9000010    2    1    2  501    0  0.93694287884E+02 -0.39595152101E+03  0.89326862239E+03  0.13970844963E+04  0.99416298038E+03 0.  0.
   -9000010    2    1    2    0  503 -0.93694287884E+02  0.39595152101E+03 -0.40474419069E+03  0.11543797569E+04  0.10016079756E+04 0.  0.
        -13    1    3    3    0    0 -0.76507207425E+02 -0.64819221278E+03  0.27552817970E+03  0.70846473904E+03  0.10566000000E+00 0.  1.
          4    1    3    3  501    0  0.17020149531E+03  0.25224069177E+03  0.61774044269E+03  0.68861975729E+03  0.00000000000E+00 0.  1.
         13    1    4    4    0    0 -0.40121616989E+02  0.63551795529E+03 -0.57310940719E+03  0.85670719585E+03  0.10566000000E+00 0. -1.
         -4    1    4    4    0  503 -0.53572670895E+02 -0.23956643428E+03  0.16836521650E+03  0.29767256109E+03  0.00000000000E+00 0. -1.
<mgrwt>
<rscale>  2 0.10793713E+04</rscale>
<asrwt>0</asrwt>
<pdfrwt beam="1">  1       21 0.23384528E+00 0.10810989E+04</pdfrwt>
<pdfrwt beam="2">  1       21 0.15868768E+00 0.10810989E+04</pdfrwt>
<totfact> 0.83191522E+00</totfact>
</mgrwt>
</event>
<event>
 8    1  0.7208583E-006  0.1132183E+04  0.7818608E-02  0.8667547E-01
         21   -1    0    0  501  502  0.00000000000E+00  0.00000000000E+00  0.15672762140E+04  0.15672762140E+04  0.00000000000E+00 0. -1.
         21   -1    0    0  502  503 -0.00000000000E+00 -0.00000000000E+00 -0.81345357494E+03  0.81345357494E+03  0.00000000000E+00 0. -1.
    9000010    2    1    2  501    0  0.33113249874E+03  0.43103313623E+03  0.58660763988E+03  0.12751260042E+04  0.99317647335E+03 0.  0.
   -9000010    2    1    2    0  503 -0.33113249874E+03 -0.43103313623E+03  0.16721499913E+03  0.11056037847E+04  0.94813531550E+03 0.  0.
        -13    1    3    3    0    0  0.61684071926E+03  0.93477697290E+02  0.12579560950E+03  0.63643939174E+03  0.10566000000E+00 0.  1.
          4    1    3    3  501    0 -0.28570822051E+03  0.33755543894E+03  0.46081203038E+03  0.63868661248E+03  0.00000000000E+00 0.  1.
         13    1    4    4    0    0 -0.33522639265E+03 -0.65380105927E+03 -0.11750349963E+03  0.74406964930E+03  0.10566000000E+00 0. -1.
         -4    1    4    4    0  503  0.40938939032E+01  0.22276792304E+03  0.28471849876E+03  0.36153413537E+03  0.00000000000E+00 0. -1.
<mgrwt>
<rscale>  2 0.11222279E+04</rscale>
<asrwt>0</asrwt>
<pdfrwt beam="1">  1       21 0.24111942E+00 0.11321828E+04</pdfrwt>
<pdfrwt beam="2">  1       21 0.12514670E+00 0.11321828E+04</pdfrwt>
<totfact> 0.14820184E+01</totfact>
</mgrwt>
</event>
<event>
 8    1  0.7208583E-006  0.1020971E+04  0.7818608E-02  0.8760619E-01
         21   -1    0    0  503  502  0.00000000000E+00  0.00000000000E+00  0.78123424428E+03  0.78123424428E+03  0.00000000000E+00 0.  1.
         21   -1    0    0  501  503 -0.00000000000E+00 -0.00000000000E+00 -0.15326328792E+04  0.15326328792E+04  0.00000000000E+00 0.  1.
    9000010    2    1    2  501    0 -0.21985713055E+03  0.12929800772E+03 -0.82671192900E+03  0.13137098065E+04  0.98859785029E+03 0.  0.
   -9000010    2    1    2    0  502  0.21985713055E+03 -0.12929800772E+03  0.75313294076E+02  0.10001573170E+04  0.96415114673E+03 0.  0.
        -13    1    3    3    0    0  0.37930063466E+02  0.42512585972E+03 -0.32739436777E+02  0.42806841533E+03  0.10566000000E+00 0.  1.
          4    1    3    3  501    0 -0.25778719402E+03 -0.29582785200E+03 -0.79397249223E+03  0.88564139121E+03  0.00000000000E+00 0.  1.
         13    1    4    4    0    0 -0.34789752630E+02 -0.47077191937E+03 -0.17806865149E+03  0.50452451156E+03  0.10566000000E+00 0. -1.
         -4    1    4    4    0  502  0.25464688318E+03  0.34147391165E+03  0.25338194556E+03  0.49563280540E+03  0.00000000000E+00 0. -1.
<mgrwt>
<rscale>  2 0.10150052E+04</rscale>
<asrwt>0</asrwt>
<pdfrwt beam="1">  1       21 0.12018989E+00 0.10209705E+04</pdfrwt>
<pdfrwt beam="2">  1       21 0.23578967E+00 0.10209705E+04</pdfrwt>
<totfact> 0.18635864E+01</totfact>
</mgrwt>
</event>
<event>
 8    1  0.7208583E-006  0.1011236E+04  0.7818608E-02  0.8767038E-01
         21   -1    0    0  503  502  0.00000000000E+00  0.00000000000E+00  0.61461061820E+03  0.61461061820E+03  0.00000000000E+00 0.  1.
         21   -1    0    0  501  503 -0.00000000000E+00 -0.00000000000E+00 -0.33384331870E+04  0.33384331870E+04  0.00000000000E+00 0.  1.
    9000010    2    1    2  501    0 -0.15052498052E+02  0.78812681886E+02 -0.27745521353E+04  0.29530895645E+04  0.10080478201E+04 0.  0.
   -9000010    2    1    2    0  502  0.15052498052E+02 -0.78812681886E+02  0.50729566532E+02  0.99995424072E+03  0.99543808351E+03 0.  0.
        -13    1    3    3    0    0 -0.12838682803E+03 -0.28684752781E+03 -0.25524828411E+03  0.40486587844E+03  0.10566000000E+00 0.  1.
          4    1    3    3  501    0  0.11333432997E+03  0.36566020969E+03 -0.25193038512E+04  0.25482236860E+04  0.00000000000E+00 0.  1.
         13    1    4    4    0    0 -0.19656408790E+03 -0.38754646881E+03  0.31932523835E+03  0.53925719759E+03  0.10566000000E+00 0. -1.
         -4    1    4    4    0  502  0.21161658596E+03  0.30873378692E+03 -0.26859567182E+03  0.46069704314E+03  0.00000000000E+00 0. -1.
<mgrwt>
<rscale>  2 0.10080790E+04</rscale>
<asrwt>0</asrwt>
<pdfrwt beam="1">  1       21 0.94555479E-01 0.10112361E+04</pdfrwt>
<pdfrwt beam="2">  1       21 0.51360511E+00 0.10112361E+04</pdfrwt>
<totfact> 0.39659405E-01</totfact>
</mgrwt>
</event>
<event>
 8    1  0.7208583E-006  0.1049514E+04  0.7818608E-02  0.8734776E-01
         21   -1    0    0  501  502  0.00000000000E+00  0.00000000000E+00  0.21015163453E+04  0.21015163453E+04  0.00000000000E+00 0.  1.
         21   -1    0    0  502  503 -0.00000000000E+00 -0.00000000000E+00 -0.67876944106E+03  0.67876944106E+03  0.00000000000E+00 0.  1.
    9000010    2    1    2  501    0  0.18264869272E+03  0.27858765990E+03  0.14060580484E+04  0.17545594750E+04  0.99524272756E+03 0.  0.
   -9000010    2    1    2    0  503 -0.18264869272E+03 -0.27858765990E+03  0.16688855843E+02  0.10257263113E+04  0.96998160737E+03 0.  0.
        -13    1    3    3    0    0  0.48173958816E+03  0.48446567760E+03  0.85159689136E+03  0.10917862887E+04  0.10566000000E+00 0.  1.
          4    1    3    3  501    0 -0.29909089544E+03 -0.20587801770E+03  0.55446115699E+03  0.66277318633E+03  0.00000000000E+00 0.  1.
         13    1    4    4    0    0 -0.57463851416E+03 -0.75010680747E+02  0.56358763265E+02  0.58224766684E+03  0.10566000000E+00 0. -1.
         -4    1    4    4    0  503  0.39198982144E+03 -0.20357697916E+03 -0.39669907422E+02  0.44347864448E+03  0.00000000000E+00 0. -1.
<mgrwt>
<rscale>  2 0.10434813E+04</rscale>
<asrwt>0</asrwt>
<pdfrwt beam="1">  1       21 0.32331020E+00 0.10495140E+04</pdfrwt>
<pdfrwt beam="2">  1       21 0.10442607E+00 0.10495140E+04</pdfrwt>
<totfact> 0.64288450E+00</totfact>
</mgrwt>
</event>
<event>
 8    1  0.7208583E-006  0.1034859E+04  0.7818608E-02  0.8753053E-01
         21   -1    0    0  501  502  0.00000000000E+00  0.00000000000E+00  0.12834327551E+04  0.12834327551E+04  0.00000000000E+00 0.  1.
         21   -1    0    0  502  503 -0.00000000000E+00 -0.00000000000E+00 -0.82583301766E+03  0.82583301766E+03  0.00000000000E+00 0.  1.
    9000010    2    1    2  501    0 -0.20963184307E+03 -0.54546926322E+02  0.41737703204E+03  0.10736252961E+04  0.96516672794E+03 0.  0.
   -9000010    2    1    2    0  503  0.20963184307E+03  0.54546926322E+02  0.40222705417E+02  0.10356404767E+04  0.10119350049E+04 0.  0.
        -13    1    3    3    0    0  0.21354776450E+03 -0.21078274743E+03 -0.16069424826E+03  0.34037430415E+03  0.10566000000E+00 0.  1.
          4    1    3    3  501    0 -0.42317960757E+03  0.15623582111E+03  0.57807128030E+03  0.73325099193E+03  0.00000000000E+00 0.  1.
         13    1    4    4    0    0  0.18658483898E+03 -0.45602369575E+03 -0.10610833588E+03  0.50401438802E+03  0.10566000000E+00 0. -1.
         -4    1    4    4    0  503  0.23047004088E+02  0.51057062207E+03  0.14633104130E+03  0.53162608868E+03  0.00000000000E+00 0. -1.
<mgrwt>
<rscale>  2 0.10232440E+04</rscale>
<asrwt>0</asrwt>
<pdfrwt beam="1">  1       21 0.19745119E+00 0.10348591E+04</pdfrwt>
<pdfrwt beam="2">  1       21 0.12705123E+00 0.10348591E+04</pdfrwt>
<totfact> 0.31014836E+01</totfact>
</mgrwt>
</event>
<event>
 8    1  0.7208583E-006  0.1048317E+04  0.7818608E-02  0.8733481E-01
         21   -1    0    0  501  502  0.00000000000E+00  0.00000000000E+00  0.10038705987E+04  0.10038705987E+04  0.00000000000E+00 0.  1.
         21   -1    0    0  502  503 -0.00000000000E+00 -0.00000000000E+00 -0.11331523450E+04  0.11331523450E+04  0.00000000000E+00 0.  1.
    9000010    2    1    2  501    0 -0.26759415160E+03  0.16626586414E+03  0.16561546990E+03  0.10480178598E+04  0.98572916313E+03 0.  0.
   -9000010    2    1    2    0  503  0.26759415160E+03 -0.16626586414E+03 -0.29489721622E+03  0.10890050839E+04  0.99985835852E+03 0.  0.
        -13    1    3    3    0    0  0.30814794745E+03  0.17876725067E+03 -0.15544903241E+03  0.38868663506E+03  0.10566000000E+00 0.  1.
          4    1    3    3  501    0 -0.57574209905E+03 -0.12501386529E+02  0.32106450232E+03  0.65933122475E+03  0.00000000000E+00 0.  1.
         13    1    4    4    0    0  0.36552521183E+03 -0.53872392693E+03 -0.26445351563E+03  0.70268614831E+03  0.10566000000E+00 0. -1.
         -4    1    4    4    0  503 -0.97931060230E+02  0.37245806279E+03 -0.30443700585E+02  0.38631893560E+03  0.00000000000E+00 0. -1.
<mgrwt>
<rscale>  2 0.10449334E+04</rscale>
<asrwt>0</asrwt>
<pdfrwt beam="1">  1       21 0.15444163E+00 0.10483166E+04</pdfrwt>
<pdfrwt beam="2">  1       21 0.17433113E+00 0.10483166E+04</pdfrwt>
<totfact> 0.26500131E+01</totfact>
</mgrwt>
</event>
<event>
 8    1  0.7208583E-006  0.1012217E+04  0.7818608E-02  0.8764782E-01
         21   -1    0    0  503  502  0.00000000000E+00  0.00000000000E+00  0.23533872394E+04  0.23533872394E+04  0.00000000000E+00 0.  1.
         21   -1    0    0  501  503 -0.00000000000E+00 -0.00000000000E+00 -0.45544962816E+03  0.45544962816E+03  0.00000000000E+00 0.  1.
    9000010    2    1    2  501    0 -0.67739708269E+02  0.10754458388E+03  0.12677136652E+04  0.16222459551E+04  0.10042059033E+04 0.  0.
   -9000010    2    1    2    0  502  0.67739708269E+02 -0.10754458388E+03  0.63022394605E+03  0.11865909125E+04  0.99732706062E+03 0.  0.
        -13    1    3    3    0    0  0.17258495132E+03  0.29930104185E+03  0.12685875068E+04  0.13147931217E+04  0.10566000000E+00 0.  1.
          4    1    3    3  501    0 -0.24032465959E+03 -0.19175645797E+03 -0.87384164262E+00  0.30745283342E+03  0.00000000000E+00 0.  1.
         13    1    4    4    0    0  0.61582054603E+02 -0.41890274978E+02 -0.27197332250E+03  0.28198695697E+03  0.10566000000E+00 0. -1.
         -4    1    4    4    0  502  0.61576536669E+01 -0.65654308905E+02  0.90219726854E+03  0.90460395552E+03  0.00000000000E+00 0. -1.
<mgrwt>
<rscale>  2 0.10105070E+04</rscale>
<asrwt>0</asrwt>
<pdfrwt beam="1">  1       21 0.36205957E+00 0.10122174E+04</pdfrwt>
<pdfrwt beam="2">  1       21 0.70069175E-01 0.10122174E+04</pdfrwt>
<totfact> 0.94188453E+00</totfact>
</mgrwt>
</event>
<event>
 8    1  0.7208583E-006  0.1086647E+04  0.7818608E-02  0.8707914E-01
         21   -1    0    0  503  502  0.00000000000E+00  0.00000000000E+00  0.28534833168E+04  0.28534833168E+04  0.00000000000E+00 0. -1.
         21   -1    0    0  501  503 -0.00000000000E+00 -0.00000000000E+00 -0.41445850954E+03  0.41445850954E+03  0.00000000000E+00 0. -1.
    9000010    2    1    2  501    0 -0.21399685319E+03 -0.25540750572E+03  0.84088868413E+03  0.13353683937E+04  0.98238857922E+03 0.  0.
   -9000010    2    1    2    0  502  0.21399685319E+03  0.25540750572E+03  0.15981361231E+04  0.19325734326E+04  0.10342984856E+04 0.  0.
        -13    1    3    3    0    0 -0.54461949026E+03  0.96140318223E+02  0.41054574899E+03  0.68876786592E+03  0.10566000000E+00 0.  1.
          4    1    3    3  501    0  0.33062263707E+03 -0.35154782395E+03  0.43034293514E+03  0.64660052775E+03  0.00000000000E+00 0.  1.
         13    1    4    4    0    0 -0.18210807683E+03  0.40337125440E+03  0.22634914738E+03  0.49709724220E+03  0.10566000000E+00 0. -1.
         -4    1    4    4    0  502  0.39610493002E+03 -0.14796374868E+03  0.13717869757E+04  0.14354761904E+04  0.00000000000E+00 0. -1.
<mgrwt>
<rscale>  2 0.10741096E+04</rscale>
<asrwt>0</asrwt>
<pdfrwt beam="1">  1       21 0.43899742E+00 0.10866467E+04</pdfrwt>
<pdfrwt beam="2">  1       21 0.63762849E-01 0.10866467E+04</pdfrwt>
<totfact> 0.33757253E+00</totfact>
</mgrwt>
</event>
<event>
 8    1  0.7208583E-006  0.1137365E+04  0.7818608E-02  0.8669184E-01
         21   -1    0    0  503  502  0.00000000000E+00  0.00000000000E+00  0.73792447954E+03  0.73792447954E+03  0.00000000000E+00 0.  1.
         21   -1    0    0  501  503 -0.00000000000E+00 -0.00000000000E+00 -0.16996848458E+04  0.16996848458E+04  0.00000000000E+00 0.  1.
    9000010    2    1    2  501    0  0.33475933927E+03 -0.29024342786E+03 -0.28939947484E+03  0.11736065011E+04  0.10475185443E+04 0.  0.
   -9000010    2    1    2    0  502 -0.33475933927E+03  0.29024342786E+03 -0.67236089142E+03  0.12640028243E+04  0.97433511113E+03 0.  0.
        -13    1    3    3    0    0  0.32677554664E+03  0.28744323552E+03  0.13620513724E+03  0.45602381747E+03  0.10566000000E+00 0.  1.
          4    1    3    3  501    0  0.79837926296E+01 -0.57768666338E+03 -0.42560461208E+03  0.71758268361E+03  0.00000000000E+00 0.  1.
         13    1    4    4    0    0 -0.13376290344E+03  0.59215833316E+03 -0.66611072271E+03  0.90124775280E+03  0.10566000000E+00 0. -1.
         -4    1    4    4    0  502 -0.20099643583E+03 -0.30191490530E+03 -0.62501687179E+01  0.36275507145E+03  0.00000000000E+00 0. -1.
<mgrwt>
<rscale>  2 0.11202263E+04</rscale>
<asrwt>0</asrwt>
<pdfrwt beam="1">  1       21 0.11352684E+00 0.11373654E+04</pdfrwt>
<pdfrwt beam="2">  1       21 0.26148997E+00 0.11373654E+04</pdfrwt>
<totfact> 0.13817644E+01</totfact>
</mgrwt>
</event>
<event>
 8    1  0.7208583E-006  0.1055734E+04  0.7818608E-02  0.8733453E-01
         21   -1    0    0  501  502  0.00000000000E+00  0.00000000000E+00  0.24240265756E+04  0.24240265756E+04  0.00000000000E+00 0. -1.
         21   -1    0    0  502  503 -0.00000000000E+00 -0.00000000000E+00 -0.10358006550E+04  0.10358006550E+04  0.00000000000E+00 0. -1.
    9000010    2    1    2  501    0 -0.15056390888E+03  0.27886058876E+03  0.19982718090E+04  0.22405113838E+04  0.96248029575E+03 0.  0.
   -9000010    2    1    2    0  503  0.15056390888E+03 -0.27886058876E+03 -0.61004588843E+03  0.12193158467E+04  0.10070463889E+04 0.  0.
        -13    1    3    3    0    0 -0.12386862581E+03  0.28728895324E+03  0.21060481099E+04  0.21291587615E+04  0.10566000000E+00 0.  1.
          4    1    3    3  501    0 -0.26695283073E+02 -0.84283644821E+01 -0.10777630090E+03  0.11135262234E+03  0.00000000000E+00 0.  1.
         13    1    4    4    0    0  0.55882032356E+03 -0.25424833911E+03 -0.21448509419E+03  0.65032779332E+03  0.10566000000E+00 0. -1.
         -4    1    4    4    0  503 -0.40825641468E+03 -0.24612249653E+02 -0.39556079424E+03  0.56898805339E+03  0.00000000000E+00 0. -1.
<mgrwt>
<rscale>  2 0.10449651E+04</rscale>
<asrwt>0</asrwt>
<pdfrwt beam="1">  1       21 0.37292716E+00 0.10557344E+04</pdfrwt>
<pdfrwt beam="2">  1       21 0.15935395E+00 0.10557344E+04</pdfrwt>
<totfact> 0.84807775E-01</totfact>
</mgrwt>
</event>
<event>
 8    1  0.7208583E-006  0.1190816E+04  0.7818608E-02  0.8619535E-01
         21   -1    0    0  503  502  0.00000000000E+00  0.00000000000E+00  0.23889117633E+04  0.23889117633E+04  0.00000000000E+00 0. -1.
         21   -1    0    0  501  503 -0.00000000000E+00 -0.00000000000E+00 -0.63815717488E+03  0.63815717488E+03  0.00000000000E+00 0. -1.
    9000010    2    1    2  501    0 -0.61887515819E+03  0.17345996911E+03  0.42168832078E+03  0.12632751790E+04  0.10024711047E+04 0.  0.
   -9000010    2    1    2    0  502  0.61887515819E+03 -0.17345996911E+03  0.13290662676E+04  0.17637937591E+04  0.96511991937E+03 0.  0.
        -13    1    3    3    0    0 -0.56904459315E+03  0.52746450796E+02 -0.21705693153E+03  0.61131633362E+03  0.10566000000E+00 0.  1.
          4    1    3    3  501    0 -0.49830565043E+02  0.12071351832E+03  0.63874525231E+03  0.65195884538E+03  0.00000000000E+00 0.  1.
         13    1    4    4    0    0  0.46503407096E+03 -0.49522276024E+03  0.12102414752E+04  0.13878712869E+04  0.10566000000E+00 0. -1.
         -4    1    4    4    0  502  0.15384108724E+03  0.32176279112E+03  0.11882479239E+03  0.37592247227E+03  0.00000000000E+00 0. -1.
<mgrwt>
<rscale>  2 0.11829209E+04</rscale>
<asrwt>0</asrwt>
<pdfrwt beam="1">  1       21 0.36752488E+00 0.11908162E+04</pdfrwt>
<pdfrwt beam="2">  1       21 0.98178028E-01 0.11908162E+04</pdfrwt>
<totfact> 0.35900937E+00</totfact>
</mgrwt>
</event>
<event>
 8    1  0.7208583E-006  0.1105734E+04  0.7818608E-02  0.8698281E-01
         21   -1    0    0  501  502  0.00000000000E+00  0.00000000000E+00  0.95804466428E+03  0.95804466428E+03  0.00000000000E+00 0. -1.
         21   -1    0    0  502  503 -0.00000000000E+00 -0.00000000000E+00 -0.13904617653E+04  0.13904617653E+04  0.00000000000E+00 0. -1.
    9000010    2    1    2  501    0  0.81876103475E+02  0.37999042449E+03  0.22657725258E+03  0.11287098792E+04  0.10351581140E+04 0.  0.
   -9000010    2    1    2    0  503 -0.81876103475E+02 -0.37999042449E+03 -0.65899435365E+03  0.12197965505E+04  0.95001770896E+03 0.  0.
        -13    1    3    3    0    0  0.11401070667E+03 -0.29494962592E+03  0.31608148672E+03  0.44710316536E+03  0.10566000000E+00 0.  1.
          4    1    3    3  501    0 -0.32134603192E+02  0.67494005042E+03 -0.89504234132E+02  0.68160671381E+03  0.00000000000E+00 0.  1.
         13    1    4    4    0    0 -0.29731988591E+03  0.89237345601E+02 -0.63039507838E+03  0.70268085531E+03  0.10566000000E+00 0. -1.
         -4    1    4    4    0  503  0.21544378244E+03 -0.46922777009E+03 -0.28599275262E+02  0.51711569514E+03  0.00000000000E+00 0. -1.
<mgrwt>
<rscale>  2 0.10853609E+04</rscale>
<asrwt>0</asrwt>
<pdfrwt beam="1">  1       21 0.14739149E+00 0.11057345E+04</pdfrwt>
<pdfrwt beam="2">  1       21 0.21391719E+00 0.11057345E+04</pdfrwt>
<totfact> 0.14688796E+01</totfact>
</mgrwt>
</event>
<event>
 8    1  0.7208583E-006  0.1016177E+04  0.7818608E-02  0.8766117E-01
         21   -1    0    0  501  502  0.00000000000E+00  0.00000000000E+00  0.14928649558E+04  0.14928649558E+04  0.00000000000E+00 0.  1.
         21   -1    0    0  502  503 -0.00000000000E+00 -0.00000000000E+00 -0.67480063551E+03  0.67480063551E+03  0.00000000000E+00 0.  1.
    9000010    2    1    2  501    0  0.47376446119E+02 -0.68676689247E+02  0.47548711855E+03  0.11219196114E+04  0.10127460685E+04 0.  0.
   -9000010    2    1    2    0  503 -0.47376446119E+02  0.68676689247E+02  0.34257720173E+03  0.10457459799E+04  0.98451231582E+03 0.  0.
        -13    1    3    3    0    0  0.31393385586E+03 -0.15249262125E+03 -0.19197765145E+03  0.39832636771E+03  0.10566000000E+00 0.  1.
          4    1    3    3  501    0 -0.26655740974E+03  0.83815932006E+02  0.66746477001E+03  0.72359324371E+03  0.00000000000E+00 0.  1.
         13    1    4    4    0    0 -0.24917616592E+03 -0.39519684285E+03  0.74048328066E+02  0.47302481152E+03  0.10566000000E+00 0. -1.
         -4    1    4    4    0  503  0.20179971980E+03  0.46387353210E+03  0.26852887366E+03  0.57272116836E+03  0.00000000000E+00 0. -1.
<mgrwt>
<rscale>  2 0.10090688E+04</rscale>
<asrwt>0</asrwt>
<pdfrwt beam="1">  1       21 0.22967153E+00 0.10161770E+04</pdfrwt>
<pdfrwt beam="2">  1       21 0.10381548E+00 0.10161770E+04</pdfrwt>
<totfact> 0.30853495E+01</totfact>
</mgrwt>
</event>
<event>
 8    1  0.7208583E-006  0.1030875E+04  0.7818608E-02  0.8752242E-01
         21   -1    0    0  503  502  0.00000000000E+00  0.00000000000E+00  0.11673998746E+04  0.11673998746E+04  0.00000000000E+00 0. -1.
         21   -1    0    0  501  503 -0.00000000000E+00 -0.00000000000E+00 -0.10141960227E+04  0.10141960227E+04  0.00000000000E+00 0. -1.
    9000010    2    1    2  501    0 -0.61510031887E+01 -0.74415144706E+02 -0.30895997483E+03  0.10761784208E+04  0.10281674371E+04 0.  0.
   -9000010    2    1    2    0  502  0.61510031887E+01  0.74415144706E+02  0.46216382675E+03  0.11054174766E+04  0.10013875105E+04 0.  0.
        -13    1    3    3    0    0 -0.43361596985E+03  0.44854708581E+02  0.12702281914E+03  0.45405898509E+03  0.10566000000E+00 0.  1.
          4    1    3    3  501    0  0.42746496666E+03 -0.11926985329E+03 -0.43598279397E+03  0.62211943569E+03  0.00000000000E+00 0.  1.
         13    1    4    4    0    0  0.36834048680E+03  0.27848821414E+03  0.50878128708E+03  0.68708719161E+03  0.10566000000E+00 0. -1.
         -4    1    4    4    0  502 -0.36218948361E+03 -0.20407306943E+03 -0.46617460331E+02  0.41833028496E+03  0.00000000000E+00 0. -1.
<mgrwt>
<rscale>  2 0.10241324E+04</rscale>
<asrwt>0</asrwt>
<pdfrwt beam="1">  1       21 0.17959998E+00 0.10308752E+04</pdfrwt>
<pdfrwt beam="2">  1       21 0.15603016E+00 0.10308752E+04</pdfrwt>
<totfact> 0.23320003E+01</totfact>
</mgrwt>
</event>
<event>
 8    1  0.7208583E-006  0.1018855E+04  0.7818608E-02  0.8758811E-01
         21   -1    0    0  503  502  0.00000000000E+00  0.00000000000E+00  0.84054620906E+03  0.84054620906E+03  0.00000000000E+00 0.  1.
         21   -1    0    0  501  503 -0.00000000000E+00 -0.00000000000E+00 -0.15715207433E+04  0.15715207433E+04  0.00000000000E+00 0.  1.
    9000010    2    1    2  501    0 -0.34043038906E+02  0.10233262963E+03 -0.93003269935E+03  0.13739484638E+04  0.10055558978E+04 0.  0.
   -9000010    2    1    2    0  502  0.34043038906E+02 -0.10233262963E+03  0.19905816507E+03  0.10381184886E+04  0.10131312589E+04 0.  0.
        -13    1    3    3    0    0 -0.30628634767E+03  0.38113228364E+03 -0.16613945978E+03  0.51640630870E+03  0.10566000000E+00 0.  1.
          4    1    3    3  501    0  0.27224330877E+03 -0.27879965401E+03 -0.76389323957E+03  0.85754215506E+03  0.00000000000E+00 0.  1.
         13    1    4    4    0    0  0.18812148321E+03 -0.16458552057E+03 -0.36931477535E+03  0.44595010986E+03  0.10566000000E+00 0. -1.
         -4    1    4    4    0  502 -0.15407844431E+03  0.62252890939E+02  0.56837294042E+03  0.59216837878E+03  0.00000000000E+00 0. -1.
<mgrwt>
<rscale>  2 0.10169668E+04</rscale>
<asrwt>0</asrwt>
<pdfrwt beam="1">  1       21 0.12931480E+00 0.10188552E+04</pdfrwt>
<pdfrwt beam="2">  1       21 0.24177242E+00 0.10188552E+04</pdfrwt>
<totfact> 0.13688371E+01</totfact>
</mgrwt>
</event>
<event>
 8    1  0.7208583E-006  0.1041521E+04  0.7818608E-02  0.8741080E-01
         21   -1    0    0  503  502  0.00000000000E+00  0.00000000000E+00  0.66683889396E+03  0.66683889396E+03  0.00000000000E+00 0.  1.
         21   -1    0    0  501  503 -0.00000000000E+00 -0.00000000000E+00 -0.17676862843E+04  0.17676862843E+04  0.00000000000E+00 0.  1.
    9000010    2    1    2  501    0 -0.31396106725E+03  0.10570512447E+03 -0.92555788782E+03  0.13783563448E+04  0.96615924382E+03 0.  0.
   -9000010    2    1    2    0  502  0.31396106725E+03 -0.10570512447E+03 -0.17528950256E+03  0.10561688335E+04  0.98743155210E+03 0.  0.
        -13    1    3    3    0    0  0.18541003579E+03  0.39488793957E+03 -0.48510277771E+03  0.65240944376E+03  0.10566000000E+00 0.  1.
          4    1    3    3  501    0 -0.49937110304E+03 -0.28918281510E+03 -0.44045511011E+03  0.72594690103E+03  0.00000000000E+00 0.  1.
         13    1    4    4    0    0  0.60505545731E+03  0.23133700211E+02  0.12532141489E+03  0.61833060954E+03  0.10566000000E+00 0. -1.
         -4    1    4    4    0  502 -0.29109439006E+03 -0.12883882468E+03 -0.30061091745E+03  0.43783822396E+03  0.00000000000E+00 0. -1.
<mgrwt>
<rscale>  2 0.10364479E+04</rscale>
<asrwt>0</asrwt>
<pdfrwt beam="1">  1       21 0.10259060E+00 0.10415211E+04</pdfrwt>
<pdfrwt beam="2">  1       21 0.27195173E+00 0.10415211E+04</pdfrwt>
<totfact> 0.15589473E+01</totfact>
</mgrwt>
</event>
<event>
 8    1  0.7208583E-006  0.1003936E+04  0.7818608E-02  0.8778286E-01
         21   -1    0    0  501  502  0.00000000000E+00  0.00000000000E+00  0.14601217839E+04  0.14601217839E+04  0.00000000000E+00 0. -1.
         21   -1    0    0  502  503 -0.00000000000E+00 -0.00000000000E+00 -0.11328744205E+04  0.11328744205E+04  0.00000000000E+00 0. -1.
    9000010    2    1    2  501    0  0.14817324948E+03 -0.62370002048E+02  0.99159547677E+03  0.13891499866E+04  0.95949505822E+03 0.  0.
   -9000010    2    1    2    0  503 -0.14817324948E+03  0.62370002048E+02 -0.66434811335E+03  0.12038462178E+04  0.99098030828E+03 0.  0.
        -13    1    3    3    0    0  0.19648492605E+03  0.36330108684E+03  0.83761719913E+03  0.93391465847E+03  0.10566000000E+00 0.  1.
          4    1    3    3  501    0 -0.48311676569E+02 -0.42567108889E+03  0.15397827764E+03  0.45523532815E+03  0.00000000000E+00 0.  1.
         13    1    4    4    0    0  0.28879181452E+03 -0.30243519197E+03 -0.39057430213E+03  0.57220280856E+03  0.10566000000E+00 0. -1.
         -4    1    4    4    0  503 -0.43696506400E+03  0.36480519401E+03 -0.27377381122E+03  0.63164340925E+03  0.00000000000E+00 0. -1.
<mgrwt>
<rscale>  2 0.99607765E+03</rscale>
<asrwt>0</asrwt>
<pdfrwt beam="1">  1       21 0.22463412E+00 0.10039359E+04</pdfrwt>
<pdfrwt beam="2">  1       21 0.17428837E+00 0.10039359E+04</pdfrwt>
<totfact> 0.73224065E+00</totfact>
</mgrwt>
</event>
<event>
 8    1  0.7208583E-006  0.1019791E+04  0.7818608E-02  0.8766544E-01
         21   -1    0    0  501  502  0.00000000000E+00  0.00000000000E+00  0.48923733828E+03  0.48923733828E+03  0.00000000000E+00 0. -1.
         21   -1    0    0  502  503 -0.00000000000E+00 -0.00000000000E+00 -0.20583687737E+04  0.20583687737E+04  0.00000000000E+00 0. -1.
    9000010    2    1    2  501    0  0.19571485207E+03 -0.12610972254E+03 -0.93740467718E+03  0.13851718821E+04  0.99285731539E+03 0.  0.
   -9000010    2    1    2    0  503 -0.19571485207E+03  0.12610972254E+03 -0.63172675825E+03  0.11624342299E+04  0.94761103639E+03 0.  0.
        -13    1    3    3    0    0  0.61307027352E+02 -0.45460401984E+03 -0.91407508597E+02  0.46773786488E+03  0.10566000000E+00 0.  1.
          4    1    3    3  501    0  0.13440782472E+03  0.32849429729E+03 -0.84599716858E+03  0.91743401722E+03  0.00000000000E+00 0.  1.
         13    1    4    4    0    0 -0.37785747103E+03  0.35833148411E+03 -0.66738935678E+02  0.52500649293E+03  0.10566000000E+00 0. -1.
         -4    1    4    4    0  503  0.18214261896E+03 -0.23222176157E+03 -0.56498782257E+03  0.63742773696E+03  0.00000000000E+00 0. -1.
<mgrwt>
<rscale>  2 0.10086092E+04</rscale>
<asrwt>0</asrwt>
<pdfrwt beam="1">  1       21 0.75267284E-01 0.10197910E+04</pdfrwt>
<pdfrwt beam="2">  1       21 0.31667211E+00 0.10197910E+04</pdfrwt>
<totfact> 0.16506071E+01</totfact>
</mgrwt>
</event>
<event>
 8    1  0.7208583E-006  0.1002496E+04  0.7818608E-02  0.8774513E-01
         21   -1    0    0  503  502  0.00000000000E+00  0.00000000000E+00  0.39988385808E+03  0.39988385808E+03  0.00000000000E+00 0. -1.
         21   -1    0    0  501  503 -0.00000000000E+00 -0.00000000000E+00 -0.24979172324E+04  0.24979172324E+04  0.00000000000E+00 0. -1.
    9000010    2    1    2  501    0  0.12946087782E+03 -0.29449214647E+02 -0.96833846893E+03  0.13937998016E+04  0.99366549776E+03 0.  0.
   -9000010    2    1    2    0  502 -0.12946087782E+03  0.29449214647E+02 -0.11296949053E+04  0.15040012888E+04  0.98396235827E+03 0.  0.
        -13    1    3    3    0    0  0.21479223983E+03 -0.15743780567E+02  0.15613451546E+03  0.26601047160E+03  0.10566000000E+00 0.  1.
          4    1    3    3  501    0 -0.85331362010E+02 -0.13705434081E+02 -0.11244729844E+04  0.11277893300E+04  0.00000000000E+00 0.  1.
         13    1    4    4    0    0 -0.47484591388E+03  0.29312482663E+03 -0.61623021925E+03  0.83134860329E+03  0.10566000000E+00 0. -1.
         -4    1    4    4    0  502  0.34538503606E+03 -0.26367561198E+03 -0.51346468609E+03  0.67265268553E+03  0.00000000000E+00 0. -1.
<mgrwt>
<rscale>  2 0.10000832E+04</rscale>
<asrwt>0</asrwt>
<pdfrwt beam="1">  1       21 0.61520595E-01 0.10024961E+04</pdfrwt>
<pdfrwt beam="2">  1       21 0.38429495E+00 0.10024961E+04</pdfrwt>
<totfact> 0.89359543E+00</totfact>
</mgrwt>
</event>
<event>
 8    1  0.7208583E-006  0.1015002E+04  0.7818608E-02  0.8764449E-01
         21   -1    0    0  503  502  0.00000000000E+00  0.00000000000E+00  0.95966463048E+03  0.95966463048E+03  0.00000000000E+00 0.  1.
         21   -1    0    0  501  503 -0.00000000000E+00 -0.00000000000E+00 -0.12608208923E+04  0.12608208923E+04  0.00000000000E+00 0.  1.
    9000010    2    1    2  501    0  0.11335898775E+03 -0.15043346075E+03 -0.59885288979E+03  0.11784963221E+04  0.99737069905E+03 0.  0.
   -9000010    2    1    2    0  502 -0.11335898775E+03  0.15043346075E+03  0.29769662792E+03  0.10419892007E+04  0.98063128952E+03 0.  0.
        -13    1    3    3    0    0  0.54352841327E+02 -0.49780742684E+03 -0.20402200880E+02  0.50118133100E+03  0.10566000000E+00 0.  1.
          4    1    3    3  501    0  0.59006146420E+02  0.34737396609E+03 -0.57845068891E+03  0.67731499107E+03  0.00000000000E+00 0.  1.
         13    1    4    4    0    0 -0.29522941016E+03 -0.31221255750E+03 -0.53963754669E+02  0.43306949058E+03  0.10566000000E+00 0. -1.
         -4    1    4    4    0  502  0.18187042241E+03  0.46264601825E+03  0.35166038259E+03  0.60891971017E+03  0.00000000000E+00 0. -1.
<mgrwt>
<rscale>  2 0.10108657E+04</rscale>
<asrwt>0</asrwt>
<pdfrwt beam="1">  1       21 0.14764071E+00 0.10150019E+04</pdfrwt>
<pdfrwt beam="2">  1       21 0.19397245E+00 0.10150019E+04</pdfrwt>
<totfact> 0.21293943E+01</totfact>
</mgrwt>
</event>
<event>
 8    1  0.7208583E-006  0.1370873E+04  0.7818608E-02  0.8501423E-01
         21   -1    0    0  501  502  0.00000000000E+00  0.00000000000E+00  0.96520518037E+03  0.96520518037E+03  0.00000000000E+00 0.  1.
         21   -1    0    0  502  503 -0.00000000000E+00 -0.00000000000E+00 -0.22321034111E+04  0.22321034111E+04  0.00000000000E+00 0. -1.
    9000010    2    1    2  501    0 -0.19551856950E+03 -0.79857703152E+03  0.58283401703E+02  0.12906364968E+04  0.99317310964E+03 0.  0.
   -9000010    2    1    2    0  503  0.19551856950E+03  0.79857703152E+03 -0.13251816324E+04  0.19066720946E+04  0.10969682453E+04 0.  0.
        -13    1    3    3    0    0 -0.70667071100E+01  0.21041423425E+03  0.15238208833E+03  0.25989305557E+03  0.10566000000E+00 0.  1.
          4    1    3    3  501    0 -0.18845186239E+03 -0.10089912658E+04 -0.94098686628E+02  0.10307434412E+04  0.00000000000E+00 0.  1.
         13    1    4    4    0    0  0.53853641988E+03  0.59057731817E+02 -0.39903767019E+03  0.67285984025E+03  0.10566000000E+00 0. -1.
         -4    1    4    4    0  503 -0.34301785038E+03  0.73951929970E+03 -0.92614396220E+03  0.12338122544E+04  0.00000000000E+00 0. -1.
<mgrwt>
<rscale>  2 0.13500132E+04</rscale>
<asrwt>0</asrwt>
<pdfrwt beam="1">  1       21 0.14849311E+00 0.13708728E+04</pdfrwt>
<pdfrwt beam="2">  1       21 0.34340052E+00 0.13708728E+04</pdfrwt>
<totfact> 0.15901902E+00</totfact>
</mgrwt>
</event>
<event>
 8    1  0.7208583E-006  0.1088369E+04  0.7818608E-02  0.8699910E-01
         21   -1    0    0  503  502  0.00000000000E+00  0.00000000000E+00  0.36019663610E+04  0.36019663610E+04  0.00000000000E+00 0. -1.
         21   -1    0    0  501  503 -0.00000000000E+00 -0.00000000000E+00 -0.35107800595E+03  0.35107800595E+03  0.00000000000E+00 0. -1.
    9000010    2    1    2  501    0 -0.15733500467E+03  0.31795230479E+03  0.10527538937E+04  0.15002209559E+04  0.10082282400E+04 0.  0.
   -9000010    2    1    2    0  502  0.15733500467E+03 -0.31795230479E+03  0.21981344613E+04  0.24528234111E+04  0.10289312922E+04 0.  0.
        -13    1    3    3    0    0 -0.10808797322E+03  0.37289886526E+03  0.12397883426E+04  0.12991580810E+04  0.10566000000E+00 0.  1.
          4    1    3    3  501    0 -0.49247031447E+02 -0.54946560471E+02 -0.18703444886E+03  0.20106287493E+03  0.00000000000E+00 0.  1.
         13    1    4    4    0    0  0.23614503698E+03 -0.44005025950E+03  0.37656885459E+03  0.62547008145E+03  0.10566000000E+00 0. -1.
         -4    1    4    4    0  502 -0.78810032314E+02  0.12209795471E+03  0.18215656067E+04  0.18273533296E+04  0.00000000000E+00 0. -1.
<mgrwt>
<rscale>  2 0.10834482E+04</rscale>
<asrwt>0</asrwt>
<pdfrwt beam="1">  1       21 0.55414865E+00 0.10883692E+04</pdfrwt>
<pdfrwt beam="2">  1       21 0.54012003E-01 0.10883692E+04</pdfrwt>
<totfact> 0.76455337E-01</totfact>
</mgrwt>
</event>
<event>
 8    1  0.7208583E-006  0.9965110E+03  0.7818608E-02  0.8788981E-01
         21   -1    0    0  503  502  0.00000000000E+00  0.00000000000E+00  0.17984846515E+04  0.17984846515E+04  0.00000000000E+00 0. -1.
         21   -1    0    0  501  503 -0.00000000000E+00 -0.00000000000E+00 -0.54239492418E+03  0.54239492418E+03  0.00000000000E+00 0. -1.
    9000010    2    1    2  501    0  0.51303382283E+01 -0.23445189404E+02  0.44527624278E+03  0.10914692345E+04  0.99622194320E+03 0.  0.
   -9000010    2    1    2    0  502 -0.51303382283E+01  0.23445189404E+02  0.81081348458E+03  0.12494103413E+04  0.95027979920E+03 0.  0.
        -13    1    3    3    0    0  0.10945357367E+03  0.41509347547E+03 -0.37553352224E+02  0.43092104102E+03  0.10566000000E+00 0.  1.
          4    1    3    3  501    0 -0.10432323545E+03 -0.43853866488E+03  0.48282959500E+03  0.66054819344E+03  0.00000000000E+00 0.  1.
         13    1    4    4    0    0  0.42693401369E+03 -0.95313926980E+02  0.62828550553E+03  0.76557173691E+03  0.10566000000E+00 0. -1.
         -4    1    4    4    0  502 -0.43206435192E+03  0.11875911638E+03  0.18252797905E+03  0.48383860435E+03  0.00000000000E+00 0. -1.
<mgrwt>
<rscale>  2 0.98482499E+03</rscale>
<asrwt>0</asrwt>
<pdfrwt beam="1">  1       21 0.27668994E+00 0.99651099E+03</pdfrwt>
<pdfrwt beam="2">  1       21 0.83445374E-01 0.99651099E+03</pdfrwt>
<totfact> 0.24755051E+01</totfact>
</mgrwt>
</event>
<event>
 8    1  0.7208583E-006  0.1073823E+04  0.7818608E-02  0.8717509E-01
         21   -1    0    0  501  502  0.00000000000E+00  0.00000000000E+00  0.12506382355E+04  0.12506382355E+04  0.00000000000E+00 0.  1.
         21   -1    0    0  502  503 -0.00000000000E+00 -0.00000000000E+00 -0.91989379153E+03  0.91989379153E+03  0.00000000000E+00 0.  1.
    9000010    2    1    2  501    0  0.10085471154E+03 -0.24495568848E+03  0.37072441590E+03  0.10959654188E+04  0.99675907043E+03 0.  0.
   -9000010    2    1    2    0  503 -0.10085471154E+03  0.24495568848E+03 -0.39979971960E+02  0.10745666082E+04  0.10406344388E+04 0.  0.
        -13    1    3    3    0    0 -0.16316077914E+03  0.26472245020E+03 -0.12731489890E+03  0.33601861575E+03  0.10566000000E+00 0.  1.
          4    1    3    3  501    0  0.26401549068E+03 -0.50967813867E+03  0.49803931480E+03  0.75994680304E+03  0.00000000000E+00 0.  1.
         13    1    4    4    0    0 -0.15233619889E+03  0.53796863457E+03  0.29035069642E+03  0.63001595801E+03  0.10566000000E+00 0. -1.
         -4    1    4    4    0  503  0.51481487356E+02 -0.29301294609E+03 -0.33033066838E+03  0.44455065019E+03  0.00000000000E+00 0. -1.
<mgrwt>
<rscale>  2 0.10630458E+04</rscale>
<asrwt>0</asrwt>
<pdfrwt beam="1">  1       21 0.19240588E+00 0.10738226E+04</pdfrwt>
<pdfrwt beam="2">  1       21 0.14152212E+00 0.10738226E+04</pdfrwt>
<totfact> 0.24574860E+01</totfact>
</mgrwt>
</event>
<event>
 8    1  0.7208583E-006  0.1091972E+04  0.7818608E-02  0.8697808E-01
         21   -1    0    0  503  502  0.00000000000E+00  0.00000000000E+00  0.10532086989E+04  0.10532086989E+04  0.00000000000E+00 0. -1.
         21   -1    0    0  501  503 -0.00000000000E+00 -0.00000000000E+00 -0.12183626588E+04  0.12183626588E+04  0.00000000000E+00 0. -1.
    9000010    2    1    2  501    0 -0.30344865623E+03  0.19092136808E+03 -0.42449819887E+03  0.11492250295E+04  0.10059758406E+04 0.  0.
   -9000010    2    1    2    0  502  0.30344865623E+03 -0.19092136808E+03  0.25934423888E+03  0.11223463282E+04  0.10314406383E+04 0.  0.
        -13    1    3    3    0    0  0.28086900910E+03 -0.18744445599E+03 -0.27908336048E+03  0.43807574415E+03  0.10566000000E+00 0.  1.
          4    1    3    3  501    0 -0.58431766533E+03  0.37836582406E+03 -0.14541483839E+03  0.71114928535E+03  0.00000000000E+00 0.  1.
         13    1    4    4    0    0  0.36251348161E+03 -0.17980570843E+03  0.62895331091E+03  0.74788260817E+03  0.10566000000E+00 0. -1.
         -4    1    4    4    0  502 -0.59064825378E+02 -0.11115659651E+02 -0.36960907203E+03  0.37446372003E+03  0.00000000000E+00 0. -1.
<mgrwt>
<rscale>  2 0.10859162E+04</rscale>
<asrwt>0</asrwt>
<pdfrwt beam="1">  1       21 0.16203211E+00 0.10919715E+04</pdfrwt>
<pdfrwt beam="2">  1       21 0.18744041E+00 0.10919715E+04</pdfrwt>
<totfact> 0.17631175E+01</totfact>
</mgrwt>
</event>
<event>
 8    1  0.7208583E-006  0.1026971E+04  0.7818608E-02  0.8752672E-01
         21   -1    0    0  501  502  0.00000000000E+00  0.00000000000E+00  0.12340971144E+04  0.12340971144E+04  0.00000000000E+00 0. -1.
         21   -1    0    0  502  503 -0.00000000000E+00 -0.00000000000E+00 -0.88654825006E+03  0.88654825006E+03  0.00000000000E+00 0. -1.
    9000010    2    1    2  501    0  0.15853132518E+03  0.49123743530E+02 -0.60450965235E+02  0.10155959503E+04  0.10001177390E+04 0.  0.
   -9000010    2    1    2    0  503 -0.15853132518E+03 -0.49123743530E+02  0.40799982959E+03  0.11050494142E+04  0.10134717676E+04 0.  0.
        -13    1    3    3    0    0 -0.14253412525E+03 -0.42126146629E+03  0.45878028965E+02  0.44708165311E+03  0.10566000000E+00 0.  1.
          4    1    3    3  501    0  0.30106545043E+03  0.47038520983E+03 -0.10632899420E+03  0.56851429716E+03  0.00000000000E+00 0.  1.
         13    1    4    4    0    0 -0.23204680131E+03 -0.50881053685E+03  0.25870750879E+03  0.61616837527E+03  0.10566000000E+00 0. -1.
         -4    1    4    4    0  503  0.73515476127E+02  0.45968679332E+03  0.14929232080E+03  0.48888103894E+03  0.00000000000E+00 0. -1.
<mgrwt>
<rscale>  2 0.10236614E+04</rscale>
<asrwt>0</asrwt>
<pdfrwt beam="1">  1       21 0.18986110E+00 0.10269714E+04</pdfrwt>
<pdfrwt beam="2">  1       21 0.13639204E+00 0.10269714E+04</pdfrwt>
<totfact> 0.29034689E+01</totfact>
</mgrwt>
</event>
<event>
 8    1  0.7208583E-006  0.1004491E+04  0.7818608E-02  0.8774781E-01
         21   -1    0    0  503  502  0.00000000000E+00  0.00000000000E+00  0.16011608214E+04  0.16011608214E+04  0.00000000000E+00 0.  1.
         21   -1    0    0  501  503 -0.00000000000E+00 -0.00000000000E+00 -0.64561171387E+03  0.64561171387E+03  0.00000000000E+00 0.  1.
    9000010    2    1    2  501    0  0.53364228646E+02 -0.83021005729E+02  0.24340930623E+03  0.10154539768E+04  0.98089676335E+03 0.  0.
   -9000010    2    1    2    0  502 -0.53364228646E+02  0.83021005729E+02  0.71213980129E+03  0.12313185585E+04  0.99963096568E+03 0.  0.
        -13    1    3    3    0    0  0.18966068929E+03 -0.47850852562E+03  0.29612970321E+03  0.59383027747E+03  0.10566000000E+00 0.  1.
          4    1    3    3  501    0 -0.13629646064E+03  0.39548751989E+03 -0.52720396987E+02  0.42162369932E+03  0.00000000000E+00 0.  1.
         13    1    4    4    0    0 -0.16829213491E+03  0.41060620525E+03  0.52560066780E+01  0.44378748881E+03  0.10566000000E+00 0. -1.
         -4    1    4    4    0  502  0.11492790626E+03 -0.32758519952E+03  0.70688379461E+03  0.78753106965E+03  0.00000000000E+00 0. -1.
<mgrwt>
<rscale>  2 0.99979781E+03</rscale>
<asrwt>0</asrwt>
<pdfrwt beam="1">  1       21 0.24633243E+00 0.10044911E+04</pdfrwt>
<pdfrwt beam="2">  1       21 0.99324879E-01 0.10044911E+04</pdfrwt>
<totfact> 0.26207151E+01</totfact>
</mgrwt>
</event>
<event>
 8    1  0.7208583E-006  0.1221079E+04  0.7818608E-02  0.8603699E-01
         21   -1    0    0  503  502  0.00000000000E+00  0.00000000000E+00  0.12563111515E+04  0.12563111515E+04  0.00000000000E+00 0. -1.
         21   -1    0    0  501  503 -0.00000000000E+00 -0.00000000000E+00 -0.13167974215E+04  0.13167974215E+04  0.00000000000E+00 0. -1.
    9000010    2    1    2  501    0 -0.27668779904E+03 -0.51848267669E+03 -0.52561799144E+03  0.13294011429E+04  0.10703516719E+04 0.  0.
   -9000010    2    1    2    0  502  0.27668779904E+03  0.51848267669E+03  0.46513172143E+03  0.12437074302E+04  0.99251208023E+03 0.  0.
        -13    1    3    3    0    0  0.45436397161E+02 -0.41127692894E+03 -0.79485364068E+03  0.89610574138E+03  0.10566000000E+00 0.  1.
          4    1    3    3  501    0 -0.32212419620E+03 -0.10720574775E+03  0.26923564924E+03  0.43329540149E+03  0.00000000000E+00 0.  1.
         13    1    4    4    0    0  0.14198488946E+03  0.60284962451E+03  0.71601585736E+03  0.94671331340E+03  0.10566000000E+00 0. -1.
         -4    1    4    4    0  502  0.13470290958E+03 -0.84366947816E+02 -0.25088413593E+03  0.29699411677E+03  0.00000000000E+00 0. -1.
<mgrwt>
<rscale>  2 0.12038101E+04</rscale>
<asrwt>0</asrwt>
<pdfrwt beam="1">  1       21 0.19327864E+00 0.12210787E+04</pdfrwt>
<pdfrwt beam="2">  1       21 0.20258422E+00 0.12210787E+04</pdfrwt>
<totfact> 0.72001197E+00</totfact>
</mgrwt>
</event>
<event>
 8    1  0.7208583E-006  0.1031145E+04  0.7818608E-02  0.8751284E-01
         21   -1    0    0  501  502  0.00000000000E+00  0.00000000000E+00  0.22994416717E+04  0.22994416717E+04  0.00000000000E+00 0. -1.
         21   -1    0    0  502  503 -0.00000000000E+00 -0.00000000000E+00 -0.46650503859E+03  0.46650503859E+03  0.00000000000E+00 0. -1.
    9000010    2    1    2  501    0 -0.47002916176E+02  0.10433354144E+03  0.11718102915E+04  0.15608966835E+04  0.10247752608E+04 0.  0.
   -9000010    2    1    2    0  503  0.47002916176E+02 -0.10433354144E+03  0.66112634162E+03  0.12050500268E+04  0.10009809017E+04 0.  0.
        -13    1    3    3    0    0  0.18791248835E+03 -0.32414452608E+03  0.95583520486E+03  0.10266458625E+04  0.10566000000E+00 0.  1.
          4    1    3    3  501    0 -0.23491540452E+03  0.42847806752E+03  0.21597508668E+03  0.53425082096E+03  0.00000000000E+00 0.  1.
         13    1    4    4    0    0  0.73718995471E+02 -0.50571100331E+03  0.11004700980E+03  0.52276999215E+03  0.10566000000E+00 0. -1.
         -4    1    4    4    0  503 -0.26716079295E+02  0.40137746187E+03  0.55107933181E+03  0.68228003470E+03  0.00000000000E+00 0. -1.
<mgrwt>
<rscale>  2 0.10251821E+04</rscale>
<asrwt>0</asrwt>
<pdfrwt beam="1">  1       21 0.35376025E+00 0.10311446E+04</pdfrwt>
<pdfrwt beam="2">  1       21 0.71770008E-01 0.10311446E+04</pdfrwt>
<totfact> 0.10130240E+01</totfact>
</mgrwt>
</event>
<event>
 8    1  0.7208583E-006  0.1040785E+04  0.7818608E-02  0.8755434E-01
         21   -1    0    0  503  502  0.00000000000E+00  0.00000000000E+00  0.12994277650E+04  0.12994277650E+04  0.00000000000E+00 0.  1.
         21   -1    0    0  501  503 -0.00000000000E+00 -0.00000000000E+00 -0.78075627377E+03  0.78075627377E+03  0.00000000000E+00 0.  1.
    9000010    2    1    2  501    0  0.20209385585E+02  0.14383448463E+03  0.35863522176E+03  0.10271668604E+04  0.95150184374E+03 0.  0.
   -9000010    2    1    2    0  502 -0.20209385585E+02 -0.14383448463E+03  0.16003626944E+03  0.10530171783E+04  0.10306002096E+04 0.  0.
        -13    1    3    3    0    0  0.64019394522E+02  0.41855727710E+03  0.54660433534E+03  0.69142243792E+03  0.10566000000E+00 0.  1.
          4    1    3    3  501    0 -0.43810008937E+02 -0.27472279247E+03 -0.18796911358E+03  0.33574442251E+03  0.00000000000E+00 0.  1.
         13    1    4    4    0    0  0.47466448228E+03 -0.11080933941E+03  0.25180163279E+03  0.54862478423E+03  0.10566000000E+00 0. -1.
         -4    1    4    4    0  502 -0.49487386786E+03 -0.33025145220E+02 -0.91765363347E+02  0.50439239409E+03  0.00000000000E+00 0. -1.
<mgrwt>
<rscale>  2 0.10206426E+04</rscale>
<asrwt>0</asrwt>
<pdfrwt beam="1">  1       21 0.19991196E+00 0.10407851E+04</pdfrwt>
<pdfrwt beam="2">  1       21 0.12011635E+00 0.10407851E+04</pdfrwt>
<totfact> 0.34733677E+01</totfact>
</mgrwt>
</event>
<event>
 8    1  0.7208583E-006  0.1059439E+04  0.7818608E-02  0.8723183E-01
         21   -1    0    0  501  502  0.00000000000E+00  0.00000000000E+00  0.10199604403E+04  0.10199604403E+04  0.00000000000E+00 0. -1.
         21   -1    0    0  502  503 -0.00000000000E+00 -0.00000000000E+00 -0.11207111099E+04  0.11207111099E+04  0.00000000000E+00 0. -1.
    9000010    2    1    2  501    0 -0.16110528706E+03 -0.30627799998E+03  0.13106907279E+03  0.10561666036E+04  0.98921568223E+03 0.  0.
   -9000010    2    1    2    0  503  0.16110528706E+03  0.30627799998E+03 -0.23181974237E+03  0.10845049466E+04  0.10013238534E+04 0.  0.
        -13    1    3    3    0    0 -0.33492162511E+03  0.27812108336E+03  0.15561803216E+02  0.43562141001E+03  0.10566000000E+00 0.  1.
          4    1    3    3  501    0  0.17381633805E+03 -0.58439908334E+03  0.11550726957E+03  0.62054519361E+03  0.00000000000E+00 0.  1.
         13    1    4    4    0    0 -0.36549110899E+03  0.24466937861E+03  0.11039131262E+03  0.45346786947E+03  0.10566000000E+00 0. -1.
         -4    1    4    4    0  503  0.52659639604E+03  0.61608621370E+02 -0.34221105499E+03  0.63103707713E+03  0.00000000000E+00 0. -1.
<mgrwt>
<rscale>  2 0.10565680E+04</rscale>
<asrwt>0</asrwt>
<pdfrwt beam="1">  1       21 0.15691699E+00 0.10594388E+04</pdfrwt>
<pdfrwt beam="2">  1       21 0.17241709E+00 0.10594388E+04</pdfrwt>
<totfact> 0.26089045E+01</totfact>
</mgrwt>
</event>
<event>
 8    1  0.7208583E-006  0.1021411E+04  0.7818608E-02  0.8755018E-01
         21   -1    0    0  503  502  0.00000000000E+00  0.00000000000E+00  0.20246406450E+04  0.20246406450E+04  0.00000000000E+00 0.  1.
         21   -1    0    0  501  503 -0.00000000000E+00 -0.00000000000E+00 -0.52112853161E+03  0.52112853161E+03  0.00000000000E+00 0.  1.
    9000010    2    1    2  501    0 -0.20088151138E+03  0.36882790877E+02  0.89404442491E+03  0.13574222783E+04  0.10007827367E+04 0.  0.
   -9000010    2    1    2    0  502  0.20088151138E+03 -0.36882790877E+02  0.60946768849E+03  0.11883468983E+04  0.99950175868E+03 0.  0.
        -13    1    3    3    0    0  0.55867125278E+02  0.29382783258E+02 -0.21238620655E+03  0.22156803817E+03  0.10566000000E+00 0.  1.
          4    1    3    3  501    0 -0.25674863666E+03  0.75000076186E+01  0.11064306315E+04  0.11358542401E+04  0.00000000000E+00 0.  1.
         13    1    4    4    0    0  0.14966961479E+03 -0.51358709066E+03  0.38416277323E+03  0.65859983357E+03  0.10566000000E+00 0. -1.
         -4    1    4    4    0  502  0.51211896596E+02  0.47670429979E+03  0.22530491526E+03  0.52974706477E+03  0.00000000000E+00 0. -1.
<mgrwt>
<rscale>  2 0.10210968E+04</rscale>
<asrwt>0</asrwt>
<pdfrwt beam="1">  1       21 0.31148317E+00 0.10214107E+04</pdfrwt>
<pdfrwt beam="2">  1       21 0.80173621E-01 0.10214107E+04</pdfrwt>
<totfact> 0.15400423E+01</totfact>
</mgrwt>
</event>
<event>
 8    1  0.7208583E-006  0.1114459E+04  0.7818608E-02  0.8690794E-01
         21   -1    0    0  503  502  0.00000000000E+00  0.00000000000E+00  0.24730372243E+04  0.24730372243E+04  0.00000000000E+00 0. -1.
         21   -1    0    0  501  503 -0.00000000000E+00 -0.00000000000E+00 -0.53054870676E+03  0.53054870676E+03  0.00000000000E+00 0. -1.
    9000010    2    1    2  501    0  0.13457141075E+03 -0.31988911166E+03  0.42174873093E+03  0.11182028297E+04  0.97573924173E+03 0.  0.
   -9000010    2    1    2    0  502 -0.13457141075E+03  0.31988911166E+03  0.15207397866E+04  0.18853831014E+04  0.10590474173E+04 0.  0.
        -13    1    3    3    0    0  0.52659293363E+03 -0.36376961298E+03  0.23549272453E+03  0.68197161491E+03  0.10566000000E+00 0.  1.
          4    1    3    3  501    0 -0.39202152288E+03  0.43880501320E+02  0.18625600639E+03  0.43623121474E+03  0.00000000000E+00 0.  1.
         13    1    4    4    0    0  0.45952635646E+03  0.89653647047E+02  0.76499016104E+03  0.89689029784E+03  0.10566000000E+00 0. -1.
         -4    1    4    4    0  502 -0.59409776721E+03  0.23023546461E+03  0.75574962560E+03  0.98849280360E+03  0.00000000000E+00 0. -1.
<mgrwt>
<rscale>  2 0.10942036E+04</rscale>
<asrwt>0</asrwt>
<pdfrwt beam="1">  1       21 0.38046726E+00 0.11144595E+04</pdfrwt>
<pdfrwt beam="2">  1       21 0.81622880E-01 0.11144595E+04</pdfrwt>
<totfact> 0.47368843E+00</totfact>
</mgrwt>
</event>
<event>
 8    1  0.7208583E-006  0.1049650E+04  0.7818608E-02  0.8732956E-01
         21   -1    0    0  503  502  0.00000000000E+00  0.00000000000E+00  0.11376044721E+04  0.11376044721E+04  0.00000000000E+00 0.  1.
         21   -1    0    0  501  503 -0.00000000000E+00 -0.00000000000E+00 -0.10039323134E+04  0.10039323134E+04  0.00000000000E+00 0.  1.
    9000010    2    1    2  501    0  0.21875515136E+03 -0.15253798502E+03 -0.17385919311E+03  0.10477627407E+04  0.99822747337E+03 0.  0.
   -9000010    2    1    2    0  502 -0.21875515136E+03  0.15253798502E+03  0.30753135185E+03  0.10937740449E+04  0.10152066173E+04 0.  0.
        -13    1    3    3    0    0  0.33523450166E+02 -0.34255059380E+03 -0.51261636609E+03  0.61744658147E+03  0.10566000000E+00 0.  1.
          4    1    3    3  501    0  0.18523170119E+03  0.19001260878E+03  0.33875717298E+03  0.43031615920E+03  0.00000000000E+00 0.  1.
         13    1    4    4    0    0 -0.42873339513E+03 -0.30527709055E+03  0.26235874251E+03  0.58808039165E+03  0.10566000000E+00 0. -1.
         -4    1    4    4    0  502  0.20997824377E+03  0.45781507557E+03  0.45172609342E+02  0.50569365322E+03  0.00000000000E+00 0. -1.
<mgrwt>
<rscale>  2 0.10455230E+04</rscale>
<asrwt>0</asrwt>
<pdfrwt beam="1">  1       21 0.17501607E+00 0.10496505E+04</pdfrwt>
<pdfrwt beam="2">  1       21 0.15445113E+00 0.10496505E+04</pdfrwt>
<totfact> 0.26143463E+01</totfact>
</mgrwt>
</event>
<event>
 8    1  0.7208583E-006  0.1020785E+04  0.7818608E-02  0.8772880E-01
         21   -1    0    0  501  502  0.00000000000E+00  0.00000000000E+00  0.14959375928E+04  0.14959375928E+04  0.00000000000E+00 0. -1.
         21   -1    0    0  502  503 -0.00000000000E+00 -0.00000000000E+00 -0.89810230552E+03  0.89810230552E+03  0.00000000000E+00 0. -1.
    9000010    2    1    2  501    0 -0.13579307583E+03 -0.73418353024E+02  0.93944288253E+03  0.13872831612E+04  0.10090449077E+04 0.  0.
   -9000010    2    1    2    0  503  0.13579307583E+03  0.73418353024E+02 -0.34160759529E+03  0.10067567371E+04  0.93436254450E+03 0.  0.
        -13    1    3    3    0    0  0.16507992808E+03 -0.23518736160E+02  0.10497908272E+04  0.10629512245E+04  0.10566000000E+00 0.  1.
          4    1    3    3  501    0 -0.30087300391E+03 -0.49899616864E+02 -0.11034794468E+03  0.32433193666E+03  0.00000000000E+00 0.  1.
         13    1    4    4    0    0 -0.36849215414E+03 -0.62499097931E+02  0.15476405756E+02  0.37407503954E+03  0.10566000000E+00 0. -1.
         -4    1    4    4    0  503  0.50428522997E+03  0.13591745095E+03 -0.35708400104E+03  0.63268169757E+03  0.00000000000E+00 0. -1.
<mgrwt>
<rscale>  2 0.10018240E+04</rscale>
<asrwt>0</asrwt>
<pdfrwt beam="1">  1       21 0.23014424E+00 0.10207848E+04</pdfrwt>
<pdfrwt beam="2">  1       21 0.13816959E+00 0.10207848E+04</pdfrwt>
<totfact> 0.13736509E+01</totfact>
</mgrwt>
</event>
<event>
 8    1  0.7208583E-006  0.1101406E+04  0.7818608E-02  0.8690432E-01
         21   -1    0    0  503  502  0.00000000000E+00  0.00000000000E+00  0.64917134894E+03  0.64917134894E+03  0.00000000000E+00 0.  1.
         21   -1    0    0  501  503 -0.00000000000E+00 -0.00000000000E+00 -0.33888688319E+04  0.33888688319E+04  0.00000000000E+00 0.  1.
    9000010    2    1    2  501    0  0.20066667147E+03  0.40175412080E+03 -0.27329479066E+04  0.29366139419E+04  0.97622932585E+03 0.  0.
   -9000010    2    1    2    0  502 -0.20066667147E+03 -0.40175412080E+03 -0.67495763270E+01  0.11014262390E+04  0.10056941466E+04 0.  0.
        -13    1    3    3    0    0 -0.62189212402E+02 -0.28926696298E+03 -0.46452997165E+03  0.55075491803E+03  0.10566000000E+00 0.  1.
          4    1    3    3  501    0  0.26285588387E+03  0.69102108378E+03 -0.22684179350E+04  0.23858590239E+04  0.00000000000E+00 0.  1.
         13    1    4    4    0    0  0.32674326834E+03 -0.30650552432E+03 -0.24980914296E+03  0.51294387501E+03  0.10566000000E+00 0. -1.
         -4    1    4    4    0  502 -0.52740993981E+03 -0.95248596488E+02  0.24305956663E+03  0.58848236395E+03  0.00000000000E+00 0. -1.
<mgrwt>
<rscale>  2 0.10946341E+04</rscale>
<asrwt>0</asrwt>
<pdfrwt beam="1">  1       21 0.99872517E-01 0.11014056E+04</pdfrwt>
<pdfrwt beam="2">  1       21 0.52136443E+00 0.11014056E+04</pdfrwt>
<totfact> 0.29722284E-01</totfact>
</mgrwt>
</event>
<event>
 8    1  0.7208583E-006  0.9866684E+03  0.7818608E-02  0.8789540E-01
         21   -1    0    0  501  502  0.00000000000E+00  0.00000000000E+00  0.10333049121E+04  0.10333049121E+04  0.00000000000E+00 0. -1.
         21   -1    0    0  502  503 -0.00000000000E+00 -0.00000000000E+00 -0.10082571327E+04  0.10082571327E+04  0.00000000000E+00 0. -1.
    9000010    2    1    2  501    0  0.54066190187E+02 -0.11053713672E+03  0.29148260389E+03  0.10195532223E+04  0.96921878501E+03 0.  0.
   -9000010    2    1    2    0  503 -0.54066190187E+02  0.11053713672E+03 -0.26643482444E+03  0.10220088225E+04  0.97896522208E+03 0.  0.
        -13    1    3    3    0    0  0.30992773541E+02  0.17045992542E+03 -0.31007849252E+03  0.35519828388E+03  0.10566000000E+00 0.  1.
          4    1    3    3  501    0  0.23073416646E+02 -0.28099706214E+03  0.60156109641E+03  0.66435493842E+03  0.00000000000E+00 0.  1.
         13    1    4    4    0    0  0.21578489587E+02 -0.15775020584E+03  0.32847660525E+03  0.36503102611E+03  0.10566000000E+00 0. -1.
         -4    1    4    4    0  503 -0.75644679774E+02  0.26828734257E+03 -0.59491142969E+03  0.65697779638E+03  0.00000000000E+00 0. -1.
<mgrwt>
<rscale>  2 0.98424206E+03</rscale>
<asrwt>0</asrwt>
<pdfrwt beam="1">  1       21 0.15896999E+00 0.98666839E+03</pdfrwt>
<pdfrwt beam="2">  1       21 0.15511648E+00 0.98666839E+03</pdfrwt>
<totfact> 0.35762437E+01</totfact>
</mgrwt>
</event>
<event>
 8    1  0.7208583E-006  0.1103732E+04  0.7818608E-02  0.8685707E-01
         21   -1    0    0  503  502  0.00000000000E+00  0.00000000000E+00  0.29200532751E+04  0.29200532751E+04  0.00000000000E+00 0.  1.
         21   -1    0    0  501  503 -0.00000000000E+00 -0.00000000000E+00 -0.60132147533E+03  0.60132147533E+03  0.00000000000E+00 0.  1.
    9000010    2    1    2  501    0 -0.37166474231E+03  0.13212415642E+03  0.17641201763E+03  0.11177416357E+04  0.10308412539E+04 0.  0.
   -9000010    2    1    2    0  502  0.37166474231E+03 -0.13212415642E+03  0.21423197821E+04  0.24036331147E+04  0.10160347572E+04 0.  0.
        -13    1    3    3    0    0 -0.18691585922E+02  0.48902044338E+03  0.33299405457E+03  0.59192518191E+03  0.10566000000E+00 0.  1.
          4    1    3    3  501    0 -0.35297315638E+03 -0.35689628696E+03 -0.15658203694E+03  0.52581645378E+03  0.00000000000E+00 0.  1.
         13    1    4    4    0    0  0.16772753736E+03  0.48168483947E+02 -0.60015957281E+02  0.18453903632E+03  0.10566000000E+00 0. -1.
         -4    1    4    4    0  502  0.20393720495E+03 -0.18029264037E+03  0.22023357394E+04  0.22190940784E+04  0.00000000000E+00 0. -1.
<mgrwt>
<rscale>  2 0.11002621E+04</rscale>
<asrwt>0</asrwt>
<pdfrwt beam="1">  1       21 0.44923896E+00 0.11037324E+04</pdfrwt>
<pdfrwt beam="2">  1       21 0.92510998E-01 0.11037324E+04</pdfrwt>
<totfact> 0.11523610E+00</totfact>
</mgrwt>
</event>
<event>
 8    1  0.7208583E-006  0.1036202E+04  0.7818608E-02  0.8741808E-01
         21   -1    0    0  503  502  0.00000000000E+00  0.00000000000E+00  0.15814323039E+04  0.15814323039E+04  0.00000000000E+00 0.  1.
         21   -1    0    0  501  503 -0.00000000000E+00 -0.00000000000E+00 -0.85441376046E+03  0.85441376046E+03  0.00000000000E+00 0.  1.
    9000010    2    1    2  501    0 -0.17497175293E+03 -0.22205738279E+03 -0.19104215472E+03  0.10514505964E+04  0.99454846846E+03 0.  0.
   -9000010    2    1    2    0  502  0.17497175293E+03  0.22205738279E+03  0.91806069819E+03  0.13843954680E+04  0.99689055104E+03 0.  0.
        -13    1    3    3    0    0  0.15101652009E+03  0.19944922447E+03  0.25449900524E+03  0.35686935609E+03  0.10566000000E+00 0.  1.
          4    1    3    3  501    0 -0.32598827303E+03 -0.42150660726E+03 -0.44554115996E+03  0.69458124027E+03  0.00000000000E+00 0.  1.
         13    1    4    4    0    0  0.20919571672E+02  0.60243853817E+02 -0.21771043294E+03  0.22685853340E+03  0.10566000000E+00 0. -1.
         -4    1    4    4    0  502  0.15405218126E+03  0.16181352898E+03  0.11357711311E+04  0.11575369346E+04  0.00000000000E+00 0. -1.
<mgrwt>
<rscale>  2 0.10356387E+04</rscale>
<asrwt>0</asrwt>
<pdfrwt beam="1">  1       21 0.24329728E+00 0.10362024E+04</pdfrwt>
<pdfrwt beam="2">  1       21 0.13144827E+00 0.10362024E+04</pdfrwt>
<totfact> 0.12672894E+01</totfact>
</mgrwt>
</event>
<event>
 8    1  0.7208583E-006  0.1034423E+04  0.7818608E-02  0.8747880E-01
         21   -1    0    0  503  502  0.00000000000E+00  0.00000000000E+00  0.18253692643E+04  0.18253692643E+04  0.00000000000E+00 0.  1.
         21   -1    0    0  501  503 -0.00000000000E+00 -0.00000000000E+00 -0.81171526761E+03  0.81171526761E+03  0.00000000000E+00 0.  1.
    9000010    2    1    2  501    0 -0.17301701113E+03 -0.96378782151E+01 -0.20302001563E+03  0.10541578672E+04  0.10198058185E+04 0.  0.
   -9000010    2    1    2    0  502  0.17301701113E+03  0.96378782151E+01  0.12166740123E+04  0.15829266647E+04  0.99766397085E+03 0.  0.
        -13    1    3    3    0    0  0.22070915810E+03  0.10645069280E+03 -0.49370613205E+03  0.55117151456E+03  0.10566000000E+00 0.  1.
          4    1    3    3  501    0 -0.39372616923E+03 -0.11608857102E+03  0.29068611642E+03  0.50298635264E+03  0.00000000000E+00 0.  1.
         13    1    4    4    0    0  0.16404144877E+03 -0.13612909927E+03  0.13610049830E+04  0.13775976566E+04  0.10566000000E+00 0. -1.
         -4    1    4    4    0  502  0.89755623595E+01  0.14576697749E+03 -0.14433097071E+03  0.20532900806E+03  0.00000000000E+00 0. -1.
<mgrwt>
<rscale>  2 0.10289241E+04</rscale>
<asrwt>0</asrwt>
<pdfrwt beam="1">  1       21 0.28082604E+00 0.10344234E+04</pdfrwt>
<pdfrwt beam="2">  1       21 0.12487927E+00 0.10344234E+04</pdfrwt>
<totfact> 0.78789101E+00</totfact>
</mgrwt>
</event>
<event>
 8    1  0.7208583E-006  0.1074895E+04  0.7818608E-02  0.8731279E-01
         21   -1    0    0  503  502  0.00000000000E+00  0.00000000000E+00  0.56274736682E+03  0.56274736682E+03  0.00000000000E+00 0. -1.
         21   -1    0    0  501  503 -0.00000000000E+00 -0.00000000000E+00 -0.18645625529E+04  0.18645625529E+04  0.00000000000E+00 0. -1.
    9000010    2    1    2  501    0  0.10868570563E+03  0.16392608034E+03 -0.60244164319E+03  0.12322070987E+04  0.10567469226E+04 0.  0.
   -9000010    2    1    2    0  502 -0.10868570563E+03 -0.16392608034E+03 -0.69937354290E+03  0.11951028210E+04  0.94892731955E+03 0.  0.
        -13    1    3    3    0    0 -0.69805697288E+02 -0.32587527012E+03 -0.62726932207E+03  0.71030580782E+03  0.10566000000E+00 0.  1.
          4    1    3    3  501    0  0.17849140292E+03  0.48980135046E+03  0.24827678884E+02  0.52190129092E+03  0.00000000000E+00 0.  1.
         13    1    4    4    0    0  0.22449331832E+03  0.38987996361E+02  0.14145086987E+03  0.26818962244E+03  0.10566000000E+00 0. -1.
         -4    1    4    4    0  502 -0.33317902396E+03 -0.20291407670E+03 -0.84082441277E+03  0.92691319854E+03  0.00000000000E+00 0. -1.
<mgrwt>
<rscale>  2 0.10474086E+04</rscale>
<asrwt>0</asrwt>
<pdfrwt beam="1">  1       21 0.86576520E-01 0.10748946E+04</pdfrwt>
<pdfrwt beam="2">  1       21 0.28685577E+00 0.10748946E+04</pdfrwt>
<totfact> 0.18774209E+01</totfact>
</mgrwt>
</event>
<event>
 8    1  0.7208583E-006  0.1008422E+04  0.7818608E-02  0.8771917E-01
         21   -1    0    0  501  502  0.00000000000E+00  0.00000000000E+00  0.18151998781E+04  0.18151998781E+04  0.00000000000E+00 0. -1.
         21   -1    0    0  502  503 -0.00000000000E+00 -0.00000000000E+00 -0.64982066656E+03  0.64982066656E+03  0.00000000000E+00 0. -1.
    9000010    2    1    2  501    0 -0.12994581978E+02  0.74396022923E+02  0.10650665255E+04  0.14516219711E+04  0.98343073763E+03 0.  0.
   -9000010    2    1    2    0  503  0.12994581978E+02 -0.74396022923E+02  0.10031268600E+03  0.10133985736E+04  0.10055895816E+04 0.  0.
        -13    1    3    3    0    0 -0.46245890505E+03  0.13076415111E+03  0.31254962564E+03  0.57328420677E+03  0.10566000000E+00 0.  1.
          4    1    3    3  501    0  0.44946432307E+03 -0.56368128185E+02  0.75251689986E+03  0.87833776429E+03  0.00000000000E+00 0.  1.
         13    1    4    4    0    0 -0.32980926398E+03  0.13466356454E+03 -0.28552176522E+03  0.45654256735E+03  0.10566000000E+00 0. -1.
         -4    1    4    4    0  503  0.34280384596E+03 -0.20905958746E+03  0.38583445122E+03  0.55685600622E+03  0.00000000000E+00 0. -1.
<mgrwt>
<rscale>  2 0.10028518E+04</rscale>
<asrwt>0</asrwt>
<pdfrwt beam="1">  1       21 0.27926152E+00 0.10084216E+04</pdfrwt>
<pdfrwt beam="2">  1       21 0.99972411E-01 0.10084216E+04</pdfrwt>
<totfact> 0.14912941E+01</totfact>
</mgrwt>
</event>
<event>
 8    1  0.7208583E-006  0.1044129E+04  0.7818608E-02  0.8736656E-01
         21   -1    0    0  501  502  0.00000000000E+00  0.00000000000E+00  0.16515159641E+04  0.16515159641E+04  0.00000000000E+00 0. -1.
         21   -1    0    0  502  503 -0.00000000000E+00 -0.00000000000E+00 -0.10414851796E+04  0.10414851796E+04  0.00000000000E+00 0. -1.
    9000010    2    1    2  501    0 -0.21124691351E+03  0.18517328394E+03  0.11261448534E+04  0.15282780200E+04  0.99424195852E+03 0.  0.
   -9000010    2    1    2    0  503  0.21124691351E+03 -0.18517328394E+03 -0.51611406885E+03  0.11647231236E+04  0.10056300608E+04 0.  0.
        -13    1    3    3    0    0  0.28026893186E+03  0.32462236038E+03  0.83885650821E+03  0.94213088451E+03  0.10566000000E+00 0.  1.
          4    1    3    3  501    0 -0.49151584537E+03 -0.13944907644E+03  0.28728834515E+03  0.58614713548E+03  0.00000000000E+00 0.  1.
         13    1    4    4    0    0  0.20494119798E+03 -0.34184779346E+03 -0.76958477518E+03  0.86667268671E+03  0.10566000000E+00 0. -1.
         -4    1    4    4    0  503  0.63057155281E+01  0.15667450953E+03  0.25347070633E+03  0.29805043692E+03  0.00000000000E+00 0. -1.
<mgrwt>
<rscale>  2 0.10413776E+04</rscale>
<asrwt>0</asrwt>
<pdfrwt beam="1">  1       21 0.25407938E+00 0.10441294E+04</pdfrwt>
<pdfrwt beam="2">  1       21 0.16022849E+00 0.10441294E+04</pdfrwt>
<totfact> 0.57877214E+00</totfact>
</mgrwt>
</event>
<event>
 8    1  0.7208583E-006  0.9947469E+03  0.7818608E-02  0.8787032E-01
         21   -1    0    0  503  502  0.00000000000E+00  0.00000000000E+00  0.14688628713E+04  0.14688628713E+04  0.00000000000E+00 0. -1.
         21   -1    0    0  501  503 -0.00000000000E+00 -0.00000000000E+00 -0.70192330915E+03  0.70192330915E+03  0.00000000000E+00 0. -1.
    9000010    2    1    2  501    0 -0.11964749980E+02 -0.23267338080E+02  0.10183641640E+03  0.99994598217E+03  0.99440272892E+03 0.  0.
   -9000010    2    1    2    0  502  0.11964749980E+02  0.23267338080E+02  0.66510314575E+03  0.11708401983E+04  0.96323416216E+03 0.  0.
        -13    1    3    3    0    0 -0.44716103158E+03 -0.64654234638E+02  0.27591900513E+03  0.52940010085E+03  0.10566000000E+00 0.  1.
          4    1    3    3  501    0  0.43519628160E+03  0.41386896558E+02 -0.17408258873E+03  0.47054588132E+03  0.00000000000E+00 0.  1.
         13    1    4    4    0    0 -0.26464936049E+03  0.38017747982E+03  0.52032853171E+03  0.69664624613E+03  0.10566000000E+00 0. -1.
         -4    1    4    4    0  502  0.27661411047E+03 -0.35691014174E+03  0.14477461404E+03  0.47419395215E+03  0.00000000000E+00 0. -1.
<mgrwt>
<rscale>  2 0.98686430E+03</rscale>
<asrwt>0</asrwt>
<pdfrwt beam="1">  1       21 0.22597890E+00 0.99474686E+03</pdfrwt>
<pdfrwt beam="2">  1       21 0.10798820E+00 0.99474686E+03</pdfrwt>
<totfact> 0.29735667E+01</totfact>
</mgrwt>
</event>
<event>
 8    1  0.7208583E-006  0.1046105E+04  0.7818608E-02  0.8737720E-01
         21   -1    0    0  503  502  0.00000000000E+00  0.00000000000E+00  0.12336821247E+04  0.12336821247E+04  0.00000000000E+00 0. -1.
         21   -1    0    0  501  503 -0.00000000000E+00 -0.00000000000E+00 -0.87719936100E+03  0.87719936100E+03  0.00000000000E+00 0. -1.
    9000010    2    1    2  501    0 -0.10207897029E+03 -0.20200807642E+03  0.63935203324E+02  0.10246400404E+04  0.99728236881E+03 0.  0.
   -9000010    2    1    2    0  502  0.10207897029E+03  0.20200807642E+03  0.29254756036E+03  0.10862414452E+04  0.10213270892E+04 0.  0.
        -13    1    3    3    0    0 -0.11237988528E+02 -0.50302175451E+03 -0.26578574106E+03  0.56903360992E+03  0.10566000000E+00 0.  1.
          4    1    3    3  501    0 -0.90840981758E+02  0.30101367809E+03  0.32972094439E+03  0.45560643052E+03  0.00000000000E+00 0.  1.
         13    1    4    4    0    0 -0.25054806834E+03  0.51612163868E+03  0.15156850708E+03  0.59340450281E+03  0.10566000000E+00 0. -1.
         -4    1    4    4    0  502  0.35262703862E+03 -0.31411356225E+03  0.14097905328E+03  0.49283694243E+03  0.00000000000E+00 0. -1.
<mgrwt>
<rscale>  2 0.10401899E+04</rscale>
<asrwt>0</asrwt>
<pdfrwt beam="1">  1       21 0.18979725E+00 0.10461053E+04</pdfrwt>
<pdfrwt beam="2">  1       21 0.13495375E+00 0.10461053E+04</pdfrwt>
<totfact> 0.29863166E+01</totfact>
</mgrwt>
</event>
<event>
 8    1  0.7208583E-006  0.9808676E+03  0.7818608E-02  0.8795152E-01
         21   -1    0    0  501  502  0.00000000000E+00  0.00000000000E+00  0.63862014569E+03  0.63862014569E+03  0.00000000000E+00 0. -1.
         21   -1    0    0  502  503 -0.00000000000E+00 -0.00000000000E+00 -0.16276652355E+04  0.16276652355E+04  0.00000000000E+00 0. -1.
    9000010    2    1    2  501    0 -0.11385706784E+03 -0.39642472117E+02 -0.16904365282E+03  0.99532759818E+03  0.97343017913E+03 0.  0.
   -9000010    2    1    2    0  503  0.11385706784E+03  0.39642472117E+02 -0.82000143699E+03  0.12709577830E+04  0.96353327502E+03 0.  0.
        -13    1    3    3    0    0 -0.23946297701E+02 -0.30258223684E+03 -0.48650395291E+03  0.57342440006E+03  0.10566000000E+00 0.  1.
          4    1    3    3  501    0 -0.89910770137E+02  0.26293976472E+03  0.31746030008E+03  0.42190319812E+03  0.00000000000E+00 0.  1.
         13    1    4    4    0    0  0.26367196746E+02  0.48355355888E+03 -0.59033624719E+03  0.76355495499E+03  0.10566000000E+00 0. -1.
         -4    1    4    4    0  503  0.87489871093E+02 -0.44391108676E+03 -0.22966518980E+03  0.50740282804E+03  0.00000000000E+00 0. -1.
<mgrwt>
<rscale>  2 0.97840306E+03</rscale>
<asrwt>0</asrwt>
<pdfrwt beam="1">  1       21 0.98249253E-01 0.98086761E+03</pdfrwt>
<pdfrwt beam="2">  1       21 0.25041004E+00 0.98086761E+03</pdfrwt>
<totfact> 0.25317207E+01</totfact>
</mgrwt>
</event>
<event>
 8    1  0.7208583E-006  0.1035145E+04  0.7818608E-02  0.8770827E-01
         21   -1    0    0  503  502  0.00000000000E+00  0.00000000000E+00  0.25686687144E+04  0.25686687144E+04  0.00000000000E+00 0. -1.
         21   -1    0    0  501  503 -0.00000000000E+00 -0.00000000000E+00 -0.38308603739E+03  0.38308603739E+03  0.00000000000E+00 0. -1.
    9000010    2    1    2  501    0 -0.73565080048E+01  0.28454648379E+03  0.14235516925E+04  0.17601207654E+04  0.99524111047E+03 0.  0.
   -9000010    2    1    2    0  502  0.73565080048E+01 -0.28454648379E+03  0.76203098450E+03  0.11916339864E+04  0.87079246465E+03 0.  0.
        -13    1    3    3    0    0 -0.11717151740E+03  0.45650380235E+03  0.18731530518E+03  0.50716064592E+03  0.10566000000E+00 0.  1.
          4    1    3    3  501    0  0.10981500940E+03 -0.17195731857E+03  0.12362363873E+04  0.12529601195E+04  0.00000000000E+00 0.  1.
         13    1    4    4    0    0 -0.26254539218E+03 -0.48604220728E+03  0.32876799125E+03  0.64284952629E+03  0.10566000000E+00 0. -1.
         -4    1    4    4    0  502  0.26990190018E+03  0.20149572350E+03  0.43326299325E+03  0.54878446009E+03  0.00000000000E+00 0. -1.
<mgrwt>
<rscale>  2 0.10040160E+04</rscale>
<asrwt>0</asrwt>
<pdfrwt beam="1">  1       21 0.39517979E+00 0.10351452E+04</pdfrwt>
<pdfrwt beam="2">  1       21 0.58936315E-01 0.10351452E+04</pdfrwt>
<totfact> 0.82158032E+00</totfact>
</mgrwt>
</event>
<event>
 8    1  0.7208583E-006  0.1023180E+04  0.7818608E-02  0.8757217E-01
         21   -1    0    0  503  502  0.00000000000E+00  0.00000000000E+00  0.76326810803E+03  0.76326810803E+03  0.00000000000E+00 0. -1.
         21   -1    0    0  501  503 -0.00000000000E+00 -0.00000000000E+00 -0.13523324389E+04  0.13523324389E+04  0.00000000000E+00 0. -1.
    9000010    2    1    2  501    0  0.68921290592E+02 -0.71162679029E+01 -0.23099520304E+03  0.10315755276E+04  0.10029897805E+04 0.  0.
   -9000010    2    1    2    0  502 -0.68921290592E+02  0.71162679029E+01 -0.35806912784E+03  0.10840250193E+04  0.10208310127E+04 0.  0.
        -13    1    3    3    0    0 -0.28404362550E+02 -0.40186042088E+03  0.19077898128E+03  0.44575243863E+03  0.10566000000E+00 0.  1.
          4    1    3    3  501    0  0.97325653142E+02  0.39474415297E+03 -0.42177418432E+03  0.58582308902E+03  0.00000000000E+00 0.  1.
         13    1    4    4    0    0  0.23601463296E+03 -0.41189572259E+03 -0.30231357310E+03  0.56280947123E+03  0.10566000000E+00 0. -1.
         -4    1    4    4    0  502 -0.30493592355E+03  0.41901199049E+03 -0.55755554732E+02  0.52121554805E+03  0.00000000000E+00 0. -1.
<mgrwt>
<rscale>  2 0.10187005E+04</rscale>
<asrwt>0</asrwt>
<pdfrwt beam="1">  1       21 0.11742586E+00 0.10231797E+04</pdfrwt>
<pdfrwt beam="2">  1       21 0.20805114E+00 0.10231797E+04</pdfrwt>
<totfact> 0.32123234E+01</totfact>
</mgrwt>
</event>
<event>
 8    1  0.7208583E-006  0.1058038E+04  0.7818608E-02  0.8722608E-01
         21   -1    0    0  503  502  0.00000000000E+00  0.00000000000E+00  0.55396586469E+03  0.55396586469E+03  0.00000000000E+00 0. -1.
         21   -1    0    0  501  503 -0.00000000000E+00 -0.00000000000E+00 -0.24730590187E+04  0.24730590187E+04  0.00000000000E+00 0. -1.
    9000010    2    1    2  501    0 -0.33596428344E+03  0.67869878426E+01 -0.16124415858E+04  0.19285778873E+04  0.10032580609E+04 0.  0.
   -9000010    2    1    2    0  502  0.33596428344E+03 -0.67869878426E+01 -0.30665156821E+03  0.10984469961E+04  0.99981626115E+03 0.  0.
        -13    1    3    3    0    0  0.55088067856E+02 -0.33458342625E+02 -0.15243486835E+04  0.15257106790E+04  0.10566000000E+00 0.  1.
          4    1    3    3  501    0 -0.39105235129E+03  0.40245330468E+02 -0.88092902305E+02  0.40286720829E+03  0.00000000000E+00 0.  1.
         13    1    4    4    0    0  0.62450702748E+03 -0.24815867144E+03 -0.25485950124E+03  0.71871074162E+03  0.10566000000E+00 0. -1.
         -4    1    4    4    0  502 -0.28854274405E+03  0.24137168359E+03 -0.51792066974E+02  0.37973625450E+03  0.00000000000E+00 0. -1.
<mgrwt>
<rscale>  2 0.10572215E+04</rscale>
<asrwt>0</asrwt>
<pdfrwt beam="1">  1       21 0.85225517E-01 0.10580382E+04</pdfrwt>
<pdfrwt beam="2">  1       21 0.38047062E+00 0.10580382E+04</pdfrwt>
<totfact> 0.43055745E+00</totfact>
</mgrwt>
</event>
<event>
 8    1  0.7208583E-006  0.1049007E+04  0.7818608E-02  0.8730735E-01
         21   -1    0    0  501  502  0.00000000000E+00  0.00000000000E+00  0.22296602684E+04  0.22296602684E+04  0.00000000000E+00 0. -1.
         21   -1    0    0  502  503 -0.00000000000E+00 -0.00000000000E+00 -0.50851203114E+03  0.50851203114E+03  0.00000000000E+00 0. -1.
    9000010    2    1    2  501    0  0.20041641817E+03  0.16892408735E+03  0.11111992307E+04  0.15281294822E+04  0.10157331815E+04 0.  0.
   -9000010    2    1    2    0  503 -0.20041641817E+03 -0.16892408735E+03  0.60994900657E+03  0.12100428174E+04  0.10116638480E+04 0.  0.
        -13    1    3    3    0    0 -0.41071091545E+03  0.13282941861E+02  0.52891906971E+03  0.66978749322E+03  0.10566000000E+00 0.  1.
          4    1    3    3  501    0  0.61112733362E+03  0.15564114549E+03  0.58228016103E+03  0.85834198895E+03  0.00000000000E+00 0.  1.
         13    1    4    4    0    0 -0.36412434699E+03 -0.32968802167E+03 -0.66551406235E+02  0.49569126736E+03  0.10566000000E+00 0. -1.
         -4    1    4    4    0  503  0.16370792882E+03  0.16076393432E+03  0.67650041281E+03  0.71435155006E+03  0.00000000000E+00 0. -1.
<mgrwt>
<rscale>  2 0.10480208E+04</rscale>
<asrwt>0</asrwt>
<pdfrwt beam="1">  1       21 0.34302465E+00 0.10490071E+04</pdfrwt>
<pdfrwt beam="2">  1       21 0.78232622E-01 0.10490071E+04</pdfrwt>
<totfact> 0.97558302E+00</totfact>
</mgrwt>
</event>
<event>
 8    1  0.7208583E-006  0.1106755E+04  0.7818608E-02  0.8683870E-01
         21   -1    0    0  503  502  0.00000000000E+00  0.00000000000E+00  0.92776058275E+03  0.92776058275E+03  0.00000000000E+00 0.  1.
         21   -1    0    0  501  503 -0.00000000000E+00 -0.00000000000E+00 -0.14236063691E+04  0.14236063691E+04  0.00000000000E+00 0.  1.
    9000010    2    1    2  501    0 -0.18959890725E+03  0.40708154342E+03 -0.59260230140E+03  0.12403902794E+04  0.99283806785E+03 0.  0.
   -9000010    2    1    2    0  502  0.18959890725E+03 -0.40708154342E+03  0.96756515063E+02  0.11109766724E+04  0.10115553444E+04 0.  0.
        -13    1    3    3    0    0  0.11776862685E+01 -0.24904440665E+03  0.99155381084E+02  0.26806026224E+03  0.10566000000E+00 0.  1.
          4    1    3    3  501    0 -0.19077659352E+03  0.65612595007E+03 -0.69175768249E+03  0.97233001716E+03  0.00000000000E+00 0.  1.
         13    1    4    4    0    0 -0.20494050589E+03 -0.72987599206E+02  0.43970433771E+03  0.49057896037E+03  0.10566000000E+00 0. -1.
         -4    1    4    4    0  502  0.39453941314E+03 -0.33409394422E+03 -0.34294782265E+03  0.62039771207E+03  0.00000000000E+00 0. -1.
<mgrwt>
<rscale>  2 0.11024602E+04</rscale>
<asrwt>0</asrwt>
<pdfrwt beam="1">  1       21 0.14273240E+00 0.11067553E+04</pdfrwt>
<pdfrwt beam="2">  1       21 0.21901636E+00 0.11067553E+04</pdfrwt>
<totfact> 0.14810227E+01</totfact>
</mgrwt>
</event>
<event>
 8    1  0.7208583E-006  0.1057922E+04  0.7818608E-02  0.8727890E-01
         21   -1    0    0  503  502  0.00000000000E+00  0.00000000000E+00  0.10893884034E+04  0.10893884034E+04  0.00000000000E+00 0. -1.
         21   -1    0    0  501  503 -0.00000000000E+00 -0.00000000000E+00 -0.12668674805E+04  0.12668674805E+04  0.00000000000E+00 0. -1.
    9000010    2    1    2  501    0 -0.18152479636E+03  0.17952299963E+03 -0.62673185671E+03  0.12068963401E+04  0.99931286216E+03 0.  0.
   -9000010    2    1    2    0  502  0.18152479636E+03 -0.17952299963E+03  0.44925277958E+03  0.11493595438E+04  0.10266545388E+04 0.  0.
        -13    1    3    3    0    0 -0.53309504014E+03  0.18701080675E+03 -0.10024213485E+03  0.57376986713E+03  0.10566000000E+00 0.  1.
          4    1    3    3  501    0  0.35157024378E+03 -0.74878071205E+01 -0.52648972187E+03  0.63312647299E+03  0.00000000000E+00 0.  1.
         13    1    4    4    0    0 -0.54913426223E+02 -0.51788627689E+03  0.51377072769E+03  0.73156137949E+03  0.10566000000E+00 0. -1.
         -4    1    4    4    0  502  0.23643822259E+03  0.33836327727E+03 -0.64517948108E+02  0.41779816435E+03  0.00000000000E+00 0. -1.
<mgrwt>
<rscale>  2 0.10512308E+04</rscale>
<asrwt>0</asrwt>
<pdfrwt beam="1">  1       21 0.16759822E+00 0.10579222E+04</pdfrwt>
<pdfrwt beam="2">  1       21 0.19490269E+00 0.10579222E+04</pdfrwt>
<totfact> 0.13896757E+01</totfact>
</mgrwt>
</event>
<event>
 8    1  0.7208583E-006  0.1248481E+04  0.7818608E-02  0.8617376E-01
         21   -1    0    0  503  502  0.00000000000E+00  0.00000000000E+00  0.14537662106E+04  0.14537662106E+04  0.00000000000E+00 0.  1.
         21   -1    0    0  501  503 -0.00000000000E+00 -0.00000000000E+00 -0.98746284095E+03  0.98746284095E+03  0.00000000000E+00 0.  1.
    9000010    2    1    2  501    0  0.19996902577E+03  0.25016681324E+03 -0.14306788820E+03  0.12566511101E+04  0.12067031724E+04 0.  0.
   -9000010    2    1    2    0  502 -0.19996902577E+03 -0.25016681324E+03  0.60937125788E+03  0.11845779415E+04  0.96401271970E+03 0.  0.
        -13    1    3    3    0    0 -0.23241721682E+03  0.79018630532E+02 -0.57297688360E+03  0.62334920145E+03  0.10566000000E+00 0.  1.
          4    1    3    3  501    0  0.43238624259E+03  0.17114818271E+03  0.42990899540E+03  0.63330190869E+03  0.00000000000E+00 0.  1.
         13    1    4    4    0    0  0.32053994986E+03 -0.35103839442E+03  0.37225514841E+03  0.60377787347E+03  0.10566000000E+00 0. -1.
         -4    1    4    4    0  502 -0.52050897563E+03  0.10087158118E+03  0.23711610948E+03  0.58080006799E+03  0.00000000000E+00 0. -1.
<mgrwt>
<rscale>  2 0.11857430E+04</rscale>
<asrwt>0</asrwt>
<pdfrwt beam="1">  1       21 0.22365634E+00 0.12484805E+04</pdfrwt>
<pdfrwt beam="2">  1       21 0.15191736E+00 0.12484805E+04</pdfrwt>
<totfact> 0.10964873E+01</totfact>
</mgrwt>
</event>
<event>
 8    1  0.7208583E-006  0.1048722E+04  0.7818608E-02  0.8774822E-01
         21   -1    0    0  501  502  0.00000000000E+00  0.00000000000E+00  0.45550855127E+03  0.45550855127E+03  0.00000000000E+00 0.  1.
         21   -1    0    0  502  503 -0.00000000000E+00 -0.00000000000E+00 -0.20737445978E+04  0.20737445978E+04  0.00000000000E+00 0.  1.
    9000010    2    1    2  501    0  0.34483180878E+03 -0.48371661702E+02 -0.66750235402E+03  0.12431323646E+04  0.98922691493E+03 0.  0.
   -9000010    2    1    2    0  503 -0.34483180878E+03  0.48371661702E+02 -0.95073369251E+03  0.12861207845E+04  0.79307208012E+03 0.  0.
        -13    1    3    3    0    0 -0.11826087258E+03 -0.28679926526E+03  0.90739470318E+02  0.32322301152E+03  0.10566000000E+00 0.  1.
          4    1    3    3  501    0  0.46309268135E+03  0.23842760356E+03 -0.75824182434E+03  0.91990935305E+03  0.00000000000E+00 0.  1.
         13    1    4    4    0    0 -0.47592677014E+03 -0.23738989268E+03 -0.45928764215E+03  0.70271288666E+03  0.10566000000E+00 0. -1.
         -4    1    4    4    0  503  0.13109496136E+03  0.28576155438E+03 -0.49144605035E+03  0.58340789784E+03  0.00000000000E+00 0. -1.
<mgrwt>
<rscale>  2 0.99975462E+03</rscale>
<asrwt>0</asrwt>
<pdfrwt beam="1">  1       21 0.70078238E-01 0.10487224E+04</pdfrwt>
<pdfrwt beam="2">  1       21 0.31903764E+00 0.10487224E+04</pdfrwt>
<totfact> 0.18720211E+01</totfact>
</mgrwt>
</event>
<event>
 8    1  0.7208583E-006  0.9958312E+03  0.7818608E-02  0.8783403E-01
         21   -1    0    0  503  502  0.00000000000E+00  0.00000000000E+00  0.73899687310E+03  0.73899687310E+03  0.00000000000E+00 0.  1.
         21   -1    0    0  501  503 -0.00000000000E+00 -0.00000000000E+00 -0.14144554094E+04  0.14144554094E+04  0.00000000000E+00 0.  1.
    9000010    2    1    2  501    0  0.74546183816E+02 -0.57227811396E+02 -0.62070230609E+03  0.11561167746E+04  0.97082567327E+03 0.  0.
   -9000010    2    1    2    0  502 -0.74546183816E+02  0.57227811396E+02 -0.54756230244E+02  0.99733550791E+03  0.99138676341E+03 0.  0.
        -13    1    3    3    0    0 -0.30910685692E+03 -0.25291643315E+03  0.15072588839E+01  0.39939460956E+03  0.10566000000E+00 0.  1.
          4    1    3    3  501    0  0.38365304074E+03  0.19568862176E+03 -0.62220956497E+03  0.75672216506E+03  0.00000000000E+00 0.  1.
         13    1    4    4    0    0 -0.19161811883E+03  0.61669006029E+02  0.44267508086E+03  0.48629395241E+03  0.10566000000E+00 0. -1.
         -4    1    4    4    0  502  0.11707193501E+03 -0.44411946328E+01 -0.49743131111E+03  0.51104155550E+03  0.00000000000E+00 0. -1.
<mgrwt>
<rscale>  2 0.99067448E+03</rscale>
<asrwt>0</asrwt>
<pdfrwt beam="1">  1       21 0.11369183E+00 0.99583125E+03</pdfrwt>
<pdfrwt beam="2">  1       21 0.21760852E+00 0.99583125E+03</pdfrwt>
<totfact> 0.29878932E+01</totfact>
</mgrwt>
</event>
<event>
 8    1  0.7208583E-006  0.1018814E+04  0.7818608E-02  0.8810709E-01
         21   -1    0    0  501  502  0.00000000000E+00  0.00000000000E+00  0.14883979723E+04  0.14883979723E+04  0.00000000000E+00 0.  1.
         21   -1    0    0  502  503 -0.00000000000E+00 -0.00000000000E+00 -0.84112156271E+03  0.84112156271E+03  0.00000000000E+00 0.  1.
    9000010    2    1    2  501    0 -0.20129440723E+03  0.54707559340E+02  0.96646556456E+03  0.12618756927E+04  0.78406774000E+03 0.  0.
   -9000010    2    1    2    0  503  0.20129440723E+03 -0.54707559340E+02 -0.31918915500E+03  0.10676438423E+04  0.99723081674E+03 0.  0.
        -13    1    3    3    0    0  0.14014673279E+03 -0.50467006714E+02 -0.70711939683E+02  0.16488849280E+03  0.10566000000E+00 0.  1.
          4    1    3    3  501    0 -0.34144114002E+03  0.10517456605E+03  0.10371775042E+04  0.10969871999E+04  0.00000000000E+00 0.  1.
         13    1    4    4    0    0  0.24112487058E+03  0.25376712255E+03  0.24231988544E+03  0.42574392978E+03  0.10566000000E+00 0. -1.
         -4    1    4    4    0  503 -0.39830463346E+02 -0.30847468189E+03 -0.56150904044E+03  0.64189991250E+03  0.00000000000E+00 0. -1.
<mgrwt>
<rscale>  2 0.96243634E+03</rscale>
<asrwt>0</asrwt>
<pdfrwt beam="1">  1       21 0.22898430E+00 0.10188138E+04</pdfrwt>
<pdfrwt beam="2">  1       21 0.12940332E+00 0.10188138E+04</pdfrwt>
<totfact> 0.16978502E+01</totfact>
</mgrwt>
</event>
<event>
 8    1  0.7208583E-006  0.1017447E+04  0.7818608E-02  0.8762086E-01
         21   -1    0    0  503  502  0.00000000000E+00  0.00000000000E+00  0.77840861679E+03  0.77840861679E+03  0.00000000000E+00 0.  1.
         21   -1    0    0  501  503 -0.00000000000E+00 -0.00000000000E+00 -0.13167211155E+04  0.13167211155E+04  0.00000000000E+00 0.  1.
    9000010    2    1    2  501    0 -0.17292569714E+03  0.29599245364E+02 -0.34708634478E+03  0.10598686713E+04  0.98593775545E+03 0.  0.
   -9000010    2    1    2    0  502  0.17292569714E+03 -0.29599245364E+02 -0.19122615391E+03  0.10352610610E+04  0.10022068700E+04 0.  0.
        -13    1    3    3    0    0 -0.55126592688E+03  0.36239576226E+02 -0.91431523646E+01  0.55253148094E+03  0.10566000000E+00 0.  1.
          4    1    3    3  501    0  0.37834022974E+03 -0.66403308616E+01 -0.33794319241E+03  0.50733719037E+03  0.00000000000E+00 0.  1.
         13    1    4    4    0    0 -0.97522612597E+02 -0.10821166532E+03  0.37530494948E+03  0.40258445169E+03  0.10566000000E+00 0. -1.
         -4    1    4    4    0  502  0.27044830974E+03  0.78612419955E+02 -0.56653110339E+03  0.63267660927E+03  0.00000000000E+00 0. -1.
<mgrwt>
<rscale>  2 0.10134176E+04</rscale>
<asrwt>0</asrwt>
<pdfrwt beam="1">  1       21 0.11975517E+00 0.10174468E+04</pdfrwt>
<pdfrwt beam="2">  1       21 0.20257248E+00 0.10174468E+04</pdfrwt>
<totfact> 0.33569886E+01</totfact>
</mgrwt>
</event>
<event>
 8    1  0.7208583E-006  0.1033614E+04  0.7818608E-02  0.8748887E-01
         21   -1    0    0  503  502  0.00000000000E+00  0.00000000000E+00  0.15623855122E+04  0.15623855122E+04  0.00000000000E+00 0.  1.
         21   -1    0    0  501  503 -0.00000000000E+00 -0.00000000000E+00 -0.70125889261E+03  0.70125889261E+03  0.00000000000E+00 0.  1.
    9000010    2    1    2  501    0  0.18008883006E+03 -0.23707736057E+02  0.18196349906E+03  0.10268665231E+04  0.99415798432E+03 0.  0.
   -9000010    2    1    2    0  502 -0.18008883006E+03  0.23707736057E+02  0.67916312052E+03  0.12367778817E+04  0.10175278576E+04 0.  0.
        -13    1    3    3    0    0 -0.34574223619E+03  0.24088466705E+03  0.93150799162E+02  0.43155555755E+03  0.10566000000E+00 0.  1.
          4    1    3    3  501    0  0.52583106625E+03 -0.26459240311E+03  0.88812699901E+02  0.59531096553E+03  0.00000000000E+00 0.  1.
         13    1    4    4    0    0  0.84789953749E+02 -0.38682873096E+03  0.63215285736E+03  0.74595110402E+03  0.10566000000E+00 0. -1.
         -4    1    4    4    0  502 -0.26487878381E+03  0.41053646702E+03  0.47010263158E+02  0.49082677770E+03  0.00000000000E+00 0. -1.
<mgrwt>
<rscale>  2 0.10278155E+04</rscale>
<asrwt>0</asrwt>
<pdfrwt beam="1">  1       21 0.24036700E+00 0.10336136E+04</pdfrwt>
<pdfrwt beam="2">  1       21 0.10788598E+00 0.10336136E+04</pdfrwt>
<totfact> 0.23123249E+01</totfact>
</mgrwt>
</event>
<event>
 8    1  0.7208583E-006  0.1186053E+04  0.7818608E-02  0.8624796E-01
         21   -1    0    0  501  502  0.00000000000E+00  0.00000000000E+00  0.83363196131E+03  0.83363196131E+03  0.00000000000E+00 0.  1.
         21   -1    0    0  502  503 -0.00000000000E+00 -0.00000000000E+00 -0.17743891972E+04  0.17743891972E+04  0.00000000000E+00 0.  1.
    9000010    2    1    2  501    0  0.50919909541E+03  0.20614640118E+03 -0.93568920779E+02  0.11504720992E+04  0.10065042725E+04 0.  0.
   -9000010    2    1    2    0  503 -0.50919909541E+03 -0.20614640118E+03 -0.84718831515E+03  0.14575490594E+04  0.10511618152E+04 0.  0.
        -13    1    3    3    0    0  0.49256815422E+03  0.27455315240E+03  0.37462624326E+03  0.67701377634E+03  0.10566000000E+00 0.  1.
          4    1    3    3  501    0  0.16630941188E+02 -0.68406751221E+02 -0.46819516404E+03  0.47345832282E+03  0.00000000000E+00 0.  1.
         13    1    4    4    0    0 -0.77544641659E+03 -0.26364575650E+03 -0.35010804961E+03  0.89073109719E+03  0.10566000000E+00 0. -1.
         -4    1    4    4    0  503  0.26624732119E+03  0.57499355314E+02 -0.49708026554E+03  0.56681796221E+03  0.00000000000E+00 0. -1.
<mgrwt>
<rscale>  2 0.11760797E+04</rscale>
<asrwt>0</asrwt>
<pdfrwt beam="1">  1       21 0.12825107E+00 0.11860528E+04</pdfrwt>
<pdfrwt beam="2">  1       21 0.27298295E+00 0.11860528E+04</pdfrwt>
<totfact> 0.80282899E+00</totfact>
</mgrwt>
</event>
<event>
 8    1  0.7208583E-006  0.1048712E+04  0.7818608E-02  0.8732020E-01
         21   -1    0    0  501  502  0.00000000000E+00  0.00000000000E+00  0.10664787500E+04  0.10664787500E+04  0.00000000000E+00 0.  1.
         21   -1    0    0  502  503 -0.00000000000E+00 -0.00000000000E+00 -0.12871459208E+04  0.12871459208E+04  0.00000000000E+00 0.  1.
    9000010    2    1    2  501    0  0.22196864224E+03  0.16947110095E+03  0.42253710188E+03  0.11306341956E+04  0.10108439789E+04 0.  0.
   -9000010    2    1    2    0  503 -0.22196864224E+03 -0.16947110095E+03 -0.64320427273E+03  0.12229904752E+04  0.10019997174E+04 0.  0.
        -13    1    3    3    0    0  0.31207809990E+03  0.39265435743E+03  0.63527188150E+03  0.80940753606E+03  0.10566000000E+00 0.  1.
          4    1    3    3  501    0 -0.90109457651E+02 -0.22318325648E+03 -0.21273477962E+03  0.32122665953E+03  0.00000000000E+00 0.  1.
         13    1    4    4    0    0  0.95975437263E+02 -0.47052042935E+03 -0.62040470365E+03  0.78453984377E+03  0.10566000000E+00 0. -1.
         -4    1    4    4    0  503 -0.31794407951E+03  0.30104932840E+03 -0.22799569078E+02  0.43845063140E+03  0.00000000000E+00 0. -1.
<mgrwt>
<rscale>  2 0.10465745E+04</rscale>
<asrwt>0</asrwt>
<pdfrwt beam="1">  1       21 0.16407365E+00 0.10487116E+04</pdfrwt>
<pdfrwt beam="2">  1       21 0.19802245E+00 0.10487116E+04</pdfrwt>
<totfact> 0.14098196E+01</totfact>
</mgrwt>
</event>
<event>
 8    1  0.7208583E-006  0.1049363E+04  0.7818608E-02  0.8734684E-01
         21   -1    0    0  501  502  0.00000000000E+00  0.00000000000E+00  0.11489369253E+04  0.11489369253E+04  0.00000000000E+00 0. -1.
         21   -1    0    0  502  503 -0.00000000000E+00 -0.00000000000E+00 -0.10024298432E+04  0.10024298432E+04  0.00000000000E+00 0. -1.
    9000010    2    1    2  501    0 -0.12382918837E+03  0.82430418051E+02  0.34604078081E+03  0.10832019156E+04  0.10156051035E+04 0.  0.
   -9000010    2    1    2    0  503  0.12382918837E+03 -0.82430418051E+02 -0.19953369875E+03  0.10681648528E+04  0.10387656204E+04 0.  0.
        -13    1    3    3    0    0 -0.94172790706E+02  0.31570539168E+03 -0.26862804715E+03  0.42508757654E+03  0.10566000000E+00 0.  1.
          4    1    3    3  501    0 -0.29656397668E+02 -0.23327497363E+03  0.61466882796E+03  0.65811433909E+03  0.00000000000E+00 0.  1.
         13    1    4    4    0    0 -0.15967857695E+03  0.32114161846E+03  0.21992910502E+03  0.42071131366E+03  0.10566000000E+00 0. -1.
         -4    1    4    4    0  503  0.28350776533E+03 -0.40357203651E+03 -0.41946280377E+03  0.64745353918E+03  0.00000000000E+00 0. -1.
<mgrwt>
<rscale>  2 0.10435850E+04</rscale>
<asrwt>0</asrwt>
<pdfrwt beam="1">  1       21 0.17675953E+00 0.10493629E+04</pdfrwt>
<pdfrwt beam="2">  1       21 0.15421998E+00 0.10493629E+04</pdfrwt>
<totfact> 0.25411902E+01</totfact>
</mgrwt>
</event>
<event>
 8    1  0.7208583E-006  0.1064963E+04  0.7818608E-02  0.8718346E-01
         21   -1    0    0  501  502  0.00000000000E+00  0.00000000000E+00  0.91341301475E+03  0.91341301475E+03  0.00000000000E+00 0. -1.
         21   -1    0    0  502  503 -0.00000000000E+00 -0.00000000000E+00 -0.14300708826E+04  0.14300708826E+04  0.00000000000E+00 0. -1.
    9000010    2    1    2  501    0 -0.22243259189E+03  0.25590322234E+03  0.18055969477E+03  0.10801609269E+04  0.10095459908E+04 0.  0.
   -9000010    2    1    2    0  503  0.22243259189E+03 -0.25590322234E+03 -0.69721756258E+03  0.12633229704E+04  0.99745169349E+03 0.  0.
        -13    1    3    3    0    0 -0.45675937045E+03  0.29117015647E+03  0.46221901201E+03  0.71207837261E+03  0.10566000000E+00 0.  1.
          4    1    3    3  501    0  0.23432677856E+03 -0.35266934130E+02 -0.28165931724E+03  0.36808255431E+03  0.00000000000E+00 0.  1.
         13    1    4    4    0    0 -0.21903242157E+03 -0.15553542708E+03 -0.76016560787E+03  0.80623708258E+03  0.10566000000E+00 0. -1.
         -4    1    4    4    0  503  0.44146501346E+03 -0.10036779526E+03  0.62948045297E+02  0.45708588781E+03  0.00000000000E+00 0. -1.
<mgrwt>
<rscale>  2 0.10620867E+04</rscale>
<asrwt>0</asrwt>
<pdfrwt beam="1">  1       21 0.14052508E+00 0.10649628E+04</pdfrwt>
<pdfrwt beam="2">  1       21 0.22001091E+00 0.10649628E+04</pdfrwt>
<totfact> 0.15395041E+01</totfact>
</mgrwt>
</event>
<event>
 8    1  0.7208583E-006  0.1011993E+04  0.7818608E-02  0.8773320E-01
         21   -1    0    0  501  502  0.00000000000E+00  0.00000000000E+00  0.96372889065E+03  0.96372889065E+03  0.00000000000E+00 0. -1.
         21   -1    0    0  502  503 -0.00000000000E+00 -0.00000000000E+00 -0.10413917790E+04  0.10413917790E+04  0.00000000000E+00 0. -1.
    9000010    2    1    2  501    0  0.67924110824E+02  0.16746948668E+03  0.10686544006E+03  0.10176195098E+04  0.99572563025E+03 0.  0.
   -9000010    2    1    2    0  503 -0.67924110824E+02 -0.16746948668E+03 -0.18452832843E+03  0.98750115983E+03  0.95312544970E+03 0.  0.
        -13    1    3    3    0    0  0.12389522788E+03 -0.32943073736E+02  0.53043040984E+03  0.54570294524E+03  0.10566000000E+00 0.  1.
          4    1    3    3  501    0 -0.55971117056E+02  0.20041256041E+03 -0.42356496978E+03  0.47191656460E+03  0.00000000000E+00 0.  1.
         13    1    4    4    0    0 -0.48538994270E+03  0.52372533551E+02 -0.16481085142E+03  0.51527556380E+03  0.10566000000E+00 0. -1.
         -4    1    4    4    0  503  0.41746583188E+03 -0.21984202023E+03 -0.19717477013E+02  0.47222559603E+03  0.00000000000E+00 0. -1.
<mgrwt>
<rscale>  2 0.10013547E+04</rscale>
<asrwt>0</asrwt>
<pdfrwt beam="1">  1       21 0.14826598E+00 0.10119927E+04</pdfrwt>
<pdfrwt beam="2">  1       21 0.16021412E+00 0.10119927E+04</pdfrwt>
<totfact> 0.39890120E+01</totfact>
</mgrwt>
</event>
<event>
 8    1  0.7208583E-006  0.1196828E+04  0.7818608E-02  0.8623456E-01
         21   -1    0    0  501  502  0.00000000000E+00  0.00000000000E+00  0.18724895790E+04  0.18724895790E+04  0.00000000000E+00 0.  1.
         21   -1    0    0  502  503 -0.00000000000E+00 -0.00000000000E+00 -0.11414798135E+04  0.11414798135E+04  0.00000000000E+00 0.  1.
    9000010    2    1    2  501    0  0.27757824302E+03  0.56925730147E+03  0.12754674482E+04  0.16991193363E+04  0.92686878860E+03 0.  0.
   -9000010    2    1    2    0  503 -0.27757824302E+03 -0.56925730147E+03 -0.54445768267E+03  0.13148500562E+04  0.10155259454E+04 0.  0.
        -13    1    3    3    0    0 -0.12755087620E+03  0.35934571509E+03  0.41582707400E+02  0.38357229005E+03  0.10566000000E+00 0.  1.
          4    1    3    3  501    0  0.40512911922E+03  0.20991158638E+03  0.12338847408E+04  0.13155470462E+04  0.00000000000E+00 0.  1.
         13    1    4    4    0    0  0.10889497053E+02 -0.81427859753E+03 -0.32106307699E+03  0.87535691356E+03  0.10566000000E+00 0. -1.
         -4    1    4    4    0  503 -0.28846774007E+03  0.24502129606E+03 -0.22339460568E+03  0.43949314265E+03  0.00000000000E+00 0. -1.
<mgrwt>
<rscale>  2 0.11778180E+04</rscale>
<asrwt>0</asrwt>
<pdfrwt beam="1">  1       21 0.28807532E+00 0.11968277E+04</pdfrwt>
<pdfrwt beam="2">  1       21 0.17561228E+00 0.11968277E+04</pdfrwt>
<totfact> 0.23621187E+00</totfact>
</mgrwt>
</event>
<event>
 8    1  0.7208583E-006  0.1032854E+04  0.7818608E-02  0.8784918E-01
         21   -1    0    0  501  502  0.00000000000E+00  0.00000000000E+00  0.12400701927E+04  0.12400701927E+04  0.00000000000E+00 0. -1.
         21   -1    0    0  502  503 -0.00000000000E+00 -0.00000000000E+00 -0.79697595673E+03  0.79697595673E+03  0.00000000000E+00 0. -1.
    9000010    2    1    2  501    0  0.22885978106E+03  0.32134459326E+01 -0.92650872921E+02  0.87351267034E+03  0.83788607541E+03 0.  0.
   -9000010    2    1    2    0  503 -0.22885978106E+03 -0.32134459326E+01  0.53574510894E+03  0.11635334791E+04  0.10071743691E+04 0.  0.
        -13    1    3    3    0    0 -0.30182796350E+03 -0.89824184655E+02  0.43222091674E+02  0.31786264970E+03  0.10566000000E+00 0.  1.
          4    1    3    3  501    0  0.53068774456E+03  0.93037630588E+02 -0.13587296459E+03  0.55565002064E+03  0.00000000000E+00 0.  1.
         13    1    4    4    0    0  0.24729738505E+03 -0.34710194674E+03  0.11625166355E+03  0.44175809956E+03  0.10566000000E+00 0. -1.
         -4    1    4    4    0  503 -0.47615716611E+03  0.34388850081E+03  0.41949344539E+03  0.72177537957E+03  0.00000000000E+00 0. -1.
<mgrwt>
<rscale>  2 0.98908200E+03</rscale>
<asrwt>0</asrwt>
<pdfrwt beam="1">  1       21 0.19078003E+00 0.10328540E+04</pdfrwt>
<pdfrwt beam="2">  1       21 0.12261169E+00 0.10328540E+04</pdfrwt>
<totfact> 0.38761463E+01</totfact>
</mgrwt>
</event>
<event>
 8    1  0.7208583E-006  0.1021352E+04  0.7818608E-02  0.8757339E-01
         21   -1    0    0  501  502  0.00000000000E+00  0.00000000000E+00  0.85806611095E+03  0.85806611095E+03  0.00000000000E+00 0. -1.
         21   -1    0    0  502  503 -0.00000000000E+00 -0.00000000000E+00 -0.12144245027E+04  0.12144245027E+04  0.00000000000E+00 0. -1.
    9000010    2    1    2  501    0  0.11790962913E+03  0.89933910386E+02 -0.28165198218E+03  0.10594755531E+04  0.10105294749E+04 0.  0.
   -9000010    2    1    2    0  503 -0.11790962913E+03 -0.89933910386E+02 -0.74706409568E+02  0.10130150605E+04  0.99931360260E+03 0.  0.
        -13    1    3    3    0    0 -0.34533433745E+03  0.34378359973E+03 -0.19170417332E+03  0.52363486257E+03  0.10566000000E+00 0.  1.
          4    1    3    3  501    0  0.46324396657E+03 -0.25384968935E+03 -0.89947808856E+02  0.53584069056E+03  0.00000000000E+00 0.  1.
         13    1    4    4    0    0  0.24306911022E+03  0.29995201423E+02  0.35998284912E+03  0.43539633356E+03  0.10566000000E+00 0. -1.
         -4    1    4    4    0  503 -0.36097873935E+03 -0.11992911181E+03 -0.43468925869E+03  0.57761872696E+03  0.00000000000E+00 0. -1.
<mgrwt>
<rscale>  2 0.10185670E+04</rscale>
<asrwt>0</asrwt>
<pdfrwt beam="1">  1       21 0.13201017E+00 0.10213523E+04</pdfrwt>
<pdfrwt beam="2">  1       21 0.18683454E+00 0.10213523E+04</pdfrwt>
<totfact> 0.33821436E+01</totfact>
</mgrwt>
</event>
<event>
 8    1  0.7208583E-006  0.1017070E+04  0.7818608E-02  0.8759412E-01
         21   -1    0    0  501  502  0.00000000000E+00  0.00000000000E+00  0.79098517793E+03  0.79098517793E+03  0.00000000000E+00 0. -1.
         21   -1    0    0  502  503 -0.00000000000E+00 -0.00000000000E+00 -0.13105357854E+04  0.13105357854E+04  0.00000000000E+00 0. -1.
    9000010    2    1    2  501    0 -0.13951214831E+03  0.94466365195E+02 -0.18461101881E+03  0.10307192425E+04  0.99995669653E+03 0.  0.
   -9000010    2    1    2    0  503  0.13951214831E+03 -0.94466365195E+02 -0.33493958866E+03  0.10708017208E+04  0.10030175789E+04 0.  0.
        -13    1    3    3    0    0  0.33061197976E+03 -0.19571613356E+03  0.11656117584E+03  0.40149172466E+03  0.10566000000E+00 0.  1.
          4    1    3    3  501    0 -0.47012412807E+03  0.29018249876E+03 -0.30117219465E+03  0.62922751784E+03  0.00000000000E+00 0.  1.
         13    1    4    4    0    0 -0.33572688615E+03 -0.32381857809E+03 -0.44753785447E+02  0.46858715953E+03  0.10566000000E+00 0. -1.
         -4    1    4    4    0  503  0.47523903446E+03  0.22935221290E+03 -0.29018580322E+03  0.60221456129E+03  0.00000000000E+00 0. -1.
<mgrwt>
<rscale>  2 0.10163147E+04</rscale>
<asrwt>0</asrwt>
<pdfrwt beam="1">  1       21 0.12169003E+00 0.10170702E+04</pdfrwt>
<pdfrwt beam="2">  1       21 0.20162089E+00 0.10170702E+04</pdfrwt>
<totfact> 0.32650025E+01</totfact>
</mgrwt>
</event>
<event>
 8    1  0.7208583E-006  0.1051003E+04  0.7818608E-02  0.8745749E-01
         21   -1    0    0  501  502  0.00000000000E+00  0.00000000000E+00  0.68066530094E+03  0.68066530094E+03  0.00000000000E+00 0.  1.
         21   -1    0    0  502  503 -0.00000000000E+00 -0.00000000000E+00 -0.15725712830E+04  0.15725712830E+04  0.00000000000E+00 0.  1.
    9000010    2    1    2  501    0 -0.15479684394E+03  0.29853592657E+03 -0.66047225134E+03  0.11770543336E+04  0.91441103833E+03 0.  0.
   -9000010    2    1    2    0  503  0.15479684394E+03 -0.29853592657E+03 -0.23143373075E+03  0.10761822504E+04  0.99575142581E+03 0.  0.
        -13    1    3    3    0    0 -0.32569633303E+03  0.25397212470E+03  0.75786258953E+02  0.41990893023E+03  0.10566000000E+00 0.  1.
          4    1    3    3  501    0  0.17089948910E+03  0.44563801871E+02 -0.73625851029E+03  0.75714540333E+03  0.00000000000E+00 0.  1.
         13    1    4    4    0    0 -0.16485794557E+03 -0.19085095729E+03  0.33355520128E+03  0.41816421844E+03  0.10566000000E+00 0. -1.
         -4    1    4    4    0  503  0.31965478951E+03 -0.10768496928E+03 -0.56498893203E+03  0.65801803196E+03  0.00000000000E+00 0. -1.
<mgrwt>
<rscale>  2 0.10312750E+04</rscale>
<asrwt>0</asrwt>
<pdfrwt beam="1">  1       21 0.10471774E+00 0.10510027E+04</pdfrwt>
<pdfrwt beam="2">  1       21 0.24193404E+00 0.10510027E+04</pdfrwt>
<totfact> 0.24292402E+01</totfact>
</mgrwt>
</event>
<event>
 8    1  0.7208583E-006  0.1092894E+04  0.7818608E-02  0.8697685E-01
         21   -1    0    0  503  502  0.00000000000E+00  0.00000000000E+00  0.92770093806E+03  0.92770093806E+03  0.00000000000E+00 0.  1.
         21   -1    0    0  501  503 -0.00000000000E+00 -0.00000000000E+00 -0.16850434124E+04  0.16850434124E+04  0.00000000000E+00 0.  1.
    9000010    2    1    2  501    0  0.33634255387E+03  0.19941924038E+03 -0.10415170636E+04  0.15096939155E+04  0.10205506248E+04 0.  0.
   -9000010    2    1    2    0  502 -0.33634255387E+03 -0.19941924038E+03  0.28417458929E+03  0.11030504349E+04  0.99149922734E+03 0.  0.
        -13    1    3    3    0    0  0.62328019637E+03  0.11369974610E+03 -0.28242143860E+03  0.69366253725E+03  0.10566000000E+00 0.  1.
          4    1    3    3  501    0 -0.28693764250E+03  0.85719494276E+02 -0.75909562505E+03  0.81603137829E+03  0.00000000000E+00 0.  1.
         13    1    4    4    0    0 -0.60708238107E+03  0.14779304028E+03  0.14681965935E+03  0.64183161631E+03  0.10566000000E+00 0. -1.
         -4    1    4    4    0  502  0.27073982720E+03 -0.34721228065E+03  0.13735492994E+03  0.46121881862E+03  0.00000000000E+00 0. -1.
<mgrwt>
<rscale>  2 0.10860611E+04</rscale>
<asrwt>0</asrwt>
<pdfrwt beam="1">  1       21 0.14272322E+00 0.10928943E+04</pdfrwt>
<pdfrwt beam="2">  1       21 0.25923744E+00 0.10928943E+04</pdfrwt>
<totfact> 0.75091174E+00</totfact>
</mgrwt>
</event>
<event>
 8    1  0.7208583E-006  0.1217909E+04  0.7818608E-02  0.8599313E-01
         21   -1    0    0  501  502  0.00000000000E+00  0.00000000000E+00  0.75686979552E+03  0.75686979552E+03  0.00000000000E+00 0.  1.
         21   -1    0    0  502  503 -0.00000000000E+00 -0.00000000000E+00 -0.24374077577E+04  0.24374077577E+04  0.00000000000E+00 0.  1.
    9000010    2    1    2  501    0  0.57130256348E+03  0.35709278884E+03 -0.86822109177E+02  0.11884780477E+04  0.97521285493E+03 0.  0.
   -9000010    2    1    2    0  503 -0.57130256348E+03 -0.35709278884E+03 -0.15937158530E+04  0.20057995054E+04  0.10145932964E+04 0.  0.
        -13    1    3    3    0    0  0.32977380434E+03  0.67085404019E+03  0.93578860159E+02  0.75336108176E+03  0.10566000000E+00 0.  1.
          4    1    3    3  501    0  0.24152875914E+03 -0.31376125136E+03 -0.18040096934E+03  0.43511696598E+03  0.00000000000E+00 0.  1.
         13    1    4    4    0    0 -0.36847993023E+03 -0.46881771083E+02 -0.19519047078E+01  0.37145548931E+03  0.10566000000E+00 0. -1.
         -4    1    4    4    0  503 -0.20282263325E+03 -0.31021101775E+03 -0.15917639483E+04  0.16343440161E+04  0.00000000000E+00 0. -1.
<mgrwt>
<rscale>  2 0.12096740E+04</rscale>
<asrwt>0</asrwt>
<pdfrwt beam="1">  1       21 0.11644151E+00 0.12179086E+04</pdfrwt>
<pdfrwt beam="2">  1       21 0.37498581E+00 0.12179086E+04</pdfrwt>
<totfact> 0.20002315E+00</totfact>
</mgrwt>
</event>
<event>
 8    1  0.7208583E-006  0.1108576E+04  0.7818608E-02  0.8682121E-01
         21   -1    0    0  501  502  0.00000000000E+00  0.00000000000E+00  0.19308489255E+04  0.19308489255E+04  0.00000000000E+00 0.  1.
         21   -1    0    0  502  503 -0.00000000000E+00 -0.00000000000E+00 -0.86930549184E+03  0.86930549184E+03  0.00000000000E+00 0.  1.
    9000010    2    1    2  501    0  0.16448194491E+03  0.47554242032E+03  0.12666457740E+04  0.16727644273E+04  0.96982184375E+03 0.  0.
   -9000010    2    1    2    0  503 -0.16448194491E+03 -0.47554242032E+03 -0.20510234035E+03  0.11273899901E+04  0.98779872238E+03 0.  0.
        -13    1    3    3    0    0 -0.12124006961E+03  0.11796429267E+03 -0.12334480339E+03  0.20935300454E+03  0.10566000000E+00 0.  1.
          4    1    3    3  501    0  0.28572201452E+03  0.35757812766E+03  0.13899905774E+04  0.14634114227E+04  0.00000000000E+00 0.  1.
         13    1    4    4    0    0  0.88375464682E+02 -0.57363492584E+03 -0.47107937300E+03  0.74751791800E+03  0.10566000000E+00 0. -1.
         -4    1    4    4    0  503 -0.25285740959E+03  0.98092505519E+02  0.26597703265E+03  0.37987207205E+03  0.00000000000E+00 0. -1.
<mgrwt>
<rscale>  2 0.11045574E+04</rscale>
<asrwt>0</asrwt>
<pdfrwt beam="1">  1       21 0.29705368E+00 0.11085762E+04</pdfrwt>
<pdfrwt beam="2">  1       21 0.13373931E+00 0.11085762E+04</pdfrwt>
<totfact> 0.48744598E+00</totfact>
</mgrwt>
</event>
<event>
 8    1  0.7208583E-006  0.1088247E+04  0.7818608E-02  0.8714730E-01
         21   -1    0    0  503  502  0.00000000000E+00  0.00000000000E+00  0.64354020424E+03  0.64354020424E+03  0.00000000000E+00 0.  1.
         21   -1    0    0  501  503 -0.00000000000E+00 -0.00000000000E+00 -0.17323085214E+04  0.17323085214E+04  0.00000000000E+00 0.  1.
    9000010    2    1    2  501    0  0.96525983516E+02 -0.74623502215E+02 -0.68800440070E+03  0.12161533693E+04  0.99538586969E+03 0.  0.
   -9000010    2    1    2    0  502 -0.96525983516E+02  0.74623502215E+02 -0.40076391649E+03  0.11596953564E+04  0.10813859951E+04 0.  0.
        -13    1    3    3    0    0  0.16715308781E+03  0.40913740463E+03 -0.10308979877E+03  0.45382936045E+03  0.10566000000E+00 0.  1.
          4    1    3    3  501    0 -0.70627104292E+02 -0.48376090684E+03 -0.58491460193E+03  0.76232400881E+03  0.00000000000E+00 0.  1.
         13    1    4    4    0    0  0.49328015431E+03  0.67679104428E+02 -0.16597106324E+03  0.52483538067E+03  0.10566000000E+00 0. -1.
         -4    1    4    4    0  502 -0.58980613782E+03  0.69443977877E+01 -0.23479285325E+03  0.63485997575E+03  0.00000000000E+00 0. -1.
<mgrwt>
<rscale>  2 0.10662353E+04</rscale>
<asrwt>0</asrwt>
<pdfrwt beam="1">  1       21 0.99006187E-01 0.10882470E+04</pdfrwt>
<pdfrwt beam="2">  1       21 0.26650900E+00 0.10882470E+04</pdfrwt>
<totfact> 0.18536546E+01</totfact>
</mgrwt>
</event>
<event>
 8    1  0.7208583E-006  0.1029636E+04  0.7818608E-02  0.8751284E-01
         21   -1    0    0  503  502  0.00000000000E+00  0.00000000000E+00  0.10555648939E+04  0.10555648939E+04  0.00000000000E+00 0. -1.
         21   -1    0    0  501  503 -0.00000000000E+00 -0.00000000000E+00 -0.12496695045E+04  0.12496695045E+04  0.00000000000E+00 0. -1.
    9000010    2    1    2  501    0 -0.20598850485E+03 -0.34010444408E+02  0.43054866079E+03  0.11160300796E+04  0.10082474968E+04 0.  0.
   -9000010    2    1    2    0  502  0.20598850485E+03  0.34010444408E+02 -0.62465327138E+03  0.11892043187E+04  0.99016525279E+03 0.  0.
        -13    1    3    3    0    0 -0.59485079522E+03 -0.13580801245E+03  0.35842829740E+03  0.70764549060E+03  0.10566000000E+00 0.  1.
          4    1    3    3  501    0  0.38886229037E+03  0.10179756804E+03  0.72120363385E+02  0.40838458901E+03  0.00000000000E+00 0.  1.
         13    1    4    4    0    0  0.64189011787E+02 -0.16265821480E+03 -0.84419765618E+03  0.86211809977E+03  0.10566000000E+00 0. -1.
         -4    1    4    4    0  502  0.14179949307E+03  0.19666865921E+03  0.21954438481E+03  0.32708621898E+03  0.00000000000E+00 0. -1.
<mgrwt>
<rscale>  2 0.10251825E+04</rscale>
<asrwt>0</asrwt>
<pdfrwt beam="1">  1       21 0.16239460E+00 0.10296363E+04</pdfrwt>
<pdfrwt beam="2">  1       21 0.19225685E+00 0.10296363E+04</pdfrwt>
<totfact> 0.16252689E+01</totfact>
</mgrwt>
</event>
<event>
 8    1  0.7208583E-006  0.1099023E+04  0.7818608E-02  0.8692479E-01
         21   -1    0    0  503  502  0.00000000000E+00  0.00000000000E+00  0.11954832848E+04  0.11954832848E+04  0.00000000000E+00 0.  1.
         21   -1    0    0  501  503 -0.00000000000E+00 -0.00000000000E+00 -0.10490717974E+04  0.10490717974E+04  0.00000000000E+00 0.  1.
    9000010    2    1    2  501    0  0.41835708503E+03 -0.16706104989E+03 -0.20354808345E+03  0.10911583226E+04  0.97276030850E+03 0.  0.
   -9000010    2    1    2    0  502 -0.41835708503E+03  0.16706104989E+03  0.34995957085E+03  0.11533967597E+04  0.10024571507E+04 0.  0.
        -13    1    3    3    0    0  0.70790837988E+03 -0.23364081540E+03 -0.27850029262E+02  0.74598789549E+03  0.10566000000E+00 0.  1.
          4    1    3    3  501    0 -0.28955129485E+03  0.66579765510E+02 -0.17569805419E+03  0.34517042714E+03  0.00000000000E+00 0.  1.
         13    1    4    4    0    0 -0.62697825458E+03  0.29867690282E+03  0.50799349645E+03  0.86044583071E+03  0.10566000000E+00 0. -1.
         -4    1    4    4    0  502  0.20862116954E+03 -0.13161585293E+03 -0.15803392560E+03  0.29295092894E+03  0.00000000000E+00 0. -1.
<mgrwt>
<rscale>  2 0.10922056E+04</rscale>
<asrwt>0</asrwt>
<pdfrwt beam="1">  1       21 0.18392051E+00 0.10990234E+04</pdfrwt>
<pdfrwt beam="2">  1       21 0.16139566E+00 0.10990234E+04</pdfrwt>
<totfact> 0.19032171E+01</totfact>
</mgrwt>
</event>
<event>
 8    1  0.7208583E-006  0.1027399E+04  0.7818608E-02  0.8756124E-01
         21   -1    0    0  501  502  0.00000000000E+00  0.00000000000E+00  0.68698551292E+03  0.68698551292E+03  0.00000000000E+00 0. -1.
         21   -1    0    0  502  503 -0.00000000000E+00 -0.00000000000E+00 -0.15104706554E+04  0.15104706554E+04  0.00000000000E+00 0. -1.
    9000010    2    1    2  501    0  0.23408726230E+03  0.25461603048E+02 -0.29750419805E+03  0.10696066743E+04  0.10000522737E+04 0.  0.
   -9000010    2    1    2    0  503 -0.23408726230E+03 -0.25461603048E+02 -0.52598094444E+03  0.11278494941E+04  0.96950677549E+03 0.  0.
        -13    1    3    3    0    0 -0.13423362605E+03 -0.13806188062E+03 -0.55763913562E+03  0.58995013855E+03  0.10566000000E+00 0.  1.
          4    1    3    3  501    0  0.36832088835E+03  0.16352348367E+03  0.26013493757E+03  0.47965653571E+03  0.00000000000E+00 0.  1.
         13    1    4    4    0    0 -0.73360276710E+02  0.14933647301E+03  0.25894458184E+03  0.30779119546E+03  0.10566000000E+00 0. -1.
         -4    1    4    4    0  503 -0.16072698559E+03 -0.17479807606E+03 -0.78492552628E+03  0.82005829860E+03  0.00000000000E+00 0. -1.
<mgrwt>
<rscale>  2 0.10198906E+04</rscale>
<asrwt>0</asrwt>
<pdfrwt beam="1">  1       21 0.10569008E+00 0.10273995E+04</pdfrwt>
<pdfrwt beam="2">  1       21 0.23238010E+00 0.10273995E+04</pdfrwt>
<totfact> 0.28019171E+01</totfact>
</mgrwt>
</event>
<event>
 8    1  0.7208583E-006  0.1127598E+04  0.7818608E-02  0.8689526E-01
         21   -1    0    0  501  502  0.00000000000E+00  0.00000000000E+00  0.59799971630E+03  0.59799971630E+03  0.00000000000E+00 0.  1.
         21   -1    0    0  502  503 -0.00000000000E+00 -0.00000000000E+00 -0.21547226298E+04  0.21547226298E+04  0.00000000000E+00 0.  1.
    9000010    2    1    2  501    0 -0.32134110889E+03  0.19955872858E+03 -0.34701669590E+03  0.11797875663E+04  0.10622590645E+04 0.  0.
   -9000010    2    1    2    0  503  0.32134110889E+03 -0.19955872858E+03 -0.12097062176E+04  0.15729347798E+04  0.93147780119E+03 0.  0.
        -13    1    3    3    0    0 -0.36382018523E+03  0.10885275944E+03  0.32531028320E+03  0.50004084027E+03  0.10566000000E+00 0.  1.
          4    1    3    3  501    0  0.42479076344E+02  0.90705969135E+02 -0.67232697910E+03  0.67974672606E+03  0.00000000000E+00 0.  1.
         13    1    4    4    0    0 -0.29639020641E+03  0.14475399584E+02 -0.16225698418E+03  0.33820708409E+03  0.10566000000E+00 0. -1.
         -4    1    4    4    0  503  0.61773131529E+03 -0.21403412816E+03 -0.10474492334E+04  0.12347276957E+04  0.00000000000E+00 0. -1.
<mgrwt>
<rscale>  2 0.10957096E+04</rscale>
<asrwt>0</asrwt>
<pdfrwt beam="1">  1       21 0.91999955E-01 0.11275984E+04</pdfrwt>
<pdfrwt beam="2">  1       21 0.33149579E+00 0.11275984E+04</pdfrwt>
<totfact> 0.76925085E+00</totfact>
</mgrwt>
</event>
<event>
 8    1  0.7208583E-006  0.1041632E+04  0.7818608E-02  0.8736942E-01
         21   -1    0    0  503  502  0.00000000000E+00  0.00000000000E+00  0.54093344012E+03  0.54093344012E+03  0.00000000000E+00 0.  1.
         21   -1    0    0  501  503 -0.00000000000E+00 -0.00000000000E+00 -0.21823646259E+04  0.21823646259E+04  0.00000000000E+00 0.  1.
    9000010    2    1    2  501    0  0.65066893868E+02  0.27530462135E+03 -0.12136746408E+04  0.15993758269E+04  0.10024822027E+04 0.  0.
   -9000010    2    1    2    0  502 -0.65066893868E+02 -0.27530462135E+03 -0.42775654499E+03  0.11239222392E+04  0.10000995964E+04 0.  0.
        -13    1    3    3    0    0  0.33493535153E+03  0.34743434873E+03 -0.12282488921E+04  0.13196543747E+04  0.10566000000E+00 0.  1.
          4    1    3    3  501    0 -0.26986845766E+03 -0.72129727383E+02  0.14574251366E+02  0.27972145219E+03  0.00000000000E+00 0.  1.
         13    1    4    4    0    0  0.22661337610E+03 -0.28241358188E+03  0.21283732955E+03  0.42001284917E+03  0.10566000000E+00 0. -1.
         -4    1    4    4    0  502 -0.29168026997E+03  0.71089605307E+01 -0.64059387454E+03  0.70390938998E+03  0.00000000000E+00 0. -1.
<mgrwt>
<rscale>  2 0.10410582E+04</rscale>
<asrwt>0</asrwt>
<pdfrwt beam="1">  1       21 0.83220530E-01 0.10416318E+04</pdfrwt>
<pdfrwt beam="2">  1       21 0.33574840E+00 0.10416318E+04</pdfrwt>
<totfact> 0.94446612E+00</totfact>
</mgrwt>
</event>
<event>
 8    1  0.7208583E-006  0.1021603E+04  0.7818608E-02  0.8764821E-01
         21   -1    0    0  503  502  0.00000000000E+00  0.00000000000E+00  0.12296442312E+04  0.12296442312E+04  0.00000000000E+00 0.  1.
         21   -1    0    0  501  503 -0.00000000000E+00 -0.00000000000E+00 -0.10804910924E+04  0.10804910924E+04  0.00000000000E+00 0.  1.
    9000010    2    1    2  501    0 -0.15065899590E+03  0.18721423632E+03 -0.50154431623E+03  0.10989048783E+04  0.94778580233E+03 0.  0.
   -9000010    2    1    2    0  502  0.15065899590E+03 -0.18721423632E+03  0.65069745502E+03  0.12112304454E+04  0.99293741522E+03 0.  0.
        -13    1    3    3    0    0 -0.32688734690E+03  0.48486136776E+03 -0.47246954815E+03  0.75178013316E+03  0.10566000000E+00 0.  1.
          4    1    3    3  501    0  0.17622835100E+03 -0.29764713144E+03 -0.29074768078E+02  0.34712474515E+03  0.00000000000E+00 0.  1.
         13    1    4    4    0    0  0.42995803192E+03  0.24985068911E+03  0.38208405125E+03  0.62711841740E+03  0.10566000000E+00 0. -1.
         -4    1    4    4    0  502 -0.27929903601E+03 -0.43706492543E+03  0.26861340377E+03  0.58411202799E+03  0.00000000000E+00 0. -1.
<mgrwt>
<rscale>  2 0.10104651E+04</rscale>
<asrwt>0</asrwt>
<pdfrwt beam="1">  1       21 0.18917604E+00 0.10216027E+04</pdfrwt>
<pdfrwt beam="2">  1       21 0.16622940E+00 0.10216027E+04</pdfrwt>
<totfact> 0.15980751E+01</totfact>
</mgrwt>
</event>
<event>
 8    1  0.7208583E-006  0.1040662E+04  0.7818608E-02  0.8751856E-01
         21   -1    0    0  501  502  0.00000000000E+00  0.00000000000E+00  0.74473266497E+03  0.74473266497E+03  0.00000000000E+00 0. -1.
         21   -1    0    0  502  503 -0.00000000000E+00 -0.00000000000E+00 -0.15286078883E+04  0.15286078883E+04  0.00000000000E+00 0. -1.
    9000010    2    1    2  501    0 -0.12801284859E+03 -0.11815952665E+03 -0.12206037600E+02  0.97779017847E+03  0.96206843967E+03 0.  0.
   -9000010    2    1    2    0  503  0.12801284859E+03  0.11815952665E+03 -0.77166918576E+03  0.12955503748E+04  0.10259768410E+04 0.  0.
        -13    1    3    3    0    0 -0.39965890472E+03 -0.93209236005E+02  0.33955699674E+03  0.53264825824E+03  0.10566000000E+00 0.  1.
          4    1    3    3  501    0  0.27164605614E+03 -0.24950290646E+02 -0.35176303434E+03  0.44514192023E+03  0.00000000000E+00 0.  1.
         13    1    4    4    0    0 -0.59461790868E+02 -0.41528419894E+03 -0.54167890920E+03  0.68513700987E+03  0.10566000000E+00 0. -1.
         -4    1    4    4    0  503  0.18747463945E+03  0.53344372559E+03 -0.22999027656E+03  0.61041336496E+03  0.00000000000E+00 0. -1.
<mgrwt>
<rscale>  2 0.10245549E+04</rscale>
<asrwt>0</asrwt>
<pdfrwt beam="1">  1       21 0.11457426E+00 0.10406620E+04</pdfrwt>
<pdfrwt beam="2">  1       21 0.23517044E+00 0.10406620E+04</pdfrwt>
<totfact> 0.21405509E+01</totfact>
</mgrwt>
</event>
<event>
 8    1  0.7208583E-006  0.1040082E+04  0.7818608E-02  0.8740593E-01
         21   -1    0    0  501  502  0.00000000000E+00  0.00000000000E+00  0.53202209644E+03  0.53202209644E+03  0.00000000000E+00 0.  1.
         21   -1    0    0  502  503 -0.00000000000E+00 -0.00000000000E+00 -0.21024076640E+04  0.21024076640E+04  0.00000000000E+00 0.  1.
    9000010    2    1    2  501    0 -0.72342651301E+01 -0.25292722998E+03 -0.50354380723E+03  0.11444896250E+04  0.99613032158E+03 0.  0.
   -9000010    2    1    2    0  503  0.72342651301E+01  0.25292722998E+03 -0.10668417603E+04  0.14899401355E+04  0.10088338552E+04 0.  0.
        -13    1    3    3    0    0 -0.39125027141E+03 -0.77724818195E+02  0.96931447730E+02  0.41050412783E+03  0.10566000000E+00 0.  1.
          4    1    3    3  501    0  0.38401600628E+03 -0.17520241178E+03 -0.60047525496E+03  0.73398549713E+03  0.00000000000E+00 0.  1.
         13    1    4    4    0    0 -0.48378191837E+03  0.13825245610E+03 -0.71822776271E+03  0.87693204780E+03  0.10566000000E+00 0. -1.
         -4    1    4    4    0  503  0.49101618350E+03  0.11467477388E+03 -0.34861399759E+03  0.61300808766E+03  0.00000000000E+00 0. -1.
<mgrwt>
<rscale>  2 0.10369888E+04</rscale>
<asrwt>0</asrwt>
<pdfrwt beam="1">  1       21 0.81849553E-01 0.10400819E+04</pdfrwt>
<pdfrwt beam="2">  1       21 0.32344734E+00 0.10400819E+04</pdfrwt>
<totfact> 0.12011926E+01</totfact>
</mgrwt>
</event>
<event>
 8    1  0.7208583E-006  0.1014574E+04  0.7818608E-02  0.8762501E-01
         21   -1    0    0  501  502  0.00000000000E+00  0.00000000000E+00  0.15103887178E+04  0.15103887178E+04  0.00000000000E+00 0. -1.
         21   -1    0    0  502  503 -0.00000000000E+00 -0.00000000000E+00 -0.78648270014E+03  0.78648270014E+03  0.00000000000E+00 0. -1.
    9000010    2    1    2  501    0 -0.20240836906E+03  0.94596782379E+02  0.78900891725E+03  0.12802111196E+04  0.98310108342E+03 0.  0.
   -9000010    2    1    2    0  503  0.20240836906E+03 -0.94596782379E+02 -0.65102899597E+02  0.10166602983E+04  0.98966765911E+03 0.  0.
        -13    1    3    3    0    0  0.35009667079E+03  0.21947764816E+02  0.59394351309E+03  0.68979583298E+03  0.10566000000E+00 0.  1.
          4    1    3    3  501    0 -0.55250503986E+03  0.72649017562E+02  0.19506540415E+03  0.59041528665E+03  0.00000000000E+00 0.  1.
         13    1    4    4    0    0  0.37133440156E+03  0.25511153975E+03  0.25116368840E+03  0.51580456088E+03  0.10566000000E+00 0. -1.
         -4    1    4    4    0  503 -0.16892603249E+03 -0.34970832213E+03 -0.31626658800E+03  0.50085573742E+03  0.00000000000E+00 0. -1.
<mgrwt>
<rscale>  2 0.10129688E+04</rscale>
<asrwt>0</asrwt>
<pdfrwt beam="1">  1       21 0.23236749E+00 0.10145737E+04</pdfrwt>
<pdfrwt beam="2">  1       21 0.12099734E+00 0.10145737E+04</pdfrwt>
<totfact> 0.19417173E+01</totfact>
</mgrwt>
</event>
<event>
 8    1  0.7208583E-006  0.1020943E+04  0.7818608E-02  0.8759006E-01
         21   -1    0    0  503  502  0.00000000000E+00  0.00000000000E+00  0.98752805406E+03  0.98752805406E+03  0.00000000000E+00 0.  1.
         21   -1    0    0  501  503 -0.00000000000E+00 -0.00000000000E+00 -0.22114315982E+04  0.22114315982E+04  0.00000000000E+00 0.  1.
    9000010    2    1    2  501    0  0.32064883416E+02 -0.18758449683E+03 -0.17792422585E+04  0.20513477706E+04  0.10030496306E+04 0.  0.
   -9000010    2    1    2    0  502 -0.32064883416E+02  0.18758449683E+03  0.55533871429E+03  0.11476118817E+04  0.98610133517E+03 0.  0.
        -13    1    3    3    0    0  0.24669522982E+03  0.34773888195E+03 -0.57205360822E+03  0.71346072651E+03  0.10566000000E+00 0.  1.
          4    1    3    3  501    0 -0.21463034640E+03 -0.53532337879E+03 -0.12071886503E+04  0.13378870441E+04  0.00000000000E+00 0.  1.
         13    1    4    4    0    0  0.24644809525E+03  0.15425229330E+03  0.75119775392E+03  0.80549892011E+03  0.10566000000E+00 0. -1.
         -4    1    4    4    0  502 -0.27851297867E+03  0.33332203528E+02 -0.19585903963E+03  0.34211296158E+03  0.00000000000E+00 0. -1.
<mgrwt>
<rscale>  2 0.10167558E+04</rscale>
<asrwt>0</asrwt>
<pdfrwt beam="1">  1       21 0.15192739E+00 0.10209430E+04</pdfrwt>
<pdfrwt beam="2">  1       21 0.34022025E+00 0.10209430E+04</pdfrwt>
<totfact> 0.16856046E+00</totfact>
</mgrwt>
</event>
<event>
 8    1  0.7208583E-006  0.1041277E+04  0.7818608E-02  0.8742078E-01
         21   -1    0    0  501  502  0.00000000000E+00  0.00000000000E+00  0.98190240371E+03  0.98190240371E+03  0.00000000000E+00 0. -1.
         21   -1    0    0  502  503 -0.00000000000E+00 -0.00000000000E+00 -0.11036284545E+04  0.11036284545E+04  0.00000000000E+00 0. -1.
    9000010    2    1    2  501    0 -0.20225477031E+03 -0.11747349778E+03  0.94281693442E+02  0.10220849400E+04  0.99048552344E+03 0.  0.
   -9000010    2    1    2    0  503  0.20225477031E+03  0.11747349778E+03 -0.21600774419E+03  0.10634459181E+04  0.10146678572E+04 0.  0.
        -13    1    3    3    0    0  0.21899897657E+02  0.29618532946E+03  0.37179203683E+03  0.47585153643E+03  0.10566000000E+00 0.  1.
          4    1    3    3  501    0 -0.22415466796E+03 -0.41365882725E+03 -0.27751034339E+03  0.54623340361E+03  0.00000000000E+00 0.  1.
         13    1    4    4    0    0  0.61111344581E+03  0.93426936391E+02 -0.21297190323E+03  0.65386946620E+03  0.10566000000E+00 0. -1.
         -4    1    4    4    0  503 -0.40885867550E+03  0.24046561393E+02 -0.30358409572E+01  0.40957645193E+03  0.00000000000E+00 0. -1.
<mgrwt>
<rscale>  2 0.10353390E+04</rscale>
<asrwt>0</asrwt>
<pdfrwt beam="1">  1       21 0.15106191E+00 0.10412770E+04</pdfrwt>
<pdfrwt beam="2">  1       21 0.16978899E+00 0.10412770E+04</pdfrwt>
<totfact> 0.31021242E+01</totfact>
</mgrwt>
</event>
<event>
 8    1  0.7208583E-006  0.1043496E+04  0.7818608E-02  0.8747603E-01
         21   -1    0    0  501  502  0.00000000000E+00  0.00000000000E+00  0.21778828853E+04  0.21778828853E+04  0.00000000000E+00 0.  1.
         21   -1    0    0  502  503 -0.00000000000E+00 -0.00000000000E+00 -0.47753217212E+03  0.47753217212E+03  0.00000000000E+00 0.  1.
    9000010    2    1    2  501    0  0.13806826955E+03 -0.25157674680E+03  0.99465724854E+03  0.14416056097E+04  0.10032596798E+04 0.  0.
   -9000010    2    1    2    0  503 -0.13806826955E+03  0.25157674680E+03  0.70569346468E+03  0.12138094478E+04  0.94497428688E+03 0.  0.
        -13    1    3    3    0    0 -0.40533517646E+03 -0.26747117975E+03  0.35161554879E+03  0.59955895672E+03  0.10566000000E+00 0.  1.
          4    1    3    3  501    0  0.54340344601E+03  0.15894432952E+02  0.64304169975E+03  0.84204665295E+03  0.00000000000E+00 0.  1.
         13    1    4    4    0    0 -0.22235034904E+03  0.22464733106E+03 -0.15258532071E+03  0.35098203990E+03  0.10566000000E+00 0. -1.
         -4    1    4    4    0  503  0.84282079491E+02  0.26929415738E+02  0.85827878540E+03  0.86282740790E+03  0.00000000000E+00 0. -1.
<mgrwt>
<rscale>  2 0.10292290E+04</rscale>
<asrwt>0</asrwt>
<pdfrwt beam="1">  1       21 0.33505890E+00 0.10434959E+04</pdfrwt>
<pdfrwt beam="2">  1       21 0.73466489E-01 0.10434959E+04</pdfrwt>
<totfact> 0.12922109E+01</totfact>
</mgrwt>
</event>
<event>
 8    1  0.7208583E-006  0.9944268E+03  0.7818608E-02  0.8828190E-01
         21   -1    0    0  501  502  0.00000000000E+00  0.00000000000E+00  0.10301269664E+04  0.10301269664E+04  0.00000000000E+00 0. -1.
         21   -1    0    0  502  503 -0.00000000000E+00 -0.00000000000E+00 -0.79241116513E+03  0.79241116513E+03  0.00000000000E+00 0. -1.
    9000010    2    1    2  501    0  0.55920061072E+02 -0.15951332485E+03  0.14956358059E+03  0.82421183037E+03  0.79270695888E+03 0.  0.
   -9000010    2    1    2    0  503 -0.55920061072E+02  0.15951332485E+03  0.88152220702E+02  0.99832630117E+03  0.97995562938E+03 0.  0.
        -13    1    3    3    0    0 -0.17060820856E+03  0.27319651701E+03  0.56822804015E+02  0.32706626233E+03  0.10566000000E+00 0.  1.
          4    1    3    3  501    0  0.22652826964E+03 -0.43270984186E+03  0.92740776572E+02  0.49714556804E+03  0.00000000000E+00 0.  1.
         13    1    4    4    0    0  0.28579284623E+03  0.19880684139E+03 -0.31421969161E+03  0.46897306629E+03  0.10566000000E+00 0. -1.
         -4    1    4    4    0  503 -0.34171290730E+03 -0.39293516541E+02  0.40237191232E+03  0.52935323488E+03  0.00000000000E+00 0. -1.
<mgrwt>
<rscale>  2 0.94486906E+03</rscale>
<asrwt>0</asrwt>
<pdfrwt beam="1">  1       21 0.15848107E+00 0.99442676E+03</pdfrwt>
<pdfrwt beam="2">  1       21 0.12190941E+00 0.99442676E+03</pdfrwt>
<totfact> 0.73567959E+01</totfact>
</mgrwt>
</event>
<event>
 8    1  0.7208583E-006  0.1082244E+04  0.7818608E-02  0.8705541E-01
         21   -1    0    0  503  502  0.00000000000E+00  0.00000000000E+00  0.16263765492E+04  0.16263765492E+04  0.00000000000E+00 0. -1.
         21   -1    0    0  501  503 -0.00000000000E+00 -0.00000000000E+00 -0.81558237505E+03  0.81558237505E+03  0.00000000000E+00 0. -1.
    9000010    2    1    2  501    0 -0.15087947541E+03 -0.34287463218E+03 -0.45574348168E+02  0.10618793023E+04  0.99256385283E+03 0.  0.
   -9000010    2    1    2    0  502  0.15087947541E+03  0.34287463218E+03  0.85636852232E+03  0.13800796220E+04  0.10153448121E+04 0.  0.
        -13    1    3    3    0    0 -0.12329315511E+03 -0.65277236826E+03  0.16710706298E+03  0.68500930542E+03  0.10566000000E+00 0.  1.
          4    1    3    3  501    0 -0.27586320300E+02  0.30989773608E+03 -0.21268141115E+03  0.37686999687E+03  0.00000000000E+00 0.  1.
         13    1    4    4    0    0  0.53070173556E+03  0.13662044923E+03  0.17887288586E+03  0.57645901826E+03  0.10566000000E+00 0. -1.
         -4    1    4    4    0  502 -0.37982226014E+03  0.20625418295E+03  0.67749563646E+03  0.80362060371E+03  0.00000000000E+00 0. -1.
<mgrwt>
<rscale>  2 0.10768685E+04</rscale>
<asrwt>0</asrwt>
<pdfrwt beam="1">  1       21 0.25021178E+00 0.10822443E+04</pdfrwt>
<pdfrwt beam="2">  1       21 0.12547421E+00 0.10822443E+04</pdfrwt>
<totfact> 0.12759886E+01</totfact>
</mgrwt>
</event>
<event>
 8    1  0.7208583E-006  0.1160614E+04  0.7818608E-02  0.8676593E-01
         21   -1    0    0  503  502  0.00000000000E+00  0.00000000000E+00  0.10321149354E+04  0.10321149354E+04  0.00000000000E+00 0. -1.
         21   -1    0    0  501  503 -0.00000000000E+00 -0.00000000000E+00 -0.11281559330E+04  0.11281559330E+04  0.00000000000E+00 0. -1.
    9000010    2    1    2  501    0  0.28858323965E+03  0.96996931914E+02 -0.19798604428E+03  0.99518786234E+03  0.92655907346E+03 0.  0.
   -9000010    2    1    2    0  502 -0.28858323965E+03 -0.96996931914E+02  0.10194504674E+03  0.11650830060E+04  0.11199718422E+04 0.  0.
        -13    1    3    3    0    0 -0.18622348932E+03  0.37920129650E+03 -0.70130910795E+02  0.42824194920E+03  0.10566000000E+00 0.  1.
          4    1    3    3  501    0  0.47480672897E+03 -0.28220436459E+03 -0.12785513348E+03  0.56694591314E+03  0.00000000000E+00 0.  1.
         13    1    4    4    0    0 -0.22372701241E+03 -0.10801855599E+03  0.60694132423E+03  0.65581976696E+03  0.10566000000E+00 0. -1.
         -4    1    4    4    0  502 -0.64856227238E+02  0.11021624074E+02 -0.50499627748E+03  0.50926323908E+03  0.00000000000E+00 0. -1.
<mgrwt>
<rscale>  2 0.11112197E+04</rscale>
<asrwt>0</asrwt>
<pdfrwt beam="1">  1       21 0.15878691E+00 0.11606143E+04</pdfrwt>
<pdfrwt beam="2">  1       21 0.17356245E+00 0.11606143E+04</pdfrwt>
<totfact> 0.24067531E+01</totfact>
</mgrwt>
</event>
<event>
 8    1  0.7208583E-006  0.1018567E+04  0.7818608E-02  0.8761248E-01
         21   -1    0    0  503  502  0.00000000000E+00  0.00000000000E+00  0.17739961501E+04  0.17739961501E+04  0.00000000000E+00 0. -1.
         21   -1    0    0  501  503 -0.00000000000E+00 -0.00000000000E+00 -0.57670263432E+03  0.57670263432E+03  0.00000000000E+00 0. -1.
    9000010    2    1    2  501    0  0.93783740133E+02  0.95206397162E+02  0.66395107698E+03  0.12158579273E+04  0.10097622585E+04 0.  0.
   -9000010    2    1    2    0  502 -0.93783740133E+02 -0.95206397162E+02  0.53334243880E+03  0.11348408572E+04  0.99274869232E+03 0.  0.
        -13    1    3    3    0    0  0.46680333786E+03  0.29943194060E+03  0.20784956248E+03  0.59225526176E+03  0.10566000000E+00 0.  1.
          4    1    3    3  501    0 -0.37301959773E+03 -0.20422554344E+03  0.45610151450E+03  0.62360266549E+03  0.00000000000E+00 0.  1.
         13    1    4    4    0    0 -0.35923512650E+03  0.29133502386E+03  0.47386133752E+03  0.66217108862E+03  0.10566000000E+00 0. -1.
         -4    1    4    4    0  502  0.26545138637E+03 -0.38654142102E+03  0.59481101280E+02  0.47266976855E+03  0.00000000000E+00 0. -1.
<mgrwt>
<rscale>  2 0.10143249E+04</rscale>
<asrwt>0</asrwt>
<pdfrwt beam="1">  1       21 0.27292248E+00 0.10185674E+04</pdfrwt>
<pdfrwt beam="2">  1       21 0.88723483E-01 0.10185674E+04</pdfrwt>
<totfact> 0.22435333E+01</totfact>
</mgrwt>
</event>
<event>
 8    1  0.7208583E-006  0.1005089E+04  0.7818608E-02  0.8771618E-01
         21   -1    0    0  503  502  0.00000000000E+00  0.00000000000E+00  0.98016593994E+03  0.98016593994E+03  0.00000000000E+00 0.  1.
         21   -1    0    0  501  503 -0.00000000000E+00 -0.00000000000E+00 -0.10523820059E+04  0.10523820059E+04  0.00000000000E+00 0.  1.
    9000010    2    1    2  501    0 -0.84595269400E+02  0.15775683375E+02  0.13436376127E+03  0.10064492953E+04  0.99372095268E+03 0.  0.
   -9000010    2    1    2    0  502  0.84595269400E+02 -0.15775683375E+02 -0.20657982721E+03  0.10260986506E+04  0.10013980147E+04 0.  0.
        -13    1    3    3    0    0  0.22535587932E+03  0.32176168071E+03 -0.21525645056E+03  0.44794107000E+03  0.10566000000E+00 0.  1.
          4    1    3    3  501    0 -0.30995114872E+03 -0.30598599734E+03  0.34962021183E+03  0.55850822526E+03  0.00000000000E+00 0.  1.
         13    1    4    4    0    0 -0.79616196486E+02 -0.29732549485E+03 -0.50026057190E+03  0.58736857219E+03  0.10566000000E+00 0. -1.
         -4    1    4    4    0  502  0.16421146589E+03  0.28154981148E+03  0.29368074469E+03  0.43873007838E+03  0.00000000000E+00 0. -1.
<mgrwt>
<rscale>  2 0.10031710E+04</rscale>
<asrwt>0</asrwt>
<pdfrwt beam="1">  1       21 0.15079476E+00 0.10050887E+04</pdfrwt>
<pdfrwt beam="2">  1       21 0.16190492E+00 0.10050887E+04</pdfrwt>
<totfact> 0.36675773E+01</totfact>
</mgrwt>
</event>
<event>
 8    1  0.7208583E-006  0.1138622E+04  0.7818608E-02  0.8663241E-01
         21   -1    0    0  501  502  0.00000000000E+00  0.00000000000E+00  0.12534654638E+04  0.12534654638E+04  0.00000000000E+00 0. -1.
         21   -1    0    0  502  503 -0.00000000000E+00 -0.00000000000E+00 -0.11458980119E+04  0.11458980119E+04  0.00000000000E+00 0. -1.
    9000010    2    1    2  501    0  0.72920594966E+02  0.54503123121E+03  0.48827151542E+03  0.11987821384E+04  0.94672756715E+03 0.  0.
   -9000010    2    1    2    0  503 -0.72920594966E+02 -0.54503123121E+03 -0.38070406351E+03  0.12005813373E+04  0.99703736505E+03 0.  0.
        -13    1    3    3    0    0 -0.10066743582E+03  0.20778719141E+03  0.71876754124E+03  0.75494121563E+03  0.10566000000E+00 0.  1.
          4    1    3    3  501    0  0.17358803078E+03  0.33724403980E+03 -0.23049602582E+03  0.44384092277E+03  0.00000000000E+00 0.  1.
         13    1    4    4    0    0 -0.52625110884E+03 -0.17865692241E+03 -0.18635603001E+03  0.58616303753E+03  0.10566000000E+00 0. -1.
         -4    1    4    4    0  503  0.45333051387E+03 -0.36637430880E+03 -0.19434803349E+03  0.61441829976E+03  0.00000000000E+00 0. -1.
<mgrwt>
<rscale>  2 0.11275144E+04</rscale>
<asrwt>0</asrwt>
<pdfrwt beam="1">  1       21 0.19284084E+00 0.11386220E+04</pdfrwt>
<pdfrwt beam="2">  1       21 0.17629200E+00 0.11386220E+04</pdfrwt>
<totfact> 0.11990227E+01</totfact>
</mgrwt>
</event>
<event>
 8    1  0.7208583E-006  0.1165549E+04  0.7818608E-02  0.8637207E-01
         21   -1    0    0  501  502  0.00000000000E+00  0.00000000000E+00  0.11900534344E+04  0.11900534344E+04  0.00000000000E+00 0.  1.
         21   -1    0    0  502  503 -0.00000000000E+00 -0.00000000000E+00 -0.12353463427E+04  0.12353463427E+04  0.00000000000E+00 0.  1.
    9000010    2    1    2  501    0 -0.45847186000E+03 -0.37308135932E+03  0.34719777717E+03  0.11955409894E+04  0.97948242138E+03 0.  0.
   -9000010    2    1    2    0  503  0.45847186000E+03  0.37308135932E+03 -0.39249068546E+03  0.12298587877E+04  0.10045484321E+04 0.  0.
        -13    1    3    3    0    0 -0.25675317238E+03  0.19003321041E+03 -0.20657186442E+03  0.38040341603E+03  0.10566000000E+00 0.  1.
          4    1    3    3  501    0 -0.20171868762E+03 -0.56311456973E+03  0.55376964160E+03  0.81513757338E+03  0.00000000000E+00 0.  1.
         13    1    4    4    0    0  0.26926826539E+01 -0.24781517167E+03  0.14823499140E+03  0.28877886641E+03  0.10566000000E+00 0. -1.
         -4    1    4    4    0  503  0.45577917735E+03  0.62089653099E+03 -0.54072567686E+03  0.94107992132E+03  0.00000000000E+00 0. -1.
<mgrwt>
<rscale>  2 0.11601277E+04</rscale>
<asrwt>0</asrwt>
<pdfrwt beam="1">  1       21 0.18308514E+00 0.11655487E+04</pdfrwt>
<pdfrwt beam="2">  1       21 0.19005328E+00 0.11655487E+04</pdfrwt>
<totfact> 0.11039400E+01</totfact>
</mgrwt>
</event>
<event>
 8    1  0.7208583E-006  0.1070758E+04  0.7818608E-02  0.8711368E-01
         21   -1    0    0  501  502  0.00000000000E+00  0.00000000000E+00  0.73840594870E+03  0.73840594870E+03  0.00000000000E+00 0. -1.
         21   -1    0    0  502  503 -0.00000000000E+00 -0.00000000000E+00 -0.16261419703E+04  0.16261419703E+04  0.00000000000E+00 0. -1.
    9000010    2    1    2  501    0  0.16965037905E+03  0.33863903704E+03 -0.18577847369E+03  0.10842095263E+04  0.99876874553E+03 0.  0.
   -9000010    2    1    2    0  503 -0.16965037905E+03 -0.33863903704E+03 -0.70195754796E+03  0.12803383928E+04  0.10015310042E+04 0.  0.
        -13    1    3    3    0    0  0.14844365659E+03  0.46473004622E+03 -0.52799904546E+03  0.71888284039E+03  0.10566000000E+00 0.  1.
          4    1    3    3  501    0  0.21206722462E+02 -0.12609100917E+03  0.34222057177E+03  0.36532668588E+03  0.00000000000E+00 0.  1.
         13    1    4    4    0    0 -0.13458604835E+03 -0.63658452511E+02 -0.91730823535E+03  0.92931168764E+03  0.10566000000E+00 0. -1.
         -4    1    4    4    0  503 -0.35064330696E+02 -0.27498058453E+03  0.21535068739E+03  0.35102670513E+03  0.00000000000E+00 0. -1.
<mgrwt>
<rscale>  2 0.10701113E+04</rscale>
<asrwt>0</asrwt>
<pdfrwt beam="1">  1       21 0.11360092E+00 0.10707577E+04</pdfrwt>
<pdfrwt beam="2">  1       21 0.25017569E+00 0.10707577E+04</pdfrwt>
<totfact> 0.16898120E+01</totfact>
</mgrwt>
</event>
<event>
 8    1  0.7208583E-006  0.9913546E+03  0.7818608E-02  0.8783318E-01
         21   -1    0    0  501  502  0.00000000000E+00  0.00000000000E+00  0.41572522435E+03  0.41572522435E+03  0.00000000000E+00 0. -1.
         21   -1    0    0  502  503 -0.00000000000E+00 -0.00000000000E+00 -0.24640502336E+04  0.24640502336E+04  0.00000000000E+00 0. -1.
    9000010    2    1    2  501    0  0.27471439807E+02 -0.31389410453E+02 -0.72716919769E+03  0.12294547693E+04  0.99047665923E+03 0.  0.
   -9000010    2    1    2    0  503 -0.27471439807E+02  0.31389410453E+02 -0.13211558115E+04  0.16503206887E+04  0.98811220113E+03 0.  0.
        -13    1    3    3    0    0  0.45927076420E+03 -0.23260777570E+03 -0.36676540644E+03  0.63210195909E+03  0.10566000000E+00 0.  1.
          4    1    3    3  501    0 -0.43179932439E+03  0.20121836525E+03 -0.36040379126E+03  0.59735281016E+03  0.00000000000E+00 0.  1.
         13    1    4    4    0    0 -0.26503696670E+03 -0.24338402416E+02 -0.13749284552E+04  0.14004517913E+04  0.10566000000E+00 0. -1.
         -4    1    4    4    0  503  0.23756552689E+03  0.55727812870E+02  0.53772643656E+02  0.24986889743E+03  0.00000000000E+00 0. -1.
<mgrwt>
<rscale>  2 0.99076350E+03</rscale>
<asrwt>0</asrwt>
<pdfrwt beam="1">  1       21 0.63957727E-01 0.99135462E+03</pdfrwt>
<pdfrwt beam="2">  1       21 0.37908465E+00 0.99135462E+03</pdfrwt>
<totfact> 0.89082906E+00</totfact>
</mgrwt>
</event>
<event>
 8    1  0.7208583E-006  0.1061104E+04  0.7818608E-02  0.8740038E-01
         21   -1    0    0  503  502  0.00000000000E+00  0.00000000000E+00  0.16288174972E+04  0.16288174972E+04  0.00000000000E+00 0. -1.
         21   -1    0    0  501  503 -0.00000000000E+00 -0.00000000000E+00 -0.64326535948E+03  0.64326535948E+03  0.00000000000E+00 0. -1.
    9000010    2    1    2  501    0  0.18782079812E+03  0.95965350414E+01  0.65571356339E+03  0.12473578739E+04  0.10443048610E+04 0.  0.
   -9000010    2    1    2    0  502 -0.18782079812E+03 -0.95965350414E+01  0.32983857434E+03  0.10247249828E+04  0.95178729741E+03 0.  0.
        -13    1    3    3    0    0  0.34290693484E+03 -0.43637717118E+03  0.19660956331E+03  0.58878309506E+03  0.10566000000E+00 0.  1.
          4    1    3    3  501    0 -0.15508613672E+03  0.44597370622E+03  0.45910400008E+03  0.65857477884E+03  0.00000000000E+00 0.  1.
         13    1    4    4    0    0 -0.28501056809E+03 -0.51532467417E+02  0.63704439382E+03  0.69979439122E+03  0.10566000000E+00 0. -1.
         -4    1    4    4    0  502  0.97189769970E+02  0.41935932376E+02 -0.30720581948E+03  0.32493059156E+03  0.00000000000E+00 0. -1.
<mgrwt>
<rscale>  2 0.10376062E+04</rscale>
<asrwt>0</asrwt>
<pdfrwt beam="1">  1       21 0.25058731E+00 0.10611039E+04</pdfrwt>
<pdfrwt beam="2">  1       21 0.98963902E-01 0.10611039E+04</pdfrwt>
<totfact> 0.24325637E+01</totfact>
</mgrwt>
</event>
<event>
 8    1  0.7208583E-006  0.1101316E+04  0.7818608E-02  0.8687822E-01
         21   -1    0    0  501  502  0.00000000000E+00  0.00000000000E+00  0.85469099556E+03  0.85469099556E+03  0.00000000000E+00 0.  1.
         21   -1    0    0  502  503 -0.00000000000E+00 -0.00000000000E+00 -0.15876199655E+04  0.15876199655E+04  0.00000000000E+00 0. -1.
    9000010    2    1    2  501    0 -0.42523543128E+03  0.12514824450E+03 -0.78323606576E+03  0.13398461198E+04  0.99259338854E+03 0.  0.
   -9000010    2    1    2    0  503  0.42523543128E+03 -0.12514824450E+03  0.50307095839E+02  0.11024648412E+04  0.10081719432E+04 0.  0.
        -13    1    3    3    0    0 -0.53918475221E+03  0.12902092387E+03 -0.97218888595E+03  0.11191594332E+04  0.10566000000E+00 0.  1.
          4    1    3    3  501    0  0.11394932094E+03 -0.38726793706E+01  0.18895282019E+03  0.22068668661E+03  0.00000000000E+00 0.  1.
         13    1    4    4    0    0  0.29356144395E+03 -0.44022771494E+03  0.36119732047E+03  0.64065769163E+03  0.10566000000E+00 0. -1.
         -4    1    4    4    0  503  0.13167398733E+03  0.31507947044E+03 -0.31089022463E+03  0.46180714958E+03  0.00000000000E+00 0. -1.
<mgrwt>
<rscale>  2 0.10977383E+04</rscale>
<asrwt>0</asrwt>
<pdfrwt beam="1">  1       21 0.13149092E+00 0.11013164E+04</pdfrwt>
<pdfrwt beam="2">  1       21 0.24424922E+00 0.11013164E+04</pdfrwt>
<totfact> 0.12275642E+01</totfact>
</mgrwt>
</event>
<event>
 8    1  0.7208583E-006  0.1027913E+04  0.7818608E-02  0.8751243E-01
         21   -1    0    0  503  502  0.00000000000E+00  0.00000000000E+00  0.17616308009E+04  0.17616308009E+04  0.00000000000E+00 0. -1.
         21   -1    0    0  501  503 -0.00000000000E+00 -0.00000000000E+00 -0.85137289263E+03  0.85137289263E+03  0.00000000000E+00 0. -1.
    9000010    2    1    2  501    0 -0.88673859079E+02 -0.21545918054E+03 -0.26215915219E+03  0.10608170867E+04  0.10011592075E+04 0.  0.
   -9000010    2    1    2    0  502  0.88673859079E+02  0.21545918054E+03  0.11724170605E+04  0.15521866068E+04  0.99016957481E+03 0.  0.
        -13    1    3    3    0    0 -0.48111034038E+03 -0.30083339148E+03 -0.32562647016E+03  0.65421747017E+03  0.10566000000E+00 0.  1.
          4    1    3    3  501    0  0.39243648130E+03  0.85374210936E+02  0.63467317969E+02  0.40659961657E+03  0.00000000000E+00 0.  1.
         13    1    4    4    0    0 -0.42616231028E+03 -0.54859117896E+02  0.58278644735E+03  0.72406069628E+03  0.10566000000E+00 0. -1.
         -4    1    4    4    0  502  0.51483616936E+03  0.27031829844E+03  0.58963061315E+03  0.82812591055E+03  0.00000000000E+00 0. -1.
<mgrwt>
<rscale>  2 0.10252275E+04</rscale>
<asrwt>0</asrwt>
<pdfrwt beam="1">  1       21 0.27102012E+00 0.10279132E+04</pdfrwt>
<pdfrwt beam="2">  1       21 0.13098045E+00 0.10279132E+04</pdfrwt>
<totfact> 0.80859342E+00</totfact>
</mgrwt>
</event>
<event>
 8    1  0.7208583E-006  0.1147588E+04  0.7818608E-02  0.8678107E-01
         21   -1    0    0  503  502  0.00000000000E+00  0.00000000000E+00  0.10300312167E+04  0.10300312167E+04  0.00000000000E+00 0. -1.
         21   -1    0    0  501  503 -0.00000000000E+00 -0.00000000000E+00 -0.11337285719E+04  0.11337285719E+04  0.00000000000E+00 0. -1.
    9000010    2    1    2  501    0 -0.13639561646E+01 -0.23235263807E+03 -0.16617862244E+03  0.11595576515E+04  0.11238189372E+04 0.  0.
   -9000010    2    1    2    0  502  0.13639561646E+01  0.23235263807E+03  0.62481267158E+02  0.10042021371E+04  0.97495046782E+03 0.  0.
        -13    1    3    3    0    0  0.34776627306E+03 -0.36929486008E+03  0.27782489330E+03  0.57836559101E+03  0.10566000000E+00 0.  1.
          4    1    3    3  501    0 -0.34913022922E+03  0.13694222201E+03 -0.44400351575E+03  0.58119206044E+03  0.00000000000E+00 0.  1.
         13    1    4    4    0    0 -0.12950691638E+03 -0.32866172827E+03  0.20811405943E+03  0.41000249501E+03  0.10566000000E+00 0. -1.
         -4    1    4    4    0  502  0.13087087255E+03  0.56101436634E+03 -0.14563279227E+03  0.59419964213E+03  0.00000000000E+00 0. -1.
<mgrwt>
<rscale>  2 0.11093900E+04</rscale>
<asrwt>0</asrwt>
<pdfrwt beam="1">  1       21 0.15846634E+00 0.11475882E+04</pdfrwt>
<pdfrwt beam="2">  1       21 0.17441978E+00 0.11475882E+04</pdfrwt>
<totfact> 0.23890496E+01</totfact>
</mgrwt>
</event>
<event>
 8    1  0.7208583E-006  0.1006151E+04  0.7818608E-02  0.8769922E-01
         21   -1    0    0  503  502  0.00000000000E+00  0.00000000000E+00  0.10620547158E+04  0.10620547158E+04  0.00000000000E+00 0.  1.
         21   -1    0    0  501  503 -0.00000000000E+00 -0.00000000000E+00 -0.10344308656E+04  0.10344308656E+04  0.00000000000E+00 0.  1.
    9000010    2    1    2  501    0  0.51154338386E+02 -0.59758294526E+02 -0.28783853536E+03  0.10420398489E+04  0.99840282656E+03 0.  0.
   -9000010    2    1    2    0  502 -0.51154338386E+02  0.59758294526E+02  0.31546238556E+03  0.10544457325E+04  0.10030710175E+04 0.  0.
        -13    1    3    3    0    0  0.68218029385E+02  0.30697550976E+03 -0.51997980233E+03  0.60767315978E+03  0.10566000000E+00 0.  1.
          4    1    3    3  501    0 -0.17063690999E+02 -0.36673380429E+03  0.23214126696E+03  0.43436668908E+03  0.00000000000E+00 0.  1.
         13    1    4    4    0    0 -0.74120733973E+02  0.50640470955E+03  0.82635647904E+01  0.51186708307E+03  0.10566000000E+00 0. -1.
         -4    1    4    4    0  502  0.22966395587E+02 -0.44664641503E+03  0.30719882077E+03  0.54257864947E+03  0.00000000000E+00 0. -1.
<mgrwt>
<rscale>  2 0.10049852E+04</rscale>
<asrwt>0</asrwt>
<pdfrwt beam="1">  1       21 0.16339303E+00 0.10061507E+04</pdfrwt>
<pdfrwt beam="2">  1       21 0.15914321E+00 0.10061507E+04</pdfrwt>
<totfact> 0.30088718E+01</totfact>
</mgrwt>
</event>
<event>
 8    1  0.7208583E-006  0.1012234E+04  0.7818608E-02  0.8764802E-01
         21   -1    0    0  501  502  0.00000000000E+00  0.00000000000E+00  0.89027536396E+03  0.89027536396E+03  0.00000000000E+00 0. -1.
         21   -1    0    0  502  503 -0.00000000000E+00 -0.00000000000E+00 -0.11974624598E+04  0.11974624598E+04  0.00000000000E+00 0. -1.
    9000010    2    1    2  501    0 -0.97103580699E+02 -0.10366069274E+03  0.69576613536E+02  0.10076598031E+04  0.99516969857E+03 0.  0.
   -9000010    2    1    2    0  503  0.97103580699E+02  0.10366069274E+03 -0.37676370937E+03  0.10800780207E+04  0.10022190347E+04 0.  0.
        -13    1    3    3    0    0  0.22359035735E+03 -0.35029320273E+03  0.32643053646E+03  0.52844572292E+03  0.10566000000E+00 0.  1.
          4    1    3    3  501    0 -0.32069393805E+03  0.24663250999E+03 -0.25685392292E+03  0.47921408014E+03  0.00000000000E+00 0.  1.
         13    1    4    4    0    0 -0.12449870587E+03  0.51778134511E+03 -0.27558066723E+03  0.59961834897E+03  0.10566000000E+00 0. -1.
         -4    1    4    4    0  503  0.22160228657E+03 -0.41412065238E+03 -0.10118304214E+03  0.48045967172E+03  0.00000000000E+00 0. -1.
<mgrwt>
<rscale>  2 0.10104847E+04</rscale>
<asrwt>0</asrwt>
<pdfrwt beam="1">  1       21 0.13696544E+00 0.10122340E+04</pdfrwt>
<pdfrwt beam="2">  1       21 0.18422499E+00 0.10122340E+04</pdfrwt>
<totfact> 0.31931926E+01</totfact>
</mgrwt>
</event>
<event>
 8    1  0.7208583E-006  0.1042601E+04  0.7818608E-02  0.8735857E-01
         21   -1    0    0  501  502  0.00000000000E+00  0.00000000000E+00  0.10309095877E+04  0.10309095877E+04  0.00000000000E+00 0.  1.
         21   -1    0    0  502  503 -0.00000000000E+00 -0.00000000000E+00 -0.13755704239E+04  0.13755704239E+04  0.00000000000E+00 0.  1.
    9000010    2    1    2  501    0  0.18938797090E+03 -0.25366188871E+03  0.41033810950E+03  0.11192196589E+04  0.99199955823E+03 0.  0.
   -9000010    2    1    2    0  503 -0.18938797090E+03  0.25366188871E+03 -0.75499894564E+03  0.12872603526E+04  0.99337991235E+03 0.  0.
        -13    1    3    3    0    0 -0.10130136475E+03 -0.20413265832E+03 -0.28443115787E+03  0.36446289718E+03  0.10566000000E+00 0.  1.
          4    1    3    3  501    0  0.29068933565E+03 -0.49529230387E+02  0.69476926737E+03  0.75475676174E+03  0.00000000000E+00 0.  1.
         13    1    4    4    0    0  0.33112665891E+03  0.15145695826E+02  0.10121278309E+02  0.33162736284E+03  0.10566000000E+00 0. -1.
         -4    1    4    4    0  503 -0.52051462981E+03  0.23851619288E+03 -0.76512022395E+03  0.95563298980E+03  0.00000000000E+00 0. -1.
<mgrwt>
<rscale>  2 0.10422716E+04</rscale>
<asrwt>0</asrwt>
<pdfrwt beam="1">  1       21 0.15860148E+00 0.10426005E+04</pdfrwt>
<pdfrwt beam="2">  1       21 0.21162622E+00 0.10426005E+04</pdfrwt>
<totfact> 0.12349730E+01</totfact>
</mgrwt>
</event>
<event>
 8    1  0.7208583E-006  0.9917930E+03  0.7818608E-02  0.8790895E-01
         21   -1    0    0  501  502  0.00000000000E+00  0.00000000000E+00  0.16175158205E+04  0.16175158205E+04  0.00000000000E+00 0.  1.
         21   -1    0    0  502  503 -0.00000000000E+00 -0.00000000000E+00 -0.68993581840E+03  0.68993581840E+03  0.00000000000E+00 0.  1.
    9000010    2    1    2  501    0  0.43923922500E+02  0.17160350368E+03  0.91732903210E+03  0.13509795924E+04  0.97584641857E+03 0.  0.
   -9000010    2    1    2    0  503 -0.43923922500E+02 -0.17160350368E+03  0.10250970053E+02  0.95647204649E+03  0.93987053358E+03 0.  0.
        -13    1    3    3    0    0  0.21138280019E+03  0.30539869218E+03  0.10397785746E+04  0.11041243339E+04  0.10566000000E+00 0.  1.
          4    1    3    3  501    0 -0.16745887769E+03 -0.13379518850E+03 -0.12244954252E+03  0.24685525850E+03  0.00000000000E+00 0.  1.
         13    1    4    4    0    0  0.35827349647E+03 -0.66307936570E+02 -0.27137481272E+03  0.45431370314E+03  0.10566000000E+00 0. -1.
         -4    1    4    4    0  503 -0.40219741897E+03 -0.10529556711E+03  0.28162578277E+03  0.50215834335E+03  0.00000000000E+00 0. -1.
<mgrwt>
<rscale>  2 0.98282819E+03</rscale>
<asrwt>0</asrwt>
<pdfrwt beam="1">  1       21 0.24884859E+00 0.99179298E+03</pdfrwt>
<pdfrwt beam="2">  1       21 0.10614397E+00 0.99179298E+03</pdfrwt>
<totfact> 0.21143425E+01</totfact>
</mgrwt>
</event>
<event>
 8    1  0.7208583E-006  0.1149924E+04  0.7818608E-02  0.8647630E-01
         21   -1    0    0  503  502  0.00000000000E+00  0.00000000000E+00  0.13003716369E+04  0.13003716369E+04  0.00000000000E+00 0.  1.
         21   -1    0    0  501  503 -0.00000000000E+00 -0.00000000000E+00 -0.16642781391E+04  0.16642781391E+04  0.00000000000E+00 0.  1.
    9000010    2    1    2  501    0 -0.52559972606E+03  0.99242516328E+02 -0.11145077306E+04  0.16013906799E+04  0.10179491535E+04 0.  0.
   -9000010    2    1    2    0  502  0.52559972606E+03 -0.99242516328E+02  0.75060122836E+03  0.13632590960E+04  0.10044744943E+04 0.  0.
        -13    1    3    3    0    0 -0.21366770073E+02  0.37927099570E+03 -0.40133719604E+02  0.38198658832E+03  0.10566000000E+00 0.  1.
          4    1    3    3  501    0 -0.50423295599E+03 -0.28002847938E+03 -0.10743740110E+04  0.12194040916E+04  0.00000000000E+00 0.  1.
         13    1    4    4    0    0  0.68058270933E+03 -0.10060910006E+03  0.10091407005E+03  0.69534069056E+03  0.10566000000E+00 0. -1.
         -4    1    4    4    0  502 -0.15498298327E+03  0.13665837325E+01  0.64968715832E+03  0.66791840545E+03  0.00000000000E+00 0. -1.
<mgrwt>
<rscale>  2 0.11469344E+04</rscale>
<asrwt>0</asrwt>
<pdfrwt beam="1">  1       21 0.20005718E+00 0.11499237E+04</pdfrwt>
<pdfrwt beam="2">  1       21 0.25604279E+00 0.11499237E+04</pdfrwt>
<totfact> 0.25773150E+00</totfact>
</mgrwt>
</event>
<event>
 8    1  0.7208583E-006  0.1077295E+04  0.7818608E-02  0.8707611E-01
         21   -1    0    0  501  502  0.00000000000E+00  0.00000000000E+00  0.17087488358E+04  0.17087488358E+04  0.00000000000E+00 0. -1.
         21   -1    0    0  502  503 -0.00000000000E+00 -0.00000000000E+00 -0.95680961235E+03  0.95680961235E+03  0.00000000000E+00 0. -1.
    9000010    2    1    2  501    0  0.20534700457E+03 -0.29128787359E+03  0.11043842335E+04  0.15427991642E+04  0.10166359763E+04 0.  0.
   -9000010    2    1    2    0  503 -0.20534700457E+03  0.29128787359E+03 -0.35244501013E+03  0.11227592839E+04  0.10046665650E+04 0.  0.
        -13    1    3    3    0    0 -0.23983520861E+03 -0.93779428594E+02  0.10156054398E+04  0.10477451641E+04  0.10566000000E+00 0.  1.
          4    1    3    3  501    0  0.44518221319E+03 -0.19750844500E+03  0.88778793749E+02  0.49505400009E+03  0.00000000000E+00 0.  1.
         13    1    4    4    0    0 -0.12330336978E+03  0.18976899349E+03  0.34533125936E+03  0.41287974248E+03  0.10566000000E+00 0. -1.
         -4    1    4    4    0  503 -0.82043634791E+02  0.10151888010E+03 -0.69777626949E+03  0.70987954139E+03  0.00000000000E+00 0. -1.
<mgrwt>
<rscale>  2 0.10744619E+04</rscale>
<asrwt>0</asrwt>
<pdfrwt beam="1">  1       21 0.26288444E+00 0.10772951E+04</pdfrwt>
<pdfrwt beam="2">  1       21 0.14720148E+00 0.10772951E+04</pdfrwt>
<totfact> 0.64595856E+00</totfact>
</mgrwt>
</event>
<event>
 8    1  0.7208583E-006  0.1015302E+04  0.7818608E-02  0.8761948E-01
         21   -1    0    0  503  502  0.00000000000E+00  0.00000000000E+00  0.17250872251E+04  0.17250872251E+04  0.00000000000E+00 0.  1.
         21   -1    0    0  501  503 -0.00000000000E+00 -0.00000000000E+00 -0.10529606854E+04  0.10529606854E+04  0.00000000000E+00 0.  1.
    9000010    2    1    2  501    0 -0.20314118068E+03  0.99005982775E+02 -0.58084163077E+03  0.11697074660E+04  0.98983333550E+03 0.  0.
   -9000010    2    1    2    0  502  0.20314118068E+03 -0.99005982775E+02  0.12529681705E+04  0.16083404445E+04  0.98273151220E+03 0.  0.
        -13    1    3    3    0    0  0.40797921017E+02 -0.43932666560E+02 -0.80602923079E+03  0.80825595055E+03  0.10566000000E+00 0.  1.
          4    1    3    3  501    0 -0.24393910170E+03  0.14293864933E+03  0.22518760002E+03  0.36145151544E+03  0.00000000000E+00 0.  1.
         13    1    4    4    0    0  0.28985029030E+03  0.39728153226E+03  0.74680335375E+03  0.89418178633E+03  0.10566000000E+00 0. -1.
         -4    1    4    4    0  502 -0.86709109617E+02 -0.49628751503E+03  0.50616481676E+03  0.71415865814E+03  0.00000000000E+00 0. -1.
<mgrwt>
<rscale>  2 0.10135671E+04</rscale>
<asrwt>0</asrwt>
<pdfrwt beam="1">  1       21 0.26539804E+00 0.10153022E+04</pdfrwt>
<pdfrwt beam="2">  1       21 0.16199395E+00 0.10153022E+04</pdfrwt>
<totfact> 0.46647251E+00</totfact>
</mgrwt>
</event>
<event>
 8    1  0.7208583E-006  0.1150023E+04  0.7818608E-02  0.8652297E-01
         21   -1    0    0  503  502  0.00000000000E+00  0.00000000000E+00  0.11839632392E+04  0.11839632392E+04  0.00000000000E+00 0.  1.
         21   -1    0    0  501  503 -0.00000000000E+00 -0.00000000000E+00 -0.11902656142E+04  0.11902656142E+04  0.00000000000E+00 0.  1.
    9000010    2    1    2  501    0  0.48069803664E+03 -0.28613690922E+03 -0.35943460810E+03  0.11712099317E+04  0.96415482855E+03 0.  0.
   -9000010    2    1    2    0  502 -0.48069803664E+03  0.28613690922E+03  0.35313223307E+03  0.12030189216E+04  0.10047921270E+04 0.  0.
        -13    1    3    3    0    0 -0.23265540393E+03 -0.13556241583E+03 -0.35061831968E+03  0.44208474620E+03  0.10566000000E+00 0.  1.
          4    1    3    3  501    0  0.71335344057E+03 -0.15057449339E+03 -0.88162884227E+01  0.72912518553E+03  0.00000000000E+00 0.  1.
         13    1    4    4    0    0 -0.14722081054E+03  0.11914526184E+03 -0.35517962065E+03  0.40251973189E+03  0.10566000000E+00 0. -1.
         -4    1    4    4    0  502 -0.33347722610E+03  0.16699164738E+03  0.70831185372E+03  0.80049918972E+03  0.00000000000E+00 0. -1.
<mgrwt>
<rscale>  2 0.11410865E+04</rscale>
<asrwt>0</asrwt>
<pdfrwt beam="1">  1       21 0.18214819E+00 0.11500227E+04</pdfrwt>
<pdfrwt beam="2">  1       21 0.18311779E+00 0.11500227E+04</pdfrwt>
<totfact> 0.12818597E+01</totfact>
</mgrwt>
</event>
<event>
 8    1  0.7208583E-006  0.1018022E+04  0.7818608E-02  0.8760377E-01
         21   -1    0    0  501  502  0.00000000000E+00  0.00000000000E+00  0.78022718741E+03  0.78022718741E+03  0.00000000000E+00 0.  1.
         21   -1    0    0  502  503 -0.00000000000E+00 -0.00000000000E+00 -0.18220860120E+04  0.18220860120E+04  0.00000000000E+00 0.  1.
    9000010    2    1    2  501    0 -0.44248561609E+02  0.16798716252E+01  0.16818100289E+03  0.10209957350E+04  0.10060748898E+04 0.  0.
   -9000010    2    1    2    0  503  0.44248561609E+02 -0.16798716252E+01 -0.12100398275E+04  0.15813174645E+04  0.10170583966E+04 0.  0.
        -13    1    3    3    0    0  0.34292545342E+03  0.30162958978E+02  0.43142741659E+03  0.55193957789E+03  0.10566000000E+00 0.  1.
          4    1    3    3  501    0 -0.38717401503E+03 -0.28483087352E+02 -0.26324641370E+03  0.46905615709E+03  0.00000000000E+00 0.  1.
         13    1    4    4    0    0 -0.70738454664E+02  0.46420341856E+03 -0.88461562825E+03  0.10015156333E+04  0.10566000000E+00 0. -1.
         -4    1    4    4    0  503  0.11498701627E+03 -0.46588329019E+03 -0.32542419927E+03  0.57980183120E+03  0.00000000000E+00 0. -1.
<mgrwt>
<rscale>  2 0.10152675E+04</rscale>
<asrwt>0</asrwt>
<pdfrwt beam="1">  1       21 0.12003495E+00 0.10180219E+04</pdfrwt>
<pdfrwt beam="2">  1       21 0.28032092E+00 0.10180219E+04</pdfrwt>
<totfact> 0.89176184E+00</totfact>
</mgrwt>
</event>
<event>
 8    1  0.7208583E-006  0.1039186E+04  0.7818608E-02  0.8739788E-01
         21   -1    0    0  501  502  0.00000000000E+00  0.00000000000E+00  0.13250583373E+04  0.13250583373E+04  0.00000000000E+00 0. -1.
         21   -1    0    0  502  503 -0.00000000000E+00 -0.00000000000E+00 -0.10343890643E+04  0.10343890643E+04  0.00000000000E+00 0. -1.
    9000010    2    1    2  501    0  0.90455159323E+02 -0.30125795848E+03  0.69395577780E+03  0.12495924337E+04  0.99043835514E+03 0.  0.
   -9000010    2    1    2    0  503 -0.90455159323E+02  0.30125795848E+03 -0.40328650481E+03  0.11098549679E+04  0.98498708190E+03 0.  0.
        -13    1    3    3    0    0 -0.43698328214E+03 -0.22463446890E+03  0.43851008582E+03  0.65856369473E+03  0.10566000000E+00 0.  1.
          4    1    3    3  501    0  0.52743844147E+03 -0.76623489574E+02  0.25544569198E+03  0.59102873893E+03  0.00000000000E+00 0.  1.
         13    1    4    4    0    0 -0.12376838164E+02 -0.22069534581E+03  0.20712960420E+03  0.30292293721E+03  0.10566000000E+00 0. -1.
         -4    1    4    4    0  503 -0.78078321159E+02  0.52195330429E+03 -0.61041610901E+03  0.80693203074E+03  0.00000000000E+00 0. -1.
<mgrwt>
<rscale>  2 0.10378846E+04</rscale>
<asrwt>0</asrwt>
<pdfrwt beam="1">  1       21 0.20385513E+00 0.10391856E+04</pdfrwt>
<pdfrwt beam="2">  1       21 0.15913678E+00 0.10391856E+04</pdfrwt>
<totfact> 0.14032932E+01</totfact>
</mgrwt>
</event>
<event>
 8    1  0.7208583E-006  0.1018130E+04  0.7818608E-02  0.8763406E-01
         21   -1    0    0  503  502  0.00000000000E+00  0.00000000000E+00  0.11118932944E+04  0.11118932944E+04  0.00000000000E+00 0.  1.
         21   -1    0    0  501  503 -0.00000000000E+00 -0.00000000000E+00 -0.91023581734E+03  0.91023581734E+03  0.00000000000E+00 0.  1.
    9000010    2    1    2  501    0  0.47529072285E+01 -0.49494823525E+02  0.11072078982E+03  0.99994593388E+03  0.99255249216E+03 0.  0.
   -9000010    2    1    2    0  502 -0.47529072285E+01  0.49494823525E+02  0.90936687229E+02  0.10221831779E+04  0.10169152572E+04 0.  0.
        -13    1    3    3    0    0  0.41469222816E+03 -0.10427240370E+03 -0.21018462262E+03  0.47646612159E+03  0.10566000000E+00 0.  1.
          4    1    3    3  501    0 -0.40993932093E+03  0.54777580180E+02  0.32090541244E+03  0.52347981229E+03  0.00000000000E+00 0.  1.
         13    1    4    4    0    0 -0.41824508371E+03  0.31597624176E+03  0.79086702830E+02  0.53011758426E+03  0.10566000000E+00 0. -1.
         -4    1    4    4    0  502  0.41349217648E+03 -0.26648141824E+03  0.11849984399E+02  0.49206559361E+03  0.00000000000E+00 0. -1.
<mgrwt>
<rscale>  2 0.10119916E+04</rscale>
<asrwt>0</asrwt>
<pdfrwt beam="1">  1       21 0.17106051E+00 0.10181301E+04</pdfrwt>
<pdfrwt beam="2">  1       21 0.14003628E+00 0.10181301E+04</pdfrwt>
<totfact> 0.38295759E+01</totfact>
</mgrwt>
</event>
<event>
 8    1  0.7208583E-006  0.1269970E+04  0.7818608E-02  0.8603240E-01
         21   -1    0    0  503  502  0.00000000000E+00  0.00000000000E+00  0.81745754847E+03  0.81745754847E+03  0.00000000000E+00 0.  1.
         21   -1    0    0  501  503 -0.00000000000E+00 -0.00000000000E+00 -0.18080515472E+04  0.18080515472E+04  0.00000000000E+00 0.  1.
    9000010    2    1    2  501    0 -0.67574979185E+03 -0.31188630590E+03 -0.96979430382E+03  0.15979126131E+04  0.10290349257E+04 0.  0.
   -9000010    2    1    2    0  502  0.67574979185E+03  0.31188630590E+03 -0.20799694949E+02  0.10275964827E+04  0.70824505283E+03 0.  0.
        -13    1    3    3    0    0  0.15354958179E+03  0.56614990241E+02  0.10253924200E+03  0.19312441198E+03  0.10566000000E+00 0.  1.
          4    1    3    3  501    0 -0.82929937364E+03 -0.36850129614E+03 -0.10723335458E+04  0.14047882011E+04  0.00000000000E+00 0.  1.
         13    1    4    4    0    0  0.38187288029E+03  0.51233418541E+03 -0.13672028634E+03  0.65345670254E+03  0.10566000000E+00 0. -1.
         -4    1    4    4    0  502  0.29387691156E+03 -0.20044787952E+03  0.11592059139E+03  0.37413978011E+03  0.00000000000E+00 0. -1.
<mgrwt>
<rscale>  2 0.12044215E+04</rscale>
<asrwt>0</asrwt>
<pdfrwt beam="1">  1       21 0.12576270E+00 0.12699700E+04</pdfrwt>
<pdfrwt beam="2">  1       21 0.27816177E+00 0.12699700E+04</pdfrwt>
<totfact> 0.76692902E+00</totfact>
</mgrwt>
</event>
<event>
 8    1  0.7208583E-006  0.1010481E+04  0.7818608E-02  0.8768308E-01
         21   -1    0    0  501  502  0.00000000000E+00  0.00000000000E+00  0.24851409024E+04  0.24851409024E+04  0.00000000000E+00 0.  1.
         21   -1    0    0  502  503 -0.00000000000E+00 -0.00000000000E+00 -0.42667757245E+03  0.42667757245E+03  0.00000000000E+00 0.  1.
    9000010    2    1    2  501    0  0.15642698780E+03  0.10572037459E+03  0.13661736135E+04  0.16992649447E+04  0.99268565522E+03 0.  0.
   -9000010    2    1    2    0  503 -0.15642698780E+03 -0.10572037459E+03  0.69228971645E+03  0.12125535301E+04  0.97743276585E+03 0.  0.
        -13    1    3    3    0    0 -0.87414585515E+02  0.30444663962E+03  0.13474117153E+04  0.13841413974E+04  0.10566000000E+00 0.  1.
          4    1    3    3  501    0  0.24384157331E+03 -0.19872626503E+03  0.18761898180E+02  0.31512354738E+03  0.00000000000E+00 0.  1.
         13    1    4    4    0    0  0.27396461775E+03 -0.36587551662E+03  0.49109622158E+03  0.67089270041E+03  0.10566000000E+00 0. -1.
         -4    1    4    4    0  503 -0.43039160555E+03  0.26015514204E+03  0.20119349487E+03  0.54166082970E+03  0.00000000000E+00 0. -1.
<mgrwt>
<rscale>  2 0.10067145E+04</rscale>
<asrwt>0</asrwt>
<pdfrwt beam="1">  1       21 0.38232936E+00 0.10104806E+04</pdfrwt>
<pdfrwt beam="2">  1       21 0.65642705E-01 0.10104806E+04</pdfrwt>
<totfact> 0.79220213E+00</totfact>
</mgrwt>
</event>
<event>
 8    1  0.7208583E-006  0.1413874E+04  0.7818608E-02  0.8479238E-01
         21   -1    0    0  501  502  0.00000000000E+00  0.00000000000E+00  0.99322177105E+03  0.99322177105E+03  0.00000000000E+00 0.  1.
         21   -1    0    0  502  503 -0.00000000000E+00 -0.00000000000E+00 -0.20133578852E+04  0.20133578852E+04  0.00000000000E+00 0. -1.
    9000010    2    1    2  501    0 -0.81796900913E+03  0.97385688086E+02 -0.95261200052E+03  0.17048488894E+04  0.11491226393E+04 0.  0.
   -9000010    2    1    2    0  503  0.81796900913E+03 -0.97385688086E+02 -0.67524113649E+02  0.13017307668E+04  0.10056769915E+04 0.  0.
        -13    1    3    3    0    0 -0.10140892985E+04  0.25952862810E+03 -0.44581434274E+03  0.11377533359E+04  0.10566000000E+00 0.  1.
          4    1    3    3  501    0  0.19612028933E+03 -0.16214294001E+03 -0.50679765778E+03  0.56709555351E+03  0.00000000000E+00 0.  1.
         13    1    4    4    0    0  0.60855103867E+03 -0.40886196591E+03 -0.36857689296E+03  0.82057992361E+03  0.10566000000E+00 0. -1.
         -4    1    4    4    0  503  0.20941797046E+03  0.31147627782E+03  0.30105277931E+03  0.48115084322E+03  0.00000000000E+00 0. -1.
<mgrwt>
<rscale>  2 0.13844972E+04</rscale>
<asrwt>0</asrwt>
<pdfrwt beam="1">  1       21 0.15280335E+00 0.14138742E+04</pdfrwt>
<pdfrwt beam="2">  1       21 0.30974736E+00 0.14138742E+04</pdfrwt>
<totfact> 0.24893624E+00</totfact>
</mgrwt>
</event>
<event>
 8    1  0.7208583E-006  0.1070645E+04  0.7818608E-02  0.8721689E-01
         21   -1    0    0  501  502  0.00000000000E+00  0.00000000000E+00  0.84459709023E+03  0.84459709023E+03  0.00000000000E+00 0.  1.
         21   -1    0    0  502  503 -0.00000000000E+00 -0.00000000000E+00 -0.14361014301E+04  0.14361014301E+04  0.00000000000E+00 0.  1.
    9000010    2    1    2  501    0 -0.30366350505E+03 -0.65267496266E+02  0.66266244719E+02  0.10241389372E+04  0.97365187673E+03 0.  0.
   -9000010    2    1    2    0  503  0.30366350505E+03  0.65267496266E+02 -0.65777058464E+03  0.12565595832E+04  0.10246016171E+04 0.  0.
        -13    1    3    3    0    0 -0.12079425257E+03 -0.52089050875E+02  0.51914666512E+03  0.53555372443E+03  0.10566000000E+00 0.  1.
          4    1    3    3  501    0 -0.18286925248E+03 -0.13178445391E+02 -0.45288042040E+03  0.48858521274E+03  0.00000000000E+00 0.  1.
         13    1    4    4    0    0 -0.30459070187E+03  0.14526570186E+03  0.25333339172E+02  0.33840716458E+03  0.10566000000E+00 0. -1.
         -4    1    4    4    0  503  0.60825420691E+03 -0.79998205599E+02 -0.68310392381E+03  0.91815241864E+03  0.00000000000E+00 0. -1.
<mgrwt>
<rscale>  2 0.10582687E+04</rscale>
<asrwt>0</asrwt>
<pdfrwt beam="1">  1       21 0.12993801E+00 0.10706446E+04</pdfrwt>
<pdfrwt beam="2">  1       21 0.22093868E+00 0.10706446E+04</pdfrwt>
<totfact> 0.19046205E+01</totfact>
</mgrwt>
</event>
<event>
 8    1  0.7208583E-006  0.1056862E+04  0.7818608E-02  0.8723345E-01
         21   -1    0    0  503  502  0.00000000000E+00  0.00000000000E+00  0.12063520659E+04  0.12063520659E+04  0.00000000000E+00 0.  1.
         21   -1    0    0  501  503 -0.00000000000E+00 -0.00000000000E+00 -0.98120497864E+03  0.98120497864E+03  0.00000000000E+00 0.  1.
    9000010    2    1    2  501    0  0.60108140031E+02  0.36341992342E+03 -0.15091421843E+03  0.10675822505E+04  0.99059059712E+03 0.  0.
   -9000010    2    1    2    0  502 -0.60108140031E+02 -0.36341992342E+03  0.37606130566E+03  0.11199747940E+04  0.98855167000E+03 0.  0.
        -13    1    3    3    0    0  0.49272620094E+03  0.33344117445E+03  0.34510842865E+02  0.59594725887E+03  0.10566000000E+00 0.  1.
          4    1    3    3  501    0 -0.43261806091E+03  0.29978748971E+02 -0.18542506129E+03  0.47163499167E+03  0.00000000000E+00 0.  1.
         13    1    4    4    0    0  0.26070698946E+03  0.25032672960E+03  0.10611023147E+03  0.37668421561E+03  0.10566000000E+00 0. -1.
         -4    1    4    4    0  502 -0.32081512949E+03 -0.61374665302E+03  0.26995107419E+03  0.74329057835E+03  0.00000000000E+00 0. -1.
<mgrwt>
<rscale>  2 0.10563837E+04</rscale>
<asrwt>0</asrwt>
<pdfrwt beam="1">  1       21 0.18559263E+00 0.10568618E+04</pdfrwt>
<pdfrwt beam="2">  1       21 0.15095461E+00 0.10568618E+04</pdfrwt>
<totfact> 0.22975125E+01</totfact>
</mgrwt>
</event>
<event>
 8    1  0.7208583E-006  0.1021764E+04  0.7818608E-02  0.8757568E-01
         21   -1    0    0  503  502  0.00000000000E+00  0.00000000000E+00  0.19498539796E+04  0.19498539796E+04  0.00000000000E+00 0.  1.
         21   -1    0    0  501  503 -0.00000000000E+00 -0.00000000000E+00 -0.75335034582E+03  0.75335034582E+03  0.00000000000E+00 0.  1.
    9000010    2    1    2  501    0 -0.83550964974E+02 -0.17905678092E+03 -0.14336587494E+03  0.10181965417E+04  0.98849801662E+03 0.  0.
   -9000010    2    1    2    0  502  0.83550964974E+02  0.17905678092E+03  0.13398695087E+04  0.16850077838E+04  0.10024763520E+04 0.  0.
        -13    1    3    3    0    0 -0.46962512946E+03 -0.32519599556E+03  0.26417749605E+02  0.57183748252E+03  0.10566000000E+00 0.  1.
          4    1    3    3  501    0  0.38607416449E+03  0.14613921464E+03 -0.16978362455E+03  0.44635905917E+03  0.00000000000E+00 0.  1.
         13    1    4    4    0    0 -0.13903952086E+03 -0.23837470929E+03  0.11374553873E+04  0.11704525875E+04  0.10566000000E+00 0. -1.
         -4    1    4    4    0  502  0.22259048584E+03  0.41743149021E+03  0.20241412143E+03  0.51455519622E+03  0.00000000000E+00 0. -1.
<mgrwt>
<rscale>  2 0.10183185E+04</rscale>
<asrwt>0</asrwt>
<pdfrwt beam="1">  1       21 0.29997753E+00 0.10217636E+04</pdfrwt>
<pdfrwt beam="2">  1       21 0.11590005E+00 0.10217636E+04</pdfrwt>
<totfact> 0.71233008E+00</totfact>
</mgrwt>
</event>
<event>
 8    1  0.7208583E-006  0.1043237E+04  0.7818608E-02  0.8738634E-01
         21   -1    0    0  503  502  0.00000000000E+00  0.00000000000E+00  0.11605450229E+04  0.11605450229E+04  0.00000000000E+00 0. -1.
         21   -1    0    0  501  503 -0.00000000000E+00 -0.00000000000E+00 -0.11444706694E+04  0.11444706694E+04  0.00000000000E+00 0. -1.
    9000010    2    1    2  501    0 -0.82008623235E+02 -0.27390510465E+03 -0.49853924080E+03  0.11562369154E+04  0.10032910890E+04 0.  0.
   -9000010    2    1    2    0  502  0.82008623235E+02  0.27390510465E+03  0.51461359435E+03  0.11487787769E+04  0.98646647495E+03 0.  0.
        -13    1    3    3    0    0 -0.42555534411E+03 -0.14988977424E+03 -0.62401617584E+03  0.77003928094E+03  0.10566000000E+00 0.  1.
          4    1    3    3  501    0  0.34354672088E+03 -0.12401533041E+03  0.12547693504E+03  0.38619763441E+03  0.00000000000E+00 0.  1.
         13    1    4    4    0    0 -0.37262625779E+03 -0.13707276096E+03  0.30639469406E+03  0.50151469520E+03  0.10566000000E+00 0. -1.
         -4    1    4    4    0  502  0.45463488102E+03  0.41097786561E+03  0.20821890028E+03  0.64726408173E+03  0.00000000000E+00 0. -1.
<mgrwt>
<rscale>  2 0.10391703E+04</rscale>
<asrwt>0</asrwt>
<pdfrwt beam="1">  1       21 0.17854539E+00 0.10432365E+04</pdfrwt>
<pdfrwt beam="2">  1       21 0.17607241E+00 0.10432365E+04</pdfrwt>
<totfact> 0.16036602E+01</totfact>
</mgrwt>
</event>
<event>
 8    1  0.7208583E-006  0.1070067E+04  0.7818608E-02  0.8713564E-01
         21   -1    0    0  501  502  0.00000000000E+00  0.00000000000E+00  0.11786647914E+04  0.11786647914E+04  0.00000000000E+00 0.  1.
         21   -1    0    0  502  503 -0.00000000000E+00 -0.00000000000E+00 -0.99878609783E+03  0.99878609783E+03  0.00000000000E+00 0.  1.
    9000010    2    1    2  501    0  0.33613648978E+03  0.13980657726E+03 -0.11801990043E+03  0.10666909996E+04  0.99567433078E+03 0.  0.
   -9000010    2    1    2    0  503 -0.33613648978E+03 -0.13980657726E+03  0.29789859398E+03  0.11107598896E+04  0.10062357284E+04 0.  0.
        -13    1    3    3    0    0  0.53526482816E+03  0.35611664066E+01  0.27784570943E+03  0.60309150847E+03  0.10566000000E+00 0.  1.
          4    1    3    3  501    0 -0.19912833838E+03  0.13624541085E+03 -0.39586560987E+03  0.46359949116E+03  0.00000000000E+00 0.  1.
         13    1    4    4    0    0 -0.42381814805E+03 -0.47956822920E+03 -0.15635355034E+02  0.64019683268E+03  0.10566000000E+00 0. -1.
         -4    1    4    4    0  503  0.87681658274E+02  0.33976165194E+03  0.31353394902E+03  0.47056305690E+03  0.00000000000E+00 0. -1.
<mgrwt>
<rscale>  2 0.10675773E+04</rscale>
<asrwt>0</asrwt>
<pdfrwt beam="1">  1       21 0.18133304E+00 0.10700673E+04</pdfrwt>
<pdfrwt beam="2">  1       21 0.15365940E+00 0.10700673E+04</pdfrwt>
<totfact> 0.23473068E+01</totfact>
</mgrwt>
</event>
<event>
 8    1  0.7208583E-006  0.1010575E+04  0.7818608E-02  0.8820805E-01
         21   -1    0    0  501  502  0.00000000000E+00  0.00000000000E+00  0.82066336052E+03  0.82066336052E+03  0.00000000000E+00 0.  1.
         21   -1    0    0  502  503 -0.00000000000E+00 -0.00000000000E+00 -0.10638784198E+04  0.10638784198E+04  0.00000000000E+00 0.  1.
    9000010    2    1    2  501    0 -0.17626424454E+03 -0.61631489340E+02  0.10314817701E+03  0.10158249767E+04  0.99317335474E+03 0.  0.
   -9000010    2    1    2    0  503  0.17626424454E+03  0.61631489340E+02 -0.34636323630E+03  0.86871680359E+03  0.77448942472E+03 0.  0.
        -13    1    3    3    0    0  0.16392807073E+03 -0.18510901422E+03  0.45069237275E+03  0.51406360067E+03  0.10566000000E+00 0.  1.
          4    1    3    3  501    0 -0.34019231527E+03  0.12347752488E+03 -0.34754419574E+03  0.50176137606E+03  0.00000000000E+00 0.  1.
         13    1    4    4    0    0  0.24531753368E+03  0.16558325408E+03  0.16738797471E+03  0.34002536906E+03  0.10566000000E+00 0. -1.
         -4    1    4    4    0  503 -0.69053289136E+02 -0.10395176474E+03 -0.51375121101E+03  0.52869143453E+03  0.00000000000E+00 0. -1.
<mgrwt>
<rscale>  2 0.95224223E+03</rscale>
<asrwt>0</asrwt>
<pdfrwt beam="1">  1       21 0.12625590E+00 0.10105745E+04</pdfrwt>
<pdfrwt beam="2">  1       21 0.16367360E+00 0.10105745E+04</pdfrwt>
<totfact> 0.59889443E+01</totfact>
</mgrwt>
</event>
<event>
 8    1  0.7208583E-006  0.1104138E+04  0.7818608E-02  0.8699615E-01
         21   -1    0    0  503  502  0.00000000000E+00  0.00000000000E+00  0.12142189689E+04  0.12142189689E+04  0.00000000000E+00 0.  1.
         21   -1    0    0  501  503 -0.00000000000E+00 -0.00000000000E+00 -0.96874883040E+03  0.96874883040E+03  0.00000000000E+00 0.  1.
    9000010    2    1    2  501    0  0.26114934945E+03  0.79436771861E+02 -0.81383178877E+02  0.11071335059E+04  0.10698655031E+04 0.  0.
   -9000010    2    1    2    0  502 -0.26114934945E+03 -0.79436771861E+02  0.32685331737E+03  0.10758342934E+04  0.98796616958E+03 0.  0.
        -13    1    3    3    0    0  0.12604075302E+03  0.15640985174E+03  0.48226652722E+03  0.52242829899E+03  0.10566000000E+00 0.  1.
          4    1    3    3  501    0  0.13510859643E+03 -0.76973079878E+02 -0.56364970610E+03  0.58470520696E+03  0.00000000000E+00 0.  1.
         13    1    4    4    0    0  0.16414966442E+03  0.29441708642E+03 -0.11651385001E+03  0.35665392401E+03  0.10566000000E+00 0. -1.
         -4    1    4    4    0  502 -0.42529901386E+03 -0.37385385828E+03  0.44336716738E+03  0.71918036934E+03  0.00000000000E+00 0. -1.
<mgrwt>
<rscale>  2 0.10837936E+04</rscale>
<asrwt>0</asrwt>
<pdfrwt beam="1">  1       21 0.18680292E+00 0.11041383E+04</pdfrwt>
<pdfrwt beam="2">  1       21 0.14903828E+00 0.11041383E+04</pdfrwt>
<totfact> 0.23129407E+01</totfact>
</mgrwt>
</event>
<event>
 8    1  0.7208583E-006  0.1084639E+04  0.7818608E-02  0.8699787E-01
         21   -1    0    0  503  502  0.00000000000E+00  0.00000000000E+00  0.13760776902E+04  0.13760776902E+04  0.00000000000E+00 0. -1.
         21   -1    0    0  501  503 -0.00000000000E+00 -0.00000000000E+00 -0.14284831810E+04  0.14284831810E+04  0.00000000000E+00 0. -1.
    9000010    2    1    2  501    0 -0.43838176905E+03  0.10558716213E+03 -0.91727813179E+03  0.14173164171E+04  0.98186528137E+03 0.  0.
   -9000010    2    1    2    0  502  0.43838176905E+03 -0.10558716213E+03  0.86487264094E+03  0.13872444542E+04  0.98646604926E+03 0.  0.
        -13    1    3    3    0    0  0.33707976918E+02 -0.17353742440E+02 -0.92857672761E+03  0.92935038081E+03  0.10566000000E+00 0.  1.
          4    1    3    3  501    0 -0.47208974597E+03  0.12294090457E+03  0.11298595817E+02  0.48796603625E+03  0.00000000000E+00 0.  1.
         13    1    4    4    0    0 -0.21788529068E+03 -0.32213447204E+03  0.25075489871E+03  0.46273388504E+03  0.10566000000E+00 0. -1.
         -4    1    4    4    0  502  0.65626705973E+03  0.21654730991E+03  0.61411774223E+03  0.92451056913E+03  0.00000000000E+00 0. -1.
<mgrwt>
<rscale>  2 0.10835922E+04</rscale>
<asrwt>0</asrwt>
<pdfrwt beam="1">  1       21 0.21170426E+00 0.10846393E+04</pdfrwt>
<pdfrwt beam="2">  1       21 0.21976664E+00 0.10846393E+04</pdfrwt>
<totfact> 0.39413260E+00</totfact>
</mgrwt>
</event>
<event>
 8    1  0.7208583E-006  0.1041567E+04  0.7818608E-02  0.8747581E-01
         21   -1    0    0  503  502  0.00000000000E+00  0.00000000000E+00  0.61945231673E+03  0.61945231673E+03  0.00000000000E+00 0.  1.
         21   -1    0    0  501  503 -0.00000000000E+00 -0.00000000000E+00 -0.21046013550E+04  0.21046013550E+04  0.00000000000E+00 0.  1.
    9000010    2    1    2  501    0 -0.80005341358E+01  0.12338020449E+03 -0.13467068030E+04  0.16733264147E+04  0.98545187274E+03 0.  0.
   -9000010    2    1    2    0  502  0.80005341358E+01 -0.12338020449E+03 -0.13844223531E+03  0.10507272571E+04  0.10342025105E+04 0.  0.
        -13    1    3    3    0    0  0.10043034152E+02 -0.24143602227E+03  0.34989988856E+02  0.24416495626E+03  0.10566000000E+00 0.  1.
          4    1    3    3  501    0 -0.18043568288E+02  0.36481622676E+03 -0.13816967918E+04  0.14291614584E+04  0.00000000000E+00 0.  1.
         13    1    4    4    0    0 -0.45982673075E+03  0.12162761859E+03 -0.20597774490E+03  0.51832493908E+03  0.10566000000E+00 0. -1.
         -4    1    4    4    0  502  0.46782726488E+03 -0.24500782308E+03  0.67535509595E+02  0.53240231799E+03  0.00000000000E+00 0. -1.
<mgrwt>
<rscale>  2 0.10292529E+04</rscale>
<asrwt>0</asrwt>
<pdfrwt beam="1">  1       21 0.95300357E-01 0.10415669E+04</pdfrwt>
<pdfrwt beam="2">  1       21 0.32378482E+00 0.10415669E+04</pdfrwt>
<totfact> 0.81167175E+00</totfact>
</mgrwt>
</event>
<event>
 8    1  0.7208583E-006  0.1028204E+04  0.7818608E-02  0.8748886E-01
         21   -1    0    0  503  502  0.00000000000E+00  0.00000000000E+00  0.18298229197E+04  0.18298229197E+04  0.00000000000E+00 0.  1.
         21   -1    0    0  501  503 -0.00000000000E+00 -0.00000000000E+00 -0.80136752433E+03  0.80136752433E+03  0.00000000000E+00 0.  1.
    9000010    2    1    2  501    0  0.12007710115E+03 -0.20102313710E+03 -0.18178298142E+03  0.10441495008E+04  0.10011864541E+04 0.  0.
   -9000010    2    1    2    0  502 -0.12007710115E+03  0.20102313710E+03  0.12102383768E+04  0.15870409432E+04  0.99959652611E+03 0.  0.
        -13    1    3    3    0    0 -0.13386075422E+02  0.91757718638E+02  0.38304021592E+03  0.39410466138E+03  0.10566000000E+00 0.  1.
          4    1    3    3  501    0  0.13346317657E+03 -0.29278085574E+03 -0.56482319734E+03  0.65004483941E+03  0.00000000000E+00 0.  1.
         13    1    4    4    0    0  0.89801408522E+02 -0.18741479890E+03 -0.80510402176E+02  0.22286887589E+03  0.10566000000E+00 0. -1.
         -4    1    4    4    0  502 -0.20987850967E+03  0.38843793601E+03  0.12907487789E+04  0.13641720673E+04  0.00000000000E+00 0. -1.
<mgrwt>
<rscale>  2 0.10278166E+04</rscale>
<asrwt>0</asrwt>
<pdfrwt beam="1">  1       21 0.28151122E+00 0.10282038E+04</pdfrwt>
<pdfrwt beam="2">  1       21 0.12328731E+00 0.10282038E+04</pdfrwt>
<totfact> 0.80921167E+00</totfact>
</mgrwt>
</event>
<event>
 8    1  0.7208583E-006  0.1083204E+04  0.7818608E-02  0.8723367E-01
         21   -1    0    0  503  502  0.00000000000E+00  0.00000000000E+00  0.14802381048E+04  0.14802381048E+04  0.00000000000E+00 0. -1.
         21   -1    0    0  501  503 -0.00000000000E+00 -0.00000000000E+00 -0.89381956220E+03  0.89381956220E+03  0.00000000000E+00 0. -1.
    9000010    2    1    2  501    0 -0.73241198793E+02 -0.33950052226E+03 -0.21975579612E+03  0.11052708849E+04  0.10260147374E+04 0.  0.
   -9000010    2    1    2    0  502  0.73241198793E+02  0.33950052226E+03  0.80617433874E+03  0.12687867821E+04  0.91612114712E+03 0.  0.
        -13    1    3    3    0    0 -0.39339318750E+03 -0.16864369886E+03  0.26222046572E+03  0.50195466025E+03  0.10566000000E+00 0.  1.
          4    1    3    3  501    0  0.32015198870E+03 -0.17085682340E+03 -0.48197626184E+03  0.60331622467E+03  0.00000000000E+00 0.  1.
         13    1    4    4    0    0  0.21616860215E+03 -0.27071841154E+03  0.35885861342E+03  0.49879538740E+03  0.10566000000E+00 0. -1.
         -4    1    4    4    0  502 -0.14292740336E+03  0.61021893380E+03  0.44731572532E+03  0.76999139471E+03  0.00000000000E+00 0. -1.
<mgrwt>
<rscale>  2 0.10563580E+04</rscale>
<asrwt>0</asrwt>
<pdfrwt beam="1">  1       21 0.22772894E+00 0.10832041E+04</pdfrwt>
<pdfrwt beam="2">  1       21 0.13751070E+00 0.10832041E+04</pdfrwt>
<totfact> 0.14313040E+01</totfact>
</mgrwt>
</event>
<event>
 8    1  0.7208583E-006  0.1035630E+04  0.7818608E-02  0.8742915E-01
         21   -1    0    0  501  502  0.00000000000E+00  0.00000000000E+00  0.84707666355E+03  0.84707666355E+03  0.00000000000E+00 0. -1.
         21   -1    0    0  502  503 -0.00000000000E+00 -0.00000000000E+00 -0.14524077629E+04  0.14524077629E+04  0.00000000000E+00 0. -1.
    9000010    2    1    2  501    0 -0.25884097122E+03  0.16638906122E+03 -0.72029392358E+03  0.12574927878E+04  0.98375851044E+03 0.  0.
   -9000010    2    1    2    0  503  0.25884097122E+03 -0.16638906122E+03  0.11496282419E+03  0.10419916387E+04  0.98886103986E+03 0.  0.
        -13    1    3    3    0    0  0.35781441543E+03  0.15073378447E+03 -0.41815360291E+03  0.57061745195E+03  0.10566000000E+00 0.  1.
          4    1    3    3  501    0 -0.61665538666E+03  0.15655276745E+02 -0.30214032067E+03  0.68687533582E+03  0.00000000000E+00 0.  1.
         13    1    4    4    0    0  0.64032860413E+03 -0.11744809352E+03  0.70614723489E+02  0.65482915808E+03  0.10566000000E+00 0. -1.
         -4    1    4    4    0  503 -0.38148763291E+03 -0.48940967700E+02  0.44348100705E+02  0.38716248064E+03  0.00000000000E+00 0. -1.
<mgrwt>
<rscale>  2 0.10344104E+04</rscale>
<asrwt>0</asrwt>
<pdfrwt beam="1">  1       21 0.13031949E+00 0.10356303E+04</pdfrwt>
<pdfrwt beam="2">  1       21 0.22344735E+00 0.10356303E+04</pdfrwt>
<totfact> 0.18226291E+01</totfact>
</mgrwt>
</event>
<event>
 8    1  0.7208583E-006  0.1016380E+04  0.7818608E-02  0.8766275E-01
         21   -1    0    0  503  502  0.00000000000E+00  0.00000000000E+00  0.88336865473E+03  0.88336865473E+03  0.00000000000E+00 0. -1.
         21   -1    0    0  501  503 -0.00000000000E+00 -0.00000000000E+00 -0.12346102183E+04  0.12346102183E+04  0.00000000000E+00 0. -1.
    9000010    2    1    2  501    0 -0.18931303314E+03  0.10756487624E+02 -0.47784929824E+03  0.11231066153E+04  0.99853562323E+03 0.  0.
   -9000010    2    1    2    0  502  0.18931303314E+03 -0.10756487624E+02  0.12660773467E+03  0.99487225777E+03  0.96839359986E+03 0.  0.
        -13    1    3    3    0    0 -0.43679303057E+03 -0.18109881903E+03  0.83654254039E+02  0.48019056550E+03  0.10566000000E+00 0.  1.
          4    1    3    3  501    0  0.24747999742E+03  0.19185530666E+03 -0.56150355228E+03  0.64291604976E+03  0.00000000000E+00 0.  1.
         13    1    4    4    0    0 -0.21912827352E+02 -0.45912500909E+02 -0.41206802976E+03  0.41519658242E+03  0.10566000000E+00 0. -1.
         -4    1    4    4    0  502  0.21122586050E+03  0.35156013285E+02  0.53867576442E+03  0.57967567535E+03  0.00000000000E+00 0. -1.
<mgrwt>
<rscale>  2 0.10088987E+04</rscale>
<asrwt>0</asrwt>
<pdfrwt beam="1">  1       21 0.13590287E+00 0.10163801E+04</pdfrwt>
<pdfrwt beam="2">  1       21 0.18994003E+00 0.10163801E+04</pdfrwt>
<totfact> 0.29372205E+01</totfact>
</mgrwt>
</event>
<event>
 8    1  0.7208583E-006  0.1015032E+04  0.7818608E-02  0.8762711E-01
         21   -1    0    0  501  502  0.00000000000E+00  0.00000000000E+00  0.90524816171E+03  0.90524816171E+03  0.00000000000E+00 0. -1.
         21   -1    0    0  502  503 -0.00000000000E+00 -0.00000000000E+00 -0.11914061167E+04  0.11914061167E+04  0.00000000000E+00 0. -1.
    9000010    2    1    2  501    0 -0.44839375761E+02  0.17104973607E+02  0.99538327008E+02  0.10108124169E+04  0.10047540564E+04 0.  0.
   -9000010    2    1    2    0  503  0.44839375761E+02 -0.17104973607E+02 -0.38569628203E+03  0.10858418615E+04  0.10138973205E+04 0.  0.
        -13    1    3    3    0    0 -0.42220317533E+03 -0.16120628118E+03  0.30538695836E+03  0.54543944838E+03  0.10566000000E+00 0.  1.
          4    1    3    3  501    0  0.37736379957E+03  0.17831125479E+03 -0.20584863136E+03  0.46537296853E+03  0.00000000000E+00 0.  1.
         13    1    4    4    0    0  0.42050138882E+03 -0.71825226208E+01 -0.53583235065E+03  0.68116761946E+03  0.10566000000E+00 0. -1.
         -4    1    4    4    0  503 -0.37566201306E+03 -0.99224509860E+01  0.15013606862E+03  0.40467424206E+03  0.00000000000E+00 0. -1.
<mgrwt>
<rscale>  2 0.10127415E+04</rscale>
<asrwt>0</asrwt>
<pdfrwt beam="1">  1       21 0.13926895E+00 0.10150325E+04</pdfrwt>
<pdfrwt beam="2">  1       21 0.18329325E+00 0.10150325E+04</pdfrwt>
<totfact> 0.30903173E+01</totfact>
</mgrwt>
</event>
<event>
 8    1  0.7208583E-006  0.1037030E+04  0.7818608E-02  0.8747581E-01
         21   -1    0    0  503  502  0.00000000000E+00  0.00000000000E+00  0.25831710334E+03  0.25831710334E+03  0.00000000000E+00 0. -1.
         21   -1    0    0  501  503 -0.00000000000E+00 -0.00000000000E+00 -0.40654533055E+04  0.40654533055E+04  0.00000000000E+00 0. -1.
    9000010    2    1    2  501    0  0.21526943295E+03  0.82121522683E+01 -0.20439078679E+04  0.22781884602E+04  0.98294197151E+03 0.  0.
   -9000010    2    1    2    0  502 -0.21526943295E+03 -0.82121522683E+01 -0.17632283343E+04  0.20455819487E+04  0.10144077000E+04 0.  0.
        -13    1    3    3    0    0 -0.11312715786E+03 -0.25537954198E+03 -0.11202193911E+03  0.30094084188E+03  0.10566000000E+00 0.  1.
          4    1    3    3  501    0  0.32839659080E+03  0.26359169425E+03 -0.19318859288E+04  0.19772476183E+04  0.00000000000E+00 0.  1.
         13    1    4    4    0    0 -0.50248909290E+03 -0.30661938639E+03 -0.12818446426E+04  0.14105447300E+04  0.10566000000E+00 0. -1.
         -4    1    4    4    0  502  0.28721965995E+03  0.29840723412E+03 -0.48138369169E+03  0.63503721864E+03  0.00000000000E+00 0. -1.
<mgrwt>
<rscale>  2 0.10292535E+04</rscale>
<asrwt>0</asrwt>
<pdfrwt beam="1">  1       21 0.39741095E-01 0.10370301E+04</pdfrwt>
<pdfrwt beam="2">  1       21 0.62545433E+00 0.10370301E+04</pdfrwt>
<totfact> 0.43368333E-01</totfact>
</mgrwt>
</event>
<event>
 8    1  0.7208583E-006  0.1057373E+04  0.7818608E-02  0.8728720E-01
         21   -1    0    0  501  502  0.00000000000E+00  0.00000000000E+00  0.13954233028E+04  0.13954233028E+04  0.00000000000E+00 0.  1.
         21   -1    0    0  502  503 -0.00000000000E+00 -0.00000000000E+00 -0.10637321098E+04  0.10637321098E+04  0.00000000000E+00 0.  1.
    9000010    2    1    2  501    0 -0.30682088901E+03 -0.99276777957E+02  0.80234116748E+03  0.13273242230E+04  0.10069971735E+04 0.  0.
   -9000010    2    1    2    0  503  0.30682088901E+03  0.99276777957E+02 -0.47064997440E+03  0.11318311896E+04  0.97751496495E+03 0.  0.
        -13    1    3    3    0    0 -0.47906590662E+03  0.29927445158E+03  0.66373421108E+03  0.87155748771E+03  0.10566000000E+00 0.  1.
          4    1    3    3  501    0  0.17224501762E+03 -0.39855122953E+03  0.13860695639E+03  0.45576673531E+03  0.00000000000E+00 0.  1.
         13    1    4    4    0    0  0.96045406272E+02 -0.35384695104E+03 -0.51270611354E+03  0.63031734456E+03  0.10566000000E+00 0. -1.
         -4    1    4    4    0  503  0.21077548274E+03  0.45312372900E+03  0.42056139133E+02  0.50151384502E+03  0.00000000000E+00 0. -1.
<mgrwt>
<rscale>  2 0.10502929E+04</rscale>
<asrwt>0</asrwt>
<pdfrwt beam="1">  1       21 0.21468051E+00 0.10573733E+04</pdfrwt>
<pdfrwt beam="2">  1       21 0.16365109E+00 0.10573733E+04</pdfrwt>
<totfact> 0.10553648E+01</totfact>
</mgrwt>
</event>
<event>
 8    1  0.7208583E-006  0.1130893E+04  0.7818608E-02  0.8660682E-01
         21   -1    0    0  503  502  0.00000000000E+00  0.00000000000E+00  0.18121578888E+04  0.18121578888E+04  0.00000000000E+00 0. -1.
         21   -1    0    0  501  503 -0.00000000000E+00 -0.00000000000E+00 -0.84245674739E+03  0.84245674739E+03  0.00000000000E+00 0. -1.
    9000010    2    1    2  501    0 -0.18153071946E+03  0.47513170643E+03 -0.50766292452E+02  0.11320318501E+04  0.10100571037E+04 0.  0.
   -9000010    2    1    2    0  502  0.18153071946E+03 -0.47513170643E+03  0.10204674338E+04  0.15225827860E+04  0.10090594711E+04 0.  0.
        -13    1    3    3    0    0  0.33231332655E+01 -0.28156901364E+03 -0.19140917224E+03  0.34048441232E+03  0.10566000000E+00 0.  1.
          4    1    3    3  501    0 -0.18485385273E+03  0.75670072007E+03  0.14064287979E+03  0.79154743778E+03  0.00000000000E+00 0.  1.
         13    1    4    4    0    0  0.42282058502E+03 -0.31898177285E+03  0.11029864624E+04  0.12235627348E+04  0.10566000000E+00 0. -1.
         -4    1    4    4    0  502 -0.24128986556E+03 -0.15614993358E+03 -0.82519028585E+02  0.29902005126E+03  0.00000000000E+00 0. -1.
<mgrwt>
<rscale>  2 0.11306702E+04</rscale>
<asrwt>0</asrwt>
<pdfrwt beam="1">  1       21 0.27879352E+00 0.11308930E+04</pdfrwt>
<pdfrwt beam="2">  1       21 0.12960873E+00 0.11308930E+04</pdfrwt>
<totfact> 0.71620187E+00</totfact>
</mgrwt>
</event>
<event>
 8    1  0.7208583E-006  0.1015458E+04  0.7818608E-02  0.8786498E-01
         21   -1    0    0  501  502  0.00000000000E+00  0.00000000000E+00  0.92234186563E+03  0.92234186563E+03  0.00000000000E+00 0. -1.
         21   -1    0    0  502  503 -0.00000000000E+00 -0.00000000000E+00 -0.16688069271E+04  0.16688069271E+04  0.00000000000E+00 0. -1.
    9000010    2    1    2  501    0  0.16211356401E+03  0.28558556323E+02  0.43199488476E+03  0.11035278799E+04  0.10020268472E+04 0.  0.
   -9000010    2    1    2    0  503 -0.16211356401E+03 -0.28558556323E+02 -0.11784599462E+04  0.14876209128E+04  0.89283354363E+03 0.  0.
        -13    1    3    3    0    0 -0.36718920264E+03 -0.19686418013E+03  0.66415897398E+02  0.42189394230E+03  0.10566000000E+00 0.  1.
          4    1    3    3  501    0  0.52930276665E+03  0.22542273646E+03  0.36557898737E+03  0.68163393761E+03  0.00000000000E+00 0.  1.
         13    1    4    4    0    0 -0.26729182391E+03  0.37932040166E+03 -0.78115629861E+03  0.90858904917E+03  0.10566000000E+00 0. -1.
         -4    1    4    4    0  503  0.10517825990E+03 -0.40787895798E+03 -0.39730364764E+03  0.57903186367E+03  0.00000000000E+00 0. -1.
<mgrwt>
<rscale>  2 0.98742383E+03</rscale>
<asrwt>0</asrwt>
<pdfrwt beam="1">  1       21 0.14189875E+00 0.10154576E+04</pdfrwt>
<pdfrwt beam="2">  1       21 0.25673953E+00 0.10154576E+04</pdfrwt>
<totfact> 0.81145523E+00</totfact>
</mgrwt>
</event>
<event>
 8    1  0.7208583E-006  0.1132378E+04  0.7818608E-02  0.8663295E-01
         21   -1    0    0  501  502  0.00000000000E+00  0.00000000000E+00  0.12635375863E+04  0.12635375863E+04  0.00000000000E+00 0. -1.
         21   -1    0    0  502  503 -0.00000000000E+00 -0.00000000000E+00 -0.10550051306E+04  0.10550051306E+04  0.00000000000E+00 0. -1.
    9000010    2    1    2  501    0  0.51394932945E+03  0.45657747434E+01  0.37612450602E+03  0.11932096055E+04  0.10090167288E+04 0.  0.
   -9000010    2    1    2    0  503 -0.51394932945E+03 -0.45657747434E+01 -0.16759205033E+03  0.11253331113E+04  0.98697657348E+03 0.  0.
        -13    1    3    3    0    0  0.34389953302E+03 -0.45818919833E+03  0.40145332116E+03  0.69954914803E+03  0.10566000000E+00 0.  1.
          4    1    3    3  501    0  0.17004979643E+03  0.46275497307E+03 -0.25328815138E+02  0.49366045745E+03  0.00000000000E+00 0.  1.
         13    1    4    4    0    0 -0.10248600876E+03  0.47149387767E+03 -0.96939354438E+02  0.49214541375E+03  0.10566000000E+00 0. -1.
         -4    1    4    4    0  503 -0.41146332069E+03 -0.47605965242E+03 -0.70652695892E+02  0.63318769758E+03  0.00000000000E+00 0. -1.
<mgrwt>
<rscale>  2 0.11274472E+04</rscale>
<asrwt>0</asrwt>
<pdfrwt beam="1">  1       21 0.19439040E+00 0.11323778E+04</pdfrwt>
<pdfrwt beam="2">  1       21 0.16230848E+00 0.11323778E+04</pdfrwt>
<totfact> 0.15303540E+01</totfact>
</mgrwt>
</event>
<event>
 8    1  0.7208583E-006  0.9203249E+03  0.7818608E-02  0.8900512E-01
         21   -1    0    0  503  502  0.00000000000E+00  0.00000000000E+00  0.10247048259E+04  0.10247048259E+04  0.00000000000E+00 0. -1.
         21   -1    0    0  501  503 -0.00000000000E+00 -0.00000000000E+00 -0.70994241891E+03  0.70994241891E+03  0.00000000000E+00 0. -1.
    9000010    2    1    2  501    0 -0.62851628699E+01  0.18816016266E+03  0.12665599737E+02  0.92041205530E+03  0.90086302179E+03 0.  0.
   -9000010    2    1    2    0  502  0.62851628699E+01 -0.18816016266E+03  0.30209680726E+03  0.81423518951E+03  0.73230643367E+03 0.  0.
        -13    1    3    3    0    0  0.10168616957E+03 -0.35357952600E+03  0.79835821814E+01  0.36799769977E+03  0.10566000000E+00 0.  1.
          4    1    3    3  501    0 -0.10797133244E+03  0.54173968867E+03  0.46820175559E+01  0.55241435553E+03  0.00000000000E+00 0.  1.
         13    1    4    4    0    0 -0.39863622132E+02 -0.14255643041E+03  0.54400147745E+03  0.56378104159E+03  0.10566000000E+00 0. -1.
         -4    1    4    4    0  502  0.46148785002E+02 -0.45603732248E+02 -0.24190467019E+03  0.25045414792E+03  0.00000000000E+00 0. -1.
<mgrwt>
<rscale>  2 0.87620044E+03</rscale>
<asrwt>0</asrwt>
<pdfrwt beam="1">  1       21 0.15764690E+00 0.92032491E+03</pdfrwt>
<pdfrwt beam="2">  1       21 0.10922191E+00 0.92032491E+03</pdfrwt>
<totfact> 0.10289804E+02</totfact>
</mgrwt>
</event>
<event>
 8    1  0.7208583E-006  0.1055749E+04  0.7818608E-02  0.8724712E-01
         21   -1    0    0  503  502  0.00000000000E+00  0.00000000000E+00  0.18974544575E+04  0.18974544575E+04  0.00000000000E+00 0.  1.
         21   -1    0    0  501  503 -0.00000000000E+00 -0.00000000000E+00 -0.72808834790E+03  0.72808834790E+03  0.00000000000E+00 0.  1.
    9000010    2    1    2  501    0 -0.80579958637E+02  0.28058595436E+03  0.43118904010E+01  0.10557582772E+04  0.10145862901E+04 0.  0.
   -9000010    2    1    2    0  502  0.80579958637E+02 -0.28058595436E+03  0.11650542192E+04  0.15697845282E+04  0.10107672945E+04 0.  0.
        -13    1    3    3    0    0 -0.12882257494E+03  0.22733417186E+03  0.49505546722E+03  0.55978210788E+03  0.10566000000E+00 0.  1.
          4    1    3    3  501    0  0.48242616306E+02  0.53251782502E+02 -0.49074357682E+03  0.49597616935E+03  0.00000000000E+00 0.  1.
         13    1    4    4    0    0  0.49029381893E+03  0.13496436871E+02  0.31986880211E+03  0.58556489343E+03  0.10566000000E+00 0. -1.
         -4    1    4    4    0  502 -0.40971386029E+03 -0.29408239123E+03  0.84518541707E+03  0.98421963472E+03  0.00000000000E+00 0. -1.
<mgrwt>
<rscale>  2 0.10548309E+04</rscale>
<asrwt>0</asrwt>
<pdfrwt beam="1">  1       21 0.29191607E+00 0.10557495E+04</pdfrwt>
<pdfrwt beam="2">  1       21 0.11201359E+00 0.10557495E+04</pdfrwt>
<totfact> 0.88505168E+00</totfact>
</mgrwt>
</event>
<event>
 8    1  0.7208583E-006  0.1144271E+04  0.7818608E-02  0.8650651E-01
         21   -1    0    0  501  502  0.00000000000E+00  0.00000000000E+00  0.12296030377E+04  0.12296030377E+04  0.00000000000E+00 0. -1.
         21   -1    0    0  502  503 -0.00000000000E+00 -0.00000000000E+00 -0.12807238432E+04  0.12807238432E+04  0.00000000000E+00 0. -1.
    9000010    2    1    2  501    0  0.53657527407E+03  0.10850423855E+03  0.49466532579E+03  0.12466156689E+04  0.10048236894E+04 0.  0.
   -9000010    2    1    2    0  503 -0.53657527407E+03 -0.10850423855E+03 -0.54578613125E+03  0.12637112120E+04  0.99969862040E+03 0.  0.
        -13    1    3    3    0    0 -0.15967783306E+03  0.31826920336E+03  0.36138335990E+03  0.50733641714E+03  0.10566000000E+00 0.  1.
          4    1    3    3  501    0  0.69625310712E+03 -0.20976496481E+03  0.13328196589E+03  0.73927925175E+03  0.00000000000E+00 0.  1.
         13    1    4    4    0    0 -0.12347386175E+03 -0.49781349817E+03 -0.59651379981E+02  0.51635488938E+03  0.10566000000E+00 0. -1.
         -4    1    4    4    0  503 -0.41310141232E+03  0.38930925962E+03 -0.48613475127E+03  0.74735632257E+03  0.00000000000E+00 0. -1.
<mgrwt>
<rscale>  2 0.11431452E+04</rscale>
<asrwt>0</asrwt>
<pdfrwt beam="1">  1       21 0.18916970E+00 0.11442713E+04</pdfrwt>
<pdfrwt beam="2">  1       21 0.19703444E+00 0.11442713E+04</pdfrwt>
<totfact> 0.87207908E+00</totfact>
</mgrwt>
</event>
<event>
 8    1  0.7208583E-006  0.1008113E+04  0.7818608E-02  0.8781235E-01
         21   -1    0    0  501  502  0.00000000000E+00  0.00000000000E+00  0.76620805360E+03  0.76620805360E+03  0.00000000000E+00 0.  1.
         21   -1    0    0  502  503 -0.00000000000E+00 -0.00000000000E+00 -0.18286714367E+04  0.18286714367E+04  0.00000000000E+00 0.  1.
    9000010    2    1    2  501    0  0.12819807316E+03 -0.10530221405E+03  0.20965983243E+03  0.97173751018E+03  0.93423403979E+03 0.  0.
   -9000010    2    1    2    0  503 -0.12819807316E+03  0.10530221405E+03 -0.12721232155E+04  0.16231419801E+04  0.99436869915E+03 0.  0.
        -13    1    3    3    0    0  0.43741943755E+03 -0.23494285715E+03  0.35080203348E+03  0.60794406678E+03  0.10566000000E+00 0.  1.
          4    1    3    3  501    0 -0.30922136439E+03  0.12964064310E+03 -0.14114220105E+03  0.36379344340E+03  0.00000000000E+00 0.  1.
         13    1    4    4    0    0  0.12257149658E+03  0.36359983864E+03 -0.99349546020E+02  0.39635710905E+03  0.10566000000E+00 0. -1.
         -4    1    4    4    0  503 -0.25076956974E+03 -0.25829762459E+03 -0.11727736695E+04  0.12267848710E+04  0.00000000000E+00 0. -1.
<mgrwt>
<rscale>  2 0.99295921E+03</rscale>
<asrwt>0</asrwt>
<pdfrwt beam="1">  1       21 0.11787816E+00 0.10081133E+04</pdfrwt>
<pdfrwt beam="2">  1       21 0.28133406E+00 0.10081133E+04</pdfrwt>
<totfact> 0.92468525E+00</totfact>
</mgrwt>
</event>
<event>
 8    1  0.7208583E-006  0.1008262E+04  0.7818608E-02  0.8767456E-01
         21   -1    0    0  501  502  0.00000000000E+00  0.00000000000E+00  0.65131117380E+03  0.65131117380E+03  0.00000000000E+00 0.  1.
         21   -1    0    0  502  503 -0.00000000000E+00 -0.00000000000E+00 -0.18696833012E+04  0.18696833012E+04  0.00000000000E+00 0.  1.
    9000010    2    1    2  501    0  0.27948950308E+02  0.15343295913E+03 -0.93012249846E+02  0.10100255526E+04  0.99356807591E+03 0.  0.
   -9000010    2    1    2    0  503 -0.27948950308E+02 -0.15343295913E+03 -0.11253598775E+04  0.15109689224E+04  0.99612720761E+03 0.  0.
        -13    1    3    3    0    0  0.39125935781E+03  0.33352569298E+03 -0.25436318890E+03  0.57360606341E+03  0.10566000000E+00 0.  1.
          4    1    3    3  501    0 -0.36331040750E+03 -0.18009273385E+03  0.16135093906E+03  0.43641948916E+03  0.00000000000E+00 0.  1.
         13    1    4    4    0    0 -0.40634546956E+03  0.15479249666E+03 -0.23165392720E+03  0.49268743724E+03  0.10566000000E+00 0. -1.
         -4    1    4    4    0  503  0.37839651926E+03 -0.30822545579E+03 -0.89370595031E+03  0.10182814851E+04  0.00000000000E+00 0. -1.
<mgrwt>
<rscale>  2 0.10076293E+04</rscale>
<asrwt>0</asrwt>
<pdfrwt beam="1">  1       21 0.10020172E+00 0.10082620E+04</pdfrwt>
<pdfrwt beam="2">  1       21 0.28764358E+00 0.10082620E+04</pdfrwt>
<totfact> 0.12923735E+01</totfact>
</mgrwt>
</event>
<event>
 8    1  0.7208583E-006  0.1044897E+04  0.7818608E-02  0.8735958E-01
         21   -1    0    0  503  502  0.00000000000E+00  0.00000000000E+00  0.57441963796E+03  0.57441963796E+03  0.00000000000E+00 0. -1.
         21   -1    0    0  501  503 -0.00000000000E+00 -0.00000000000E+00 -0.26747280080E+04  0.26747280080E+04  0.00000000000E+00 0. -1.
    9000010    2    1    2  501    0 -0.78335876702E+02 -0.29125961293E+03 -0.19390514427E+04  0.22026643151E+04  0.10004203696E+04 0.  0.
   -9000010    2    1    2    0  502  0.78335876702E+02  0.29125961293E+03 -0.16125692737E+03  0.10464833309E+04  0.98901713509E+03 0.  0.
        -13    1    3    3    0    0 -0.47609558501E+02 -0.41853275913E+03 -0.21367567134E+03  0.47232789905E+03  0.10566000000E+00 0.  1.
          4    1    3    3  501    0 -0.30726318202E+02  0.12727314621E+03 -0.17253757714E+04  0.17303364161E+04  0.00000000000E+00 0.  1.
         13    1    4    4    0    0 -0.16522619043E+03  0.41799990380E+03 -0.45834313522E+03  0.64195175391E+03  0.10566000000E+00 0. -1.
         -4    1    4    4    0  502  0.24356206713E+03 -0.12674029087E+03  0.29708620785E+03  0.40453157698E+03  0.00000000000E+00 0. -1.
<mgrwt>
<rscale>  2 0.10421580E+04</rscale>
<asrwt>0</asrwt>
<pdfrwt beam="1">  1       21 0.88372249E-01 0.10448969E+04</pdfrwt>
<pdfrwt beam="2">  1       21 0.41149663E+00 0.10448969E+04</pdfrwt>
<totfact> 0.23944359E+00</totfact>
</mgrwt>
</event>
<event>
 8    1  0.7208583E-006  0.1198376E+04  0.7818608E-02  0.8614240E-01
         21   -1    0    0  503  502  0.00000000000E+00  0.00000000000E+00  0.34436205799E+04  0.34436205799E+04  0.00000000000E+00 0. -1.
         21   -1    0    0  501  503 -0.00000000000E+00 -0.00000000000E+00 -0.60078175100E+03  0.60078175100E+03  0.00000000000E+00 0. -1.
    9000010    2    1    2  501    0  0.28059747810E+03  0.54423896658E+03  0.25455074163E+03  0.11921504196E+04  0.99070457021E+03 0.  0.
   -9000010    2    1    2    0  502 -0.28059747810E+03 -0.54423896658E+03  0.25882880873E+04  0.28522519113E+04  0.10301333629E+04 0.  0.
        -13    1    3    3    0    0  0.34863054504E+03 -0.18331146997E+02  0.47037345855E+03  0.58577341144E+03  0.10566000000E+00 0.  1.
          4    1    3    3  501    0 -0.68033066941E+02  0.56257011358E+03 -0.21582271692E+03  0.60637700816E+03  0.00000000000E+00 0.  1.
         13    1    4    4    0    0 -0.14185390903E+03 -0.13254321189E+03  0.23475519463E+04  0.23555658314E+04  0.10566000000E+00 0. -1.
         -4    1    4    4    0  502 -0.13874356907E+03 -0.41169575469E+03  0.24073614105E+03  0.49668607993E+03  0.00000000000E+00 0. -1.
<mgrwt>
<rscale>  2 0.11898561E+04</rscale>
<asrwt>0</asrwt>
<pdfrwt beam="1">  1       21 0.52978777E+00 0.11983763E+04</pdfrwt>
<pdfrwt beam="2">  1       21 0.92427964E-01 0.11983763E+04</pdfrwt>
<totfact> 0.30967897E-01</totfact>
</mgrwt>
</event>
<event>
 8    1  0.7208583E-006  0.1018231E+04  0.7818608E-02  0.8763807E-01
         21   -1    0    0  503  502  0.00000000000E+00  0.00000000000E+00  0.38618719694E+03  0.38618719694E+03  0.00000000000E+00 0.  1.
         21   -1    0    0  501  503 -0.00000000000E+00 -0.00000000000E+00 -0.26266508462E+04  0.26266508462E+04  0.00000000000E+00 0.  1.
    9000010    2    1    2  501    0 -0.13255434819E+03 -0.62734632904E+02 -0.12332262558E+04  0.15992627162E+04  0.10076149799E+04 0.  0.
   -9000010    2    1    2    0  502  0.13255434819E+03  0.62734632904E+02 -0.10072373934E+04  0.14135753270E+04  0.98089843967E+03 0.  0.
        -13    1    3    3    0    0 -0.11467616482E+03 -0.51823887290E+03 -0.85770648134E+03  0.10086538412E+04  0.10566000000E+00 0.  1.
          4    1    3    3  501    0 -0.17878183372E+02  0.45550423999E+03 -0.37551977450E+03  0.59060887492E+03  0.00000000000E+00 0.  1.
         13    1    4    4    0    0  0.26316390818E+03  0.36256387469E+03 -0.11390039993E+03  0.46225655006E+03  0.10566000000E+00 0. -1.
         -4    1    4    4    0  502 -0.13060955999E+03 -0.29982924179E+03 -0.89333699347E+03  0.95131877690E+03  0.00000000000E+00 0. -1.
<mgrwt>
<rscale>  2 0.10115580E+04</rscale>
<asrwt>0</asrwt>
<pdfrwt beam="1">  1       21 0.59413415E-01 0.10182309E+04</pdfrwt>
<pdfrwt beam="2">  1       21 0.40410013E+00 0.10182309E+04</pdfrwt>
<totfact> 0.70186650E+00</totfact>
</mgrwt>
</event>
<event>
 8    1  0.7208583E-006  0.1037271E+04  0.7818608E-02  0.8746290E-01
         21   -1    0    0  501  502  0.00000000000E+00  0.00000000000E+00  0.92124831362E+03  0.92124831362E+03  0.00000000000E+00 0. -1.
         21   -1    0    0  502  503 -0.00000000000E+00 -0.00000000000E+00 -0.12721235609E+04  0.12721235609E+04  0.00000000000E+00 0. -1.
    9000010    2    1    2  501    0  0.90896886153E+02 -0.25009642585E+03  0.18174216527E+03  0.10273474393E+04  0.97550093809E+03 0.  0.
   -9000010    2    1    2    0  503 -0.90896886153E+02  0.25009642585E+03 -0.53261741254E+03  0.11660244352E+04  0.10025573347E+04 0.  0.
        -13    1    3    3    0    0  0.11861131480E+03  0.29194305254E+03  0.33844279797E+03  0.46243153935E+03  0.10566000000E+00 0.  1.
          4    1    3    3  501    0 -0.27714428650E+02 -0.54203947840E+03 -0.15670063270E+03  0.56491589992E+03  0.00000000000E+00 0.  1.
         13    1    4    4    0    0 -0.32738486599E+03  0.48347396805E+03 -0.58860699892E+03  0.82908753374E+03  0.10566000000E+00 0. -1.
         -4    1    4    4    0  503  0.23648797984E+03 -0.23337754219E+03  0.55989586378E+02  0.33693690150E+03  0.00000000000E+00 0. -1.
<mgrwt>
<rscale>  2 0.10306769E+04</rscale>
<asrwt>0</asrwt>
<pdfrwt beam="1">  1       21 0.14173051E+00 0.10372713E+04</pdfrwt>
<pdfrwt beam="2">  1       21 0.19571132E+00 0.10372713E+04</pdfrwt>
<totfact> 0.23226698E+01</totfact>
</mgrwt>
</event>
<event>
 8    1  0.7208583E-006  0.1299595E+04  0.7818608E-02  0.8539027E-01
         21   -1    0    0  503  502  0.00000000000E+00  0.00000000000E+00  0.25824863226E+04  0.25824863226E+04  0.00000000000E+00 0. -1.
         21   -1    0    0  501  503 -0.00000000000E+00 -0.00000000000E+00 -0.85639863766E+03  0.85639863766E+03  0.00000000000E+00 0. -1.
    9000010    2    1    2  501    0  0.79381870190E+03  0.11459982103E+03  0.17277467805E+04  0.21619567991E+04  0.10225786099E+04 0.  0.
   -9000010    2    1    2    0  502 -0.79381870190E+03 -0.11459982103E+03 -0.16590955891E+01  0.12769281611E+04  0.99361034893E+03 0.  0.
        -13    1    3    3    0    0  0.90218480463E+03  0.33255732082E+03  0.16440066844E+04  0.19045445080E+04  0.10566000000E+00 0.  1.
          4    1    3    3  501    0 -0.10836610273E+03 -0.21795749979E+03  0.83740096038E+02  0.25741229112E+03  0.00000000000E+00 0.  1.
         13    1    4    4    0    0 -0.94318627605E+03 -0.19012263558E+03 -0.23435690043E+03  0.99028790553E+03  0.10566000000E+00 0. -1.
         -4    1    4    4    0  502  0.14936757415E+03  0.75522814547E+02  0.23269780484E+03  0.28664025555E+03  0.00000000000E+00 0. -1.
<mgrwt>
<rscale>  2 0.12938909E+04</rscale>
<asrwt>0</asrwt>
<pdfrwt beam="1">  1       21 0.39730558E+00 0.12995954E+04</pdfrwt>
<pdfrwt beam="2">  1       21 0.13175364E+00 0.12995954E+04</pdfrwt>
<totfact> 0.96687097E-01</totfact>
</mgrwt>
</event>
<event>
 8    1  0.7208583E-006  0.1018702E+04  0.7818608E-02  0.8757852E-01
         21   -1    0    0  501  502  0.00000000000E+00  0.00000000000E+00  0.11925957936E+04  0.11925957936E+04  0.00000000000E+00 0. -1.
         21   -1    0    0  502  503 -0.00000000000E+00 -0.00000000000E+00 -0.22969406808E+04  0.22969406808E+04  0.00000000000E+00 0. -1.
    9000010    2    1    2  501    0 -0.12812887640E+03 -0.20488319376E+03  0.82380180554E+03  0.13101156219E+04  0.98962588677E+03 0.  0.
   -9000010    2    1    2    0  503  0.12812887640E+03  0.20488319376E+03 -0.19281466927E+04  0.21794208525E+04  0.98677831950E+03 0.  0.
        -13    1    3    3    0    0  0.17802345825E+03 -0.45538704442E+03  0.12109912763E+03  0.50372087687E+03  0.10566000000E+00 0.  1.
          4    1    3    3  501    0 -0.30615233465E+03  0.25050385066E+03  0.70270267790E+03  0.80639474498E+03  0.00000000000E+00 0.  1.
         13    1    4    4    0    0  0.47948685542E+03 -0.15800448567E+03 -0.10818106235E+04  0.11938120866E+04  0.10566000000E+00 0. -1.
         -4    1    4    4    0  503 -0.35135797903E+03  0.36288767943E+03 -0.84633606922E+03  0.98560876588E+03  0.00000000000E+00 0. -1.
<mgrwt>
<rscale>  2 0.10180097E+04</rscale>
<asrwt>0</asrwt>
<pdfrwt beam="1">  1       21 0.18347628E+00 0.10187019E+04</pdfrwt>
<pdfrwt beam="2">  1       21 0.35337549E+00 0.10187019E+04</pdfrwt>
<totfact> 0.73855281E-01</totfact>
</mgrwt>
</event>
<event>
 8    1  0.7208583E-006  0.1237018E+04  0.7818608E-02  0.8579307E-01
         21   -1    0    0  503  502  0.00000000000E+00  0.00000000000E+00  0.13899463325E+04  0.13899463325E+04  0.00000000000E+00 0.  1.
         21   -1    0    0  501  503 -0.00000000000E+00 -0.00000000000E+00 -0.11926905485E+04  0.11926905485E+04  0.00000000000E+00 0. -1.
    9000010    2    1    2  501    0 -0.49236478492E+03 -0.53501984384E+03 -0.26065916953E+03  0.12635845175E+04  0.10000166576E+04 0.  0.
   -9000010    2    1    2    0  502  0.49236478492E+03  0.53501984384E+03  0.45791495358E+03  0.13190523635E+04  0.10007715615E+04 0.  0.
        -13    1    3    3    0    0  0.16671533676E+02 -0.63401805638E+03 -0.36906333268E+03  0.73380146535E+03  0.10566000000E+00 0.  1.
          4    1    3    3  501    0 -0.50903631859E+03  0.98998212533E+02  0.10840416316E+03  0.52978305213E+03  0.00000000000E+00 0.  1.
         13    1    4    4    0    0  0.40391596790E+03  0.63692234363E+03 -0.85596047014E+02  0.75904207747E+03  0.10566000000E+00 0. -1.
         -4    1    4    4    0  502  0.88448817016E+02 -0.10190249979E+03  0.54351100059E+03  0.56001028603E+03  0.00000000000E+00 0. -1.
<mgrwt>
<rscale>  2 0.12368651E+04</rscale>
<asrwt>0</asrwt>
<pdfrwt beam="1">  1       21 0.21383790E+00 0.12370178E+04</pdfrwt>
<pdfrwt beam="2">  1       21 0.18349085E+00 0.12370178E+04</pdfrwt>
<totfact> 0.70430834E+00</totfact>
</mgrwt>
</event>
<event>
 8    1  0.7208583E-006  0.1229910E+04  0.7818608E-02  0.8627388E-01
         21   -1    0    0  501  502  0.00000000000E+00  0.00000000000E+00  0.78740269760E+03  0.78740269760E+03  0.00000000000E+00 0.  1.
         21   -1    0    0  502  503 -0.00000000000E+00 -0.00000000000E+00 -0.16242853915E+04  0.16242853915E+04  0.00000000000E+00 0.  1.
    9000010    2    1    2  501    0  0.59265893030E+02 -0.91379294104E+02 -0.59694090258E+03  0.13671200107E+04  0.12250779816E+04 0.  0.
   -9000010    2    1    2    0  503 -0.59265893030E+02  0.91379294104E+02 -0.23994179128E+03  0.10445680784E+04  0.10107857269E+04 0.  0.
        -13    1    3    3    0    0 -0.28183033966E+03 -0.14390814843E+03 -0.87082021254E+03  0.92653426773E+03  0.10566000000E+00 0.  1.
          4    1    3    3  501    0  0.34109623269E+03  0.52528854331E+02  0.27387930996E+03  0.44058574298E+03  0.00000000000E+00 0.  1.
         13    1    4    4    0    0  0.14987494514E+03  0.50155692980E+03 -0.25841039634E+03  0.58377889403E+03  0.10566000000E+00 0. -1.
         -4    1    4    4    0  503 -0.20914083817E+03 -0.41017763570E+03  0.18468605059E+02  0.46078918433E+03  0.00000000000E+00 0. -1.
<mgrwt>
<rscale>  2 0.11727258E+04</rscale>
<asrwt>0</asrwt>
<pdfrwt beam="1">  1       21 0.12113888E+00 0.12299100E+04</pdfrwt>
<pdfrwt beam="2">  1       21 0.24989006E+00 0.12299100E+04</pdfrwt>
<totfact> 0.13746740E+01</totfact>
</mgrwt>
</event>
<event>
 8    1  0.7208583E-006  0.1024717E+04  0.7818608E-02  0.8755144E-01
         21   -1    0    0  503  502  0.00000000000E+00  0.00000000000E+00  0.18975201612E+04  0.18975201612E+04  0.00000000000E+00 0.  1.
         21   -1    0    0  501  503 -0.00000000000E+00 -0.00000000000E+00 -0.61914682416E+03  0.61914682416E+03  0.00000000000E+00 0.  1.
    9000010    2    1    2  501    0  0.11980421527E+03  0.18598137827E+03  0.20885958952E+03  0.10457851144E+04  0.10005508755E+04 0.  0.
   -9000010    2    1    2    0  502 -0.11980421527E+03 -0.18598137827E+03  0.10695137476E+04  0.14708818710E+04  0.98523687459E+03 0.  0.
        -13    1    3    3    0    0  0.30721045948E+03  0.29500141968E+03  0.51647632280E+03  0.66944148901E+03  0.10566000000E+00 0.  1.
          4    1    3    3  501    0 -0.18740624421E+03 -0.10902004141E+03 -0.30761673329E+03  0.37634362542E+03  0.00000000000E+00 0.  1.
         13    1    4    4    0    0  0.17471651556E+03 -0.50760913603E+03  0.78198665799E+03  0.94852308365E+03  0.10566000000E+00 0. -1.
         -4    1    4    4    0  502 -0.29452073083E+03  0.32162775775E+03  0.28752708957E+03  0.52235878731E+03  0.00000000000E+00 0. -1.
<mgrwt>
<rscale>  2 0.10209592E+04</rscale>
<asrwt>0</asrwt>
<pdfrwt beam="1">  1       21 0.29192617E+00 0.10247166E+04</pdfrwt>
<pdfrwt beam="2">  1       21 0.95253359E-01 0.10247166E+04</pdfrwt>
<totfact> 0.13687237E+01</totfact>
</mgrwt>
</event>
<event>
 8    1  0.7208583E-006  0.1035417E+04  0.7818608E-02  0.8747829E-01
         21   -1    0    0  501  502  0.00000000000E+00  0.00000000000E+00  0.87450746922E+03  0.87450746922E+03  0.00000000000E+00 0.  1.
         21   -1    0    0  502  503 -0.00000000000E+00 -0.00000000000E+00 -0.12530209396E+04  0.12530209396E+04  0.00000000000E+00 0.  1.
    9000010    2    1    2  501    0  0.17018015379E+03 -0.45695720087E+02 -0.41858165529E+03  0.11168252317E+04  0.10203129973E+04 0.  0.
   -9000010    2    1    2    0  503 -0.17018015379E+03  0.45695720087E+02  0.40068184877E+02  0.10107031772E+04  0.99441745224E+03 0.  0.
        -13    1    3    3    0    0  0.20352984036E+03 -0.47201162750E+03 -0.45658166017E+03  0.68752177855E+03  0.10566000000E+00 0.  1.
          4    1    3    3  501    0 -0.33349686568E+02  0.42631590742E+03  0.38000004876E+02  0.42930345315E+03  0.00000000000E+00 0.  1.
         13    1    4    4    0    0  0.36238224082E+03  0.24687329230E+03 -0.15099402922E+02  0.43874287920E+03  0.10566000000E+00 0. -1.
         -4    1    4    4    0  503 -0.53256239460E+03 -0.20117757222E+03  0.55167587799E+02  0.57196029797E+03  0.00000000000E+00 0. -1.
<mgrwt>
<rscale>  2 0.10289800E+04</rscale>
<asrwt>0</asrwt>
<pdfrwt beam="1">  1       21 0.13453961E+00 0.10354168E+04</pdfrwt>
<pdfrwt beam="2">  1       21 0.19277245E+00 0.10354168E+04</pdfrwt>
<totfact> 0.28605694E+01</totfact>
</mgrwt>
</event>
<event>
 8    1  0.7208583E-006  0.1026451E+04  0.7818608E-02  0.8752142E-01
         21   -1    0    0  501  502  0.00000000000E+00  0.00000000000E+00  0.15529787383E+04  0.15529787383E+04  0.00000000000E+00 0. -1.
         21   -1    0    0  502  503 -0.00000000000E+00 -0.00000000000E+00 -0.71628893006E+03  0.71628893006E+03  0.00000000000E+00 0. -1.
    9000010    2    1    2  501    0 -0.13080022826E+03 -0.14284497046E+03  0.69676996122E+03  0.12333239160E+04  0.99904260054E+03 0.  0.
   -9000010    2    1    2    0  503  0.13080022826E+03  0.14284497046E+03  0.13991984704E+03  0.10359437524E+04  0.10080121572E+04 0.  0.
        -13    1    3    3    0    0 -0.27379253488E+03  0.38324934995E+03  0.29007308163E+03  0.55315894663E+03  0.10566000000E+00 0.  1.
          4    1    3    3  501    0  0.14299230661E+03 -0.52609432041E+03  0.40669687959E+03  0.68016496939E+03  0.00000000000E+00 0.  1.
         13    1    4    4    0    0  0.20882411934E+03 -0.24206413283E+01 -0.41092530224E+03  0.46094792277E+03  0.10566000000E+00 0. -1.
         -4    1    4    4    0  503 -0.78023891080E+02  0.14526561179E+03  0.55084514928E+03  0.57499582958E+03  0.00000000000E+00 0. -1.
<mgrwt>
<rscale>  2 0.10242422E+04</rscale>
<asrwt>0</asrwt>
<pdfrwt beam="1">  1       21 0.23891981E+00 0.10264511E+04</pdfrwt>
<pdfrwt beam="2">  1       21 0.11019830E+00 0.10264511E+04</pdfrwt>
<totfact> 0.22414368E+01</totfact>
</mgrwt>
</event>
<event>
 8    1  0.7208583E-006  0.1150719E+04  0.7818608E-02  0.8646147E-01
         21   -1    0    0  501  502  0.00000000000E+00  0.00000000000E+00  0.95325188093E+03  0.95325188093E+03  0.00000000000E+00 0. -1.
         21   -1    0    0  502  503 -0.00000000000E+00 -0.00000000000E+00 -0.14377928770E+04  0.14377928770E+04  0.00000000000E+00 0. -1.
    9000010    2    1    2  501    0  0.56274503366E+03  0.28951626571E+02 -0.30887605009E+01  0.11507233944E+04  0.10033118261E+04 0.  0.
   -9000010    2    1    2    0  503 -0.56274503366E+03 -0.28951626571E+02 -0.48145223560E+03  0.12403213635E+04  0.99452534411E+03 0.  0.
        -13    1    3    3    0    0  0.58688255982E+03 -0.39877251468E+03  0.80977407489E+02  0.71414845037E+03  0.10566000000E+00 0.  1.
          4    1    3    3  501    0 -0.24137526161E+02  0.42772414126E+03 -0.84066167990E+02  0.43657494406E+03  0.00000000000E+00 0.  1.
         13    1    4    4    0    0  0.68385395837E+02 -0.29548919120E+03 -0.46481314892E+03  0.55501504399E+03  0.10566000000E+00 0. -1.
         -4    1    4    4    0  503 -0.63113042949E+03  0.26653756463E+03 -0.16639086684E+02  0.68530631954E+03  0.00000000000E+00 0. -1.
<mgrwt>
<rscale>  2 0.11488013E+04</rscale>
<asrwt>0</asrwt>
<pdfrwt beam="1">  1       21 0.14665414E+00 0.11507192E+04</pdfrwt>
<pdfrwt beam="2">  1       21 0.22119890E+00 0.11507192E+04</pdfrwt>
<totfact> 0.13011428E+01</totfact>
</mgrwt>
</event>
<event>
 8    1  0.7208583E-006  0.1028544E+04  0.7818608E-02  0.8798281E-01
         21   -1    0    0  501  502  0.00000000000E+00  0.00000000000E+00  0.20474305161E+04  0.20474305161E+04  0.00000000000E+00 0.  1.
         21   -1    0    0  502  503 -0.00000000000E+00 -0.00000000000E+00 -0.55625240785E+03  0.55625240785E+03  0.00000000000E+00 0.  1.
    9000010    2    1    2  501    0 -0.64320907581E+02 -0.20953780482E+03  0.13216847634E+04  0.15612673260E+04  0.80166188548E+03 0.  0.
   -9000010    2    1    2    0  503  0.64320907581E+02  0.20953780482E+03  0.16949334486E+03  0.10424155979E+04  0.10049174166E+04 0.  0.
        -13    1    3    3    0    0  0.33408808686E+03  0.73494570651E+02  0.56495375421E+03  0.66044610474E+03  0.10566000000E+00 0.  1.
          4    1    3    3  501    0 -0.39840899444E+03 -0.28303237548E+03  0.75673100914E+03  0.90082122122E+03  0.00000000000E+00 0.  1.
         13    1    4    4    0    0 -0.44788067516E+03  0.98914658652E+02 -0.73983405757E+02  0.46460172661E+03  0.10566000000E+00 0. -1.
         -4    1    4    4    0  503  0.51220158274E+03  0.11062314617E+03  0.24347675061E+03  0.57781387134E+03  0.00000000000E+00 0. -1.
<mgrwt>
<rscale>  2 0.97516625E+03</rscale>
<asrwt>0</asrwt>
<pdfrwt beam="1">  1       21 0.31498930E+00 0.10285438E+04</pdfrwt>
<pdfrwt beam="2">  1       21 0.85577295E-01 0.10285438E+04</pdfrwt>
<totfact> 0.12358684E+01</totfact>
</mgrwt>
</event>
<event>
 8    1  0.7208583E-006  0.1010858E+04  0.7818608E-02  0.8770981E-01
         21   -1    0    0  503  502  0.00000000000E+00  0.00000000000E+00  0.18782442685E+04  0.18782442685E+04  0.00000000000E+00 0.  1.
         21   -1    0    0  501  503 -0.00000000000E+00 -0.00000000000E+00 -0.59715930812E+03  0.59715930812E+03  0.00000000000E+00 0.  1.
    9000010    2    1    2  501    0 -0.47774767372E+02  0.23092861736E+03  0.23097657492E+03  0.10369110167E+04  0.98296684768E+03 0.  0.
   -9000010    2    1    2    0  502  0.47774767372E+02 -0.23092861736E+03  0.10501083855E+04  0.14384925600E+04  0.95442274129E+03 0.  0.
        -13    1    3    3    0    0 -0.41804241306E+03 -0.56624211178E+02  0.35568581741E+03  0.55179540799E+03  0.10566000000E+00 0.  1.
          4    1    3    3  501    0  0.37026764569E+03  0.28755282853E+03 -0.12470924248E+03  0.48511560870E+03  0.00000000000E+00 0.  1.
         13    1    4    4    0    0 -0.34248100989E+03 -0.40952485398E+03  0.72363934529E+03  0.89925400271E+03  0.10566000000E+00 0. -1.
         -4    1    4    4    0  502  0.39025577726E+03  0.17859623663E+03  0.32646904018E+03  0.53923855725E+03  0.00000000000E+00 0. -1.
<mgrwt>
<rscale>  2 0.10038522E+04</rscale>
<asrwt>0</asrwt>
<pdfrwt beam="1">  1       21 0.28896066E+00 0.10108582E+04</pdfrwt>
<pdfrwt beam="2">  1       21 0.91870663E-01 0.10108582E+04</pdfrwt>
<totfact> 0.15805054E+01</totfact>
</mgrwt>
</event>
<event>
 8    1  0.7208583E-006  0.1026263E+04  0.7818608E-02  0.8830371E-01
         21   -1    0    0  501  502  0.00000000000E+00  0.00000000000E+00  0.64426076934E+03  0.64426076934E+03  0.00000000000E+00 0. -1.
         21   -1    0    0  502  503 -0.00000000000E+00 -0.00000000000E+00 -0.14262439297E+04  0.14262439297E+04  0.00000000000E+00 0. -1.
    9000010    2    1    2  501    0 -0.10291892990E+03 -0.14969983243E+03 -0.85558347099E+03  0.13361279884E+04  0.10100557309E+04 0.  0.
   -9000010    2    1    2    0  503  0.10291892990E+03  0.14969983243E+03  0.73600310635E+02  0.73437671068E+03  0.70773568618E+03 0.  0.
        -13    1    3    3    0    0 -0.13986650982E+03 -0.39824208558E+03 -0.97163054159E+03  0.10593513675E+04  0.10566000000E+00 0.  1.
          4    1    3    3  501    0  0.36947579918E+02  0.24854225315E+03  0.11604707060E+03  0.27677662086E+03  0.00000000000E+00 0.  1.
         13    1    4    4    0    0  0.35045729135E+03 -0.11090172925E+03  0.47896003401E+00  0.36758638057E+03  0.10566000000E+00 0. -1.
         -4    1    4    4    0  503 -0.24753836146E+03  0.26060156169E+03  0.73121350601E+02  0.36679033011E+03  0.00000000000E+00 0. -1.
<mgrwt>
<rscale>  2 0.94270447E+03</rscale>
<asrwt>0</asrwt>
<pdfrwt beam="1">  1       21 0.99117043E-01 0.10262626E+04</pdfrwt>
<pdfrwt beam="2">  1       21 0.21942214E+00 0.10262626E+04</pdfrwt>
<totfact> 0.41499826E+01</totfact>
</mgrwt>
</event>
<event>
 8    1  0.7208583E-006  0.1038455E+04  0.7818608E-02  0.8746648E-01
         21   -1    0    0  503  502  0.00000000000E+00  0.00000000000E+00  0.81371569967E+03  0.81371569967E+03  0.00000000000E+00 0.  1.
         21   -1    0    0  501  503 -0.00000000000E+00 -0.00000000000E+00 -0.14189547900E+04  0.14189547900E+04  0.00000000000E+00 0.  1.
    9000010    2    1    2  501    0  0.17300727095E+03  0.52193434299E+02  0.36834267395E+02  0.10391084173E+04  0.10226112993E+04 0.  0.
   -9000010    2    1    2    0  502 -0.17300727095E+03 -0.52193434299E+02 -0.64207335771E+03  0.11935620723E+04  0.98978611496E+03 0.  0.
        -13    1    3    3    0    0  0.36422776688E+03  0.45583800308E+03  0.85913568418E+02  0.58977224725E+03  0.10566000000E+00 0.  1.
          4    1    3    3  501    0 -0.19122049593E+03 -0.40364456878E+03 -0.49079301023E+02  0.44933617010E+03  0.00000000000E+00 0.  1.
         13    1    4    4    0    0  0.14470656438E+03 -0.21188549598E+03 -0.77312628577E+03  0.81459174934E+03  0.10566000000E+00 0. -1.
         -4    1    4    4    0  502 -0.31771383533E+03  0.15969206168E+03  0.13105292806E+03  0.37897032295E+03  0.00000000000E+00 0. -1.
<mgrwt>
<rscale>  2 0.10302823E+04</rscale>
<asrwt>0</asrwt>
<pdfrwt beam="1">  1       21 0.12518703E+00 0.10384554E+04</pdfrwt>
<pdfrwt beam="2">  1       21 0.21830074E+00 0.10384554E+04</pdfrwt>
<totfact> 0.22346471E+01</totfact>
</mgrwt>
</event>
<event>
 8    1  0.7208583E-006  0.1039682E+04  0.7818608E-02  0.8745890E-01
         21   -1    0    0  501  502  0.00000000000E+00  0.00000000000E+00  0.55196662943E+03  0.55196662943E+03  0.00000000000E+00 0.  1.
         21   -1    0    0  502  503 -0.00000000000E+00 -0.00000000000E+00 -0.19132908378E+04  0.19132908378E+04  0.00000000000E+00 0.  1.
    9000010    2    1    2  501    0  0.87206338300E+02  0.38348475117E+01 -0.81189212128E+03  0.13191316899E+04  0.10360115574E+04 0.  0.
   -9000010    2    1    2    0  503 -0.87206338300E+02 -0.38348475117E+01 -0.54943208705E+03  0.11461257773E+04  0.10020524077E+04 0.  0.
        -13    1    3    3    0    0  0.37933009204E+03  0.39630347037E+03 -0.46826302925E+03  0.72126141938E+03  0.10566000000E+00 0.  1.
          4    1    3    3  501    0 -0.29212375374E+03 -0.39246862286E+03 -0.34362909204E+03  0.59787027048E+03  0.00000000000E+00 0.  1.
         13    1    4    4    0    0  0.69643025161E+02  0.48169488810E+03 -0.19226841718E+03  0.52330418647E+03  0.10566000000E+00 0. -1.
         -4    1    4    4    0  503 -0.15684936346E+03 -0.48552973561E+03 -0.35716366987E+03  0.62282159087E+03  0.00000000000E+00 0. -1.
<mgrwt>
<rscale>  2 0.10311184E+04</rscale>
<asrwt>0</asrwt>
<pdfrwt beam="1">  1       21 0.84917942E-01 0.10396825E+04</pdfrwt>
<pdfrwt beam="2">  1       21 0.29435244E+00 0.10396825E+04</pdfrwt>
<totfact> 0.17580437E+01</totfact>
</mgrwt>
</event>
<event>
 8    1  0.7208583E-006  0.1126158E+04  0.7818608E-02  0.8669522E-01
         21   -1    0    0  501  502  0.00000000000E+00  0.00000000000E+00  0.11027791246E+04  0.11027791246E+04  0.00000000000E+00 0.  1.
         21   -1    0    0  502  503 -0.00000000000E+00 -0.00000000000E+00 -0.17166264241E+04  0.17166264241E+04  0.00000000000E+00 0.  1.
    9000010    2    1    2  501    0  0.25899165859E+03  0.46981580451E+03  0.52326867099E+03  0.12190102624E+04  0.96144284717E+03 0.  0.
   -9000010    2    1    2    0  503 -0.25899165859E+03 -0.46981580451E+03 -0.11371159705E+04  0.16003952863E+04  0.99016603284E+03 0.  0.
        -13    1    3    3    0    0 -0.12870840837E+03  0.26548694142E+03  0.68975232280E+03  0.75020493761E+03  0.10566000000E+00 0.  1.
          4    1    3    3  501    0  0.38770006695E+03  0.20432886310E+03 -0.16648365181E+03  0.46880532477E+03  0.00000000000E+00 0.  1.
         13    1    4    4    0    0 -0.49057842501E+03 -0.52092259005E+03 -0.38663827312E+03  0.81333676992E+03  0.10566000000E+00 0. -1.
         -4    1    4    4    0  503  0.23158676642E+03  0.51106785535E+02 -0.75047769736E+03  0.78705851634E+03  0.00000000000E+00 0. -1.
<mgrwt>
<rscale>  2 0.11198124E+04</rscale>
<asrwt>0</asrwt>
<pdfrwt beam="1">  1       21 0.16965833E+00 0.11261582E+04</pdfrwt>
<pdfrwt beam="2">  1       21 0.26409637E+00 0.11261582E+04</pdfrwt>
<totfact> 0.39935311E+00</totfact>
</mgrwt>
</event>
<event>
 8    1  0.7208583E-006  0.1060690E+04  0.7818608E-02  0.8722476E-01
         21   -1    0    0  501  502  0.00000000000E+00  0.00000000000E+00  0.63939651744E+03  0.63939651744E+03  0.00000000000E+00 0.  1.
         21   -1    0    0  502  503 -0.00000000000E+00 -0.00000000000E+00 -0.18827705962E+04  0.18827705962E+04  0.00000000000E+00 0.  1.
    9000010    2    1    2  501    0 -0.33561965883E+03  0.65703879332E+01 -0.27526703606E+03  0.10958263491E+04  0.10061708209E+04 0.  0.
   -9000010    2    1    2    0  503  0.33561965883E+03 -0.65703879332E+01 -0.96810704271E+03  0.14263407645E+04  0.99223636551E+03 0.  0.
        -13    1    3    3    0    0  0.35870523798E+03 -0.55726513925E+02 -0.77288792687E+02  0.37114479755E+03  0.10566000000E+00 0.  1.
          4    1    3    3  501    0 -0.69432489682E+03  0.62296901858E+02 -0.19797824337E+03  0.72468155156E+03  0.00000000000E+00 0.  1.
         13    1    4    4    0    0 -0.71537038619E+01  0.32386375727E+03  0.25100457714E+02  0.32491376224E+03  0.10566000000E+00 0. -1.
         -4    1    4    4    0  503  0.34277336270E+03 -0.33043414520E+03 -0.99320750043E+03  0.11014270023E+04  0.00000000000E+00 0. -1.
<mgrwt>
<rscale>  2 0.10573723E+04</rscale>
<asrwt>0</asrwt>
<pdfrwt beam="1">  1       21 0.98368698E-01 0.10606901E+04</pdfrwt>
<pdfrwt beam="2">  1       21 0.28965701E+00 0.10606901E+04</pdfrwt>
<totfact> 0.12966569E+01</totfact>
</mgrwt>
</event>
<event>
 8    1  0.7208583E-006  0.1126767E+04  0.7818608E-02  0.8672820E-01
         21   -1    0    0  501  502  0.00000000000E+00  0.00000000000E+00  0.55545901326E+03  0.55545901326E+03  0.00000000000E+00 0.  1.
         21   -1    0    0  502  503 -0.00000000000E+00 -0.00000000000E+00 -0.23510361202E+04  0.23510361202E+04  0.00000000000E+00 0.  1.
    9000010    2    1    2  501    0  0.41988231974E+03 -0.28309817809E+03 -0.51161753459E+03  0.11982342855E+04  0.95789725984E+03 0.  0.
   -9000010    2    1    2    0  503 -0.41988231974E+03  0.28309817809E+03 -0.12839595723E+04  0.17082608479E+04  0.10065571023E+04 0.  0.
        -13    1    3    3    0    0 -0.16093223284E+03 -0.84018425511E+02  0.19210529613E+03  0.26431559802E+03  0.10566000000E+00 0.  1.
          4    1    3    3  501    0  0.58081455258E+03 -0.19907975258E+03 -0.70372283071E+03  0.93391868749E+03  0.00000000000E+00 0.  1.
         13    1    4    4    0    0  0.12479355670E+03 -0.29652001823E+03 -0.47577112596E+03  0.57433067867E+03  0.10566000000E+00 0. -1.
         -4    1    4    4    0  503 -0.54467587644E+03  0.57961819632E+03 -0.80818844637E+03  0.11339301692E+04  0.00000000000E+00 0. -1.
<mgrwt>
<rscale>  2 0.11157954E+04</rscale>
<asrwt>0</asrwt>
<pdfrwt beam="1">  1       21 0.85455233E-01 0.11267666E+04</pdfrwt>
<pdfrwt beam="2">  1       21 0.36169786E+00 0.11267666E+04</pdfrwt>
<totfact> 0.57062489E+00</totfact>
</mgrwt>
</event>
<event>
 8    1  0.7208583E-006  0.9583401E+03  0.7818608E-02  0.8865906E-01
         21   -1    0    0  501  502  0.00000000000E+00  0.00000000000E+00  0.13882778506E+04  0.13882778506E+04  0.00000000000E+00 0.  1.
         21   -1    0    0  502  503 -0.00000000000E+00 -0.00000000000E+00 -0.55825191416E+03  0.55825191416E+03  0.00000000000E+00 0.  1.
    9000010    2    1    2  501    0  0.32515143123E+02  0.39144760409E+02  0.28260964425E+03  0.99914164396E+03  0.95698812264E+03 0.  0.
   -9000010    2    1    2    0  503 -0.32515143123E+02 -0.39144760409E+02  0.54741629224E+03  0.94738812085E+03  0.77155045702E+03 0.  0.
        -13    1    3    3    0    0 -0.15244371126E+03  0.37619741382E+03 -0.13853336273E+03  0.42889985198E+03  0.10566000000E+00 0.  1.
          4    1    3    3  501    0  0.18495885439E+03 -0.33705265342E+03  0.42114300698E+03  0.57024179198E+03  0.00000000000E+00 0.  1.
         13    1    4    4    0    0  0.35880836318E+03 -0.10970246327E+03  0.25075250670E+03  0.45128140081E+03  0.10566000000E+00 0. -1.
         -4    1    4    4    0  503 -0.39132350631E+03  0.70557702863E+02  0.29666378554E+03  0.49610672004E+03  0.00000000000E+00 0. -1.
<mgrwt>
<rscale>  2 0.90827316E+03</rscale>
<asrwt>0</asrwt>
<pdfrwt beam="1">  1       21 0.21358121E+00 0.95834013E+03</pdfrwt>
<pdfrwt beam="2">  1       21 0.85884910E-01 0.95834013E+03</pdfrwt>
<totfact> 0.67322016E+01</totfact>
</mgrwt>
</event>
<event>
 8    1  0.7208583E-006  0.1188655E+04  0.7818608E-02  0.8640296E-01
         21   -1    0    0  501  502  0.00000000000E+00  0.00000000000E+00  0.89193688169E+03  0.89193688169E+03  0.00000000000E+00 0. -1.
         21   -1    0    0  502  503 -0.00000000000E+00 -0.00000000000E+00 -0.16945909421E+04  0.16945909421E+04  0.00000000000E+00 0. -1.
    9000010    2    1    2  501    0  0.38709834892E+02  0.21482813290E+03  0.97704900907E+02  0.11926639702E+04  0.11684397803E+04 0.  0.
   -9000010    2    1    2    0  503 -0.38709834892E+02 -0.21482813290E+03 -0.90035896136E+03  0.13938638536E+04  0.10414223951E+04 0.  0.
        -13    1    3    3    0    0 -0.52602349978E+03  0.27394098570E+03 -0.78220728290E+02  0.59821641524E+03  0.10566000000E+00 0.  1.
          4    1    3    3  501    0  0.56473333467E+03 -0.59112852799E+02  0.17592562920E+03  0.59444755501E+03  0.00000000000E+00 0.  1.
         13    1    4    4    0    0 -0.49369686213E+03 -0.21344357688E+03 -0.73279264841E+03  0.90899935583E+03  0.10566000000E+00 0. -1.
         -4    1    4    4    0  503  0.45498702723E+03 -0.13845560173E+01 -0.16756631295E+03  0.48486449775E+03  0.00000000000E+00 0. -1.
<mgrwt>
<rscale>  2 0.11561995E+04</rscale>
<asrwt>0</asrwt>
<pdfrwt beam="1">  1       21 0.13722106E+00 0.11886552E+04</pdfrwt>
<pdfrwt beam="2">  1       21 0.26070630E+00 0.11886552E+04</pdfrwt>
<totfact> 0.80703174E+00</totfact>
</mgrwt>
</event>
<event>
 8    1  0.7208583E-006  0.1053580E+04  0.7818608E-02  0.8726582E-01
         21   -1    0    0  501  502  0.00000000000E+00  0.00000000000E+00  0.99384162028E+03  0.99384162028E+03  0.00000000000E+00 0. -1.
         21   -1    0    0  502  503 -0.00000000000E+00 -0.00000000000E+00 -0.12569839279E+04  0.12569839279E+04  0.00000000000E+00 0. -1.
    9000010    2    1    2  501    0  0.32675168612E+03  0.28755273750E+02 -0.51235326060E+03  0.11715533596E+04  0.10012181983E+04 0.  0.
   -9000010    2    1    2    0  503 -0.32675168612E+03 -0.28755273750E+02  0.24921095298E+03  0.10792721886E+04  0.99756144065E+03 0.  0.
        -13    1    3    3    0    0 -0.33138315944E+03 -0.10044920046E+03 -0.32567211841E+03  0.47536005312E+03  0.10566000000E+00 0.  1.
          4    1    3    3  501    0  0.65813484555E+03  0.12920447421E+03 -0.18668114219E+03  0.69619330644E+03  0.00000000000E+00 0.  1.
         13    1    4    4    0    0  0.23535444790E+01 -0.20606763886E+03 -0.33049557462E+03  0.38948266581E+03  0.10566000000E+00 0. -1.
         -4    1    4    4    0  503 -0.32910523060E+03  0.17731236511E+03  0.57970652760E+03  0.68978952280E+03  0.00000000000E+00 0. -1.
<mgrwt>
<rscale>  2 0.10527106E+04</rscale>
<asrwt>0</asrwt>
<pdfrwt beam="1">  1       21 0.15289871E+00 0.10535803E+04</pdfrwt>
<pdfrwt beam="2">  1       21 0.19338214E+00 0.10535803E+04</pdfrwt>
<totfact> 0.19150599E+01</totfact>
</mgrwt>
</event>
<event>
 8    1  0.7208583E-006  0.1008391E+04  0.7818608E-02  0.8767303E-01
         21   -1    0    0  503  502  0.00000000000E+00  0.00000000000E+00  0.56127851565E+03  0.56127851565E+03  0.00000000000E+00 0.  1.
         21   -1    0    0  501  503 -0.00000000000E+00 -0.00000000000E+00 -0.18094129840E+04  0.18094129840E+04  0.00000000000E+00 0.  1.
    9000010    2    1    2  501    0  0.38625161563E+02 -0.10469460468E+03 -0.66448028701E+03  0.12076366527E+04  0.10021972709E+04 0.  0.
   -9000010    2    1    2    0  502 -0.38625161563E+02  0.10469460468E+03 -0.58365418134E+03  0.11630548470E+04  0.99979573429E+03 0.  0.
        -13    1    3    3    0    0 -0.10917379059E+03 -0.50517007304E+03 -0.14805323252E+03  0.53762020988E+03  0.10566000000E+00 0.  1.
          4    1    3    3  501    0  0.14779895215E+03  0.40047546837E+03 -0.51642705449E+03  0.67001644280E+03  0.00000000000E+00 0.  1.
         13    1    4    4    0    0 -0.27784482970E+03  0.43192384342E+03 -0.85202316893E+02  0.52059139627E+03  0.10566000000E+00 0. -1.
         -4    1    4    4    0  502  0.23921966814E+03 -0.32722923874E+03 -0.49845186444E+03  0.64246345069E+03  0.00000000000E+00 0. -1.
<mgrwt>
<rscale>  2 0.10077937E+04</rscale>
<asrwt>0</asrwt>
<pdfrwt beam="1">  1       21 0.86350540E-01 0.10083909E+04</pdfrwt>
<pdfrwt beam="2">  1       21 0.27837123E+00 0.10083909E+04</pdfrwt>
<totfact> 0.22038978E+01</totfact>
</mgrwt>
</event>
<event>
 8    1  0.7208583E-006  0.1027988E+04  0.7818608E-02  0.8750361E-01
         21   -1    0    0  501  502  0.00000000000E+00  0.00000000000E+00  0.56798611672E+03  0.56798611672E+03  0.00000000000E+00 0.  1.
         21   -1    0    0  502  503 -0.00000000000E+00 -0.00000000000E+00 -0.20613443638E+04  0.20613443638E+04  0.00000000000E+00 0.  1.
    9000010    2    1    2  501    0 -0.24678758633E+03 -0.13451209640E+03 -0.11676638958E+04  0.15509819830E+04  0.98138092560E+03 0.  0.
   -9000010    2    1    2    0  503  0.24678758633E+03  0.13451209640E+03 -0.32569435131E+03  0.10783484976E+04  0.98881800898E+03 0.  0.
        -13    1    3    3    0    0 -0.24440425175E+03 -0.55127986895E+03 -0.72454262746E+03  0.94265845477E+03  0.10566000000E+00 0.  1.
          4    1    3    3  501    0 -0.23833345799E+01  0.41676777255E+03 -0.44312126832E+03  0.60832352820E+03  0.00000000000E+00 0.  1.
         13    1    4    4    0    0  0.42627284423E+03  0.34375382245E+01  0.22677301825E+03  0.48285232459E+03  0.10566000000E+00 0. -1.
         -4    1    4    4    0  503 -0.17948525790E+03  0.13107455818E+03 -0.55246736955E+03  0.59549617297E+03  0.00000000000E+00 0. -1.
<mgrwt>
<rscale>  2 0.10261951E+04</rscale>
<asrwt>0</asrwt>
<pdfrwt beam="1">  1       21 0.87382482E-01 0.10279877E+04</pdfrwt>
<pdfrwt beam="2">  1       21 0.31712989E+00 0.10279877E+04</pdfrwt>
<totfact> 0.11323386E+01</totfact>
</mgrwt>
</event>
<event>
 8    1  0.7208583E-006  0.1004911E+04  0.7818608E-02  0.8781464E-01
         21   -1    0    0  503  502  0.00000000000E+00  0.00000000000E+00  0.12947513927E+04  0.12947513927E+04  0.00000000000E+00 0.  1.
         21   -1    0    0  501  503 -0.00000000000E+00 -0.00000000000E+00 -0.77251704631E+03  0.77251704631E+03  0.00000000000E+00 0.  1.
    9000010    2    1    2  501    0  0.81784268008E+01  0.27971404478E+02  0.66031969813E+02  0.10070780765E+04  0.10044883001E+04 0.  0.
   -9000010    2    1    2    0  502 -0.81784268008E+01 -0.27971404478E+02  0.45620237656E+03  0.10601903625E+04  0.95657394396E+03 0.  0.
        -13    1    3    3    0    0 -0.44668689659E+03 -0.20008505695E+03 -0.25329628335E+02  0.49010694225E+03  0.10566000000E+00 0.  1.
          4    1    3    3  501    0  0.45486532339E+03  0.22805646143E+03  0.91361598149E+02  0.51697113424E+03  0.00000000000E+00 0.  1.
         13    1    4    4    0    0  0.38557078689E+02  0.30172150871E+03 -0.17182096243E+03  0.34934935442E+03  0.10566000000E+00 0. -1.
         -4    1    4    4    0  502 -0.46735505489E+02 -0.32969291319E+03  0.62802333899E+03  0.71084100810E+03  0.00000000000E+00 0. -1.
<mgrwt>
<rscale>  2 0.99271752E+03</rscale>
<asrwt>0</asrwt>
<pdfrwt beam="1">  1       21 0.19919252E+00 0.10049110E+04</pdfrwt>
<pdfrwt beam="2">  1       21 0.11884878E+00 0.10049110E+04</pdfrwt>
<totfact> 0.36532114E+01</totfact>
</mgrwt>
</event>
<event>
 8    1  0.7208583E-006  0.1022976E+04  0.7818608E-02  0.8755471E-01
         21   -1    0    0  501  502  0.00000000000E+00  0.00000000000E+00  0.14921268331E+04  0.14921268331E+04  0.00000000000E+00 0.  1.
         21   -1    0    0  502  503 -0.00000000000E+00 -0.00000000000E+00 -0.72500093896E+03  0.72500093896E+03  0.00000000000E+00 0.  1.
    9000010    2    1    2  501    0  0.45030277717E+02  0.10179704108E+03  0.60786942861E+03  0.11818292919E+04  0.10073851644E+04 0.  0.
   -9000010    2    1    2    0  503 -0.45030277717E+02 -0.10179704108E+03  0.15925646547E+03  0.10352984801E+04  0.10169021377E+04 0.  0.
        -13    1    3    3    0    0  0.31988461819E+03  0.67089661426E+02  0.78683147045E+03  0.85201582478E+03  0.10566000000E+00 0.  1.
          4    1    3    3  501    0 -0.27485434047E+03  0.34707379656E+02 -0.17896204183E+03  0.32981346712E+03  0.00000000000E+00 0.  1.
         13    1    4    4    0    0 -0.83223312610E+01  0.11167600717E+03  0.56465968490E+03  0.57565733097E+03  0.10566000000E+00 0. -1.
         -4    1    4    4    0  503 -0.36707946456E+02 -0.21347304825E+03 -0.40540321943E+03  0.45964114915E+03  0.00000000000E+00 0. -1.
<mgrwt>
<rscale>  2 0.10206030E+04</rscale>
<asrwt>0</asrwt>
<pdfrwt beam="1">  1       21 0.22955797E+00 0.10229762E+04</pdfrwt>
<pdfrwt beam="2">  1       21 0.11153861E+00 0.10229762E+04</pdfrwt>
<totfact> 0.25457719E+01</totfact>
</mgrwt>
</event>
<event>
 8    1  0.7208583E-006  0.1036489E+04  0.7818608E-02  0.8748798E-01
         21   -1    0    0  503  502  0.00000000000E+00  0.00000000000E+00  0.20884417817E+04  0.20884417817E+04  0.00000000000E+00 0. -1.
         21   -1    0    0  501  503 -0.00000000000E+00 -0.00000000000E+00 -0.75003406226E+03  0.75003406226E+03  0.00000000000E+00 0. -1.
    9000010    2    1    2  501    0  0.14009900520E+03  0.19275451562E+03 -0.14648701058E+03  0.10467890851E+04  0.10087253887E+04 0.  0.
   -9000010    2    1    2    0  502 -0.14009900520E+03 -0.19275451562E+03  0.14848947300E+04  0.17916867589E+04  0.97388246112E+03 0.  0.
        -13    1    3    3    0    0  0.55275927360E+02 -0.38748080122E+03  0.11026814794E+03  0.40663973622E+03  0.10566000000E+00 0.  1.
          4    1    3    3  501    0  0.84823077841E+02  0.58023531684E+03 -0.25675515852E+03  0.64014934888E+03  0.00000000000E+00 0.  1.
         13    1    4    4    0    0  0.31677811180E+03 -0.11993711669E+02  0.11646404638E+03  0.33772193665E+03  0.10566000000E+00 0. -1.
         -4    1    4    4    0  502 -0.45687711700E+03 -0.18076080395E+03  0.13684306836E+04  0.14539648222E+04  0.00000000000E+00 0. -1.
<mgrwt>
<rscale>  2 0.10279135E+04</rscale>
<asrwt>0</asrwt>
<pdfrwt beam="1">  1       21 0.32129873E+00 0.10364888E+04</pdfrwt>
<pdfrwt beam="2">  1       21 0.11538986E+00 0.10364888E+04</pdfrwt>
<totfact> 0.50844586E+00</totfact>
</mgrwt>
</event>
<event>
 8    1  0.7208583E-006  0.1034296E+04  0.7818608E-02  0.8744736E-01
         21   -1    0    0  503  502  0.00000000000E+00  0.00000000000E+00  0.13383546383E+04  0.13383546383E+04  0.00000000000E+00 0.  1.
         21   -1    0    0  501  503 -0.00000000000E+00 -0.00000000000E+00 -0.91632178026E+03  0.91632178026E+03  0.00000000000E+00 0.  1.
    9000010    2    1    2  501    0  0.13304198549E+03  0.21320534121E+03  0.62447920653E+03  0.12081984124E+04  0.10033007710E+04 0.  0.
   -9000010    2    1    2    0  502 -0.13304198549E+03 -0.21320534121E+03 -0.20244634845E+03  0.10464780062E+04  0.99547727547E+03 0.  0.
        -13    1    3    3    0    0 -0.14650885955E+03 -0.36239527476E+03  0.18904755689E+03  0.43420521764E+03  0.10566000000E+00 0.  1.
          4    1    3    3  501    0  0.27955084504E+03  0.57560061597E+03  0.43543164965E+03  0.77399319479E+03  0.00000000000E+00 0.  1.
         13    1    4    4    0    0 -0.54074524733E+03  0.39255289748E+02 -0.15885373893E+03  0.56496099142E+03  0.10566000000E+00 0. -1.
         -4    1    4    4    0  502  0.40770326184E+03 -0.25246063096E+03 -0.43592609518E+02  0.48151701476E+03  0.00000000000E+00 0. -1.
<mgrwt>
<rscale>  2 0.10323944E+04</rscale>
<asrwt>0</asrwt>
<pdfrwt beam="1">  1       21 0.20590071E+00 0.10342964E+04</pdfrwt>
<pdfrwt beam="2">  1       21 0.14097258E+00 0.10342964E+04</pdfrwt>
<totfact> 0.19672474E+01</totfact>
</mgrwt>
</event>
<event>
 8    1  0.7208583E-006  0.1007617E+04  0.7818608E-02  0.8768886E-01
         21   -1    0    0  503  502  0.00000000000E+00  0.00000000000E+00  0.11114908631E+04  0.11114908631E+04  0.00000000000E+00 0. -1.
         21   -1    0    0  501  503 -0.00000000000E+00 -0.00000000000E+00 -0.90906160073E+03  0.90906160073E+03  0.00000000000E+00 0. -1.
    9000010    2    1    2  501    0 -0.54007447971E+02  0.12876321842E+03  0.65589869313E+02  0.10036862888E+04  0.99175973120E+03 0.  0.
   -9000010    2    1    2    0  502  0.54007447971E+02 -0.12876321842E+03  0.13683939304E+03  0.10168661751E+04  0.99789529893E+03 0.  0.
        -13    1    3    3    0    0 -0.16374650107E+03 -0.31423981300E+02 -0.43548086118E+03  0.46630888350E+03  0.10566000000E+00 0.  1.
          4    1    3    3  501    0  0.10973905310E+03  0.16018719972E+03  0.50107073049E+03  0.53737740526E+03  0.00000000000E+00 0.  1.
         13    1    4    4    0    0  0.31461122505E+03  0.34274306144E+03  0.20388368227E+02  0.46569166389E+03  0.10566000000E+00 0. -1.
         -4    1    4    4    0  502 -0.26060377708E+03 -0.47150627986E+03  0.11645102481E+03  0.55117451116E+03  0.00000000000E+00 0. -1.
<mgrwt>
<rscale>  2 0.10060944E+04</rscale>
<asrwt>0</asrwt>
<pdfrwt beam="1">  1       21 0.17099860E+00 0.10076169E+04</pdfrwt>
<pdfrwt beam="2">  1       21 0.13985563E+00 0.10076169E+04</pdfrwt>
<totfact> 0.38580042E+01</totfact>
</mgrwt>
</event>
<event>
 8    1  0.7208583E-006  0.1104862E+04  0.7818608E-02  0.8688439E-01
         21   -1    0    0  503  502  0.00000000000E+00  0.00000000000E+00  0.16532379799E+04  0.16532379799E+04  0.00000000000E+00 0. -1.
         21   -1    0    0  501  503 -0.00000000000E+00 -0.00000000000E+00 -0.86165601105E+03  0.86165601105E+03  0.00000000000E+00 0. -1.
    9000010    2    1    2  501    0  0.24940964246E+02 -0.37723762963E+03  0.91434602145E+03  0.14341365772E+04  0.10381660726E+04 0.  0.
   -9000010    2    1    2    0  502 -0.24940964246E+02  0.37723762963E+03 -0.12276405261E+03  0.10807574137E+04  0.10050051213E+04 0.  0.
        -13    1    3    3    0    0  0.20647869263E+03 -0.16315005415E+03 -0.17050152981E+03  0.31356366740E+03  0.10566000000E+00 0.  1.
          4    1    3    3  501    0 -0.18153772838E+03 -0.21408757547E+03  0.10848475513E+04  0.11205729098E+04  0.00000000000E+00 0.  1.
         13    1    4    4    0    0 -0.45345513234E+03  0.89578392473E+02  0.16385145378E+03  0.49040101501E+03  0.10566000000E+00 0. -1.
         -4    1    4    4    0  502  0.42851416810E+03  0.28765923716E+03 -0.28661550639E+03  0.59035639870E+03  0.00000000000E+00 0. -1.
<mgrwt>
<rscale>  2 0.10970033E+04</rscale>
<asrwt>0</asrwt>
<pdfrwt beam="1">  1       21 0.25434430E+00 0.11048616E+04</pdfrwt>
<pdfrwt beam="2">  1       21 0.13256246E+00 0.11048616E+04</pdfrwt>
<totfact> 0.10113613E+01</totfact>
</mgrwt>
</event>
<event>
 8    1  0.7208583E-006  0.1023943E+04  0.7818608E-02  0.8753279E-01
         21   -1    0    0  501  502  0.00000000000E+00  0.00000000000E+00  0.11101728074E+04  0.11101728074E+04  0.00000000000E+00 0. -1.
         21   -1    0    0  502  503 -0.00000000000E+00 -0.00000000000E+00 -0.10097028343E+04  0.10097028343E+04  0.00000000000E+00 0. -1.
    9000010    2    1    2  501    0  0.27000319471E+02 -0.16513591694E+03  0.32677162811E+03  0.10712229707E+04  0.10063498734E+04 0.  0.
   -9000010    2    1    2    0  503 -0.27000319471E+02  0.16513591694E+03 -0.22630165506E+03  0.10486526710E+04  0.10101787451E+04 0.  0.
        -13    1    3    3    0    0 -0.36440228656E+03  0.25556894343E+03  0.15854028894E+03  0.47248232314E+03  0.10566000000E+00 0.  1.
          4    1    3    3  501    0  0.39140260603E+03 -0.42070486037E+03  0.16823133916E+03  0.59874064755E+03  0.00000000000E+00 0.  1.
         13    1    4    4    0    0 -0.19244513535E+03 -0.14361513531E+03 -0.53203237110E+03  0.58371130901E+03  0.10566000000E+00 0. -1.
         -4    1    4    4    0  503  0.16544481587E+03  0.30875105225E+03  0.30573071604E+03  0.46494136200E+03  0.00000000000E+00 0. -1.
<mgrwt>
<rscale>  2 0.10229977E+04</rscale>
<asrwt>0</asrwt>
<pdfrwt beam="1">  1       21 0.17079582E+00 0.10239434E+04</pdfrwt>
<pdfrwt beam="2">  1       21 0.15533890E+00 0.10239434E+04</pdfrwt>
<totfact> 0.28004232E+01</totfact>
</mgrwt>
</event>
<event>
 8    1  0.7208583E-006  0.1020530E+04  0.7818608E-02  0.8759168E-01
         21   -1    0    0  501  502  0.00000000000E+00  0.00000000000E+00  0.25141967199E+04  0.25141967199E+04  0.00000000000E+00 0. -1.
         21   -1    0    0  502  503 -0.00000000000E+00 -0.00000000000E+00 -0.41737989731E+03  0.41737989731E+03  0.00000000000E+00 0. -1.
    9000010    2    1    2  501    0  0.15594594655E+03  0.15141197620E+02  0.12774071334E+04  0.16350077998E+04  0.10084310225E+04 0.  0.
   -9000010    2    1    2    0  503 -0.15594594655E+03 -0.15141197620E+02  0.81940968928E+03  0.12965688174E+04  0.99252711059E+03 0.  0.
        -13    1    3    3    0    0  0.53076438138E+03 -0.18119064121E+03  0.93669142608E+03  0.10917562529E+04  0.10566000000E+00 0.  1.
          4    1    3    3  501    0 -0.37481843483E+03  0.19633183883E+03  0.34071570727E+03  0.54325154690E+03  0.00000000000E+00 0.  1.
         13    1    4    4    0    0  0.21936448815E+03 -0.11372692534E+03  0.87076345776E+03  0.90514286317E+03  0.10566000000E+00 0. -1.
         -4    1    4    4    0  503 -0.37531043470E+03  0.98585727724E+02 -0.51353768481E+02  0.39142595423E+03  0.00000000000E+00 0. -1.
<mgrwt>
<rscale>  2 0.10165790E+04</rscale>
<asrwt>0</asrwt>
<pdfrwt beam="1">  1       21 0.38679948E+00 0.10205300E+04</pdfrwt>
<pdfrwt beam="2">  1       21 0.64212294E-01 0.10205300E+04</pdfrwt>
<totfact> 0.77420069E+00</totfact>
</mgrwt>
</event>
<event>
 8    1  0.7208583E-006  0.1000577E+04  0.7818608E-02  0.8793075E-01
         21   -1    0    0  503  502  0.00000000000E+00  0.00000000000E+00  0.92672089707E+03  0.92672089707E+03  0.00000000000E+00 0. -1.
         21   -1    0    0  501  503 -0.00000000000E+00 -0.00000000000E+00 -0.10907690269E+04  0.10907690269E+04  0.00000000000E+00 0. -1.
    9000010    2    1    2  501    0 -0.15571550644E+03 -0.33991825956E+02 -0.37893282308E+03  0.10699276125E+04  0.98780172530E+03 0.  0.
   -9000010    2    1    2    0  502  0.15571550644E+03  0.33991825956E+02  0.21488469327E+03  0.94756231141E+03  0.90900832747E+03 0.  0.
        -13    1    3    3    0    0  0.39402727206E+02  0.43212481357E+03  0.71980086766E+01  0.43397724815E+03  0.10566000000E+00 0.  1.
          4    1    3    3  501    0 -0.19511823364E+03 -0.46611663953E+03 -0.38613083175E+03  0.63595036440E+03  0.00000000000E+00 0.  1.
         13    1    4    4    0    0 -0.14523285150E+03  0.35441917928E+03 -0.11278543865E+03  0.39928198323E+03  0.10566000000E+00 0. -1.
         -4    1    4    4    0  502  0.30094835794E+03 -0.32042735333E+03  0.32767013192E+03  0.54828032817E+03  0.00000000000E+00 0. -1.
<mgrwt>
<rscale>  2 0.98055906E+03</rscale>
<asrwt>0</asrwt>
<pdfrwt beam="1">  1       21 0.14257245E+00 0.10005773E+04</pdfrwt>
<pdfrwt beam="2">  1       21 0.16781062E+00 0.10005773E+04</pdfrwt>
<totfact> 0.38797899E+01</totfact>
</mgrwt>
</event>
<event>
 8    1  0.7208583E-006  0.1103146E+04  0.7818608E-02  0.8716977E-01
         21   -1    0    0  501  502  0.00000000000E+00  0.00000000000E+00  0.10756370197E+04  0.10756370197E+04  0.00000000000E+00 0.  1.
         21   -1    0    0  502  503 -0.00000000000E+00 -0.00000000000E+00 -0.14831516923E+04  0.14831516923E+04  0.00000000000E+00 0.  1.
    9000010    2    1    2  501    0  0.11122547866E+02 -0.45448595209E+03 -0.95519520576E+03  0.14592221630E+04  0.10051120576E+04 0.  0.
   -9000010    2    1    2    0  503 -0.11122547866E+02  0.45448595209E+03  0.54768053309E+03  0.10995665490E+04  0.83809989711E+03 0.  0.
        -13    1    3    3    0    0 -0.30958827319E+03  0.93971502409E+02 -0.14232165069E+02  0.32384889663E+03  0.10566000000E+00 0.  1.
          4    1    3    3  501    0  0.32071082106E+03 -0.54845745450E+03 -0.94096304069E+03  0.11353732664E+04  0.00000000000E+00 0.  1.
         13    1    4    4    0    0  0.35135942438E+03 -0.24665322025E+02  0.21830199304E+03  0.41438821718E+03  0.10566000000E+00 0. -1.
         -4    1    4    4    0  503 -0.36248197224E+03  0.47915127412E+03  0.32937854005E+03  0.68517833178E+03  0.00000000000E+00 0. -1.
<mgrwt>
<rscale>  2 0.10636551E+04</rscale>
<asrwt>0</asrwt>
<pdfrwt beam="1">  1       21 0.16548262E+00 0.11031462E+04</pdfrwt>
<pdfrwt beam="2">  1       21 0.22817718E+00 0.11031462E+04</pdfrwt>
<totfact> 0.79729786E+00</totfact>
</mgrwt>
</event>
<event>
 8    1  0.7208583E-006  0.9927047E+03  0.7818608E-02  0.8788284E-01
         21   -1    0    0  501  502  0.00000000000E+00  0.00000000000E+00  0.32730365110E+04  0.32730365110E+04  0.00000000000E+00 0. -1.
         21   -1    0    0  502  503 -0.00000000000E+00 -0.00000000000E+00 -0.34523950260E+03  0.34523950260E+03  0.00000000000E+00 0. -1.
    9000010    2    1    2  501    0  0.26413612008E+02  0.12361567505E+03  0.21884420800E+04  0.24030691640E+04  0.98462386490E+03 0.  0.
   -9000010    2    1    2    0  503 -0.26413612008E+02 -0.12361567505E+03  0.73935492839E+03  0.12152068496E+04  0.95608758133E+03 0.  0.
        -13    1    3    3    0    0 -0.42852399886E+03 -0.13464843427E+03  0.77277293249E+03  0.89383501543E+03  0.10566000000E+00 0.  1.
          4    1    3    3  501    0  0.45493761087E+03  0.25826410933E+03  0.14156691475E+04  0.15092341486E+04  0.00000000000E+00 0.  1.
         13    1    4    4    0    0  0.37366948024E+03 -0.18528873448E+03  0.69154308614E+03  0.80758445177E+03  0.10566000000E+00 0. -1.
         -4    1    4    4    0  503 -0.40008309224E+03  0.61673059425E+02  0.47811842249E+02  0.40762239784E+03  0.00000000000E+00 0. -1.
<mgrwt>
<rscale>  2 0.98555354E+03</rscale>
<asrwt>0</asrwt>
<pdfrwt beam="1">  1       21 0.50354406E+00 0.99270472E+03</pdfrwt>
<pdfrwt beam="2">  1       21 0.53113772E-01 0.99270472E+03</pdfrwt>
<totfact> 0.18587262E+00</totfact>
</mgrwt>
</event>
<event>
 8    1  0.7208583E-006  0.1030560E+04  0.7818608E-02  0.8749084E-01
         21   -1    0    0  503  502  0.00000000000E+00  0.00000000000E+00  0.71285841313E+03  0.71285841313E+03  0.00000000000E+00 0. -1.
         21   -1    0    0  501  503 -0.00000000000E+00 -0.00000000000E+00 -0.16566320116E+04  0.16566320116E+04  0.00000000000E+00 0. -1.
    9000010    2    1    2  501    0 -0.19660877498E+03 -0.79736301179E+02 -0.86407415059E+03  0.13358532054E+04  0.99642699707E+03 0.  0.
   -9000010    2    1    2    0  502  0.19660877498E+03  0.79736301179E+02 -0.79699447898E+02  0.10336372194E+04  0.10084845121E+04 0.  0.
        -13    1    3    3    0    0 -0.32276605820E+03  0.22490438983E+03 -0.92076720172E+03  0.10012852560E+04  0.10566000000E+00 0.  1.
          4    1    3    3  501    0  0.12615728321E+03 -0.30464069101E+03  0.56693051131E+02  0.33456794941E+03  0.00000000000E+00 0.  1.
         13    1    4    4    0    0 -0.21856196224E+03 -0.48752305085E+02  0.35449963115E+03  0.41930432652E+03  0.10566000000E+00 0. -1.
         -4    1    4    4    0  502  0.41517073722E+03  0.12848860626E+03 -0.43419907905E+03  0.61433289285E+03  0.00000000000E+00 0. -1.
<mgrwt>
<rscale>  2 0.10275982E+04</rscale>
<asrwt>0</asrwt>
<pdfrwt beam="1">  1       21 0.10967053E+00 0.10305600E+04</pdfrwt>
<pdfrwt beam="2">  1       21 0.25486646E+00 0.10305600E+04</pdfrwt>
<totfact> 0.17356422E+01</totfact>
</mgrwt>
</event>
<event>
 8    1  0.7208583E-006  0.1030979E+04  0.7818608E-02  0.8749549E-01
         21   -1    0    0  501  502  0.00000000000E+00  0.00000000000E+00  0.12070453733E+04  0.12070453733E+04  0.00000000000E+00 0. -1.
         21   -1    0    0  502  503 -0.00000000000E+00 -0.00000000000E+00 -0.10572728559E+04  0.10572728559E+04  0.00000000000E+00 0. -1.
    9000010    2    1    2  501    0 -0.16607546904E+03  0.14484769962E+03  0.55416597187E+03  0.11568649835E+04  0.99129952493E+03 0.  0.
   -9000010    2    1    2    0  503  0.16607546904E+03 -0.14484769962E+03 -0.40439345441E+03  0.11074532458E+04  0.10071527729E+04 0.  0.
        -13    1    3    3    0    0  0.73131795980E+02 -0.18462757410E+02  0.78368848359E+03  0.78730983956E+03  0.10566000000E+00 0.  1.
          4    1    3    3  501    0 -0.23920726502E+03  0.16331045703E+03 -0.22952251172E+03  0.36955514392E+03  0.00000000000E+00 0.  1.
         13    1    4    4    0    0 -0.41316331702E+03 -0.17881710425E+03 -0.15883193125E+03  0.47739614248E+03  0.10566000000E+00 0. -1.
         -4    1    4    4    0  503  0.57923878606E+03  0.33969404630E+02 -0.24556152315E+03  0.63005710327E+03  0.00000000000E+00 0. -1.
<mgrwt>
<rscale>  2 0.10270872E+04</rscale>
<asrwt>0</asrwt>
<pdfrwt beam="1">  1       21 0.18569929E+00 0.10309794E+04</pdfrwt>
<pdfrwt beam="2">  1       21 0.16265736E+00 0.10309794E+04</pdfrwt>
<totfact> 0.18235500E+01</totfact>
</mgrwt>
</event>
<event>
 8    1  0.7208583E-006  0.1087937E+04  0.7818608E-02  0.8706128E-01
         21   -1    0    0  501  502  0.00000000000E+00  0.00000000000E+00  0.17220388645E+04  0.17220388645E+04  0.00000000000E+00 0. -1.
         21   -1    0    0  502  503 -0.00000000000E+00 -0.00000000000E+00 -0.23479873978E+04  0.23479873978E+04  0.00000000000E+00 0. -1.
    9000010    2    1    2  501    0  0.19830190000E+02  0.38094134645E+03  0.14112688233E+04  0.17819330889E+04  0.10188701075E+04 0.  0.
   -9000010    2    1    2    0  503 -0.19830190000E+02 -0.38094134645E+03 -0.20372173566E+04  0.22880931734E+04  0.96933289746E+03 0.  0.
        -13    1    3    3    0    0 -0.14274455528E+03  0.27722745098E+03 -0.43145895878E+02  0.31478984598E+03  0.10566000000E+00 0.  1.
          4    1    3    3  501    0  0.16257474528E+03  0.10371389546E+03  0.14544147192E+04  0.14671432429E+04  0.00000000000E+00 0.  1.
         13    1    4    4    0    0 -0.12344362618E+03 -0.69685814415E+03 -0.14423894344E+04  0.16066539433E+04  0.10566000000E+00 0. -1.
         -4    1    4    4    0  503  0.10361343618E+03  0.31591679771E+03 -0.59482792215E+03  0.68143923002E+03  0.00000000000E+00 0. -1.
<mgrwt>
<rscale>  2 0.10761856E+04</rscale>
<asrwt>0</asrwt>
<pdfrwt beam="1">  1       21 0.26492906E+00 0.10879365E+04</pdfrwt>
<pdfrwt beam="2">  1       21 0.36122883E+00 0.10879365E+04</pdfrwt>
<totfact> 0.15510414E-01</totfact>
</mgrwt>
</event>
<event>
 8    1  0.7208583E-006  0.1378641E+04  0.7818608E-02  0.8484262E-01
         21   -1    0    0  503  502  0.00000000000E+00  0.00000000000E+00  0.10036243643E+04  0.10036243643E+04  0.00000000000E+00 0. -1.
         21   -1    0    0  501  503 -0.00000000000E+00 -0.00000000000E+00 -0.19696716208E+04  0.19696716208E+04  0.00000000000E+00 0. -1.
    9000010    2    1    2  501    0 -0.41375210693E+03  0.84717347465E+03 -0.16906612006E+03  0.13808671384E+04  0.99464415695E+03 0.  0.
   -9000010    2    1    2    0  502  0.41375210693E+03 -0.84717347465E+03 -0.79698113641E+03  0.15924288467E+04  0.10058613213E+04 0.  0.
        -13    1    3    3    0    0 -0.29780520833E+02  0.39887529618E+03  0.39663133530E+03  0.56329815252E+03  0.10566000000E+00 0.  1.
          4    1    3    3  501    0 -0.38397158609E+03  0.44829817846E+03 -0.56569745536E+03  0.81756898593E+03  0.00000000000E+00 0.  1.
         13    1    4    4    0    0 -0.91374734587E+02 -0.71165976489E+03 -0.79300766070E+03  0.10694251372E+04  0.10566000000E+00 0. -1.
         -4    1    4    4    0  502  0.50512684152E+03 -0.13551370976E+03 -0.39734757045E+01  0.52300370941E+03  0.00000000000E+00 0. -1.
<mgrwt>
<rscale>  2 0.13765957E+04</rscale>
<asrwt>0</asrwt>
<pdfrwt beam="1">  1       21 0.15440375E+00 0.13786409E+04</pdfrwt>
<pdfrwt beam="2">  1       21 0.30302640E+00 0.13786409E+04</pdfrwt>
<totfact> 0.27057946E+00</totfact>
</mgrwt>
</event>
<event>
 8    1  0.7208583E-006  0.1057673E+04  0.7818608E-02  0.8725272E-01
         21   -1    0    0  503  502  0.00000000000E+00  0.00000000000E+00  0.17002079881E+04  0.17002079881E+04  0.00000000000E+00 0. -1.
         21   -1    0    0  501  503 -0.00000000000E+00 -0.00000000000E+00 -0.66075304993E+03  0.66075304993E+03  0.00000000000E+00 0. -1.
    9000010    2    1    2  501    0 -0.28916949719E+03  0.59958411553E+02  0.36148422442E+03  0.11046503897E+04  0.10011831150E+04 0.  0.
   -9000010    2    1    2    0  502  0.28916949719E+03 -0.59958411553E+02  0.67797071373E+03  0.12563106483E+04  0.10156072799E+04 0.  0.
        -13    1    3    3    0    0  0.17369235776E+03  0.22611056883E+03  0.51568737029E+03  0.58926097743E+03  0.10566000000E+00 0.  1.
          4    1    3    3  501    0 -0.46286185494E+03 -0.16615215728E+03 -0.15420314587E+03  0.51538941232E+03  0.00000000000E+00 0.  1.
         13    1    4    4    0    0 -0.19560258093E+03 -0.41341710352E+03  0.30976146971E+03  0.55238234080E+03  0.10566000000E+00 0. -1.
         -4    1    4    4    0  502  0.48477207812E+03  0.35345869197E+03  0.36820924401E+03  0.70392830745E+03  0.00000000000E+00 0. -1.
<mgrwt>
<rscale>  2 0.10541952E+04</rscale>
<asrwt>0</asrwt>
<pdfrwt beam="1">  1       21 0.26157046E+00 0.10576730E+04</pdfrwt>
<pdfrwt beam="2">  1       21 0.10165432E+00 0.10576730E+04</pdfrwt>
<totfact> 0.18892398E+01</totfact>
</mgrwt>
</event>
<event>
 8    1  0.7208583E-006  0.1024773E+04  0.7818608E-02  0.8754613E-01
         21   -1    0    0  501  502  0.00000000000E+00  0.00000000000E+00  0.11656395927E+04  0.11656395927E+04  0.00000000000E+00 0.  1.
         21   -1    0    0  502  503 -0.00000000000E+00 -0.00000000000E+00 -0.12212063995E+04  0.12212063995E+04  0.00000000000E+00 0.  1.
    9000010    2    1    2  501    0 -0.16257993037E+03 -0.13554767877E+03  0.59392172349E+03  0.11844416517E+04  0.10026732297E+04 0.  0.
   -9000010    2    1    2    0  503  0.16257993037E+03  0.13554767877E+03 -0.64948853033E+03  0.12024043405E+04  0.98951272865E+03 0.  0.
        -13    1    3    3    0    0  0.48889302177E+02 -0.22251468059E+03 -0.23336825248E+03  0.32613448050E+03  0.10566000000E+00 0.  1.
          4    1    3    3  501    0 -0.21146923255E+03  0.86967001818E+02  0.82728997598E+03  0.85830717116E+03  0.00000000000E+00 0.  1.
         13    1    4    4    0    0  0.28559644432E+03  0.52457867238E+03 -0.31775366560E+03  0.67654675795E+03  0.10566000000E+00 0. -1.
         -4    1    4    4    0  503 -0.12301651394E+03 -0.38903099362E+03 -0.33173486473E+03  0.52585758259E+03  0.00000000000E+00 0. -1.
<mgrwt>
<rscale>  2 0.10215391E+04</rscale>
<asrwt>0</asrwt>
<pdfrwt beam="1">  1       21 0.17932917E+00 0.10247727E+04</pdfrwt>
<pdfrwt beam="2">  1       21 0.18787791E+00 0.10247727E+04</pdfrwt>
<totfact> 0.12726163E+01</totfact>
</mgrwt>
</event>
<event>
 8    1  0.7208583E-006  0.1034112E+04  0.7818608E-02  0.8744918E-01
         21   -1    0    0  501  502  0.00000000000E+00  0.00000000000E+00  0.17255883412E+04  0.17255883412E+04  0.00000000000E+00 0.  1.
         21   -1    0    0  502  503 -0.00000000000E+00 -0.00000000000E+00 -0.63581918169E+03  0.63581918169E+03  0.00000000000E+00 0.  1.
    9000010    2    1    2  501    0 -0.14729235357E+03  0.17370718312E+03  0.33393703199E+03  0.10866925279E+04  0.10087207175E+04 0.  0.
   -9000010    2    1    2    0  503  0.14729235357E+03 -0.17370718312E+03  0.75583212755E+03  0.12747149951E+04  0.10008730642E+04 0.  0.
        -13    1    3    3    0    0  0.36314410235E+03 -0.18403568524E+03  0.87408655798E+02  0.41639291154E+03  0.10566000000E+00 0.  1.
          4    1    3    3  501    0 -0.51043645591E+03  0.35774286836E+03  0.24652837619E+03  0.67029961633E+03  0.00000000000E+00 0.  1.
         13    1    4    4    0    0 -0.41728292002E+03 -0.73179843155E+02  0.47404565052E+03  0.63576695001E+03  0.10566000000E+00 0. -1.
         -4    1    4    4    0  503  0.56457527359E+03 -0.10052733997E+03  0.28178647702E+03  0.63894804504E+03  0.00000000000E+00 0. -1.
<mgrwt>
<rscale>  2 0.10321928E+04</rscale>
<asrwt>0</asrwt>
<pdfrwt beam="1">  1       21 0.26547513E+00 0.10341116E+04</pdfrwt>
<pdfrwt beam="2">  1       21 0.97818336E-01 0.10341116E+04</pdfrwt>
<totfact> 0.19689521E+01</totfact>
</mgrwt>
</event>
<event>
 8    1  0.7208583E-006  0.1010815E+04  0.7818608E-02  0.8774603E-01
         21   -1    0    0  501  502  0.00000000000E+00  0.00000000000E+00  0.95583768325E+03  0.95583768325E+03  0.00000000000E+00 0.  1.
         21   -1    0    0  502  503 -0.00000000000E+00 -0.00000000000E+00 -0.12646252723E+04  0.12646252723E+04  0.00000000000E+00 0.  1.
    9000010    2    1    2  501    0 -0.13102335245E+03  0.44543686127E+02  0.33213099679E+03  0.10235824206E+04  0.95825816658E+03 0.  0.
   -9000010    2    1    2    0  503  0.13102335245E+03 -0.44543686127E+02 -0.64091858582E+03  0.11968805350E+04  0.10012967205E+04 0.  0.
        -13    1    3    3    0    0  0.21754830008E+03  0.16823792827E+03  0.53513607445E+03  0.60166593116E+03  0.10566000000E+00 0.  1.
          4    1    3    3  501    0 -0.34857165253E+03 -0.12369424215E+03 -0.20300507766E+03  0.42191648942E+03  0.00000000000E+00 0.  1.
         13    1    4    4    0    0 -0.29229679005E+03 -0.35859850402E+02 -0.70928264725E+03  0.76798777803E+03  0.10566000000E+00 0. -1.
         -4    1    4    4    0  503  0.42332014250E+03 -0.86838357255E+01  0.68364061424E+02  0.42889275693E+03  0.00000000000E+00 0. -1.
<mgrwt>
<rscale>  2 0.99998817E+03</rscale>
<asrwt>0</asrwt>
<pdfrwt beam="1">  1       21 0.14705195E+00 0.10108147E+04</pdfrwt>
<pdfrwt beam="2">  1       21 0.19455773E+00 0.10108147E+04</pdfrwt>
<totfact> 0.21348401E+01</totfact>
</mgrwt>
</event>
<event>
 8    1  0.7208583E-006  0.1044481E+04  0.7818608E-02  0.8737535E-01
         21   -1    0    0  503  502  0.00000000000E+00  0.00000000000E+00  0.24902905151E+04  0.24902905151E+04  0.00000000000E+00 0.  1.
         21   -1    0    0  501  503 -0.00000000000E+00 -0.00000000000E+00 -0.72466138617E+03  0.72466138617E+03  0.00000000000E+00 0.  1.
    9000010    2    1    2  501    0  0.83052966482E+01  0.25792954112E+03 -0.14407032129E+03  0.10382818393E+04  0.99532722976E+03 0.  0.
   -9000010    2    1    2    0  502 -0.83052966482E+01 -0.25792954112E+03  0.19096994502E+04  0.21766700619E+04  0.10120987808E+04 0.  0.
        -13    1    3    3    0    0  0.91672376072E+02 -0.29960040983E+03  0.20575333913E+03  0.37483153260E+03  0.10566000000E+00 0.  1.
          4    1    3    3  501    0 -0.83367079423E+02  0.55752995095E+03 -0.34982366042E+03  0.66345030675E+03  0.00000000000E+00 0.  1.
         13    1    4    4    0    0  0.38689551971E+03 -0.14463663923E+03  0.28767064745E+03  0.50335108338E+03  0.10566000000E+00 0. -1.
         -4    1    4    4    0  502 -0.39520081636E+03 -0.11329290189E+03  0.16220288028E+04  0.16733189785E+04  0.00000000000E+00 0. -1.
<mgrwt>
<rscale>  2 0.10403963E+04</rscale>
<asrwt>0</asrwt>
<pdfrwt beam="1">  1       21 0.38312161E+00 0.10444810E+04</pdfrwt>
<pdfrwt beam="2">  1       21 0.11148637E+00 0.10444810E+04</pdfrwt>
<totfact> 0.20538868E+00</totfact>
</mgrwt>
</event>
<event>
 8    1  0.7208583E-006  0.1014939E+04  0.7818608E-02  0.8761092E-01
         21   -1    0    0  503  502  0.00000000000E+00  0.00000000000E+00  0.34880173223E+03  0.34880173223E+03  0.00000000000E+00 0.  1.
         21   -1    0    0  501  503 -0.00000000000E+00 -0.00000000000E+00 -0.34099234979E+04  0.34099234979E+04  0.00000000000E+00 0.  1.
    9000010    2    1    2  501    0  0.10459494415E+03  0.94213475681E+02 -0.84007018889E+03  0.13175045457E+04  0.10051288595E+04 0.  0.
   -9000010    2    1    2    0  502 -0.10459494415E+03 -0.94213475681E+02 -0.22210515768E+04  0.24412206845E+04  0.10033304750E+04 0.  0.
        -13    1    3    3    0    0 -0.92748249836E+02  0.31080453815E+03 -0.95054409860E+03  0.10043583988E+04  0.10566000000E+00 0.  1.
          4    1    3    3  501    0  0.19734319398E+03 -0.21659106247E+03  0.11047390970E+03  0.31314614684E+03  0.00000000000E+00 0.  1.
         13    1    4    4    0    0 -0.12929844311E+03  0.29647282765E+03 -0.19208694304E+04  0.19479100608E+04  0.10566000000E+00 0. -1.
         -4    1    4    4    0  502  0.24703498965E+02 -0.39068630333E+03 -0.30018214640E+03  0.49331062373E+03  0.00000000000E+00 0. -1.
<mgrwt>
<rscale>  2 0.10144930E+04</rscale>
<asrwt>0</asrwt>
<pdfrwt beam="1">  1       21 0.53661805E-01 0.10149386E+04</pdfrwt>
<pdfrwt beam="2">  1       21 0.52460362E+00 0.10149386E+04</pdfrwt>
<totfact> 0.12856313E+00</totfact>
</mgrwt>
</event>
<event>
 8    1  0.7208583E-006  0.1034509E+04  0.7818608E-02  0.8744063E-01
         21   -1    0    0  503  502  0.00000000000E+00  0.00000000000E+00  0.14908358640E+04  0.14908358640E+04  0.00000000000E+00 0. -1.
         21   -1    0    0  501  503 -0.00000000000E+00 -0.00000000000E+00 -0.15794796883E+04  0.15794796883E+04  0.00000000000E+00 0. -1.
    9000010    2    1    2  501    0 -0.14081393745E+03 -0.24165075750E+03 -0.11806037583E+04  0.15661263049E+04  0.99030435484E+03 0.  0.
   -9000010    2    1    2    0  502  0.14081393745E+03  0.24165075750E+03  0.10919599340E+04  0.15041892474E+04  0.99598450834E+03 0.  0.
        -13    1    3    3    0    0  0.37756822545E+03  0.11758595037E+03 -0.51289300829E+03  0.64764455507E+03  0.10566000000E+00 0.  1.
          4    1    3    3  501    0 -0.51838216290E+03 -0.35923670787E+03 -0.66771075005E+03  0.91848174986E+03  0.00000000000E+00 0.  1.
         13    1    4    4    0    0  0.19195974290E+03  0.58533925077E+03  0.94245353426E+03  0.11259170737E+04  0.10566000000E+00 0. -1.
         -4    1    4    4    0  502 -0.51145805452E+02 -0.34368849327E+03  0.14950639972E+03  0.37827217368E+03  0.00000000000E+00 0. -1.
<mgrwt>
<rscale>  2 0.10331394E+04</rscale>
<asrwt>0</asrwt>
<pdfrwt beam="1">  1       21 0.22935936E+00 0.10345090E+04</pdfrwt>
<pdfrwt beam="2">  1       21 0.24299688E+00 0.10345090E+04</pdfrwt>
<totfact> 0.19757664E+00</totfact>
</mgrwt>
</event>
<event>
 8    1  0.7208583E-006  0.1240847E+04  0.7818608E-02  0.8586125E-01
         21   -1    0    0  501  502  0.00000000000E+00  0.00000000000E+00  0.13895152419E+04  0.13895152419E+04  0.00000000000E+00 0.  1.
         21   -1    0    0  502  503 -0.00000000000E+00 -0.00000000000E+00 -0.12983548811E+04  0.12983548811E+04  0.00000000000E+00 0.  1.
    9000010    2    1    2  501    0 -0.32952615727E+03 -0.55074688488E+03  0.62001737573E+03  0.13871271823E+04  0.10619748840E+04 0.  0.
   -9000010    2    1    2    0  503  0.32952615727E+03  0.55074688488E+03 -0.52885701487E+03  0.13007429407E+04  0.10001664042E+04 0.  0.
        -13    1    3    3    0    0 -0.22832966280E+03 -0.29378034563E+03 -0.26709562263E+03  0.45801900526E+03  0.10566000000E+00 0.  1.
          4    1    3    3  501    0 -0.10119649447E+03 -0.25696653925E+03  0.88711299836E+03  0.92910817704E+03  0.00000000000E+00 0.  1.
         13    1    4    4    0    0  0.15645879048E+03  0.93922194782E+02  0.29269655225E+03  0.34492320109E+03  0.10566000000E+00 0. -1.
         -4    1    4    4    0  503  0.17306736679E+03  0.45682469009E+03 -0.82155356712E+03  0.95581973958E+03  0.00000000000E+00 0. -1.
<mgrwt>
<rscale>  2 0.12275162E+04</rscale>
<asrwt>0</asrwt>
<pdfrwt beam="1">  1       21 0.21377158E+00 0.12408466E+04</pdfrwt>
<pdfrwt beam="2">  1       21 0.19974690E+00 0.12408466E+04</pdfrwt>
<totfact> 0.52280649E+00</totfact>
</mgrwt>
</event>
<event>
 8    1  0.7208583E-006  0.1055718E+04  0.7818608E-02  0.8731113E-01
         21   -1    0    0  501  502  0.00000000000E+00  0.00000000000E+00  0.10457413826E+04  0.10457413826E+04  0.00000000000E+00 0. -1.
         21   -1    0    0  502  503 -0.00000000000E+00 -0.00000000000E+00 -0.10688716835E+04  0.10688716835E+04  0.00000000000E+00 0. -1.
    9000010    2    1    2  501    0  0.16780754126E+02 -0.28702493428E+03  0.18026959910E+03  0.10709980180E+04  0.10158123447E+04 0.  0.
   -9000010    2    1    2    0  503 -0.16780754126E+02  0.28702493428E+03 -0.20339990005E+03  0.10436150481E+04  0.98239296759E+03 0.  0.
        -13    1    3    3    0    0 -0.33095378497E+03 -0.16494479445E+03 -0.29255197390E+03  0.47151231330E+03  0.10566000000E+00 0.  1.
          4    1    3    3  501    0  0.34773453910E+03 -0.12208013983E+03  0.47282157300E+03  0.59948570468E+03  0.00000000000E+00 0.  1.
         13    1    4    4    0    0 -0.47435462941E+02 -0.18447113769E+03 -0.46573727005E+03  0.50318082203E+03  0.10566000000E+00 0. -1.
         -4    1    4    4    0  503  0.30654708815E+02  0.47149607197E+03  0.26233737001E+03  0.54043422611E+03  0.00000000000E+00 0. -1.
<mgrwt>
<rscale>  2 0.10475954E+04</rscale>
<asrwt>0</asrwt>
<pdfrwt beam="1">  1       21 0.16088329E+00 0.10557176E+04</pdfrwt>
<pdfrwt beam="2">  1       21 0.16444180E+00 0.10557176E+04</pdfrwt>
<totfact> 0.28156501E+01</totfact>
</mgrwt>
</event>
<event>
 8    1  0.7208583E-006  0.1006618E+04  0.7818608E-02  0.8770395E-01
         21   -1    0    0  503  502  0.00000000000E+00  0.00000000000E+00  0.74653298176E+03  0.74653298176E+03  0.00000000000E+00 0. -1.
         21   -1    0    0  501  503 -0.00000000000E+00 -0.00000000000E+00 -0.16803985496E+04  0.16803985496E+04  0.00000000000E+00 0. -1.
    9000010    2    1    2  501    0  0.70965098050E+02 -0.57596709194E+02 -0.10099712816E+04  0.14259460810E+04  0.10024603783E+04 0.  0.
   -9000010    2    1    2    0  502 -0.70965098050E+02  0.57596709194E+02  0.76105713790E+02  0.10009854504E+04  0.99389454478E+03 0.  0.
        -13    1    3    3    0    0 -0.25049887204E+03  0.22805928607E+03 -0.11677749956E+02  0.33896475313E+03  0.10566000000E+00 0.  1.
          4    1    3    3  501    0  0.32146397009E+03 -0.28565599527E+03 -0.99829353169E+03  0.10869813279E+04  0.00000000000E+00 0.  1.
         13    1    4    4    0    0 -0.20073690337E+03 -0.13059282807E+03  0.48026322961E+03  0.53665871091E+03  0.10566000000E+00 0. -1.
         -4    1    4    4    0  502  0.12977180532E+03  0.18818953727E+03 -0.40415751582E+03  0.46432673947E+03  0.00000000000E+00 0. -1.
<mgrwt>
<rscale>  2 0.10044789E+04</rscale>
<asrwt>0</asrwt>
<pdfrwt beam="1">  1       21 0.11485123E+00 0.10066182E+04</pdfrwt>
<pdfrwt beam="2">  1       21 0.25852285E+00 0.10066182E+04</pdfrwt>
<totfact> 0.14478220E+01</totfact>
</mgrwt>
</event>
<event>
 8    1  0.7208583E-006  0.1020153E+04  0.7818608E-02  0.8762029E-01
         21   -1    0    0  501  502  0.00000000000E+00  0.00000000000E+00  0.68369768625E+03  0.68369768625E+03  0.00000000000E+00 0.  1.
         21   -1    0    0  502  503 -0.00000000000E+00 -0.00000000000E+00 -0.17142566324E+04  0.17142566324E+04  0.00000000000E+00 0.  1.
    9000010    2    1    2  501    0  0.11705139128E+03 -0.68985484917E+01 -0.80786464222E+02  0.10233471369E+04  0.10133924667E+04 0.  0.
   -9000010    2    1    2    0  503 -0.11705139128E+03  0.68985484917E+01 -0.94977248196E+03  0.13746071818E+04  0.98677683325E+03 0.  0.
        -13    1    3    3    0    0 -0.21608948855E+03 -0.68213519268E+02  0.38540576960E+03  0.44708541653E+03  0.10566000000E+00 0.  1.
          4    1    3    3  501    0  0.33314087982E+03  0.61314970777E+02 -0.46619223382E+03  0.57626172034E+03  0.00000000000E+00 0.  1.
         13    1    4    4    0    0 -0.13654646718E+03  0.38734019400E+03 -0.90146679807E+03  0.99061585025E+03  0.10566000000E+00 0. -1.
         -4    1    4    4    0  503  0.19495075903E+02 -0.38044164551E+03 -0.48305683899E+02  0.38399133157E+03  0.00000000000E+00 0. -1.
<mgrwt>
<rscale>  2 0.10134795E+04</rscale>
<asrwt>0</asrwt>
<pdfrwt beam="1">  1       21 0.10518426E+00 0.10201534E+04</pdfrwt>
<pdfrwt beam="2">  1       21 0.26373179E+00 0.10201534E+04</pdfrwt>
<totfact> 0.16794633E+01</totfact>
</mgrwt>
</event>
<event>
 8    1  0.7208583E-006  0.1002092E+04  0.7818608E-02  0.8775459E-01
         21   -1    0    0  503  502  0.00000000000E+00  0.00000000000E+00  0.75843126294E+03  0.75843126294E+03  0.00000000000E+00 0. -1.
         21   -1    0    0  501  503 -0.00000000000E+00 -0.00000000000E+00 -0.13121464898E+04  0.13121464898E+04  0.00000000000E+00 0. -1.
    9000010    2    1    2  501    0  0.90085471602E+02 -0.90226389955E+02 -0.33515841677E+03  0.10566546083E+04  0.99394748512E+03 0.  0.
   -9000010    2    1    2    0  502 -0.90085471602E+02  0.90226389955E+02 -0.21855681013E+03  0.10139231445E+04  0.98184360776E+03 0.  0.
        -13    1    3    3    0    0  0.63241853761E+02 -0.54387557798E+03 -0.17539150166E+03  0.57494553342E+03  0.10566000000E+00 0.  1.
          4    1    3    3  501    0  0.26843617841E+02  0.45364918802E+03 -0.15976691511E+03  0.48170907483E+03  0.00000000000E+00 0.  1.
         13    1    4    4    0    0 -0.50310807658E+03 -0.40607060796E+02  0.45099170851E+02  0.50675498664E+03  0.10566000000E+00 0. -1.
         -4    1    4    4    0  502  0.41302260498E+03  0.13083345075E+03 -0.26365598098E+03  0.50716815788E+03  0.00000000000E+00 0. -1.
<mgrwt>
<rscale>  2 0.99907706E+03</rscale>
<asrwt>0</asrwt>
<pdfrwt beam="1">  1       21 0.11668173E+00 0.10020917E+04</pdfrwt>
<pdfrwt beam="2">  1       21 0.20186869E+00 0.10020917E+04</pdfrwt>
<totfact> 0.36665186E+01</totfact>
</mgrwt>
</event>
<event>
 8    1  0.7208583E-006  0.1039291E+04  0.7818608E-02  0.8746037E-01
         21   -1    0    0  501  502  0.00000000000E+00  0.00000000000E+00  0.16227376630E+04  0.16227376630E+04  0.00000000000E+00 0.  1.
         21   -1    0    0  502  503 -0.00000000000E+00 -0.00000000000E+00 -0.72562325121E+03  0.72562325121E+03  0.00000000000E+00 0.  1.
    9000010    2    1    2  501    0  0.16787005799E+03 -0.99593179952E+02  0.83423238717E+03  0.13071695733E+04  0.98724336398E+03 0.  0.
   -9000010    2    1    2    0  503 -0.16787005799E+03  0.99593179952E+02  0.62882024586E+02  0.10411913409E+04  0.10207967973E+04 0.  0.
        -13    1    3    3    0    0 -0.38137983622E+02  0.35838246915E+03  0.70004758407E+03  0.78737483520E+03  0.10566000000E+00 0.  1.
          4    1    3    3  501    0  0.20600804161E+03 -0.45797564910E+03  0.13418480310E+03  0.51979473811E+03  0.00000000000E+00 0.  1.
         13    1    4    4    0    0  0.27963132324E+03 -0.14202603453E+02 -0.33151911531E+03  0.43393585455E+03  0.10566000000E+00 0. -1.
         -4    1    4    4    0  503 -0.44750138123E+03  0.11379578341E+03  0.39440113989E+03  0.60725548633E+03  0.00000000000E+00 0. -1.
<mgrwt>
<rscale>  2 0.10309569E+04</rscale>
<asrwt>0</asrwt>
<pdfrwt beam="1">  1       21 0.24965195E+00 0.10392907E+04</pdfrwt>
<pdfrwt beam="2">  1       21 0.11163435E+00 0.10392907E+04</pdfrwt>
<totfact> 0.18008754E+01</totfact>
</mgrwt>
</event>
<event>
 8    1  0.7208583E-006  0.1194369E+04  0.7818608E-02  0.8616216E-01
         21   -1    0    0  503  502  0.00000000000E+00  0.00000000000E+00  0.76060567311E+03  0.76060567311E+03  0.00000000000E+00 0. -1.
         21   -1    0    0  501  503 -0.00000000000E+00 -0.00000000000E+00 -0.34972816543E+04  0.34972816543E+04  0.00000000000E+00 0. -1.
    9000010    2    1    2  501    0  0.59943305984E+03 -0.49673366638E+02 -0.28290114402E+04  0.30599546967E+04  0.99911439824E+03 0.  0.
   -9000010    2    1    2    0  502 -0.59943305984E+03  0.49673366638E+02  0.92335458923E+02  0.11979326308E+04  0.10318572160E+04 0.  0.
        -13    1    3    3    0    0  0.11803363111E+03 -0.38656693023E+03 -0.20202526729E+04  0.20602880389E+04  0.10566000000E+00 0.  1.
          4    1    3    3  501    0  0.48139942872E+03  0.33689356359E+03 -0.80875876728E+03  0.99966665785E+03  0.00000000000E+00 0.  1.
         13    1    4    4    0    0  0.20658381227E+03 -0.13175709269E+03 -0.20540975424E+03  0.31973423537E+03  0.10566000000E+00 0. -1.
         -4    1    4    4    0  502 -0.80601687211E+03  0.18143045932E+03  0.29774521317E+03  0.87819839538E+03  0.00000000000E+00 0. -1.
<mgrwt>
<rscale>  2 0.11872628E+04</rscale>
<asrwt>0</asrwt>
<pdfrwt beam="1">  1       21 0.11701626E+00 0.11943688E+04</pdfrwt>
<pdfrwt beam="2">  1       21 0.53804332E+00 0.11943688E+04</pdfrwt>
<totfact> 0.14438443E-01</totfact>
</mgrwt>
</event>
<event>
 8    1  0.7208583E-006  0.1039393E+04  0.7818608E-02  0.8739894E-01
         21   -1    0    0  503  502  0.00000000000E+00  0.00000000000E+00  0.11097203530E+04  0.11097203530E+04  0.00000000000E+00 0.  1.
         21   -1    0    0  501  503 -0.00000000000E+00 -0.00000000000E+00 -0.12410420804E+04  0.12410420804E+04  0.00000000000E+00 0.  1.
    9000010    2    1    2  501    0  0.20203476604E+03 -0.15386733297E+03 -0.61768554922E+03  0.12090793073E+04  0.10078909320E+04 0.  0.
   -9000010    2    1    2    0  502 -0.20203476604E+03  0.15386733297E+03  0.48636382181E+03  0.11416831261E+04  0.10011979777E+04 0.  0.
        -13    1    3    3    0    0  0.14052725204E+03 -0.26431950951E+03 -0.87369487209E+03  0.92355587397E+03  0.10566000000E+00 0.  1.
          4    1    3    3  501    0  0.61507514004E+02  0.11045217654E+03  0.25600932287E+03  0.28552343332E+03  0.00000000000E+00 0.  1.
         13    1    4    4    0    0 -0.28637710746E+03  0.54573306723E+03  0.19599780917E+03  0.64672372827E+03  0.10566000000E+00 0. -1.
         -4    1    4    4    0  502  0.84342341417E+02 -0.39186573425E+03  0.29036601264E+03  0.49495939786E+03  0.00000000000E+00 0. -1.
<mgrwt>
<rscale>  2 0.10377668E+04</rscale>
<asrwt>0</asrwt>
<pdfrwt beam="1">  1       21 0.17072621E+00 0.10393928E+04</pdfrwt>
<pdfrwt beam="2">  1       21 0.19092955E+00 0.10393928E+04</pdfrwt>
<totfact> 0.14124793E+01</totfact>
</mgrwt>
</event>
<event>
 8    1  0.7208583E-006  0.1019743E+04  0.7818608E-02  0.8798598E-01
         21   -1    0    0  501  502  0.00000000000E+00  0.00000000000E+00  0.28032991081E+04  0.28032991081E+04  0.00000000000E+00 0.  1.
         21   -1    0    0  502  503 -0.00000000000E+00 -0.00000000000E+00 -0.32874779664E+03  0.32874779664E+03  0.00000000000E+00 0.  1.
    9000010    2    1    2  501    0  0.99109906611E+02  0.11739470629E+03  0.14804317791E+04  0.17079160203E+04  0.83767212520E+03 0.  0.
   -9000010    2    1    2    0  503 -0.99109906611E+02 -0.11739470629E+03  0.99411953238E+03  0.14241308844E+04  0.10081025943E+04 0.  0.
        -13    1    3    3    0    0  0.21228400000E+03  0.67888728240E+02  0.15501374470E+04  0.15660777413E+04  0.10566000000E+00 0.  1.
          4    1    3    3  501    0 -0.11317409339E+03  0.49505978053E+02 -0.69705667867E+02  0.14183827907E+03  0.00000000000E+00 0.  1.
         13    1    4    4    0    0 -0.36170138886E+02  0.27119247758E+03 -0.75958914900E+02  0.28394261174E+03  0.10566000000E+00 0. -1.
         -4    1    4    4    0  503 -0.62939767725E+02 -0.38858718387E+03  0.10700784473E+04  0.11401882727E+04  0.00000000000E+00 0. -1.
<mgrwt>
<rscale>  2 0.97483828E+03</rscale>
<asrwt>0</asrwt>
<pdfrwt beam="1">  1       21 0.43127677E+00 0.10197427E+04</pdfrwt>
<pdfrwt beam="2">  1       21 0.50576586E-01 0.10197427E+04</pdfrwt>
<totfact> 0.65519371E+00</totfact>
</mgrwt>
</event>
<event>
 8    1  0.7208583E-006  0.1017025E+04  0.7818608E-02  0.8776256E-01
         21   -1    0    0  503  502  0.00000000000E+00  0.00000000000E+00  0.13108508430E+04  0.13108508430E+04  0.00000000000E+00 0.  1.
         21   -1    0    0  501  503 -0.00000000000E+00 -0.00000000000E+00 -0.80110223549E+03  0.80110223549E+03  0.00000000000E+00 0.  1.
    9000010    2    1    2  501    0 -0.13467598679E+03 -0.10286588940E+03 -0.43327664786E+02  0.10179475755E+04  0.10028065453E+04 0.  0.
   -9000010    2    1    2    0  502  0.13467598679E+03  0.10286588940E+03  0.55307627225E+03  0.10940055029E+04  0.92856645691E+03 0.  0.
        -13    1    3    3    0    0 -0.56167753535E+03 -0.47391854991E+02 -0.13059341489E+03  0.57860374421E+03  0.10566000000E+00 0.  1.
          4    1    3    3  501    0  0.42700154857E+03 -0.55474034410E+02  0.87265750104E+02  0.43934383131E+03  0.00000000000E+00 0.  1.
         13    1    4    4    0    0 -0.17705816223E+03  0.37919583289E+02  0.71443767447E+03  0.73702692589E+03  0.10566000000E+00 0. -1.
         -4    1    4    4    0  502  0.31173414902E+03  0.64946306112E+02 -0.16136140222E+03  0.35697857704E+03  0.00000000000E+00 0. -1.
<mgrwt>
<rscale>  2 0.99823017E+03</rscale>
<asrwt>0</asrwt>
<pdfrwt beam="1">  1       21 0.20166936E+00 0.10170251E+04</pdfrwt>
<pdfrwt beam="2">  1       21 0.12324650E+00 0.10170251E+04</pdfrwt>
<totfact> 0.31473792E+01</totfact>
</mgrwt>
</event>
<event>
 8    1  0.7208583E-006  0.1082875E+04  0.7818608E-02  0.8717248E-01
         21   -1    0    0  503  502  0.00000000000E+00  0.00000000000E+00  0.10706918436E+04  0.10706918436E+04  0.00000000000E+00 0. -1.
         21   -1    0    0  501  503 -0.00000000000E+00 -0.00000000000E+00 -0.10251661621E+04  0.10251661621E+04  0.00000000000E+00 0. -1.
    9000010    2    1    2  501    0  0.10041552275E+03  0.17616535444E+03 -0.53250855689E+02  0.10841840123E+04  0.10637207385E+04 0.  0.
   -9000010    2    1    2    0  502 -0.10041552275E+03 -0.17616535444E+03  0.98776537247E+02  0.10116739934E+04  0.98620989417E+03 0.  0.
        -13    1    3    3    0    0 -0.28430212926E+03 -0.20833209298E+03 -0.32208162419E+03  0.47745842277E+03  0.10566000000E+00 0.  1.
          4    1    3    3  501    0  0.38471765202E+03  0.38449744743E+03  0.26883076850E+03  0.60672558949E+03  0.00000000000E+00 0.  1.
         13    1    4    4    0    0 -0.28382587577E+03 -0.49981183998E+03  0.22730782236E+03  0.61809211320E+03  0.10566000000E+00 0. -1.
         -4    1    4    4    0  502  0.18341035301E+03  0.32364648553E+03 -0.12853128511E+03  0.39358188023E+03  0.00000000000E+00 0. -1.
<mgrwt>
<rscale>  2 0.10633446E+04</rscale>
<asrwt>0</asrwt>
<pdfrwt beam="1">  1       21 0.16472182E+00 0.10828755E+04</pdfrwt>
<pdfrwt beam="2">  1       21 0.15771787E+00 0.10828755E+04</pdfrwt>
<totfact> 0.29652002E+01</totfact>
</mgrwt>
</event>
<event>
 8    1  0.7208583E-006  0.1014995E+04  0.7818608E-02  0.8766533E-01
         21   -1    0    0  503  502  0.00000000000E+00  0.00000000000E+00  0.46959574492E+03  0.46959574492E+03  0.00000000000E+00 0.  1.
         21   -1    0    0  501  503 -0.00000000000E+00 -0.00000000000E+00 -0.21450671672E+04  0.21450671672E+04  0.00000000000E+00 0.  1.
    9000010    2    1    2  501    0  0.13479924146E+03  0.81326647760E+01 -0.76110892973E+03  0.12485467872E+04  0.98048217790E+03 0.  0.
   -9000010    2    1    2    0  502 -0.13479924146E+03 -0.81326647760E+01 -0.91436249255E+03  0.13661161249E+04  0.10059709356E+04 0.  0.
        -13    1    3    3    0    0 -0.46126695744E+02  0.42683083276E+03 -0.92486106773E+02  0.43916502931E+03  0.10566000000E+00 0.  1.
          4    1    3    3  501    0  0.18092593721E+03 -0.41869816799E+03 -0.66862282296E+03  0.80938175789E+03  0.00000000000E+00 0.  1.
         13    1    4    4    0    0 -0.68171779258E+02  0.36307075335E+03  0.81354728591E+01  0.36950502095E+03  0.10566000000E+00 0. -1.
         -4    1    4    4    0  502 -0.66627462207E+02 -0.37120341813E+03 -0.92249796541E+03  0.99661110396E+03  0.00000000000E+00 0. -1.
<mgrwt>
<rscale>  2 0.10086210E+04</rscale>
<asrwt>0</asrwt>
<pdfrwt beam="1">  1       21 0.72245501E-01 0.10149948E+04</pdfrwt>
<pdfrwt beam="2">  1       21 0.33001033E+00 0.10149948E+04</pdfrwt>
<totfact> 0.14686737E+01</totfact>
</mgrwt>
</event>
<event>
 8    1  0.7208583E-006  0.1045705E+04  0.7818608E-02  0.8734083E-01
         21   -1    0    0  503  502  0.00000000000E+00  0.00000000000E+00  0.84687350208E+03  0.84687350208E+03  0.00000000000E+00 0.  1.
         21   -1    0    0  501  503 -0.00000000000E+00 -0.00000000000E+00 -0.14261186759E+04  0.14261186759E+04  0.00000000000E+00 0.  1.
    9000010    2    1    2  501    0  0.30833098007E+03  0.97309972738E+02 -0.64754451317E+03  0.12250588236E+04  0.98839162319E+03 0.  0.
   -9000010    2    1    2    0  502 -0.30833098007E+03 -0.97309972738E+02  0.68299339384E+02  0.10479333543E+04  0.99446583211E+03 0.  0.
        -13    1    3    3    0    0 -0.23896493556E+03  0.10376351727E+03 -0.62515571113E+03  0.67726714247E+03  0.10566000000E+00 0.  1.
          4    1    3    3  501    0  0.54729591563E+03 -0.64535445294E+01 -0.22388802036E+02  0.54779168117E+03  0.00000000000E+00 0.  1.
         13    1    4    4    0    0 -0.19885158340E+03  0.37965710319E+03 -0.21813444606E+03  0.48089927838E+03  0.10566000000E+00 0. -1.
         -4    1    4    4    0  502 -0.10947939667E+03 -0.47696707593E+03  0.28643378544E+03  0.56703407593E+03  0.00000000000E+00 0. -1.
<mgrwt>
<rscale>  2 0.10442586E+04</rscale>
<asrwt>0</asrwt>
<pdfrwt beam="1">  1       21 0.13028823E+00 0.10457053E+04</pdfrwt>
<pdfrwt beam="2">  1       21 0.21940287E+00 0.10457053E+04</pdfrwt>
<totfact> 0.19518372E+01</totfact>
</mgrwt>
</event>
<event>
 8    1  0.7208583E-006  0.1036137E+04  0.7818608E-02  0.8741996E-01
         21   -1    0    0  503  502  0.00000000000E+00  0.00000000000E+00  0.54143400632E+03  0.54143400632E+03  0.00000000000E+00 0.  1.
         21   -1    0    0  501  503 -0.00000000000E+00 -0.00000000000E+00 -0.22368150892E+04  0.22368150892E+04  0.00000000000E+00 0.  1.
    9000010    2    1    2  501    0  0.28506725941E+03  0.16766039999E+03 -0.13217411461E+04  0.16794580013E+04  0.98194000266E+03 0.  0.
   -9000010    2    1    2    0  502 -0.28506725941E+03 -0.16766039999E+03 -0.37363993679E+03  0.10987910942E+04  0.97895950589E+03 0.  0.
        -13    1    3    3    0    0  0.20451859130E+03 -0.19090495988E+03 -0.12792761914E+04  0.13095114138E+04  0.10566000000E+00 0.  1.
          4    1    3    3  501    0  0.80548668116E+02  0.35856535987E+03 -0.42464954700E+02  0.36994658751E+03  0.00000000000E+00 0.  1.
         13    1    4    4    0    0 -0.11551330588E+03 -0.16642105125E+03 -0.70123796290E+03  0.72991368113E+03  0.10566000000E+00 0. -1.
         -4    1    4    4    0  502 -0.16955395353E+03 -0.12393487409E+01  0.32759802611E+03  0.36887741305E+03  0.00000000000E+00 0. -1.
<mgrwt>
<rscale>  2 0.10354301E+04</rscale>
<asrwt>0</asrwt>
<pdfrwt beam="1">  1       21 0.83297539E-01 0.10361368E+04</pdfrwt>
<pdfrwt beam="2">  1       21 0.34412540E+00 0.10361368E+04</pdfrwt>
<totfact> 0.82406915E+00</totfact>
</mgrwt>
</event>
<event>
 8    1  0.7208583E-006  0.1009819E+04  0.7818608E-02  0.8771568E-01
         21   -1    0    0  503  502  0.00000000000E+00  0.00000000000E+00  0.16809011093E+04  0.16809011093E+04  0.00000000000E+00 0. -1.
         21   -1    0    0  501  503 -0.00000000000E+00 -0.00000000000E+00 -0.65004578352E+03  0.65004578352E+03  0.00000000000E+00 0. -1.
    9000010    2    1    2  501    0 -0.67087205572E+01  0.53234810554E+02  0.15826364383E+03  0.99634940485E+03  0.98223510607E+03 0.  0.
   -9000010    2    1    2    0  502  0.67087205572E+01 -0.53234810554E+02  0.87259168193E+03  0.13345974880E+04  0.10083924135E+04 0.  0.
        -13    1    3    3    0    0  0.47297518592E+03  0.14349297327E+03  0.10557209583E+03  0.50541194926E+03  0.10566000000E+00 0.  1.
          4    1    3    3  501    0 -0.47968390648E+03 -0.90258162713E+02  0.52691548008E+02  0.49093745559E+03  0.00000000000E+00 0.  1.
         13    1    4    4    0    0 -0.39220230493E+02  0.21686799401E+03 -0.15608469783E+03  0.27005998846E+03  0.10566000000E+00 0. -1.
         -4    1    4    4    0  502  0.45928951051E+02 -0.27010280457E+03  0.10286763798E+04  0.10645374995E+04  0.00000000000E+00 0. -1.
<mgrwt>
<rscale>  2 0.10032247E+04</rscale>
<asrwt>0</asrwt>
<pdfrwt beam="1">  1       21 0.25860017E+00 0.10098189E+04</pdfrwt>
<pdfrwt beam="2">  1       21 0.10000704E+00 0.10098189E+04</pdfrwt>
<totfact> 0.20945471E+01</totfact>
</mgrwt>
</event>
<event>
 8    1  0.7208583E-006  0.1051530E+04  0.7818608E-02  0.8734509E-01
         21   -1    0    0  503  502  0.00000000000E+00  0.00000000000E+00  0.10202680129E+04  0.10202680129E+04  0.00000000000E+00 0. -1.
         21   -1    0    0  501  503 -0.00000000000E+00 -0.00000000000E+00 -0.13872034039E+04  0.13872034039E+04  0.00000000000E+00 0. -1.
    9000010    2    1    2  501    0  0.15031268281E+03  0.30263855773E+03 -0.77274136332E+03  0.12803536272E+04  0.96332351624E+03 0.  0.
   -9000010    2    1    2    0  502 -0.15031268281E+03 -0.30263855773E+03  0.40580597234E+03  0.11271177896E+04  0.99575701113E+03 0.  0.
        -13    1    3    3    0    0  0.35024050816E+03  0.12945266134E+03  0.84832899148E+02  0.38291387677E+03  0.10566000000E+00 0.  1.
          4    1    3    3  501    0 -0.19992782535E+03  0.17318589639E+03 -0.85757426247E+03  0.89743975046E+03  0.00000000000E+00 0.  1.
         13    1    4    4    0    0 -0.33665792346E+03  0.27282782005E+03  0.82011706678E+02  0.44102098365E+03  0.10566000000E+00 0. -1.
         -4    1    4    4    0  502  0.18634524065E+03 -0.57546637778E+03  0.32379426566E+03  0.68609680595E+03  0.00000000000E+00 0. -1.
<mgrwt>
<rscale>  2 0.10437801E+04</rscale>
<asrwt>0</asrwt>
<pdfrwt beam="1">  1       21 0.15696431E+00 0.10515303E+04</pdfrwt>
<pdfrwt beam="2">  1       21 0.21341591E+00 0.10515303E+04</pdfrwt>
<totfact> 0.12340165E+01</totfact>
</mgrwt>
</event>
<event>
 8    1  0.7208583E-006  0.1072430E+04  0.7818608E-02  0.8715618E-01
         21   -1    0    0  503  502  0.00000000000E+00  0.00000000000E+00  0.27873442284E+04  0.27873442284E+04  0.00000000000E+00 0. -1.
         21   -1    0    0  501  503 -0.00000000000E+00 -0.00000000000E+00 -0.55953965142E+03  0.55953965142E+03  0.00000000000E+00 0. -1.
    9000010    2    1    2  501    0  0.14511102325E+03  0.35811493810E+03  0.21435910261E+03  0.10656410861E+04  0.96971005028E+03 0.  0.
   -9000010    2    1    2    0  502 -0.14511102325E+03 -0.35811493810E+03  0.20134454744E+04  0.22812427937E+04  0.10004011633E+04 0.  0.
        -13    1    3    3    0    0 -0.34330076898E+03  0.37895647789E+03 -0.43071656993E+02  0.51314579695E+03  0.10566000000E+00 0.  1.
          4    1    3    3  501    0  0.48841179224E+03 -0.20841539794E+02  0.25743075961E+03  0.55249528918E+03  0.00000000000E+00 0.  1.
         13    1    4    4    0    0 -0.46525748259E+03  0.97370345340E+02  0.12422281867E+04  0.13300663098E+04  0.10566000000E+00 0. -1.
         -4    1    4    4    0  502  0.32014645933E+03 -0.45548528344E+03  0.77121728766E+03  0.95117648396E+03  0.00000000000E+00 0. -1.
<mgrwt>
<rscale>  2 0.10652147E+04</rscale>
<asrwt>0</asrwt>
<pdfrwt beam="1">  1       21 0.42882218E+00 0.10724300E+04</pdfrwt>
<pdfrwt beam="2">  1       21 0.86083025E-01 0.10724300E+04</pdfrwt>
<totfact> 0.19326828E+00</totfact>
</mgrwt>
</event>
<event>
 8    1  0.7208583E-006  0.1032785E+04  0.7818608E-02  0.8744818E-01
         21   -1    0    0  503  502  0.00000000000E+00  0.00000000000E+00  0.10925553523E+04  0.10925553523E+04  0.00000000000E+00 0.  1.
         21   -1    0    0  501  503 -0.00000000000E+00 -0.00000000000E+00 -0.10095067346E+04  0.10095067346E+04  0.00000000000E+00 0.  1.
    9000010    2    1    2  501    0 -0.50470228858E+02 -0.23528819896E+03 -0.15433167481E+03  0.10423476113E+04  0.10023784197E+04 0.  0.
   -9000010    2    1    2    0  502  0.50470228858E+02  0.23528819896E+03  0.23738029242E+03  0.10597144756E+04  0.10043592913E+04 0.  0.
        -13    1    3    3    0    0 -0.34292116127E+03  0.25473022649E+03 -0.19635958154E+03  0.47014838887E+03  0.10566000000E+00 0.  1.
          4    1    3    3  501    0  0.29245093241E+03 -0.49001842545E+03  0.42027906732E+02  0.57219922238E+03  0.00000000000E+00 0.  1.
         13    1    4    4    0    0 -0.37395586341E+03  0.17164326465E+03  0.42479977959E+03  0.59140448255E+03  0.10566000000E+00 0. -1.
         -4    1    4    4    0  502  0.42442609226E+03  0.63644934308E+02 -0.18741948717E+03  0.46830999309E+03  0.00000000000E+00 0. -1.
<mgrwt>
<rscale>  2 0.10323033E+04</rscale>
<asrwt>0</asrwt>
<pdfrwt beam="1">  1       21 0.16808544E+00 0.10327852E+04</pdfrwt>
<pdfrwt beam="2">  1       21 0.15530873E+00 0.10327852E+04</pdfrwt>
<totfact> 0.29468340E+01</totfact>
</mgrwt>
</event>
<event>
 8    1  0.7208583E-006  0.1142581E+04  0.7818608E-02  0.8659221E-01
         21   -1    0    0  503  502  0.00000000000E+00  0.00000000000E+00  0.64355175222E+03  0.64355175222E+03  0.00000000000E+00 0. -1.
         21   -1    0    0  501  503 -0.00000000000E+00 -0.00000000000E+00 -0.21715495744E+04  0.21715495744E+04  0.00000000000E+00 0. -1.
    9000010    2    1    2  501    0 -0.34727635599E+03  0.37384206972E+03 -0.11927014611E+04  0.16243394116E+04  0.97753925139E+03 0.  0.
   -9000010    2    1    2    0  502  0.34727635599E+03 -0.37384206972E+03 -0.33529636108E+03  0.11907619151E+04  0.10223167455E+04 0.  0.
        -13    1    3    3    0    0 -0.13661320253E+03  0.59984396007E+00  0.15706289140E+03  0.20816409377E+03  0.10566000000E+00 0.  1.
          4    1    3    3  501    0 -0.21066315346E+03  0.37324222576E+03 -0.13497643525E+04  0.14161753178E+04  0.00000000000E+00 0.  1.
         13    1    4    4    0    0  0.45604982377E+03 -0.34754930335E+03 -0.64407817393E+03  0.86232746988E+03  0.10566000000E+00 0. -1.
         -4    1    4    4    0  502 -0.10877346778E+03 -0.26292766371E+02  0.30878181285E+03  0.32843444522E+03  0.00000000000E+00 0. -1.
<mgrwt>
<rscale>  2 0.11324765E+04</rscale>
<asrwt>0</asrwt>
<pdfrwt beam="1">  1       21 0.99007961E-01 0.11425805E+04</pdfrwt>
<pdfrwt beam="2">  1       21 0.33408455E+00 0.11425805E+04</pdfrwt>
<totfact> 0.60883838E+00</totfact>
</mgrwt>
</event>
<event>
 8    1  0.7208583E-006  0.1036934E+04  0.7818608E-02  0.8741523E-01
         21   -1    0    0  503  502  0.00000000000E+00  0.00000000000E+00  0.13435671695E+04  0.13435671695E+04  0.00000000000E+00 0.  1.
         21   -1    0    0  501  503 -0.00000000000E+00 -0.00000000000E+00 -0.84358477395E+03  0.84358477395E+03  0.00000000000E+00 0.  1.
    9000010    2    1    2  501    0 -0.78553280754E+01  0.29495861761E+03 -0.67042567728E+01  0.10330447676E+04  0.98998699611E+03 0.  0.
   -9000010    2    1    2    0  502  0.78553280754E+01 -0.29495861761E+03  0.50668665235E+03  0.11541071759E+04  0.99406726005E+03 0.  0.
        -13    1    3    3    0    0  0.40120458689E+03 -0.83957415174E+02 -0.18209114515E+03  0.44852108581E+03  0.10566000000E+00 0.  1.
          4    1    3    3  501    0 -0.40905991497E+03  0.37891603278E+03  0.17538688837E+03  0.58452368177E+03  0.00000000000E+00 0.  1.
         13    1    4    4    0    0 -0.19264903588E+03 -0.51856473829E+03  0.62198588601E+03  0.83239983925E+03  0.10566000000E+00 0. -1.
         -4    1    4    4    0  502  0.20050436395E+03  0.22360612068E+03 -0.11529923366E+03  0.32170733665E+03  0.00000000000E+00 0. -1.
<mgrwt>
<rscale>  2 0.10359548E+04</rscale>
<asrwt>0</asrwt>
<pdfrwt beam="1">  1       21 0.20670264E+00 0.10369339E+04</pdfrwt>
<pdfrwt beam="2">  1       21 0.12978227E+00 0.10369339E+04</pdfrwt>
<totfact> 0.24714974E+01</totfact>
</mgrwt>
</event>
<event>
 8    1  0.7208583E-006  0.1069571E+04  0.7818608E-02  0.8720617E-01
         21   -1    0    0  503  502  0.00000000000E+00  0.00000000000E+00  0.22884572058E+04  0.22884572058E+04  0.00000000000E+00 0. -1.
         21   -1    0    0  501  503 -0.00000000000E+00 -0.00000000000E+00 -0.58528783296E+03  0.58528783296E+03  0.00000000000E+00 0. -1.
    9000010    2    1    2  501    0 -0.52803465925E+02 -0.27430638730E+03  0.25982258084E+03  0.11006773001E+04  0.10324488100E+04 0.  0.
   -9000010    2    1    2    0  502  0.52803465925E+02  0.27430638730E+03  0.14433467920E+04  0.17730677387E+04  0.99120484449E+03 0.  0.
        -13    1    3    3    0    0 -0.21435815163E+03  0.30683133211E+03  0.32274839614E+03  0.49422810716E+03  0.10566000000E+00 0.  1.
          4    1    3    3  501    0  0.16155468570E+03 -0.58113771942E+03 -0.62925815301E+02  0.60644919295E+03  0.00000000000E+00 0.  1.
         13    1    4    4    0    0 -0.35925308980E+03 -0.19206695214E+03  0.55824233784E+03  0.69107670743E+03  0.10566000000E+00 0. -1.
         -4    1    4    4    0  502  0.41205655572E+03  0.46637333945E+03  0.88510445417E+03  0.10819910312E+04  0.00000000000E+00 0. -1.
<mgrwt>
<rscale>  2 0.10594906E+04</rscale>
<asrwt>0</asrwt>
<pdfrwt beam="1">  1       21 0.35207033E+00 0.10695713E+04</pdfrwt>
<pdfrwt beam="2">  1       21 0.90044283E-01 0.10695713E+04</pdfrwt>
<totfact> 0.59035370E+00</totfact>
</mgrwt>
</event>
<event>
 8    1  0.7208583E-006  0.1060977E+04  0.7818608E-02  0.8729056E-01
         21   -1    0    0  503  502  0.00000000000E+00  0.00000000000E+00  0.80281141118E+03  0.80281141118E+03  0.00000000000E+00 0. -1.
         21   -1    0    0  501  503 -0.00000000000E+00 -0.00000000000E+00 -0.14224309583E+04  0.14224309583E+04  0.00000000000E+00 0. -1.
    9000010    2    1    2  501    0  0.20138274390E+02 -0.22336767682E+03 -0.56290796345E+03  0.11627510287E+04  0.99238395301E+03 0.  0.
   -9000010    2    1    2    0  502 -0.20138274390E+02  0.22336767682E+03 -0.56711583669E+02  0.10624913408E+04  0.10370019173E+04 0.  0.
        -13    1    3    3    0    0 -0.48655081401E+02 -0.41781265299E+03 -0.76561710619E+03  0.87355840927E+03  0.10566000000E+00 0.  1.
          4    1    3    3  501    0  0.68793355791E+02  0.19444497617E+03  0.20270914274E+03  0.28919261939E+03  0.00000000000E+00 0.  1.
         13    1    4    4    0    0 -0.24032664417E+03  0.55136105727E+03  0.14533808260E+03  0.61877223660E+03  0.10566000000E+00 0. -1.
         -4    1    4    4    0  502  0.22018836978E+03 -0.32799338046E+03 -0.20204966627E+03  0.44371910422E+03  0.00000000000E+00 0. -1.
<mgrwt>
<rscale>  2 0.10499134E+04</rscale>
<asrwt>0</asrwt>
<pdfrwt beam="1">  1       21 0.12350945E+00 0.10609767E+04</pdfrwt>
<pdfrwt beam="2">  1       21 0.21883553E+00 0.10609767E+04</pdfrwt>
<totfact> 0.22889979E+01</totfact>
</mgrwt>
</event>
<event>
 8    1  0.7208583E-006  0.1012393E+04  0.7818608E-02  0.8763457E-01
         21   -1    0    0  503  502  0.00000000000E+00  0.00000000000E+00  0.65059802568E+03  0.65059802568E+03  0.00000000000E+00 0. -1.
         21   -1    0    0  501  503 -0.00000000000E+00 -0.00000000000E+00 -0.19277074524E+04  0.19277074524E+04  0.00000000000E+00 0. -1.
    9000010    2    1    2  501    0 -0.12876131534E+03 -0.12931702816E+02 -0.11914361423E+04  0.15622934704E+04  0.10022445317E+04 0.  0.
   -9000010    2    1    2    0  502  0.12876131534E+03  0.12931702816E+02 -0.85673284429E+02  0.10160120077E+04  0.10040885334E+04 0.  0.
        -13    1    3    3    0    0  0.29074067897E+03  0.34584405923E+03 -0.62674569439E+03  0.77262437983E+03  0.10566000000E+00 0.  1.
          4    1    3    3  501    0 -0.41950199431E+03 -0.35877576204E+03 -0.56469044792E+03  0.78966909059E+03  0.00000000000E+00 0.  1.
         13    1    4    4    0    0  0.46351476739E+02 -0.11601137843E+03  0.44578575852E+03  0.46296009870E+03  0.10566000000E+00 0. -1.
         -4    1    4    4    0  502  0.82409838598E+02  0.12894308124E+03 -0.53145904295E+03  0.55305190898E+03  0.00000000000E+00 0. -1.
<mgrwt>
<rscale>  2 0.10119359E+04</rscale>
<asrwt>0</asrwt>
<pdfrwt beam="1">  1       21 0.10009201E+00 0.10123934E+04</pdfrwt>
<pdfrwt beam="2">  1       21 0.29657037E+00 0.10123934E+04</pdfrwt>
<totfact> 0.11194033E+01</totfact>
</mgrwt>
</event>
<event>
 8    1  0.7208583E-006  0.1062557E+04  0.7818608E-02  0.8719147E-01
         21   -1    0    0  501  502  0.00000000000E+00  0.00000000000E+00  0.69989539100E+03  0.69989539100E+03  0.00000000000E+00 0. -1.
         21   -1    0    0  502  503 -0.00000000000E+00 -0.00000000000E+00 -0.24146852623E+04  0.24146852623E+04  0.00000000000E+00 0. -1.
    9000010    2    1    2  501    0 -0.35319038165E+03  0.25843175520E+02 -0.17607956749E+04  0.20565573137E+04  0.10018059992E+04 0.  0.
   -9000010    2    1    2    0  503  0.35319038165E+03 -0.25843175520E+02  0.46005803606E+02  0.10580233397E+04  0.99593450485E+03 0.  0.
        -13    1    3    3    0    0 -0.29886181221E+03  0.21228762613E+03 -0.93943676820E+02  0.37843076590E+03  0.10566000000E+00 0.  1.
          4    1    3    3  501    0 -0.54328569442E+02 -0.18644445061E+03 -0.16668519981E+04  0.16781265477E+04  0.00000000000E+00 0.  1.
         13    1    4    4    0    0  0.33281707466E+03 -0.48892429761E+03  0.58411691801E+02  0.59432828544E+03  0.10566000000E+00 0. -1.
         -4    1    4    4    0  503  0.20373306986E+02  0.46308112209E+03 -0.12405888195E+02  0.46369505425E+03  0.00000000000E+00 0. -1.
<mgrwt>
<rscale>  2 0.10611704E+04</rscale>
<asrwt>0</asrwt>
<pdfrwt beam="1">  1       21 0.10767621E+00 0.10625566E+04</pdfrwt>
<pdfrwt beam="2">  1       21 0.37149004E+00 0.10625566E+04</pdfrwt>
<totfact> 0.27110981E+00</totfact>
</mgrwt>
</event>
<event>
 8    1  0.7208583E-006  0.1138373E+04  0.7818608E-02  0.8680606E-01
         21   -1    0    0  501  502  0.00000000000E+00  0.00000000000E+00  0.12659152403E+04  0.12659152403E+04  0.00000000000E+00 0. -1.
         21   -1    0    0  502  503 -0.00000000000E+00 -0.00000000000E+00 -0.11194973273E+04  0.11194973273E+04  0.00000000000E+00 0. -1.
    9000010    2    1    2  501    0 -0.13305575849E+03  0.16967937985E+03  0.58404480835E+03  0.12794536765E+04  0.11177649330E+04 0.  0.
   -9000010    2    1    2    0  503  0.13305575849E+03 -0.16967937985E+03 -0.43762689533E+03  0.11059588911E+04  0.99253858489E+03 0.  0.
        -13    1    3    3    0    0 -0.57365751093E+03  0.29820170593E+03  0.18820650097E+03  0.67337129092E+03  0.10566000000E+00 0.  1.
          4    1    3    3  501    0  0.44060175243E+03 -0.12852232608E+03  0.39583830738E+03  0.60608238560E+03  0.00000000000E+00 0.  1.
         13    1    4    4    0    0 -0.21817153507E+03 -0.42153018123E+03  0.21866530005E+02  0.47514699694E+03  0.10566000000E+00 0. -1.
         -4    1    4    4    0  503  0.35122729357E+03  0.25185080138E+03 -0.45949342533E+03  0.63081189417E+03  0.00000000000E+00 0. -1.
<mgrwt>
<rscale>  2 0.11063788E+04</rscale>
<asrwt>0</asrwt>
<pdfrwt beam="1">  1       21 0.19475619E+00 0.11383731E+04</pdfrwt>
<pdfrwt beam="2">  1       21 0.17223036E+00 0.11383731E+04</pdfrwt>
<totfact> 0.12514833E+01</totfact>
</mgrwt>
</event>
<event>
 8    1  0.7208583E-006  0.1022707E+04  0.7818608E-02  0.8783100E-01
         21   -1    0    0  503  502  0.00000000000E+00  0.00000000000E+00  0.13075684980E+04  0.13075684980E+04  0.00000000000E+00 0.  1.
         21   -1    0    0  501  503 -0.00000000000E+00 -0.00000000000E+00 -0.71008553316E+03  0.71008553316E+03  0.00000000000E+00 0.  1.
    9000010    2    1    2  501    0 -0.13975670252E+03 -0.18895920045E+02  0.22554214784E+03  0.92941212200E+03  0.89053278456E+03 0.  0.
   -9000010    2    1    2    0  502  0.13975670252E+03  0.18895920045E+02  0.37194081702E+03  0.10882419092E+04  0.10129370611E+04 0.  0.
        -13    1    3    3    0    0  0.70239538049E+02  0.41137973151E+03  0.53945271145E+02  0.42080515639E+03  0.10566000000E+00 0.  1.
          4    1    3    3  501    0 -0.20999624057E+03 -0.43027565155E+03  0.17159687669E+03  0.50860696561E+03  0.00000000000E+00 0.  1.
         13    1    4    4    0    0  0.38439161957E+02  0.28823724782E+03 -0.26240104854E+03  0.39167920757E+03  0.10566000000E+00 0. -1.
         -4    1    4    4    0  502  0.10131754056E+03 -0.26934132777E+03  0.63434186556E+03  0.69656270161E+03  0.00000000000E+00 0. -1.
<mgrwt>
<rscale>  2 0.99099328E+03</rscale>
<asrwt>0</asrwt>
<pdfrwt beam="1">  1       21 0.20116438E+00 0.10227074E+04</pdfrwt>
<pdfrwt beam="2">  1       21 0.10924393E+00 0.10227074E+04</pdfrwt>
<totfact> 0.44255374E+01</totfact>
</mgrwt>
</event>
<event>
 8    1  0.7208583E-006  0.1059576E+04  0.7818608E-02  0.8723009E-01
         21   -1    0    0  503  502  0.00000000000E+00  0.00000000000E+00  0.11107336590E+04  0.11107336590E+04  0.00000000000E+00 0. -1.
         21   -1    0    0  501  503 -0.00000000000E+00 -0.00000000000E+00 -0.10359482336E+04  0.10359482336E+04  0.00000000000E+00 0. -1.
    9000010    2    1    2  501    0  0.15641992855E+03 -0.23071358604E+03  0.23718763642E+03  0.10857985226E+04  0.10222546180E+04 0.  0.
   -9000010    2    1    2    0  502 -0.15641992855E+03  0.23071358604E+03 -0.16240221106E+03  0.10608833700E+04  0.10106448901E+04 0.  0.
        -13    1    3    3    0    0 -0.31796053003E+03 -0.37580875267E+03 -0.77495221300E+02  0.49833386171E+03  0.10566000000E+00 0.  1.
          4    1    3    3  501    0  0.47438045858E+03  0.14509516663E+03  0.31468285772E+03  0.58746466090E+03  0.00000000000E+00 0.  1.
         13    1    4    4    0    0 -0.41577330456E+03  0.51609662000E+03 -0.10528868163E+03  0.67105057902E+03  0.10566000000E+00 0. -1.
         -4    1    4    4    0  502  0.25935337600E+03 -0.28538303396E+03 -0.57113529425E+02  0.38983279103E+03  0.00000000000E+00 0. -1.
<mgrwt>
<rscale>  2 0.10567654E+04</rscale>
<asrwt>0</asrwt>
<pdfrwt beam="1">  1       21 0.17088210E+00 0.10595756E+04</pdfrwt>
<pdfrwt beam="2">  1       21 0.15937665E+00 0.10595756E+04</pdfrwt>
<totfact> 0.25580605E+01</totfact>
</mgrwt>
</event>
<event>
 8    1  0.7208583E-006  0.1110910E+04  0.7818608E-02  0.8681140E-01
         21   -1    0    0  503  502  0.00000000000E+00  0.00000000000E+00  0.12850809727E+04  0.12850809727E+04  0.00000000000E+00 0. -1.
         21   -1    0    0  501  503 -0.00000000000E+00 -0.00000000000E+00 -0.13799222431E+04  0.13799222431E+04  0.00000000000E+00 0. -1.
    9000010    2    1    2  501    0 -0.46349681931E+03 -0.36175603358E+02 -0.79778332643E+03  0.13676909888E+04  0.10089511530E+04 0.  0.
   -9000010    2    1    2    0  502  0.46349681931E+03  0.36175603358E+02  0.70294205604E+03  0.12973122270E+04  0.98628266968E+03 0.  0.
        -13    1    3    3    0    0 -0.48669174412E+03 -0.44546496939E+03 -0.66502326695E+03  0.93678377948E+03  0.10566000000E+00 0.  1.
          4    1    3    3  501    0  0.23194924811E+02  0.40928936603E+03 -0.13276005948E+03  0.43090720935E+03  0.00000000000E+00 0.  1.
         13    1    4    4    0    0  0.76804161703E+03 -0.26526536757E+02  0.58064616891E+03  0.96319342153E+03  0.10566000000E+00 0. -1.
         -4    1    4    4    0  502 -0.30454479772E+03  0.62702140114E+02  0.12229588713E+03  0.33411880552E+03  0.00000000000E+00 0. -1.
<mgrwt>
<rscale>  2 0.11057370E+04</rscale>
<asrwt>0</asrwt>
<pdfrwt beam="1">  1       21 0.19770477E+00 0.11109097E+04</pdfrwt>
<pdfrwt beam="2">  1       21 0.21229573E+00 0.11109097E+04</pdfrwt>
<totfact> 0.57275835E+00</totfact>
</mgrwt>
</event>
<event>
 8    1  0.7208583E-006  0.1180326E+04  0.7818608E-02  0.8625921E-01
         21   -1    0    0  503  502  0.00000000000E+00  0.00000000000E+00  0.24720163382E+04  0.24720163382E+04  0.00000000000E+00 0.  1.
         21   -1    0    0  501  503 -0.00000000000E+00 -0.00000000000E+00 -0.71021186718E+03  0.71021186718E+03  0.00000000000E+00 0.  1.
    9000010    2    1    2  501    0 -0.58815880121E+03  0.19607329661E+03  0.12524491991E+03  0.11644333752E+04  0.97767237977E+03 0.  0.
   -9000010    2    1    2    0  502  0.58815880121E+03 -0.19607329661E+03  0.16365595511E+04  0.20177948302E+04  0.10043870267E+04 0.  0.
        -13    1    3    3    0    0 -0.67445222568E+03  0.20521217436E+03 -0.27363504236E+03  0.75622350453E+03  0.10566000000E+00 0.  1.
          4    1    3    3  501    0  0.86293424469E+02 -0.91388777511E+01  0.39887996227E+03  0.40820987064E+03  0.00000000000E+00 0.  1.
         13    1    4    4    0    0  0.15900447390E+03  0.63467582279E+02  0.14836144972E+04  0.14934599239E+04  0.10566000000E+00 0. -1.
         -4    1    4    4    0  502  0.42915432732E+03 -0.25954087889E+03  0.15294505388E+03  0.52433490631E+03  0.00000000000E+00 0. -1.
<mgrwt>
<rscale>  2 0.11746226E+04</rscale>
<asrwt>0</asrwt>
<pdfrwt beam="1">  1       21 0.38031020E+00 0.11803257E+04</pdfrwt>
<pdfrwt beam="2">  1       21 0.10926337E+00 0.11803257E+04</pdfrwt>
<totfact> 0.22024496E+00</totfact>
</mgrwt>
</event>
<event>
 8    1  0.7208583E-006  0.1121430E+04  0.7818608E-02  0.8669688E-01
         21   -1    0    0  503  502  0.00000000000E+00  0.00000000000E+00  0.12965724242E+04  0.12965724242E+04  0.00000000000E+00 0.  1.
         21   -1    0    0  501  503 -0.00000000000E+00 -0.00000000000E+00 -0.16359166608E+04  0.16359166608E+04  0.00000000000E+00 0.  1.
    9000010    2    1    2  501    0  0.10022369999E+03 -0.47877243928E+03 -0.11099071061E+04  0.15778147911E+04  0.10091272923E+04 0.  0.
   -9000010    2    1    2    0  502 -0.10022369999E+03  0.47877243928E+03  0.77056286950E+03  0.13546742939E+04  0.10010531794E+04 0.  0.
        -13    1    3    3    0    0 -0.47513857579E+02  0.16362007459E+03  0.10176078164E+03  0.19845494027E+03  0.10566000000E+00 0.  1.
          4    1    3    3  501    0  0.14773755757E+03 -0.64239251387E+03 -0.12116678878E+04  0.13793598508E+04  0.00000000000E+00 0.  1.
         13    1    4    4    0    0 -0.40075065672E+03  0.34225845727E+03  0.86362532671E+03  0.10117265720E+04  0.10566000000E+00 0. -1.
         -4    1    4    4    0  502  0.30052695672E+03  0.13651398200E+03 -0.93062457204E+02  0.34294772187E+03  0.00000000000E+00 0. -1.
<mgrwt>
<rscale>  2 0.11196108E+04</rscale>
<asrwt>0</asrwt>
<pdfrwt beam="1">  1       21 0.19947268E+00 0.11214302E+04</pdfrwt>
<pdfrwt beam="2">  1       21 0.25167949E+00 0.11214302E+04</pdfrwt>
<totfact> 0.28204869E+00</totfact>
</mgrwt>
</event>
<event>
 8    1  0.7208583E-006  0.1039206E+04  0.7818608E-02  0.8769485E-01
         21   -1    0    0  501  502  0.00000000000E+00  0.00000000000E+00  0.14422255907E+04  0.14422255907E+04  0.00000000000E+00 0.  1.
         21   -1    0    0  502  503 -0.00000000000E+00 -0.00000000000E+00 -0.86303512163E+03  0.86303512163E+03  0.00000000000E+00 0.  1.
    9000010    2    1    2  501    0 -0.83506210210E+02 -0.35162050521E+03  0.86364839680E+03  0.13512359771E+04  0.97434072354E+03 0.  0.
   -9000010    2    1    2    0  503  0.83506210210E+02  0.35162050521E+03 -0.28445792775E+03  0.95402473527E+03  0.83584485164E+03 0.  0.
        -13    1    3    3    0    0  0.33680865230E+03 -0.74179543396E+02 -0.75275851054E+01  0.34496282209E+03  0.10566000000E+00 0.  1.
          4    1    3    3  501    0 -0.42031486251E+03 -0.27744096182E+03  0.87117598191E+03  0.10062731550E+04  0.00000000000E+00 0.  1.
         13    1    4    4    0    0 -0.12811292595E+03 -0.24299113999E+03 -0.41894453217E+02  0.27787186307E+03  0.10566000000E+00 0. -1.
         -4    1    4    4    0  503  0.21161913616E+03  0.59461164521E+03 -0.24256347453E+03  0.67615287220E+03  0.00000000000E+00 0. -1.
<mgrwt>
<rscale>  2 0.10054532E+04</rscale>
<asrwt>0</asrwt>
<pdfrwt beam="1">  1       21 0.22188086E+00 0.10392065E+04</pdfrwt>
<pdfrwt beam="2">  1       21 0.13277463E+00 0.10392065E+04</pdfrwt>
<totfact> 0.17725916E+01</totfact>
</mgrwt>
</event>
<event>
 8    1  0.7208583E-006  0.1160510E+04  0.7818608E-02  0.8644645E-01
         21   -1    0    0  501  502  0.00000000000E+00  0.00000000000E+00  0.82332465043E+03  0.82332465043E+03  0.00000000000E+00 0. -1.
         21   -1    0    0  502  503 -0.00000000000E+00 -0.00000000000E+00 -0.20614765001E+04  0.20614765001E+04  0.00000000000E+00 0. -1.
    9000010    2    1    2  501    0 -0.49550075182E+03  0.13283267836E+03  0.68703752020E+02  0.11625418963E+04  0.10409697112E+04 0.  0.
   -9000010    2    1    2    0  503  0.49550075182E+03 -0.13283267836E+03 -0.13068556017E+04  0.17222592542E+04  0.99756696995E+03 0.  0.
        -13    1    3    3    0    0  0.13610345522E+03 -0.20444213324E+03 -0.27465873964E+03  0.36845375665E+03  0.10566000000E+00 0.  1.
          4    1    3    3  501    0 -0.63160420704E+03  0.33727481160E+03  0.34336249166E+03  0.79408813967E+03  0.00000000000E+00 0.  1.
         13    1    4    4    0    0  0.76179047086E+03  0.92112612122E+02 -0.81482503924E+03  0.11192628425E+04  0.10566000000E+00 0. -1.
         -4    1    4    4    0  503 -0.26628971904E+03 -0.22494529048E+03 -0.49203056249E+03  0.60299641176E+03  0.00000000000E+00 0. -1.
<mgrwt>
<rscale>  2 0.11506942E+04</rscale>
<asrwt>0</asrwt>
<pdfrwt beam="1">  1       21 0.12666533E+00 0.11605100E+04</pdfrwt>
<pdfrwt beam="2">  1       21 0.31715023E+00 0.11605100E+04</pdfrwt>
<totfact> 0.40678135E+00</totfact>
</mgrwt>
</event>
<event>
 8    1  0.7208583E-006  0.1013484E+04  0.7818608E-02  0.8762166E-01
         21   -1    0    0  501  502  0.00000000000E+00  0.00000000000E+00  0.60192772336E+03  0.60192772336E+03  0.00000000000E+00 0.  1.
         21   -1    0    0  502  503 -0.00000000000E+00 -0.00000000000E+00 -0.27153936969E+04  0.27153936969E+04  0.00000000000E+00 0.  1.
    9000010    2    1    2  501    0 -0.11829334355E+03 -0.88350760827E+02 -0.45354622292E+02  0.10144986447E+04  0.10026720732E+04 0.  0.
   -9000010    2    1    2    0  503  0.11829334355E+03  0.88350760827E+02 -0.20681113512E+04  0.23028227755E+04  0.10020523950E+04 0.  0.
        -13    1    3    3    0    0 -0.24283542758E+03  0.34649219800E+03  0.23335689530E+03  0.48319906862E+03  0.10566000000E+00 0.  1.
          4    1    3    3  501    0  0.12454208403E+03 -0.43484295883E+03 -0.27871151759E+03  0.53129957611E+03  0.00000000000E+00 0.  1.
         13    1    4    4    0    0  0.47225116142E+03 -0.22225244322E+03 -0.13126237830E+04  0.14125857548E+04  0.10566000000E+00 0. -1.
         -4    1    4    4    0  503 -0.35395781787E+03  0.31060320405E+03 -0.75548756822E+03  0.89023702065E+03  0.00000000000E+00 0. -1.
<mgrwt>
<rscale>  2 0.10133310E+04</rscale>
<asrwt>0</asrwt>
<pdfrwt beam="1">  1       21 0.92604264E-01 0.10134843E+04</pdfrwt>
<pdfrwt beam="2">  1       21 0.41775288E+00 0.10134843E+04</pdfrwt>
<totfact> 0.19371681E+00</totfact>
</mgrwt>
</event>
<event>
 8    1  0.7208583E-006  0.1142627E+04  0.7818608E-02  0.8657435E-01
         21   -1    0    0  501  502  0.00000000000E+00  0.00000000000E+00  0.76992145607E+03  0.76992145607E+03  0.00000000000E+00 0.  1.
         21   -1    0    0  502  503 -0.00000000000E+00 -0.00000000000E+00 -0.18254652049E+04  0.18254652049E+04  0.00000000000E+00 0.  1.
    9000010    2    1    2  501    0 -0.36643070768E+03 -0.34127904864E+03 -0.11819648585E+03  0.11174772967E+04  0.99198903564E+03 0.  0.
   -9000010    2    1    2    0  503  0.36643070768E+03  0.34127904864E+03 -0.93734726301E+03  0.14779093643E+04  0.10270605362E+04 0.  0.
        -13    1    3    3    0    0 -0.43299183603E+03 -0.64165410891E+03 -0.19925872487E+03  0.79931594263E+03  0.10566000000E+00 0.  1.
          4    1    3    3  501    0  0.66561128352E+02  0.30037506027E+03  0.81062239021E+02  0.31816135408E+03  0.00000000000E+00 0.  1.
         13    1    4    4    0    0  0.24955099839E+03 -0.32920449525E+03 -0.15566436138E+03  0.44145521297E+03  0.10566000000E+00 0. -1.
         -4    1    4    4    0  503  0.11687970929E+03  0.67048354389E+03 -0.78168290163E+03  0.10364541513E+04  0.00000000000E+00 0. -1.
<mgrwt>
<rscale>  2 0.11346901E+04</rscale>
<asrwt>0</asrwt>
<pdfrwt beam="1">  1       21 0.11844945E+00 0.11426269E+04</pdfrwt>
<pdfrwt beam="2">  1       21 0.28084080E+00 0.11426269E+04</pdfrwt>
<totfact> 0.89189309E+00</totfact>
</mgrwt>
</event>
<event>
 8    1  0.7208583E-006  0.1163847E+04  0.7818608E-02  0.8635530E-01
         21   -1    0    0  503  502  0.00000000000E+00  0.00000000000E+00  0.30180650542E+04  0.30180650542E+04  0.00000000000E+00 0. -1.
         21   -1    0    0  501  503 -0.00000000000E+00 -0.00000000000E+00 -0.93193975855E+03  0.93193975855E+03  0.00000000000E+00 0. -1.
    9000010    2    1    2  501    0 -0.51106838033E+03 -0.28457172532E+03 -0.38387645286E+03  0.12195380155E+04  0.99886930272E+03 0.  0.
   -9000010    2    1    2    0  502  0.51106838033E+03  0.28457172532E+03  0.24700017485E+04  0.27304667973E+04  0.10061651639E+04 0.  0.
        -13    1    3    3    0    0 -0.75606859731E+03 -0.12348952041E+03 -0.48808550776E+03  0.90835943301E+03  0.10566000000E+00 0.  1.
          4    1    3    3  501    0  0.24500021699E+03 -0.16108220491E+03  0.10420905490E+03  0.31117858247E+03  0.00000000000E+00 0.  1.
         13    1    4    4    0    0  0.68024462302E+03 -0.12418087252E+03  0.17932762736E+04  0.19219764412E+04  0.10566000000E+00 0. -1.
         -4    1    4    4    0  502 -0.16917624269E+03  0.40875259784E+03  0.67672547497E+03  0.80849035604E+03  0.00000000000E+00 0. -1.
<mgrwt>
<rscale>  2 0.11622686E+04</rscale>
<asrwt>0</asrwt>
<pdfrwt beam="1">  1       21 0.46431770E+00 0.11638472E+04</pdfrwt>
<pdfrwt beam="2">  1       21 0.14337535E+00 0.11638472E+04</pdfrwt>
<totfact> 0.26572264E-01</totfact>
</mgrwt>
</event>
<event>
 8    1  0.7208583E-006  0.1050501E+04  0.7818608E-02  0.8737087E-01
         21   -1    0    0  501  502  0.00000000000E+00  0.00000000000E+00  0.56303500940E+03  0.56303500940E+03  0.00000000000E+00 0.  1.
         21   -1    0    0  502  503 -0.00000000000E+00 -0.00000000000E+00 -0.19296285068E+04  0.19296285068E+04  0.00000000000E+00 0.  1.
    9000010    2    1    2  501    0  0.14055721775E+03  0.81594551278E+02 -0.51687585488E+03  0.11707741862E+04  0.10378523707E+04 0.  0.
   -9000010    2    1    2    0  503 -0.14055721775E+03 -0.81594551278E+02 -0.84971764251E+03  0.13218893300E+04  0.99947852728E+03 0.  0.
        -13    1    3    3    0    0  0.23060916908E+03  0.41939744409E+02 -0.81960146160E+03  0.85245885416E+03  0.10566000000E+00 0.  1.
          4    1    3    3  501    0 -0.90051951332E+02  0.39654806869E+02  0.30272560672E+03  0.31831533204E+03  0.00000000000E+00 0.  1.
         13    1    4    4    0    0 -0.42131834191E+03 -0.35482392894E+03 -0.24848210991E+03  0.60427852509E+03  0.10566000000E+00 0. -1.
         -4    1    4    4    0  503  0.28076112415E+03  0.27322937766E+03 -0.60123553260E+03  0.71761080490E+03  0.00000000000E+00 0. -1.
<mgrwt>
<rscale>  2 0.10408961E+04</rscale>
<asrwt>0</asrwt>
<pdfrwt beam="1">  1       21 0.86620771E-01 0.10505006E+04</pdfrwt>
<pdfrwt beam="2">  1       21 0.29686592E+00 0.10505006E+04</pdfrwt>
<totfact> 0.16009130E+01</totfact>
</mgrwt>
</event>
<event>
 8    1  0.7208583E-006  0.1034431E+04  0.7818608E-02  0.8743162E-01
         21   -1    0    0  501  502  0.00000000000E+00  0.00000000000E+00  0.55638417392E+03  0.55638417392E+03  0.00000000000E+00 0.  1.
         21   -1    0    0  502  503 -0.00000000000E+00 -0.00000000000E+00 -0.19613006777E+04  0.19613006777E+04  0.00000000000E+00 0.  1.
    9000010    2    1    2  501    0  0.12773343163E+03  0.22843748563E+03 -0.52248026697E+03  0.11588928508E+04  0.10007734489E+04 0.  0.
   -9000010    2    1    2    0  503 -0.12773343163E+03 -0.22843748563E+03 -0.88243623679E+03  0.13587920007E+04  0.99956114114E+03 0.  0.
        -13    1    3    3    0    0 -0.12575383872E+03  0.12234122011E+03 -0.76958783148E+03  0.78933316389E+03  0.10566000000E+00 0.  1.
          4    1    3    3  501    0  0.25348727035E+03  0.10609626552E+03  0.24710756451E+03  0.36955968696E+03  0.00000000000E+00 0.  1.
         13    1    4    4    0    0 -0.88669360280E+02 -0.17363439392E+03  0.19705573910E+03  0.27720413720E+03  0.10566000000E+00 0. -1.
         -4    1    4    4    0  503 -0.39064071348E+02 -0.54803091707E+02 -0.10794919759E+04  0.10815878635E+04  0.00000000000E+00 0. -1.
<mgrwt>
<rscale>  2 0.10341374E+04</rscale>
<asrwt>0</asrwt>
<pdfrwt beam="1">  1       21 0.85597566E-01 0.10344308E+04</pdfrwt>
<pdfrwt beam="2">  1       21 0.30173856E+00 0.10344308E+04</pdfrwt>
<totfact> 0.15292992E+01</totfact>
</mgrwt>
</event>
<event>
 8    1  0.7208583E-006  0.1039125E+04  0.7818608E-02  0.8746686E-01
         21   -1    0    0  501  502  0.00000000000E+00  0.00000000000E+00  0.15823188733E+04  0.15823188733E+04  0.00000000000E+00 0.  1.
         21   -1    0    0  502  503 -0.00000000000E+00 -0.00000000000E+00 -0.83598475488E+03  0.83598475488E+03  0.00000000000E+00 0.  1.
    9000010    2    1    2  501    0 -0.97674399755E+02 -0.11314600684E+03 -0.18730247617E+03  0.10213575298E+04  0.99284776214E+03 0.  0.
   -9000010    2    1    2    0  503  0.97674399755E+02  0.11314600684E+03  0.93363659463E+03  0.13969460985E+04  0.10283184351E+04 0.  0.
        -13    1    3    3    0    0 -0.41800082046E+03 -0.35597540220E+03 -0.26865519438E+03  0.61124364824E+03  0.10566000000E+00 0.  1.
          4    1    3    3  501    0  0.32032642070E+03  0.24282939537E+03  0.81352718209E+02  0.41011388152E+03  0.00000000000E+00 0.  1.
         13    1    4    4    0    0 -0.11271288862E+03 -0.35221710472E+03  0.78064809855E+03  0.86381279746E+03  0.10566000000E+00 0. -1.
         -4    1    4    4    0  503  0.21038728837E+03  0.46536311155E+03  0.15298849608E+03  0.53313330100E+03  0.00000000000E+00 0. -1.
<mgrwt>
<rscale>  2 0.10302396E+04</rscale>
<asrwt>0</asrwt>
<pdfrwt beam="1">  1       21 0.24343367E+00 0.10391252E+04</pdfrwt>
<pdfrwt beam="2">  1       21 0.12861304E+00 0.10391252E+04</pdfrwt>
<totfact> 0.13455606E+01</totfact>
</mgrwt>
</event>
<event>
 8    1  0.7208583E-006  0.1043622E+04  0.7818608E-02  0.8753709E-01
         21   -1    0    0  503  502  0.00000000000E+00  0.00000000000E+00  0.65009395695E+03  0.65009395695E+03  0.00000000000E+00 0. -1.
         21   -1    0    0  501  503 -0.00000000000E+00 -0.00000000000E+00 -0.16201711554E+04  0.16201711554E+04  0.00000000000E+00 0. -1.
    9000010    2    1    2  501    0  0.17859387878E+03 -0.27993515589E+03 -0.70794555403E+03  0.11942257937E+04  0.90262332891E+03 0.  0.
   -9000010    2    1    2    0  502 -0.17859387878E+03  0.27993515589E+03 -0.26213164438E+03  0.10760393186E+04  0.98938776580E+03 0.  0.
        -13    1    3    3    0    0 -0.91791510368E+02 -0.37671755302E+03 -0.80300541736E+03  0.89171716794E+03  0.10566000000E+00 0.  1.
          4    1    3    3  501    0  0.27038538915E+03  0.96782397126E+02  0.95059863326E+02  0.30250862579E+03  0.00000000000E+00 0.  1.
         13    1    4    4    0    0 -0.55100785521E+03 -0.31278143276E+02 -0.80017569239E+02  0.55766549230E+03  0.10566000000E+00 0. -1.
         -4    1    4    4    0  502  0.37241397643E+03  0.31121329917E+03 -0.18211407514E+03  0.51837382629E+03  0.00000000000E+00 0. -1.
<mgrwt>
<rscale>  2 0.10225265E+04</rscale>
<asrwt>0</asrwt>
<pdfrwt beam="1">  1       21 0.10001446E+00 0.10436224E+04</pdfrwt>
<pdfrwt beam="2">  1       21 0.24925710E+00 0.10436224E+04</pdfrwt>
<totfact> 0.24288322E+01</totfact>
</mgrwt>
</event>
<event>
 8    1  0.7208583E-006  0.1032918E+04  0.7818608E-02  0.8748624E-01
         21   -1    0    0  503  502  0.00000000000E+00  0.00000000000E+00  0.10566982366E+04  0.10566982366E+04  0.00000000000E+00 0.  1.
         21   -1    0    0  501  503 -0.00000000000E+00 -0.00000000000E+00 -0.10643828003E+04  0.10643828003E+04  0.00000000000E+00 0.  1.
    9000010    2    1    2  501    0  0.54385981767E+02  0.27375918716E+03 -0.28212867416E+03  0.10523255220E+04  0.97462325434E+03 0.  0.
   -9000010    2    1    2    0  502 -0.54385981767E+02 -0.27375918716E+03  0.27444411043E+03  0.10687555149E+04  0.99449326454E+03 0.  0.
        -13    1    3    3    0    0  0.83148844453E+02 -0.77261688581E+02  0.32841751078E+03  0.34747830350E+03  0.10566000000E+00 0.  1.
          4    1    3    3  501    0 -0.28762862685E+02  0.35102087574E+03 -0.61054618494E+03  0.70484721850E+03  0.00000000000E+00 0.  1.
         13    1    4    4    0    0 -0.42584535724E+03  0.13509977893E+02  0.39816684418E+03  0.58314975329E+03  0.10566000000E+00 0. -1.
         -4    1    4    4    0  502  0.37145937547E+03 -0.28726916506E+03 -0.12372273376E+03  0.48560576157E+03  0.00000000000E+00 0. -1.
<mgrwt>
<rscale>  2 0.10281049E+04</rscale>
<asrwt>0</asrwt>
<pdfrwt beam="1">  1       21 0.16256896E+00 0.10329176E+04</pdfrwt>
<pdfrwt beam="2">  1       21 0.16375120E+00 0.10329176E+04</pdfrwt>
<totfact> 0.27744736E+01</totfact>
</mgrwt>
</event>
<event>
 8    1  0.7208583E-006  0.1053946E+04  0.7818608E-02  0.8727883E-01
         21   -1    0    0  503  502  0.00000000000E+00  0.00000000000E+00  0.10806311103E+04  0.10806311103E+04  0.00000000000E+00 0. -1.
         21   -1    0    0  501  503 -0.00000000000E+00 -0.00000000000E+00 -0.11838966420E+04  0.11838966420E+04  0.00000000000E+00 0. -1.
    9000010    2    1    2  501    0  0.18515099478E+03  0.27304982421E+03 -0.47643796056E+03  0.11566307711E+04  0.10009817746E+04 0.  0.
   -9000010    2    1    2    0  502 -0.18515099478E+03 -0.27304982421E+03  0.37317242888E+03  0.11078969811E+04  0.98961657308E+03 0.  0.
        -13    1    3    3    0    0 -0.73399141935E+02  0.52704137477E+03  0.31022685174E+02  0.53303139018E+03  0.10566000000E+00 0.  1.
          4    1    3    3  501    0  0.25855013672E+03 -0.25399155056E+03 -0.50746064573E+03  0.62359938095E+03  0.00000000000E+00 0.  1.
         13    1    4    4    0    0 -0.34524035429E+03 -0.21349015758E+03 -0.23987629646E+03  0.47149718810E+03  0.10566000000E+00 0. -1.
         -4    1    4    4    0  502  0.16008935951E+03 -0.59559666624E+02  0.61304872534E+03  0.63639979302E+03  0.00000000000E+00 0. -1.
<mgrwt>
<rscale>  2 0.10512383E+04</rscale>
<asrwt>0</asrwt>
<pdfrwt beam="1">  1       21 0.16625094E+00 0.10539457E+04</pdfrwt>
<pdfrwt beam="2">  1       21 0.18213794E+00 0.10539457E+04</pdfrwt>
<totfact> 0.18065267E+01</totfact>
</mgrwt>
</event>
<event>
 8    1  0.7208583E-006  0.1059975E+04  0.7818608E-02  0.8727243E-01
         21   -1    0    0  501  502  0.00000000000E+00  0.00000000000E+00  0.17766197052E+04  0.17766197052E+04  0.00000000000E+00 0. -1.
         21   -1    0    0  502  503 -0.00000000000E+00 -0.00000000000E+00 -0.10525805824E+04  0.10525805824E+04  0.00000000000E+00 0. -1.
    9000010    2    1    2  501    0  0.22367628829E+02  0.22739769478E+03  0.12722549572E+04  0.16358493080E+04  0.10025768101E+04 0.  0.
   -9000010    2    1    2    0  503 -0.22367628829E+02 -0.22739769478E+03 -0.54821583440E+03  0.11933509795E+04  0.10350535913E+04 0.  0.
        -13    1    3    3    0    0 -0.13118832940E+03 -0.25947783383E+03  0.10309693799E+04  0.10711848568E+04  0.10566000000E+00 0.  1.
          4    1    3    3  501    0  0.15355595822E+03  0.48687552861E+03  0.24128557731E+03  0.56466445124E+03  0.00000000000E+00 0.  1.
         13    1    4    4    0    0  0.42073489093E+03 -0.21516503575E+03  0.19640509110E+02  0.47296892268E+03  0.10566000000E+00 0. -1.
         -4    1    4    4    0  503 -0.44310251976E+03 -0.12232659029E+02 -0.56785634351E+03  0.72038205685E+03  0.00000000000E+00 0. -1.
<mgrwt>
<rscale>  2 0.10519618E+04</rscale>
<asrwt>0</asrwt>
<pdfrwt beam="1">  1       21 0.27332611E+00 0.10599745E+04</pdfrwt>
<pdfrwt beam="2">  1       21 0.16193547E+00 0.10599745E+04</pdfrwt>
<totfact> 0.40511796E+00</totfact>
</mgrwt>
</event>
<event>
 8    1  0.7208583E-006  0.1113840E+04  0.7818608E-02  0.8681392E-01
         21   -1    0    0  503  502  0.00000000000E+00  0.00000000000E+00  0.66380218012E+03  0.66380218012E+03  0.00000000000E+00 0. -1.
         21   -1    0    0  501  503 -0.00000000000E+00 -0.00000000000E+00 -0.18543839843E+04  0.18543839843E+04  0.00000000000E+00 0. -1.
    9000010    2    1    2  501    0 -0.60172804159E+02  0.21106785528E+03 -0.77313039942E+03  0.13286881707E+04  0.10580695793E+04 0.  0.
   -9000010    2    1    2    0  502  0.60172804159E+02 -0.21106785528E+03 -0.41745140472E+03  0.11894979937E+04  0.10920024706E+04 0.  0.
        -13    1    3    3    0    0 -0.45708465277E+03  0.10961752027E+02 -0.75642924739E+03  0.88387315678E+03  0.10566000000E+00 0.  1.
          4    1    3    3  501    0  0.39691184861E+03  0.20010610325E+03 -0.16701152034E+02  0.44481501392E+03  0.00000000000E+00 0.  1.
         13    1    4    4    0    0  0.37520605362E+03 -0.19317704775E+03 -0.66557195069E+03  0.78808818489E+03  0.10566000000E+00 0. -1.
         -4    1    4    4    0  502 -0.31503324946E+03 -0.17890807534E+02  0.24812054597E+03  0.40140980879E+03  0.00000000000E+00 0. -1.
<mgrwt>
<rscale>  2 0.11054337E+04</rscale>
<asrwt>0</asrwt>
<pdfrwt beam="1">  1       21 0.10212341E+00 0.11138401E+04</pdfrwt>
<pdfrwt beam="2">  1       21 0.28528984E+00 0.11138401E+04</pdfrwt>
<totfact> 0.12474517E+01</totfact>
</mgrwt>
</event>
<event>
 8    1  0.7208583E-006  0.1042546E+04  0.7818608E-02  0.8736853E-01
         21   -1    0    0  501  502  0.00000000000E+00  0.00000000000E+00  0.71286382659E+03  0.71286382659E+03  0.00000000000E+00 0.  1.
         21   -1    0    0  502  503 -0.00000000000E+00 -0.00000000000E+00 -0.15528059045E+04  0.15528059045E+04  0.00000000000E+00 0.  1.
    9000010    2    1    2  501    0  0.10051649061E+03  0.27908136805E+03 -0.59403676384E+03  0.11999093730E+04  0.99945627807E+03 0.  0.
   -9000010    2    1    2    0  503 -0.10051649061E+03 -0.27908136805E+03 -0.24590531408E+03  0.10657603581E+04  0.99367285487E+03 0.  0.
        -13    1    3    3    0    0  0.73997774401E+02  0.20464419528E+03  0.26180003078E+03  0.34043234946E+03  0.10566000000E+00 0.  1.
          4    1    3    3  501    0  0.26518716206E+02  0.74437172767E+02 -0.85583679461E+03  0.85947702355E+03  0.00000000000E+00 0.  1.
         13    1    4    4    0    0 -0.14051834601E+03  0.20348067326E+03  0.26458316433E+03  0.36215197358E+03  0.10566000000E+00 0. -1.
         -4    1    4    4    0  503  0.40001855402E+02 -0.48256204131E+03 -0.51048847842E+03  0.70360838451E+03  0.00000000000E+00 0. -1.
<mgrwt>
<rscale>  2 0.10411578E+04</rscale>
<asrwt>0</asrwt>
<pdfrwt beam="1">  1       21 0.10967136E+00 0.10425463E+04</pdfrwt>
<pdfrwt beam="2">  1       21 0.23889322E+00 0.10425463E+04</pdfrwt>
<totfact> 0.22635047E+01</totfact>
</mgrwt>
</event>
<event>
 8    1  0.7208583E-006  0.1018038E+04  0.7818608E-02  0.8759843E-01
         21   -1    0    0  503  502  0.00000000000E+00  0.00000000000E+00  0.73583178594E+03  0.73583178594E+03  0.00000000000E+00 0.  1.
         21   -1    0    0  501  503 -0.00000000000E+00 -0.00000000000E+00 -0.14259702449E+04  0.14259702449E+04  0.00000000000E+00 0.  1.
    9000010    2    1    2  501    0  0.12593036646E+03  0.18083554706E+02 -0.49922756731E+03  0.11260178846E+04  0.10012505382E+04 0.  0.
   -9000010    2    1    2    0  502 -0.12593036646E+03 -0.18083554706E+02 -0.19091089164E+03  0.10357841463E+04  0.10100576008E+04 0.  0.
        -13    1    3    3    0    0  0.28973728486E+03 -0.33629116303E+03 -0.57695427523E+03  0.72795308053E+03  0.10566000000E+00 0.  1.
          4    1    3    3  501    0 -0.16380691840E+03  0.35437471774E+03  0.77726707922E+02  0.39806480404E+03  0.00000000000E+00 0.  1.
         13    1    4    4    0    0 -0.91963285580E+02  0.34733273473E+03  0.26795261569E+03  0.44821411170E+03  0.10566000000E+00 0. -1.
         -4    1    4    4    0  502 -0.33967080880E+02 -0.36541628943E+03 -0.45886350733E+03  0.58757003457E+03  0.00000000000E+00 0. -1.
<mgrwt>
<rscale>  2 0.10158468E+04</rscale>
<asrwt>0</asrwt>
<pdfrwt beam="1">  1       21 0.11320489E+00 0.10180382E+04</pdfrwt>
<pdfrwt beam="2">  1       21 0.21938004E+00 0.10180382E+04</pdfrwt>
<totfact> 0.29167531E+01</totfact>
</mgrwt>
</event>
<event>
 8    1  0.7208583E-006  0.1146324E+04  0.7818608E-02  0.8649888E-01
         21   -1    0    0  503  502  0.00000000000E+00  0.00000000000E+00  0.21571110039E+04  0.21571110039E+04  0.00000000000E+00 0.  1.
         21   -1    0    0  501  503 -0.00000000000E+00 -0.00000000000E+00 -0.80481126128E+03  0.80481126128E+03  0.00000000000E+00 0.  1.
    9000010    2    1    2  501    0  0.45479345716E+03  0.27537599606E+03 -0.60762105966E+02  0.11479328645E+04  0.10155731387E+04 0.  0.
   -9000010    2    1    2    0  502 -0.45479345716E+03 -0.27537599606E+03  0.14130618486E+04  0.18139894006E+04  0.10055569252E+04 0.  0.
        -13    1    3    3    0    0 -0.20494053084E+02  0.10688628844E+03 -0.47998096219E+03  0.49216503339E+03  0.10566000000E+00 0.  1.
          4    1    3    3  501    0  0.47528751024E+03  0.16848970762E+03  0.41921885622E+03  0.65576783116E+03  0.00000000000E+00 0.  1.
         13    1    4    4    0    0 -0.19585580008E+03 -0.52037519895E+03  0.13390716165E+04  0.14499181519E+04  0.10566000000E+00 0. -1.
         -4    1    4    4    0  502 -0.25893765708E+03  0.24499920289E+03  0.73990232102E+02  0.36407124868E+03  0.00000000000E+00 0. -1.
<mgrwt>
<rscale>  2 0.11441011E+04</rscale>
<asrwt>0</asrwt>
<pdfrwt beam="1">  1       21 0.33186323E+00 0.11463236E+04</pdfrwt>
<pdfrwt beam="2">  1       21 0.12381712E+00 0.11463236E+04</pdfrwt>
<totfact> 0.34310901E+00</totfact>
</mgrwt>
</event>
<event>
 8    1  0.7208583E-006  0.1080029E+04  0.7818608E-02  0.8704075E-01
         21   -1    0    0  501  502  0.00000000000E+00  0.00000000000E+00  0.15309581721E+04  0.15309581721E+04  0.00000000000E+00 0.  1.
         21   -1    0    0  502  503 -0.00000000000E+00 -0.00000000000E+00 -0.92707219851E+03  0.92707219851E+03  0.00000000000E+00 0.  1.
    9000010    2    1    2  501    0 -0.44717415770E+02  0.39417373842E+03  0.82771965847E+03  0.13607288190E+04  0.10045349683E+04 0.  0.
   -9000010    2    1    2    0  503  0.44717415770E+02 -0.39417373842E+03 -0.22383368491E+03  0.10973015516E+04  0.99829684626E+03 0.  0.
        -13    1    3    3    0    0 -0.14732799756E+02  0.70816382623E+03  0.75850237361E+03  0.10378048574E+04  0.10566000000E+00 0.  1.
          4    1    3    3  501    0 -0.29984616014E+02 -0.31399008781E+03  0.69217284862E+02  0.32292396158E+03  0.00000000000E+00 0.  1.
         13    1    4    4    0    0  0.36007632521E+03 -0.57749187203E+03 -0.23093614857E+02  0.68094430642E+03  0.10566000000E+00 0. -1.
         -4    1    4    4    0  503 -0.31535890944E+03  0.18331813361E+03 -0.20074007005E+03  0.41635724516E+03  0.00000000000E+00 0. -1.
<mgrwt>
<rscale>  2 0.10785764E+04</rscale>
<asrwt>0</asrwt>
<pdfrwt beam="1">  1       21 0.23553203E+00 0.10800292E+04</pdfrwt>
<pdfrwt beam="2">  1       21 0.14262649E+00 0.10800292E+04</pdfrwt>
<totfact> 0.11239851E+01</totfact>
</mgrwt>
</event>
<event>
 8    1  0.7208583E-006  0.1015682E+04  0.7818608E-02  0.8760854E-01
         21   -1    0    0  501  502  0.00000000000E+00  0.00000000000E+00  0.70118088975E+03  0.70118088975E+03  0.00000000000E+00 0.  1.
         21   -1    0    0  502  503 -0.00000000000E+00 -0.00000000000E+00 -0.14690397937E+04  0.14690397937E+04  0.00000000000E+00 0.  1.
    9000010    2    1    2  501    0  0.12790816317E+03 -0.22940124751E+02 -0.33277191710E+03  0.10652722500E+04  0.10035841122E+04 0.  0.
   -9000010    2    1    2    0  503 -0.12790816317E+03  0.22940124751E+02 -0.43508698682E+03  0.11049484334E+04  0.10073349031E+04 0.  0.
        -13    1    3    3    0    0 -0.19908984484E+03 -0.33698608769E+02  0.29492495036E+03  0.35742565669E+03  0.10566000000E+00 0.  1.
          4    1    3    3  501    0  0.32699800801E+03  0.10758484019E+02 -0.62769686746E+03  0.70784659330E+03  0.00000000000E+00 0.  1.
         13    1    4    4    0    0  0.19878653560E+03 -0.22178175997E+03 -0.59593242146E+03  0.66621220186E+03  0.10566000000E+00 0. -1.
         -4    1    4    4    0  503 -0.32669469876E+03  0.24472188472E+03  0.16084543464E+03  0.43873623159E+03  0.00000000000E+00 0. -1.
<mgrwt>
<rscale>  2 0.10147510E+04</rscale>
<asrwt>0</asrwt>
<pdfrwt beam="1">  1       21 0.10787398E+00 0.10156822E+04</pdfrwt>
<pdfrwt beam="2">  1       21 0.22600612E+00 0.10156822E+04</pdfrwt>
<totfact> 0.29664079E+01</totfact>
</mgrwt>
</event>
<event>
 8    1  0.7208583E-006  0.1070172E+04  0.7818608E-02  0.8712530E-01
         21   -1    0    0  501  502  0.00000000000E+00  0.00000000000E+00  0.14982452508E+04  0.14982452508E+04  0.00000000000E+00 0.  1.
         21   -1    0    0  502  503 -0.00000000000E+00 -0.00000000000E+00 -0.83689448657E+03  0.83689448657E+03  0.00000000000E+00 0.  1.
    9000010    2    1    2  501    0  0.32643895787E+02 -0.31833389903E+03  0.68285184180E+03  0.12647514960E+04  0.10153362071E+04 0.  0.
   -9000010    2    1    2    0  503 -0.32643895787E+02  0.31833389903E+03 -0.21501077547E+02  0.10703882414E+04  0.10212083998E+04 0.  0.
        -13    1    3    3    0    0 -0.46628476351E+03 -0.25559095994E+03  0.20148653159E+03  0.56863437556E+03  0.10566000000E+00 0.  1.
          4    1    3    3  501    0  0.49892865930E+03 -0.62742939084E+02  0.48136531021E+03  0.69611712042E+03  0.00000000000E+00 0.  1.
         13    1    4    4    0    0  0.16091646977E+03  0.65326821779E+03 -0.85782548147E+02  0.67824194160E+03  0.10566000000E+00 0. -1.
         -4    1    4    4    0  503 -0.19356036555E+03 -0.33493431876E+03  0.64281470600E+02  0.39214629982E+03  0.00000000000E+00 0. -1.
<mgrwt>
<rscale>  2 0.10687690E+04</rscale>
<asrwt>0</asrwt>
<pdfrwt beam="1">  1       21 0.23049927E+00 0.10701723E+04</pdfrwt>
<pdfrwt beam="2">  1       21 0.12875300E+00 0.10701723E+04</pdfrwt>
<totfact> 0.16588731E+01</totfact>
</mgrwt>
</event>
<event>
 8    1  0.7208583E-006  0.1178441E+04  0.7818608E-02  0.8657517E-01
         21   -1    0    0  501  502  0.00000000000E+00  0.00000000000E+00  0.83546297563E+03  0.83546297563E+03  0.00000000000E+00 0. -1.
         21   -1    0    0  502  503 -0.00000000000E+00 -0.00000000000E+00 -0.16360747351E+04  0.16360747351E+04  0.00000000000E+00 0. -1.
    9000010    2    1    2  501    0  0.23257761152E+03  0.21017128194E+02  0.36065524510E+01  0.11784464379E+04  0.11550709653E+04 0.  0.
   -9000010    2    1    2    0  503 -0.23257761152E+03 -0.21017128194E+02 -0.80421831190E+03  0.12930912728E+04  0.98528365533E+03 0.  0.
        -13    1    3    3    0    0  0.31040959236E+03  0.52314596691E+03 -0.18598632538E+03  0.63610277637E+03  0.10566000000E+00 0.  1.
          4    1    3    3  501    0 -0.77831980845E+02 -0.50212883871E+03  0.18959287783E+03  0.54234366156E+03  0.00000000000E+00 0.  1.
         13    1    4    4    0    0  0.37303109341E+03  0.97607650981E+02 -0.22338334029E+03  0.44562268576E+03  0.10566000000E+00 0. -1.
         -4    1    4    4    0  503 -0.60560870493E+03 -0.11862477918E+03 -0.58083497160E+03  0.84746858700E+03  0.00000000000E+00 0. -1.
<mgrwt>
<rscale>  2 0.11345880E+04</rscale>
<asrwt>0</asrwt>
<pdfrwt beam="1">  1       21 0.12853277E+00 0.11784409E+04</pdfrwt>
<pdfrwt beam="2">  1       21 0.25170380E+00 0.11784409E+04</pdfrwt>
<totfact> 0.11378193E+01</totfact>
</mgrwt>
</event>
<event>
 8    1  0.7208583E-006  0.1098836E+04  0.7818608E-02  0.8691505E-01
         21   -1    0    0  501  502  0.00000000000E+00  0.00000000000E+00  0.64282303090E+03  0.64282303090E+03  0.00000000000E+00 0. -1.
         21   -1    0    0  502  503 -0.00000000000E+00 -0.00000000000E+00 -0.20956697403E+04  0.20956697403E+04  0.00000000000E+00 0. -1.
    9000010    2    1    2  501    0 -0.25602279838E+03  0.16783349736E+03 -0.25583998557E+03  0.11282262722E+04  0.10553315436E+04 0.  0.
   -9000010    2    1    2    0  503  0.25602279838E+03 -0.16783349736E+03 -0.11970067238E+04  0.16102664990E+04  0.10326748495E+04 0.  0.
        -13    1    3    3    0    0  0.33077921667E+03  0.16601846413E+03 -0.37780595302E+03  0.52888029828E+03  0.10566000000E+00 0.  1.
          4    1    3    3  501    0 -0.58680201505E+03  0.18150332299E+01  0.12196596745E+03  0.59934597389E+03  0.00000000000E+00 0.  1.
         13    1    4    4    0    0 -0.21712531424E+03 -0.22940654448E+02 -0.10799153147E+04  0.11017652989E+04  0.10566000000E+00 0. -1.
         -4    1    4    4    0  503  0.47314811262E+03 -0.14489284291E+03 -0.11709140905E+03  0.50850120007E+03  0.00000000000E+00 0. -1.
<mgrwt>
<rscale>  2 0.10933598E+04</rscale>
<asrwt>0</asrwt>
<pdfrwt beam="1">  1       21 0.98895850E-01 0.10988359E+04</pdfrwt>
<pdfrwt beam="2">  1       21 0.32241073E+00 0.10988359E+04</pdfrwt>
<totfact> 0.74461064E+00</totfact>
</mgrwt>
</event>
<event>
 8    1  0.7208583E-006  0.1030836E+04  0.7818608E-02  0.8746887E-01
         21   -1    0    0  503  502  0.00000000000E+00  0.00000000000E+00  0.87721808965E+03  0.87721808965E+03  0.00000000000E+00 0.  1.
         21   -1    0    0  501  503 -0.00000000000E+00 -0.00000000000E+00 -0.12521508452E+04  0.12521508452E+04  0.00000000000E+00 0.  1.
    9000010    2    1    2  501    0 -0.97628426947E+02 -0.19270665080E+03 -0.38818281405E+03  0.10984480299E+04  0.10046068954E+04 0.  0.
   -9000010    2    1    2    0  502  0.97628426947E+02  0.19270665080E+03  0.13250058496E+02  0.10309209050E+04  0.10079460230E+04 0.  0.
        -13    1    3    3    0    0 -0.33930084508E+03 -0.51081315054E+03 -0.32485373553E+03  0.69396332676E+03  0.10566000000E+00 0.  1.
          4    1    3    3  501    0  0.24167241814E+03  0.31810649975E+03 -0.63329078520E+02  0.40448470312E+03  0.00000000000E+00 0.  1.
         13    1    4    4    0    0  0.25677404887E+03 -0.36757479235E+03  0.81133494691E+01  0.44845287127E+03  0.10566000000E+00 0. -1.
         -4    1    4    4    0  502 -0.15914562192E+03  0.56028144315E+03  0.51367090270E+01  0.58246803371E+03  0.00000000000E+00 0. -1.
<mgrwt>
<rscale>  2 0.10300186E+04</rscale>
<asrwt>0</asrwt>
<pdfrwt beam="1">  1       21 0.13495663E+00 0.10308358E+04</pdfrwt>
<pdfrwt beam="2">  1       21 0.19263859E+00 0.10308358E+04</pdfrwt>
<totfact> 0.28445587E+01</totfact>
</mgrwt>
</event>
<event>
 8    1  0.7208583E-006  0.1015608E+04  0.7818608E-02  0.8765497E-01
         21   -1    0    0  501  502  0.00000000000E+00  0.00000000000E+00  0.12292767464E+04  0.12292767464E+04  0.00000000000E+00 0. -1.
         21   -1    0    0  502  503 -0.00000000000E+00 -0.00000000000E+00 -0.11093535609E+04  0.11093535609E+04  0.00000000000E+00 0. -1.
    9000010    2    1    2  501    0  0.73229189986E+01 -0.22473892172E+03  0.65665591298E+03  0.11899170936E+04  0.96651150713E+03 0.  0.
   -9000010    2    1    2    0  503 -0.73229189986E+01  0.22473892172E+03 -0.53673272741E+03  0.11487132138E+04  0.99040336162E+03 0.  0.
        -13    1    3    3    0    0 -0.17054802370E+03 -0.57339047983E+03  0.43949793935E+03  0.74230837298E+03  0.10566000000E+00 0.  1.
          4    1    3    3  501    0  0.17787094269E+03  0.34865155811E+03  0.21715797363E+03  0.44760872058E+03  0.00000000000E+00 0.  1.
         13    1    4    4    0    0 -0.38592399408E+03  0.30563299609E+03 -0.57816308219E+03  0.75935592332E+03  0.10566000000E+00 0. -1.
         -4    1    4    4    0  503  0.37860107508E+03 -0.80894074378E+02  0.41430354783E+02  0.38935729044E+03  0.00000000000E+00 0. -1.
<mgrwt>
<rscale>  2 0.10097363E+04</rscale>
<asrwt>0</asrwt>
<pdfrwt beam="1">  1       21 0.18911950E+00 0.10156082E+04</pdfrwt>
<pdfrwt beam="2">  1       21 0.17066978E+00 0.10156082E+04</pdfrwt>
<totfact> 0.14700563E+01</totfact>
</mgrwt>
</event>
<event>
 8    1  0.7208583E-006  0.1204172E+04  0.7818608E-02  0.8647996E-01
         21   -1    0    0  503  502  0.00000000000E+00  0.00000000000E+00  0.13258649483E+04  0.13258649483E+04  0.00000000000E+00 0.  1.
         21   -1    0    0  501  503 -0.00000000000E+00 -0.00000000000E+00 -0.91466834086E+03  0.91466834086E+03  0.00000000000E+00 0.  1.
    9000010    2    1    2  501    0  0.77860321532E+02 -0.24676641852E+03  0.85744359826E+02  0.99315623821E+03  0.95501378172E+03 0.  0.
   -9000010    2    1    2    0  502 -0.77860321532E+02  0.24676641852E+03  0.32545224757E+03  0.12473770509E+04  0.11760418558E+04 0.  0.
        -13    1    3    3    0    0  0.10992760052E+03  0.34184660310E+03  0.17067399762E+03  0.39758370444E+03  0.10566000000E+00 0.  1.
          4    1    3    3  501    0 -0.32067278985E+02 -0.58861302163E+03 -0.84929637795E+02  0.59557253377E+03  0.00000000000E+00 0.  1.
         13    1    4    4    0    0 -0.76716412301E+02 -0.23515837455E+03 -0.34326235852E+03  0.42310037459E+03  0.10566000000E+00 0. -1.
         -4    1    4    4    0  502 -0.11439092304E+01  0.48192479307E+03  0.66871460609E+03  0.82427667631E+03  0.00000000000E+00 0. -1.
<mgrwt>
<rscale>  2 0.11464751E+04</rscale>
<asrwt>0</asrwt>
<pdfrwt beam="1">  1       21 0.20397922E+00 0.12041721E+04</pdfrwt>
<pdfrwt beam="2">  1       21 0.14071821E+00 0.12041721E+04</pdfrwt>
<totfact> 0.19746077E+01</totfact>
</mgrwt>
</event>
<event>
 8    1  0.7208583E-006  0.1047207E+04  0.7818608E-02  0.8732256E-01
         21   -1    0    0  501  502  0.00000000000E+00  0.00000000000E+00  0.10246386302E+04  0.10246386302E+04  0.00000000000E+00 0. -1.
         21   -1    0    0  502  503 -0.00000000000E+00 -0.00000000000E+00 -0.14201841125E+04  0.14201841125E+04  0.00000000000E+00 0. -1.
    9000010    2    1    2  501    0  0.50562903947E+02 -0.31186882181E+03  0.41190914053E+03  0.11253054972E+04  0.99841101395E+03 0.  0.
   -9000010    2    1    2    0  503 -0.50562903947E+02  0.31186882181E+03 -0.80745462275E+03  0.13195172455E+04  0.99464768839E+03 0.  0.
        -13    1    3    3    0    0  0.64513773661E+02 -0.67559791071E+03  0.31748841189E+03  0.74926194805E+03  0.10566000000E+00 0.  1.
          4    1    3    3  501    0 -0.13950869714E+02  0.36372908891E+03  0.94420728642E+02  0.37604354918E+03  0.00000000000E+00 0.  1.
         13    1    4    4    0    0  0.97338275857E+02  0.32108959716E+03 -0.10124342411E+04  0.10665816299E+04  0.10566000000E+00 0. -1.
         -4    1    4    4    0  503 -0.14790117980E+03 -0.92207753541E+01  0.20497961839E+03  0.25293561561E+03  0.00000000000E+00 0. -1.
<mgrwt>
<rscale>  2 0.10463094E+04</rscale>
<asrwt>0</asrwt>
<pdfrwt beam="1">  1       21 0.15763671E+00 0.10472074E+04</pdfrwt>
<pdfrwt beam="2">  1       21 0.21848986E+00 0.10472074E+04</pdfrwt>
<totfact> 0.11154841E+01</totfact>
</mgrwt>
</event>
<event>
 8    1  0.7208583E-006  0.1027791E+04  0.7818608E-02  0.8770883E-01
         21   -1    0    0  503  502  0.00000000000E+00  0.00000000000E+00  0.12817492925E+04  0.12817492925E+04  0.00000000000E+00 0. -1.
         21   -1    0    0  501  503 -0.00000000000E+00 -0.00000000000E+00 -0.87354905451E+03  0.87354905451E+03  0.00000000000E+00 0. -1.
    9000010    2    1    2  501    0  0.20317572067E+03  0.80795968906E+02  0.61398786003E+03  0.11972202853E+04  0.10042643861E+04 0.  0.
   -9000010    2    1    2    0  502 -0.20317572067E+03 -0.80795968906E+02 -0.20578762202E+03  0.95807806174E+03  0.90981133481E+03 0.  0.
        -13    1    3    3    0    0  0.52230743922E+03 -0.23616973455E+03  0.40093789995E+03  0.69952299130E+03  0.10566000000E+00 0.  1.
          4    1    3    3  501    0 -0.31913171855E+03  0.31696570345E+03  0.21304996008E+03  0.49769729398E+03  0.00000000000E+00 0.  1.
         13    1    4    4    0    0  0.66926906350E+02 -0.18265410153E+03  0.31059561274E+03  0.36648516671E+03  0.10566000000E+00 0. -1.
         -4    1    4    4    0  502 -0.27010262702E+03  0.10185813262E+03 -0.51638323476E+03  0.59159289503E+03  0.00000000000E+00 0. -1.
<mgrwt>
<rscale>  2 0.10039563E+04</rscale>
<asrwt>0</asrwt>
<pdfrwt beam="1">  1       21 0.19719220E+00 0.10277915E+04</pdfrwt>
<pdfrwt beam="2">  1       21 0.13439216E+00 0.10277915E+04</pdfrwt>
<totfact> 0.26530015E+01</totfact>
</mgrwt>
</event>
<event>
 8    1  0.7208583E-006  0.1101588E+04  0.7818608E-02  0.8704315E-01
         21   -1    0    0  501  502  0.00000000000E+00  0.00000000000E+00  0.90225519150E+03  0.90225519150E+03  0.00000000000E+00 0.  1.
         21   -1    0    0  502  503 -0.00000000000E+00 -0.00000000000E+00 -0.13173441189E+04  0.13173441189E+04  0.00000000000E+00 0.  1.
    9000010    2    1    2  501    0  0.15353930308E+03 -0.62931001438E+02  0.57934501530E+02  0.11031107928E+04  0.10890190018E+04 0.  0.
   -9000010    2    1    2    0  503 -0.15353930308E+03  0.62931001438E+02 -0.47302342890E+03  0.11164885176E+04  0.99762759435E+03 0.  0.
        -13    1    3    3    0    0  0.26652287706E+02  0.49472562746E+03 -0.10908831051E+03  0.50731061644E+03  0.10566000000E+00 0.  1.
          4    1    3    3  501    0  0.12688701537E+03 -0.55765662890E+03  0.16702281204E+03  0.59580017637E+03  0.00000000000E+00 0.  1.
         13    1    4    4    0    0  0.14800400092E+02  0.37150341007E+03 -0.62999737633E+03  0.73152617238E+03  0.10566000000E+00 0. -1.
         -4    1    4    4    0  503 -0.16833970317E+03 -0.30857240863E+03  0.15697394743E+03  0.38496234517E+03  0.00000000000E+00 0. -1.
<mgrwt>
<rscale>  2 0.10782963E+04</rscale>
<asrwt>0</asrwt>
<pdfrwt beam="1">  1       21 0.13880849E+00 0.11015884E+04</pdfrwt>
<pdfrwt beam="2">  1       21 0.20266833E+00 0.11015884E+04</pdfrwt>
<totfact> 0.21499205E+01</totfact>
</mgrwt>
</event>
<event>
 8    1  0.7208583E-006  0.1006247E+04  0.7818608E-02  0.8769926E-01
         21   -1    0    0  501  502  0.00000000000E+00  0.00000000000E+00  0.80617173202E+03  0.80617173202E+03  0.00000000000E+00 0. -1.
         21   -1    0    0  502  503 -0.00000000000E+00 -0.00000000000E+00 -0.12900498927E+04  0.12900498927E+04  0.00000000000E+00 0. -1.
    9000010    2    1    2  501    0  0.51659691643E+01  0.84913457199E+02 -0.42677271154E+03  0.10883559069E+04  0.99757037364E+03 0.  0.
   -9000010    2    1    2    0  503 -0.51659691643E+01 -0.84913457199E+02 -0.57105449160E+02  0.10078657178E+04  0.10026441494E+04 0.  0.
        -13    1    3    3    0    0  0.15705484005E+03  0.36299986362E+03  0.15587089562E+03  0.42512453591E+03  0.10566000000E+00 0.  1.
          4    1    3    3  501    0 -0.15188887088E+03 -0.27808640642E+03 -0.58264360716E+03  0.66323137101E+03  0.00000000000E+00 0.  1.
         13    1    4    4    0    0  0.23065702942E+03  0.39784676094E+03  0.41012888662E+02  0.46169987937E+03  0.10566000000E+00 0. -1.
         -4    1    4    4    0  503 -0.23582299859E+03 -0.48276021814E+03 -0.98118337822E+02  0.54616583845E+03  0.00000000000E+00 0. -1.
<mgrwt>
<rscale>  2 0.10049804E+04</rscale>
<asrwt>0</asrwt>
<pdfrwt beam="1">  1       21 0.12402642E+00 0.10062466E+04</pdfrwt>
<pdfrwt beam="2">  1       21 0.19846921E+00 0.10062466E+04</pdfrwt>
<totfact> 0.32825163E+01</totfact>
</mgrwt>
</event>
<event>
 8    1  0.7208583E-006  0.1054839E+04  0.7818608E-02  0.8732645E-01
         21   -1    0    0  501  502  0.00000000000E+00  0.00000000000E+00  0.33144286486E+04  0.33144286486E+04  0.00000000000E+00 0. -1.
         21   -1    0    0  502  503 -0.00000000000E+00 -0.00000000000E+00 -0.48651084861E+03  0.48651084861E+03  0.00000000000E+00 0. -1.
    9000010    2    1    2  501    0 -0.17237333369E+03 -0.27401067278E+03  0.24943337291E+04  0.26946101421E+04  0.96665849771E+03 0.  0.
   -9000010    2    1    2    0  503  0.17237333369E+03  0.27401067278E+03  0.33358407093E+03  0.11063293551E+04  0.10039381926E+04 0.  0.
        -13    1    3    3    0    0 -0.44335592726E+03 -0.32025872332E+03  0.22837317531E+04  0.23483102137E+04  0.10566000000E+00 0.  1.
          4    1    3    3  501    0  0.27098259358E+03  0.46248050541E+02  0.21060197592E+03  0.34629992847E+03  0.00000000000E+00 0.  1.
         13    1    4    4    0    0  0.53867934931E+03  0.88538903051E+02  0.41750103520E+03  0.68725665095E+03  0.10566000000E+00 0. -1.
         -4    1    4    4    0  503 -0.36630601562E+03  0.18547176973E+03 -0.83916964262E+02  0.41907270412E+03  0.00000000000E+00 0. -1.
<mgrwt>
<rscale>  2 0.10458716E+04</rscale>
<asrwt>0</asrwt>
<pdfrwt beam="1">  1       21 0.50991209E+00 0.10548395E+04</pdfrwt>
<pdfrwt beam="2">  1       21 0.74847825E-01 0.10548395E+04</pdfrwt>
<totfact> 0.74659885E-01</totfact>
</mgrwt>
</event>
<event>
 8    1  0.7208583E-006  0.1112613E+04  0.7818608E-02  0.8677182E-01
         21   -1    0    0  501  502  0.00000000000E+00  0.00000000000E+00  0.24640931153E+04  0.24640931153E+04  0.00000000000E+00 0.  1.
         21   -1    0    0  502  503 -0.00000000000E+00 -0.00000000000E+00 -0.55540895443E+03  0.55540895443E+03  0.00000000000E+00 0.  1.
    9000010    2    1    2  501    0  0.33982760889E+03 -0.33403474651E+03  0.14339617355E+04  0.18098453055E+04  0.99610830507E+03 0.  0.
   -9000010    2    1    2    0  503 -0.33982760889E+03  0.33403474651E+03  0.47472242531E+03  0.12096567641E+04  0.10054084197E+04 0.  0.
        -13    1    3    3    0    0 -0.14933560603E+02  0.30590548769E+03  0.17242233855E+03  0.35146927693E+03  0.10566000000E+00 0.  1.
          4    1    3    3  501    0  0.35476116950E+03 -0.63994023420E+03  0.12615393970E+04  0.14583760286E+04  0.00000000000E+00 0.  1.
         13    1    4    4    0    0 -0.46309405597E+02 -0.25545165889E+03 -0.15177961782E+03  0.30072774169E+03  0.10566000000E+00 0. -1.
         -4    1    4    4    0  503 -0.29351820330E+03  0.58948640539E+03  0.62650204313E+03  0.90892902245E+03  0.00000000000E+00 0. -1.
<mgrwt>
<rscale>  2 0.11105080E+04</rscale>
<asrwt>0</asrwt>
<pdfrwt beam="1">  1       21 0.37909124E+00 0.11126132E+04</pdfrwt>
<pdfrwt beam="2">  1       21 0.85447533E-01 0.11126132E+04</pdfrwt>
<totfact> 0.43224550E+00</totfact>
</mgrwt>
</event>
<event>
 8    1  0.7208583E-006  0.1012136E+04  0.7818608E-02  0.8767359E-01
         21   -1    0    0  503  502  0.00000000000E+00  0.00000000000E+00  0.48451920172E+03  0.48451920172E+03  0.00000000000E+00 0. -1.
         21   -1    0    0  501  503 -0.00000000000E+00 -0.00000000000E+00 -0.22419544712E+04  0.22419544712E+04  0.00000000000E+00 0. -1.
    9000010    2    1    2  501    0  0.45111579816E+02  0.33292386820E+02 -0.12403551655E+04  0.15899040353E+04  0.99306115978E+03 0.  0.
   -9000010    2    1    2    0  502 -0.45111579816E+02 -0.33292386820E+02 -0.51708010397E+03  0.11365696377E+04  0.10105816492E+04 0.  0.
        -13    1    3    3    0    0  0.92704840688E+02  0.40095244387E+03 -0.11307566407E+04  0.12033152710E+04  0.10566000000E+00 0.  1.
          4    1    3    3  501    0 -0.47593260872E+02 -0.36766005705E+03 -0.10959852483E+03  0.38658876429E+03  0.00000000000E+00 0.  1.
         13    1    4    4    0    0  0.17877968997E+03  0.30524609858E+03 -0.62360030262E+03  0.71694818979E+03  0.10566000000E+00 0. -1.
         -4    1    4    4    0  502 -0.22389126979E+03 -0.33853848540E+03  0.10652019865E+03  0.41962144786E+03  0.00000000000E+00 0. -1.
<mgrwt>
<rscale>  2 0.10077338E+04</rscale>
<asrwt>0</asrwt>
<pdfrwt beam="1">  1       21 0.74541416E-01 0.10121357E+04</pdfrwt>
<pdfrwt beam="2">  1       21 0.34491607E+00 0.10121357E+04</pdfrwt>
<totfact> 0.10718651E+01</totfact>
</mgrwt>
</event>
<event>
 8    1  0.7208583E-006  0.1016190E+04  0.7818608E-02  0.8761482E-01
         21   -1    0    0  501  502  0.00000000000E+00  0.00000000000E+00  0.22094701597E+04  0.22094701597E+04  0.00000000000E+00 0.  1.
         21   -1    0    0  502  503 -0.00000000000E+00 -0.00000000000E+00 -0.47065528859E+03  0.47065528859E+03  0.00000000000E+00 0.  1.
    9000010    2    1    2  501    0  0.10785696257E+03 -0.92146612031E+02  0.10311482270E+04  0.14418060668E+04  0.99770433776E+03 0.  0.
   -9000010    2    1    2    0  503 -0.10785696257E+03  0.92146612031E+02  0.70766664407E+03  0.12383193815E+04  0.10062398765E+04 0.  0.
        -13    1    3    3    0    0 -0.27010585939E+03 -0.41441199116E+03  0.38512762276E+03  0.62691129410E+03  0.10566000000E+00 0.  1.
          4    1    3    3  501    0  0.37796282196E+03  0.32226537913E+03  0.64602060426E+03  0.81489477266E+03  0.00000000000E+00 0.  1.
         13    1    4    4    0    0 -0.47262794838E+03 -0.15047836812E+03  0.61577126562E+03  0.79069284782E+03  0.10566000000E+00 0. -1.
         -4    1    4    4    0  503  0.36477098581E+03  0.24262498015E+03  0.91895378449E+02  0.44762653369E+03  0.00000000000E+00 0. -1.
<mgrwt>
<rscale>  2 0.10140709E+04</rscale>
<asrwt>0</asrwt>
<pdfrwt beam="1">  1       21 0.33991848E+00 0.10161903E+04</pdfrwt>
<pdfrwt beam="2">  1       21 0.72408507E-01 0.10161903E+04</pdfrwt>
<totfact> 0.12443418E+01</totfact>
</mgrwt>
</event>
<event>
 8    1  0.7208583E-006  0.1086770E+04  0.7818608E-02  0.8704111E-01
         21   -1    0    0  501  502  0.00000000000E+00  0.00000000000E+00  0.14591242839E+04  0.14591242839E+04  0.00000000000E+00 0. -1.
         21   -1    0    0  502  503 -0.00000000000E+00 -0.00000000000E+00 -0.81369459974E+03  0.81369459974E+03  0.00000000000E+00 0. -1.
    9000010    2    1    2  501    0 -0.28335788757E+03 -0.37656168575E+03  0.10594137607E+03  0.10595110054E+04  0.94300031799E+03 0.  0.
   -9000010    2    1    2    0  503  0.28335788757E+03  0.37656168575E+03  0.53948830813E+03  0.12133078783E+04  0.97927420947E+03 0.  0.
        -13    1    3    3    0    0 -0.14791792598E+03  0.29104704747E+03 -0.11061600208E+03  0.34470858380E+03  0.10566000000E+00 0.  1.
          4    1    3    3  501    0 -0.13543996158E+03 -0.66760873322E+03  0.21655737815E+03  0.71480242158E+03  0.00000000000E+00 0.  1.
         13    1    4    4    0    0  0.32699400515E+03 -0.26999128610E+03  0.11761776774E+03  0.44006172797E+03  0.10566000000E+00 0. -1.
         -4    1    4    4    0  503 -0.43636117586E+02  0.64655297185E+03  0.42187054038E+03  0.77324615034E+03  0.00000000000E+00 0. -1.
<mgrwt>
<rscale>  2 0.10785344E+04</rscale>
<asrwt>0</asrwt>
<pdfrwt beam="1">  1       21 0.22448066E+00 0.10867697E+04</pdfrwt>
<pdfrwt beam="2">  1       21 0.12518378E+00 0.10867697E+04</pdfrwt>
<totfact> 0.19864105E+01</totfact>
</mgrwt>
</event>
<event>
 8    1  0.7208583E-006  0.1063517E+04  0.7818608E-02  0.8758066E-01
         21   -1    0    0  501  502  0.00000000000E+00  0.00000000000E+00  0.89290557028E+03  0.89290557028E+03  0.00000000000E+00 0.  1.
         21   -1    0    0  502  503 -0.00000000000E+00 -0.00000000000E+00 -0.10931479007E+04  0.10931479007E+04  0.00000000000E+00 0.  1.
    9000010    2    1    2  501    0 -0.19335263714E+03  0.13016774502E+03 -0.23327742792E+03  0.92202319610E+03  0.86103398982E+03 0.  0.
   -9000010    2    1    2    0  503  0.19335263714E+03 -0.13016774502E+03  0.33035097501E+02  0.10640302749E+04  0.10376609389E+04 0.  0.
        -13    1    3    3    0    0 -0.26669075714E+03 -0.16062568928E+03  0.21808477933E+03  0.38011255456E+03  0.10566000000E+00 0.  1.
          4    1    3    3  501    0  0.73338119999E+02  0.29079343430E+03 -0.45136220725E+03  0.54191064153E+03  0.00000000000E+00 0.  1.
         13    1    4    4    0    0 -0.27670724541E+02  0.12668305029E+03 -0.45319020745E+03  0.47137632474E+03  0.10566000000E+00 0. -1.
         -4    1    4    4    0  503  0.22102336168E+03 -0.25685079531E+03  0.48622530495E+03  0.59265395016E+03  0.00000000000E+00 0. -1.
<mgrwt>
<rscale>  2 0.10177771E+04</rscale>
<asrwt>0</asrwt>
<pdfrwt beam="1">  1       21 0.13737009E+00 0.10635173E+04</pdfrwt>
<pdfrwt beam="2">  1       21 0.16817660E+00 0.10635173E+04</pdfrwt>
<totfact> 0.42449691E+01</totfact>
</mgrwt>
</event>
<event>
 8    1  0.7208583E-006  0.1029390E+04  0.7818608E-02  0.8750015E-01
         21   -1    0    0  503  502  0.00000000000E+00  0.00000000000E+00  0.35041937029E+03  0.35041937029E+03  0.00000000000E+00 0. -1.
         21   -1    0    0  501  503 -0.00000000000E+00 -0.00000000000E+00 -0.30181220692E+04  0.30181220692E+04  0.00000000000E+00 0. -1.
    9000010    2    1    2  501    0  0.13869758052E+03  0.13354745500E+03 -0.14860298222E+04  0.18013803111E+04  0.99980720711E+03 0.  0.
   -9000010    2    1    2    0  502 -0.13869758052E+03 -0.13354745500E+03 -0.11816728767E+04  0.15671611283E+04  0.10112226624E+04 0.  0.
        -13    1    3    3    0    0 -0.34063914539E+03  0.33241685587E+03 -0.90363221731E+03  0.10213163999E+04  0.10566000000E+00 0.  1.
          4    1    3    3  501    0  0.47933672592E+03 -0.19886940087E+03 -0.58239760487E+03  0.78006391121E+03  0.00000000000E+00 0.  1.
         13    1    4    4    0    0 -0.10189313952E+03  0.44148184186E+03 -0.50954505334E+03  0.68185379746E+03  0.10566000000E+00 0. -1.
         -4    1    4    4    0  502 -0.36804441007E+02 -0.57502929686E+03 -0.67212782338E+03  0.88530733087E+03  0.00000000000E+00 0. -1.
<mgrwt>
<rscale>  2 0.10265753E+04</rscale>
<asrwt>0</asrwt>
<pdfrwt beam="1">  1       21 0.53910674E-01 0.10293897E+04</pdfrwt>
<pdfrwt beam="2">  1       21 0.46432645E+00 0.10293897E+04</pdfrwt>
<totfact> 0.33417961E+00</totfact>
</mgrwt>
</event>
<event>
 8    1  0.7208583E-006  0.1016940E+04  0.7818608E-02  0.8759787E-01
         21   -1    0    0  503  502  0.00000000000E+00  0.00000000000E+00  0.92683122013E+03  0.92683122013E+03  0.00000000000E+00 0.  1.
         21   -1    0    0  501  503 -0.00000000000E+00 -0.00000000000E+00 -0.11964317133E+04  0.11964317133E+04  0.00000000000E+00 0.  1.
    9000010    2    1    2  501    0  0.59755458794E+02  0.15101218433E+03 -0.41825819939E+03  0.10995939882E+04  0.10038882521E+04 0.  0.
   -9000010    2    1    2    0  502 -0.59755458794E+02 -0.15101218433E+03  0.14865770619E+03  0.10236689453E+04  0.99971175912E+03 0.  0.
        -13    1    3    3    0    0  0.37209157290E+03  0.51518310422E+02  0.18066869955E+03  0.41683025933E+03  0.10566000000E+00 0.  1.
          4    1    3    3  501    0 -0.31233611411E+03  0.99493873904E+02 -0.59892689894E+03  0.68276372882E+03  0.00000000000E+00 0.  1.
         13    1    4    4    0    0 -0.29820851634E+03 -0.39743165983E+01  0.49518979499E+03  0.57806319606E+03  0.10566000000E+00 0. -1.
         -4    1    4    4    0  502  0.23845305755E+03 -0.14703786773E+03 -0.34653208880E+03  0.44560574926E+03  0.00000000000E+00 0. -1.
<mgrwt>
<rscale>  2 0.10159078E+04</rscale>
<asrwt>0</asrwt>
<pdfrwt beam="1">  1       21 0.14258942E+00 0.10169400E+04</pdfrwt>
<pdfrwt beam="2">  1       21 0.18406642E+00 0.10169400E+04</pdfrwt>
<totfact> 0.28377973E+01</totfact>
</mgrwt>
</event>
<event>
 8    1  0.7208583E-006  0.1008966E+04  0.7818608E-02  0.8767080E-01
         21   -1    0    0  503  502  0.00000000000E+00  0.00000000000E+00  0.91154770132E+03  0.91154770132E+03  0.00000000000E+00 0. -1.
         21   -1    0    0  501  503 -0.00000000000E+00 -0.00000000000E+00 -0.11263591399E+04  0.11263591399E+04  0.00000000000E+00 0. -1.
    9000010    2    1    2  501    0  0.46218903637E+02  0.11742532658E+03 -0.21951215627E+03  0.10289295831E+04  0.99728912855E+03 0.  0.
   -9000010    2    1    2    0  502 -0.46218903637E+02 -0.11742532658E+03  0.47007177321E+01  0.10089772580E+04  0.10010435136E+04 0.  0.
        -13    1    3    3    0    0  0.15494242365E+03 -0.39397818273E+03 -0.27241924461E+03  0.50342647836E+03  0.10566000000E+00 0.  1.
          4    1    3    3  501    0 -0.10872352001E+03  0.51140350931E+03  0.52907088344E+02  0.52550310478E+03  0.00000000000E+00 0.  1.
         13    1    4    4    0    0  0.28781028825E+03  0.16531505409E+03 -0.32232188755E+03  0.46266104168E+03  0.10566000000E+00 0. -1.
         -4    1    4    4    0  502 -0.33402919188E+03 -0.28274038067E+03  0.32702260528E+03  0.54631621636E+03  0.00000000000E+00 0. -1.
<mgrwt>
<rscale>  2 0.10080338E+04</rscale>
<asrwt>0</asrwt>
<pdfrwt beam="1">  1       21 0.14023811E+00 0.10089663E+04</pdfrwt>
<pdfrwt beam="2">  1       21 0.17328602E+00 0.10089663E+04</pdfrwt>
<totfact> 0.36612203E+01</totfact>
</mgrwt>
</event>
<event>
 8    1  0.7208583E-006  0.1072240E+04  0.7818608E-02  0.8714707E-01
         21   -1    0    0  501  502  0.00000000000E+00  0.00000000000E+00  0.86919325354E+03  0.86919325354E+03  0.00000000000E+00 0. -1.
         21   -1    0    0  502  503 -0.00000000000E+00 -0.00000000000E+00 -0.17938789702E+04  0.17938789702E+04  0.00000000000E+00 0. -1.
    9000010    2    1    2  501    0  0.15007460161E+03  0.26560375432E+03  0.24450834103E+03  0.10766566750E+04  0.10031637587E+04 0.  0.
   -9000010    2    1    2    0  503 -0.15007460161E+03 -0.26560375432E+03 -0.11691940577E+04  0.15864155487E+04  0.10279259741E+04 0.  0.
        -13    1    3    3    0    0 -0.23153490463E+03  0.52859468898E+03  0.69455657072E+02  0.58124423158E+03  0.10566000000E+00 0.  1.
          4    1    3    3  501    0  0.38160950624E+03 -0.26299093465E+03  0.17505268396E+03  0.49541244345E+03  0.00000000000E+00 0.  1.
         13    1    4    4    0    0  0.25070147438E+03  0.28166479189E+03 -0.28854533208E+03  0.47481017689E+03  0.10566000000E+00 0. -1.
         -4    1    4    4    0  503 -0.40077607600E+03 -0.54726854621E+03 -0.88064872559E+03  0.11116053718E+04  0.00000000000E+00 0. -1.
<mgrwt>
<rscale>  2 0.10662618E+04</rscale>
<asrwt>0</asrwt>
<pdfrwt beam="1">  1       21 0.13372204E+00 0.10722404E+04</pdfrwt>
<pdfrwt beam="2">  1       21 0.27598138E+00 0.10722404E+04</pdfrwt>
<totfact> 0.69419289E+00</totfact>
</mgrwt>
</event>
<event>
 8    1  0.7208583E-006  0.1019187E+04  0.7818608E-02  0.8758135E-01
         21   -1    0    0  503  502  0.00000000000E+00  0.00000000000E+00  0.21232049046E+04  0.21232049046E+04  0.00000000000E+00 0.  1.
         21   -1    0    0  501  503 -0.00000000000E+00 -0.00000000000E+00 -0.10933083293E+04  0.10933083293E+04  0.00000000000E+00 0.  1.
    9000010    2    1    2  501    0  0.16939989642E+03  0.96409814744E+02 -0.68263444507E+03  0.12266753692E+04  0.10003756787E+04 0.  0.
   -9000010    2    1    2    0  502 -0.16939989642E+03 -0.96409814744E+02  0.17125310204E+04  0.19898378647E+04  0.99433447818E+03 0.  0.
        -13    1    3    3    0    0 -0.12308165508E+03  0.37270439217E+03  0.45137664565E+02  0.39508869597E+03  0.10566000000E+00 0.  1.
          4    1    3    3  501    0  0.29248155150E+03 -0.27629457743E+03 -0.72777210964E+03  0.83158667321E+03  0.00000000000E+00 0.  1.
         13    1    4    4    0    0 -0.36664800584E+03 -0.70716930527E+02  0.13080499991E+03  0.39565338823E+03  0.10566000000E+00 0. -1.
         -4    1    4    4    0  502  0.19724810942E+03 -0.25692884218E+02  0.15817260205E+04  0.15941844765E+04  0.00000000000E+00 0. -1.
<mgrwt>
<rscale>  2 0.10177018E+04</rscale>
<asrwt>0</asrwt>
<pdfrwt beam="1">  1       21 0.32664691E+00 0.10191873E+04</pdfrwt>
<pdfrwt beam="2">  1       21 0.16820128E+00 0.10191873E+04</pdfrwt>
<totfact> 0.15199913E+00</totfact>
</mgrwt>
</event>
<event>
 8    1  0.7208583E-006  0.1024518E+04  0.7818608E-02  0.8770839E-01
         21   -1    0    0  501  502  0.00000000000E+00  0.00000000000E+00  0.64134923550E+03  0.64134923550E+03  0.00000000000E+00 0.  1.
         21   -1    0    0  502  503 -0.00000000000E+00 -0.00000000000E+00 -0.17267385039E+04  0.17267385039E+04  0.00000000000E+00 0.  1.
    9000010    2    1    2  501    0 -0.30564950095E+03  0.12143202931E+03 -0.14454048030E+03  0.10346642006E+04  0.97029413185E+03 0.  0.
   -9000010    2    1    2    0  503  0.30564950095E+03 -0.12143202931E+03 -0.94084878807E+03  0.13334235388E+04  0.88580727966E+03 0.  0.
        -13    1    3    3    0    0 -0.62867910934E+03  0.25362389547E+02  0.73194449987E+02  0.63343358925E+03  0.10566000000E+00 0.  1.
          4    1    3    3  501    0  0.32302960839E+03  0.96069639767E+02 -0.21773493029E+03  0.40123061130E+03  0.00000000000E+00 0.  1.
         13    1    4    4    0    0  0.10141169655E+03  0.32905593289E+03 -0.70681897583E+03  0.78622847502E+03  0.10566000000E+00 0. -1.
         -4    1    4    4    0  503  0.20423780440E+03 -0.45048796221E+03 -0.23402981225E+03  0.54719506381E+03  0.00000000000E+00 0. -1.
<mgrwt>
<rscale>  2 0.10040040E+04</rscale>
<asrwt>0</asrwt>
<pdfrwt beam="1">  1       21 0.98669111E-01 0.10245185E+04</pdfrwt>
<pdfrwt beam="2">  1       21 0.26565208E+00 0.10245185E+04</pdfrwt>
<totfact> 0.19237904E+01</totfact>
</mgrwt>
</event>
<event>
 8    1  0.7208583E-006  0.1079442E+04  0.7818608E-02  0.8709749E-01
         21   -1    0    0  503  502  0.00000000000E+00  0.00000000000E+00  0.86818757019E+03  0.86818757019E+03  0.00000000000E+00 0.  1.
         21   -1    0    0  501  503 -0.00000000000E+00 -0.00000000000E+00 -0.13464506374E+04  0.13464506374E+04  0.00000000000E+00 0.  1.
    9000010    2    1    2  501    0  0.80703243131E+02  0.43444305497E+03 -0.43511783657E+03  0.11638398093E+04  0.98485622732E+03 0.  0.
   -9000010    2    1    2    0  502 -0.80703243131E+02 -0.43444305497E+03 -0.43145230659E+02  0.10507983983E+04  0.95239801636E+03 0.  0.
        -13    1    3    3    0    0  0.36698526437E+03 -0.10049277719E+03 -0.40598377437E+03  0.55641694686E+03  0.10566000000E+00 0.  1.
          4    1    3    3  501    0 -0.28628202124E+03  0.53493583216E+03 -0.29134062195E+02  0.60742286242E+03  0.00000000000E+00 0.  1.
         13    1    4    4    0    0  0.15788945985E+03 -0.33977354178E+03 -0.44016174860E+03  0.57802899349E+03  0.10566000000E+00 0. -1.
         -4    1    4    4    0  502 -0.23859270298E+03 -0.94669513191E+02  0.39701651794E+03  0.47276940485E+03  0.00000000000E+00 0. -1.
<mgrwt>
<rscale>  2 0.10719828E+04</rscale>
<asrwt>0</asrwt>
<pdfrwt beam="1">  1       21 0.13356732E+00 0.10794422E+04</pdfrwt>
<pdfrwt beam="2">  1       21 0.20714625E+00 0.10794422E+04</pdfrwt>
<totfact> 0.22347345E+01</totfact>
</mgrwt>
</event>
<event>
 8    1  0.7208583E-006  0.1025125E+04  0.7818608E-02  0.8754448E-01
         21   -1    0    0  503  502  0.00000000000E+00  0.00000000000E+00  0.20324604923E+04  0.20324604923E+04  0.00000000000E+00 0. -1.
         21   -1    0    0  501  503 -0.00000000000E+00 -0.00000000000E+00 -0.51559266978E+03  0.51559266978E+03  0.00000000000E+00 0. -1.
    9000010    2    1    2  501    0 -0.20724668714E+02 -0.19368203144E+03  0.63355259205E+03  0.12051019094E+04  0.10064489475E+04 0.  0.
   -9000010    2    1    2    0  502  0.20724668714E+02  0.19368203144E+03  0.88331523045E+03  0.13429512527E+04  0.99263791464E+03 0.  0.
        -13    1    3    3    0    0 -0.18556449629E+03  0.38038442752E+03  0.20688271975E+03  0.47109125005E+03  0.10566000000E+00 0.  1.
          4    1    3    3  501    0  0.16483982758E+03 -0.57406645895E+03  0.42666987230E+03  0.73401065931E+03  0.00000000000E+00 0.  1.
         13    1    4    4    0    0 -0.30231441386E+03 -0.25243013027E+03  0.14038464788E+03  0.41811820819E+03  0.10566000000E+00 0. -1.
         -4    1    4    4    0  502  0.32303908257E+03  0.44611216171E+03  0.74293058258E+03  0.92483304451E+03  0.00000000000E+00 0. -1.
<mgrwt>
<rscale>  2 0.10217193E+04</rscale>
<asrwt>0</asrwt>
<pdfrwt beam="1">  1       21 0.31268623E+00 0.10251252E+04</pdfrwt>
<pdfrwt beam="2">  1       21 0.79321950E-01 0.10251252E+04</pdfrwt>
<totfact> 0.15489527E+01</totfact>
</mgrwt>
</event>
<event>
 8    1  0.7208583E-006  0.1047860E+04  0.7818608E-02  0.8736009E-01
         21   -1    0    0  503  502  0.00000000000E+00  0.00000000000E+00  0.13064281765E+04  0.13064281765E+04  0.00000000000E+00 0. -1.
         21   -1    0    0  501  503 -0.00000000000E+00 -0.00000000000E+00 -0.88868334480E+03  0.88868334480E+03  0.00000000000E+00 0. -1.
    9000010    2    1    2  501    0  0.14980200689E+03  0.25339785051E+03 -0.93345908644E+02  0.10292535210E+04  0.98183412040E+03 0.  0.
   -9000010    2    1    2    0  502 -0.14980200689E+03 -0.25339785051E+03  0.51109074038E+03  0.11658580003E+04  0.10056639698E+04 0.  0.
        -13    1    3    3    0    0  0.65810140903E+02 -0.29596761037E+02 -0.51196244456E+03  0.51702272553E+03  0.10566000000E+00 0.  1.
          4    1    3    3  501    0  0.83991865988E+02  0.28299461155E+03  0.41861653592E+03  0.51223079550E+03  0.00000000000E+00 0.  1.
         13    1    4    4    0    0  0.63921615710E+02  0.23942337014E+03 -0.16845219904E+03  0.29964258317E+03  0.10566000000E+00 0. -1.
         -4    1    4    4    0  502 -0.21372362260E+03 -0.49282122064E+03  0.67954293943E+03  0.86621541715E+03  0.00000000000E+00 0. -1.
<mgrwt>
<rscale>  2 0.10421009E+04</rscale>
<asrwt>0</asrwt>
<pdfrwt beam="1">  1       21 0.20098895E+00 0.10478603E+04</pdfrwt>
<pdfrwt beam="2">  1       21 0.13672051E+00 0.10478603E+04</pdfrwt>
<totfact> 0.23448061E+01</totfact>
</mgrwt>
</event>
<event>
 8    1  0.7208583E-006  0.1015696E+04  0.7818608E-02  0.8760627E-01
         21   -1    0    0  503  502  0.00000000000E+00  0.00000000000E+00  0.87705454618E+03  0.87705454618E+03  0.00000000000E+00 0.  1.
         21   -1    0    0  501  503 -0.00000000000E+00 -0.00000000000E+00 -0.11795298906E+04  0.11795298906E+04  0.00000000000E+00 0.  1.
    9000010    2    1    2  501    0 -0.78884353083E+01  0.84619354460E+02 -0.22783738124E+03  0.10409361834E+04  0.10121341824E+04 0.  0.
   -9000010    2    1    2    0  502  0.78884353083E+01 -0.84619354460E+02 -0.74637963134E+02  0.10156482533E+04  0.10093304148E+04 0.  0.
        -13    1    3    3    0    0  0.41229992397E+03  0.26153147377E+03 -0.30905638010E+03  0.57784582401E+03  0.10566000000E+00 0.  1.
          4    1    3    3  501    0 -0.42018835928E+03 -0.17691211931E+03  0.81218998862E+02  0.46309035944E+03  0.00000000000E+00 0.  1.
         13    1    4    4    0    0  0.38044372597E+03 -0.31738939126E+03 -0.23453254612E+03  0.54815963064E+03  0.10566000000E+00 0. -1.
         -4    1    4    4    0  502 -0.37255529066E+03  0.23277003680E+03  0.15989458299E+03  0.46748862264E+03  0.00000000000E+00 0. -1.
<mgrwt>
<rscale>  2 0.10149968E+04</rscale>
<asrwt>0</asrwt>
<pdfrwt beam="1">  1       21 0.13493147E+00 0.10156960E+04</pdfrwt>
<pdfrwt beam="2">  1       21 0.18146614E+00 0.10156960E+04</pdfrwt>
<totfact> 0.35107158E+01</totfact>
</mgrwt>
</event>
<event>
 8    1  0.7208583E-006  0.1039505E+04  0.7818608E-02  0.8742236E-01
         21   -1    0    0  503  502  0.00000000000E+00  0.00000000000E+00  0.93976752649E+03  0.93976752649E+03  0.00000000000E+00 0. -1.
         21   -1    0    0  501  503 -0.00000000000E+00 -0.00000000000E+00 -0.11550049250E+04  0.11550049250E+04  0.00000000000E+00 0. -1.
    9000010    2    1    2  501    0 -0.36155804713E+02 -0.14221232544E+03 -0.26005499013E+03  0.10715402265E+04  0.10290958514E+04 0.  0.
   -9000010    2    1    2    0  502  0.36155804713E+02  0.14221232544E+03  0.44817591659E+02  0.10232322250E+04  0.10116639669E+04 0.  0.
        -13    1    3    3    0    0  0.45483008505E+03 -0.26533180300E+03 -0.19351328440E+03  0.56099801636E+03  0.10566000000E+00 0.  1.
          4    1    3    3  501    0 -0.49098588977E+03  0.12311947756E+03 -0.66541705735E+02  0.51054221011E+03  0.00000000000E+00 0.  1.
         13    1    4    4    0    0  0.49192652252E+02  0.56098053848E+03 -0.11510569628E+03  0.57477683850E+03  0.10566000000E+00 0. -1.
         -4    1    4    4    0  502 -0.13036847539E+02 -0.41876821304E+03  0.15992328794E+03  0.44845538649E+03  0.00000000000E+00 0. -1.
<mgrwt>
<rscale>  2 0.10351639E+04</rscale>
<asrwt>0</asrwt>
<pdfrwt beam="1">  1       21 0.14457962E+00 0.10395046E+04</pdfrwt>
<pdfrwt beam="2">  1       21 0.17769306E+00 0.10395046E+04</pdfrwt>
<totfact> 0.30515034E+01</totfact>
</mgrwt>
</event>
<event>
 8    1  0.7208583E-006  0.1020809E+04  0.7818608E-02  0.8757216E-01
         21   -1    0    0  503  502  0.00000000000E+00  0.00000000000E+00  0.14241210415E+04  0.14241210415E+04  0.00000000000E+00 0. -1.
         21   -1    0    0  501  503 -0.00000000000E+00 -0.00000000000E+00 -0.83180144657E+03  0.83180144657E+03  0.00000000000E+00 0. -1.
    9000010    2    1    2  501    0  0.11535388754E+03 -0.15015500946E+03 -0.10561548222E+03  0.10262580534E+04  0.10030941709E+04 0.  0.
   -9000010    2    1    2    0  502 -0.11535388754E+03  0.15015500946E+03  0.69793507715E+03  0.12296644347E+04  0.99453919172E+03 0.  0.
        -13    1    3    3    0    0 -0.15585031680E+03  0.37390704583E+01  0.40163363572E+03  0.43082814486E+03  0.10566000000E+00 0.  1.
          4    1    3    3  501    0  0.27120420434E+03 -0.15389407992E+03 -0.50724911794E+03  0.59542990850E+03  0.00000000000E+00 0.  1.
         13    1    4    4    0    0 -0.36187826390E+03  0.42266395269E+03  0.65540157406E+03  0.85973945427E+03  0.10566000000E+00 0. -1.
         -4    1    4    4    0  502  0.24652437636E+03 -0.27250894322E+03  0.42533503088E+02  0.36992498045E+03  0.00000000000E+00 0. -1.
<mgrwt>
<rscale>  2 0.10187011E+04</rscale>
<asrwt>0</asrwt>
<pdfrwt beam="1">  1       21 0.21909554E+00 0.10208090E+04</pdfrwt>
<pdfrwt beam="2">  1       21 0.12796945E+00 0.10208090E+04</pdfrwt>
<totfact> 0.20781848E+01</totfact>
</mgrwt>
</event>
<event>
 8    1  0.7208583E-006  0.1018934E+04  0.7818608E-02  0.8766403E-01
         21   -1    0    0  503  502  0.00000000000E+00  0.00000000000E+00  0.17703789881E+04  0.17703789881E+04  0.00000000000E+00 0. -1.
         21   -1    0    0  501  503 -0.00000000000E+00 -0.00000000000E+00 -0.59438918221E+03  0.59438918221E+03  0.00000000000E+00 0. -1.
    9000010    2    1    2  501    0  0.19834383852E+03  0.10066949278E+03  0.33012715865E+03  0.10710792825E+04  0.99436022820E+03 0.  0.
   -9000010    2    1    2    0  502 -0.19834383852E+03 -0.10066949278E+03  0.84586264724E+03  0.12936888878E+04  0.95324325093E+03 0.  0.
        -13    1    3    3    0    0  0.45369987956E+03 -0.25763800213E+03  0.35389776697E+03  0.63044790545E+03  0.10566000000E+00 0.  1.
          4    1    3    3  501    0 -0.25535604104E+03  0.35830749491E+03 -0.23770608324E+02  0.44063137703E+03  0.00000000000E+00 0.  1.
         13    1    4    4    0    0 -0.38783169813E+03 -0.34453118855E+03  0.83701122096E+03  0.98473497000E+03  0.10566000000E+00 0. -1.
         -4    1    4    4    0  502  0.18948785961E+03  0.24386169576E+03  0.88514262769E+01  0.30895391784E+03  0.00000000000E+00 0. -1.
<mgrwt>
<rscale>  2 0.10087618E+04</rscale>
<asrwt>0</asrwt>
<pdfrwt beam="1">  1       21 0.27236599E+00 0.10189342E+04</pdfrwt>
<pdfrwt beam="2">  1       21 0.91444491E-01 0.10189342E+04</pdfrwt>
<totfact> 0.20953478E+01</totfact>
</mgrwt>
</event>
<event>
 8    1  0.7208583E-006  0.1071148E+04  0.7818608E-02  0.8715401E-01
         21   -1    0    0  503  502  0.00000000000E+00  0.00000000000E+00  0.16616303505E+04  0.16616303505E+04  0.00000000000E+00 0.  1.
         21   -1    0    0  501  503 -0.00000000000E+00 -0.00000000000E+00 -0.90723979672E+03  0.90723979672E+03  0.00000000000E+00 0.  1.
    9000010    2    1    2  501    0 -0.31810756360E+03  0.47887913600E+02 -0.26819191317E+03  0.11042127115E+04  0.10217010990E+04 0.  0.
   -9000010    2    1    2    0  502  0.31810756360E+03 -0.47887913600E+02  0.10225824669E+04  0.14646574357E+04  0.99802847058E+03 0.  0.
        -13    1    3    3    0    0  0.22146494580E+03  0.15888208579E+03 -0.44829238793E+03  0.52464875454E+03  0.10566000000E+00 0.  1.
          4    1    3    3  501    0 -0.53957250941E+03 -0.11099417219E+03  0.18010047476E+03  0.57956395693E+03  0.00000000000E+00 0.  1.
         13    1    4    4    0    0  0.41568309308E+01 -0.14701250375E+03 -0.17155475660E+03  0.22596681433E+03  0.10566000000E+00 0. -1.
         -4    1    4    4    0  502  0.31395073267E+03  0.99124590149E+02  0.11941372235E+04  0.12386906214E+04  0.00000000000E+00 0. -1.
<mgrwt>
<rscale>  2 0.10654643E+04</rscale>
<asrwt>0</asrwt>
<pdfrwt beam="1">  1       21 0.25563544E+00 0.10711484E+04</pdfrwt>
<pdfrwt beam="2">  1       21 0.13957535E+00 0.10711484E+04</pdfrwt>
<totfact> 0.85673176E+00</totfact>
</mgrwt>
</event>
<event>
 8    1  0.7208583E-006  0.1053538E+04  0.7818608E-02  0.8754312E-01
         21   -1    0    0  501  502  0.00000000000E+00  0.00000000000E+00  0.98768085340E+03  0.98768085340E+03  0.00000000000E+00 0.  1.
         21   -1    0    0  502  503 -0.00000000000E+00 -0.00000000000E+00 -0.13566171266E+04  0.13566171266E+04  0.00000000000E+00 0.  1.
    9000010    2    1    2  501    0 -0.71229624249E+02 -0.30951126635E+03  0.42535355443E+03  0.10248899270E+04  0.87669996745E+03 0.  0.
   -9000010    2    1    2    0  503  0.71229624249E+02  0.30951126635E+03 -0.79428982765E+03  0.13194080530E+04  0.10045249606E+04 0.  0.
        -13    1    3    3    0    0  0.22636951495E+03  0.15186955681E+03 -0.74295978426E+02  0.28253747213E+03  0.10566000000E+00 0.  1.
          4    1    3    3  501    0 -0.29759913920E+03 -0.46138082316E+03  0.49964953286E+03  0.74235245491E+03  0.00000000000E+00 0.  1.
         13    1    4    4    0    0 -0.10186894873E+03  0.26761780191E+03 -0.10041399920E+04  0.10441713007E+04  0.10566000000E+00 0. -1.
         -4    1    4    4    0  503  0.17309857298E+03  0.41893464436E+02  0.20985016431E+03  0.27523675225E+03  0.00000000000E+00 0. -1.
<mgrwt>
<rscale>  2 0.10218674E+04</rscale>
<asrwt>0</asrwt>
<pdfrwt beam="1">  1       21 0.15195090E+00 0.10535375E+04</pdfrwt>
<pdfrwt beam="2">  1       21 0.20871033E+00 0.10535375E+04</pdfrwt>
<totfact> 0.14829727E+01</totfact>
</mgrwt>
</event>
<event>
 8    1  0.7208583E-006  0.1050432E+04  0.7818608E-02  0.8732558E-01
         21   -1    0    0  501  502  0.00000000000E+00  0.00000000000E+00  0.15510438259E+04  0.15510438259E+04  0.00000000000E+00 0.  1.
         21   -1    0    0  502  503 -0.00000000000E+00 -0.00000000000E+00 -0.71820450172E+03  0.71820450172E+03  0.00000000000E+00 0.  1.
    9000010    2    1    2  501    0 -0.70941431327E+02 -0.23703670469E+03  0.22955310186E+03  0.10579014655E+04  0.10026174735E+04 0.  0.
   -9000010    2    1    2    0  503  0.70941431327E+02  0.23703670469E+03  0.60328622233E+03  0.12113468621E+04  0.10208760298E+04 0.  0.
        -13    1    3    3    0    0 -0.36458720559E+03 -0.43505938705E+03  0.36926121005E+03  0.67716641466E+03  0.10566000000E+00 0.  1.
          4    1    3    3  501    0  0.29364577427E+03  0.19802268236E+03 -0.13970810818E+03  0.38073505088E+03  0.00000000000E+00 0.  1.
         13    1    4    4    0    0  0.49655851910E+03  0.81241434656E+02  0.56489323468E+03  0.75648854012E+03  0.10566000000E+00 0. -1.
         -4    1    4    4    0  503 -0.42561708777E+03  0.15579527003E+03  0.38392987652E+02  0.45485832197E+03  0.00000000000E+00 0. -1.
<mgrwt>
<rscale>  2 0.10459695E+04</rscale>
<asrwt>0</asrwt>
<pdfrwt beam="1">  1       21 0.23862213E+00 0.10504318E+04</pdfrwt>
<pdfrwt beam="2">  1       21 0.11049300E+00 0.10504318E+04</pdfrwt>
<totfact> 0.22244606E+01</totfact>
</mgrwt>
</event>
<event>
 8    1  0.7208583E-006  0.1127397E+04  0.7818608E-02  0.8670418E-01
         21   -1    0    0  501  502  0.00000000000E+00  0.00000000000E+00  0.64636401446E+03  0.64636401446E+03  0.00000000000E+00 0.  1.
         21   -1    0    0  502  503 -0.00000000000E+00 -0.00000000000E+00 -0.23856345179E+04  0.23856345179E+04  0.00000000000E+00 0.  1.
    9000010    2    1    2  501    0 -0.42378554244E+03 -0.14659104388E+03 -0.20141777405E+03  0.11452483152E+04  0.10343797483E+04 0.  0.
   -9000010    2    1    2    0  503  0.42378554244E+03  0.14659104388E+03 -0.15378527294E+04  0.18867502171E+04  0.99687122759E+03 0.  0.
        -13    1    3    3    0    0 -0.10750423152E+03  0.32871349197E+03 -0.41093323842E+03  0.53709948539E+03  0.10566000000E+00 0.  1.
          4    1    3    3  501    0 -0.31628131092E+03 -0.47530453586E+03  0.20951546437E+03  0.60814882985E+03  0.00000000000E+00 0.  1.
         13    1    4    4    0    0 -0.10174251783E+03 -0.32303436136E+03 -0.25830677596E+03  0.42594030124E+03  0.10566000000E+00 0. -1.
         -4    1    4    4    0  503  0.52552806027E+03  0.46962540524E+03 -0.12795459535E+04  0.14608099159E+04  0.00000000000E+00 0. -1.
<mgrwt>
<rscale>  2 0.11187196E+04</rscale>
<asrwt>0</asrwt>
<pdfrwt beam="1">  1       21 0.99440617E-01 0.11273973E+04</pdfrwt>
<pdfrwt beam="2">  1       21 0.36702070E+00 0.11273973E+04</pdfrwt>
<totfact> 0.35473005E+00</totfact>
</mgrwt>
</event>
<event>
 8    1  0.7208583E-006  0.1077473E+04  0.7818608E-02  0.8755521E-01
         21   -1    0    0  501  502  0.00000000000E+00  0.00000000000E+00  0.14434077280E+04  0.14434077280E+04  0.00000000000E+00 0.  1.
         21   -1    0    0  502  503 -0.00000000000E+00 -0.00000000000E+00 -0.77808126347E+03  0.77808126347E+03  0.00000000000E+00 0.  1.
    9000010    2    1    2  501    0  0.37025270861E+03  0.93568415405E+02 -0.76650334074E+02  0.10801963537E+04  0.10075250728E+04 0.  0.
   -9000010    2    1    2    0  503 -0.37025270861E+03 -0.93568415405E+02  0.74197679865E+03  0.11412926378E+04  0.77857382360E+03 0.  0.
        -13    1    3    3    0    0 -0.22723592843E+03  0.34868396053E+03 -0.10729087489E+03  0.42979997033E+03  0.10566000000E+00 0.  1.
          4    1    3    3  501    0  0.59748863704E+03 -0.25511554512E+03  0.30640540816E+02  0.65039638337E+03  0.00000000000E+00 0.  1.
         13    1    4    4    0    0 -0.11590674937E+03  0.16192673800E+03  0.75472533023E+03  0.78055427632E+03  0.10566000000E+00 0. -1.
         -4    1    4    4    0  503 -0.25434595924E+03 -0.25549515340E+03 -0.12748531580E+02  0.36073836149E+03  0.00000000000E+00 0. -1.
<mgrwt>
<rscale>  2 0.10205482E+04</rscale>
<asrwt>0</asrwt>
<pdfrwt beam="1">  1       21 0.22206273E+00 0.10774734E+04</pdfrwt>
<pdfrwt beam="2">  1       21 0.11970481E+00 0.10774734E+04</pdfrwt>
<totfact> 0.23548765E+01</totfact>
</mgrwt>
</event>
<event>
 8    1  0.7208583E-006  0.1192649E+04  0.7818608E-02  0.8613333E-01
         21   -1    0    0  501  502  0.00000000000E+00  0.00000000000E+00  0.14044846135E+04  0.14044846135E+04  0.00000000000E+00 0.  1.
         21   -1    0    0  502  503 -0.00000000000E+00 -0.00000000000E+00 -0.10511019709E+04  0.10511019709E+04  0.00000000000E+00 0.  1.
    9000010    2    1    2  501    0 -0.48497550457E+03 -0.37220780634E+03  0.42673838677E+03  0.12606839248E+04  0.10166014049E+04 0.  0.
   -9000010    2    1    2    0  503  0.48497550457E+03  0.37220780634E+03 -0.73355744152E+02  0.11949026596E+04  0.10240465857E+04 0.  0.
        -13    1    3    3    0    0 -0.64033494303E+03 -0.32239079917E+03 -0.86523280525E+02  0.72211561117E+03  0.10566000000E+00 0.  1.
          4    1    3    3  501    0  0.15535943846E+03 -0.49817007164E+02  0.51326166730E+03  0.53856831362E+03  0.00000000000E+00 0.  1.
         13    1    4    4    0    0 -0.79716378891E+02 -0.23842280966E+03  0.19803857956E+03  0.32003035385E+03  0.10566000000E+00 0. -1.
         -4    1    4    4    0  503  0.56469188346E+03  0.61063061599E+03 -0.27139432371E+03  0.87487230575E+03  0.00000000000E+00 0. -1.
<mgrwt>
<rscale>  2 0.11910490E+04</rscale>
<asrwt>0</asrwt>
<pdfrwt beam="1">  1       21 0.21607456E+00 0.11926489E+04</pdfrwt>
<pdfrwt beam="2">  1       21 0.16170800E+00 0.11926489E+04</pdfrwt>
<totfact> 0.10388590E+01</totfact>
</mgrwt>
</event>
<event>
 8    1  0.7208583E-006  0.9907763E+03  0.7818608E-02  0.8783590E-01
         21   -1    0    0  503  502  0.00000000000E+00  0.00000000000E+00  0.57281455353E+03  0.57281455353E+03  0.00000000000E+00 0. -1.
         21   -1    0    0  501  503 -0.00000000000E+00 -0.00000000000E+00 -0.21681168669E+04  0.21681168669E+04  0.00000000000E+00 0. -1.
    9000010    2    1    2  501    0  0.91437800857E+02 -0.17225618656E+03 -0.14268606915E+04  0.17371151453E+04  0.97139308729E+03 0.  0.
   -9000010    2    1    2    0  502 -0.91437800857E+02  0.17225618656E+03 -0.16844162185E+03  0.10038162750E+04  0.97017599890E+03 0.  0.
        -13    1    3    3    0    0 -0.33785067887E+03  0.13656194422E+03 -0.97728710397E+03  0.10430159829E+04  0.10566000000E+00 0.  1.
          4    1    3    3  501    0  0.42928847972E+03 -0.30881813077E+03 -0.44957358750E+03  0.69409916244E+03  0.00000000000E+00 0.  1.
         13    1    4    4    0    0  0.21093160716E+03  0.48251080039E+03  0.29679792229E+02  0.52743693142E+03  0.10566000000E+00 0. -1.
         -4    1    4    4    0  502 -0.30236940802E+03 -0.31025461384E+03 -0.19812141408E+03  0.47637934363E+03  0.00000000000E+00 0. -1.
<mgrwt>
<rscale>  2 0.99047781E+03</rscale>
<asrwt>0</asrwt>
<pdfrwt beam="1">  1       21 0.88125314E-01 0.99077626E+03</pdfrwt>
<pdfrwt beam="2">  1       21 0.33355645E+00 0.99077626E+03</pdfrwt>
<totfact> 0.85686297E+00</totfact>
</mgrwt>
</event>
<event>
 8    1  0.7208583E-006  0.1015644E+04  0.7818608E-02  0.8767225E-01
         21   -1    0    0  501  502  0.00000000000E+00  0.00000000000E+00  0.15316193024E+04  0.15316193024E+04  0.00000000000E+00 0. -1.
         21   -1    0    0  502  503 -0.00000000000E+00 -0.00000000000E+00 -0.85388169919E+03  0.85388169919E+03  0.00000000000E+00 0. -1.
    9000010    2    1    2  501    0 -0.17418459213E+03  0.11553798433E+03  0.91295749642E+03  0.13429744147E+04  0.96249654041E+03 0.  0.
   -9000010    2    1    2    0  503  0.17418459213E+03 -0.11553798433E+03 -0.23521989315E+03  0.10425265869E+04  0.99390340999E+03 0.  0.
        -13    1    3    3    0    0 -0.47995944614E+03  0.35400322755E+03  0.57910925646E+03  0.83129230548E+03  0.10566000000E+00 0.  1.
          4    1    3    3  501    0  0.30577485402E+03 -0.23846524323E+03  0.33384823995E+03  0.51168210922E+03  0.00000000000E+00 0.  1.
         13    1    4    4    0    0  0.22475342357E+03 -0.52054865848E+03  0.86554795700E+01  0.56706255012E+03  0.10566000000E+00 0. -1.
         -4    1    4    4    0  503 -0.50568831444E+02  0.40501067415E+03 -0.24387537272E+03  0.47546403682E+03  0.00000000000E+00 0. -1.
<mgrwt>
<rscale>  2 0.10078773E+04</rscale>
<asrwt>0</asrwt>
<pdfrwt beam="1">  1       21 0.23563374E+00 0.10156443E+04</pdfrwt>
<pdfrwt beam="2">  1       21 0.13136642E+00 0.10156443E+04</pdfrwt>
<totfact> 0.14523132E+01</totfact>
</mgrwt>
</event>
<event>
 8    1  0.7208583E-006  0.1025905E+04  0.7818608E-02  0.8798103E-01
         21   -1    0    0  501  502  0.00000000000E+00  0.00000000000E+00  0.98469639638E+03  0.98469639638E+03  0.00000000000E+00 0.  1.
         21   -1    0    0  502  503 -0.00000000000E+00 -0.00000000000E+00 -0.10253313585E+04  0.10253313585E+04  0.00000000000E+00 0.  1.
    9000010    2    1    2  501    0  0.19965152411E+03  0.15858096718E+03  0.35181115653E+03  0.10845518941E+04  0.99371679410E+03 0.  0.
   -9000010    2    1    2    0  503 -0.19965152411E+03 -0.15858096718E+03 -0.39244611864E+03  0.92547586079E+03  0.79842529934E+03 0.  0.
        -13    1    3    3    0    0 -0.36565645051E+03 -0.21298634906E+02 -0.47646530638E+02  0.36936225402E+03  0.10566000000E+00 0.  1.
          4    1    3    3  501    0  0.56530797462E+03  0.17987960208E+03  0.39945768717E+03  0.71518964006E+03  0.00000000000E+00 0.  1.
         13    1    4    4    0    0  0.27734639514E+03  0.94689218501E+02 -0.90440548032E+02  0.30670274679E+03  0.10566000000E+00 0. -1.
         -4    1    4    4    0  503 -0.47699791925E+03 -0.25327018568E+03 -0.30200557061E+03  0.61877311399E+03  0.00000000000E+00 0. -1.
<mgrwt>
<rscale>  2 0.97535026E+03</rscale>
<asrwt>0</asrwt>
<pdfrwt beam="1">  1       21 0.15149175E+00 0.10259053E+04</pdfrwt>
<pdfrwt beam="2">  1       21 0.15774329E+00 0.10259053E+04</pdfrwt>
<totfact> 0.39094397E+01</totfact>
</mgrwt>
</event>
<event>
 8    1  0.7208583E-006  0.1094846E+04  0.7818608E-02  0.8690422E-01
         21   -1    0    0  501  502  0.00000000000E+00  0.00000000000E+00  0.82725575954E+03  0.82725575954E+03  0.00000000000E+00 0.  1.
         21   -1    0    0  502  503 -0.00000000000E+00 -0.00000000000E+00 -0.17782204304E+04  0.17782204304E+04  0.00000000000E+00 0.  1.
    9000010    2    1    2  501    0  0.38182840634E+03 -0.21459349063E+03  0.86108571089E+02  0.10974281891E+04  0.10025420919E+04 0.  0.
   -9000010    2    1    2    0  503 -0.38182840634E+03  0.21459349063E+03 -0.10370732420E+04  0.15080480009E+04  0.10034164468E+04 0.  0.
        -13    1    3    3    0    0 -0.18426830133E+03 -0.44507945719E+03  0.13436272547E+02  0.48190359479E+03  0.10566000000E+00 0.  1.
          4    1    3    3  501    0  0.56609670767E+03  0.23048596655E+03  0.72672298542E+02  0.61552459430E+03  0.00000000000E+00 0.  1.
         13    1    4    4    0    0  0.65723057960E+01 -0.35641001485E+03 -0.57705095757E+03  0.67827657537E+03  0.10566000000E+00 0. -1.
         -4    1    4    4    0  503 -0.38840071213E+03  0.57100350548E+03 -0.46002228441E+03  0.82977142552E+03  0.00000000000E+00 0. -1.
<mgrwt>
<rscale>  2 0.10946457E+04</rscale>
<asrwt>0</asrwt>
<pdfrwt beam="1">  1       21 0.12727012E+00 0.10948460E+04</pdfrwt>
<pdfrwt beam="2">  1       21 0.27357237E+00 0.10948460E+04</pdfrwt>
<totfact> 0.82899934E+00</totfact>
</mgrwt>
</event>
<event>
 8    1  0.7208583E-006  0.1072474E+04  0.7818608E-02  0.8711077E-01
         21   -1    0    0  501  502  0.00000000000E+00  0.00000000000E+00  0.34420429041E+04  0.34420429041E+04  0.00000000000E+00 0.  1.
         21   -1    0    0  502  503 -0.00000000000E+00 -0.00000000000E+00 -0.39946613052E+03  0.39946613052E+03  0.00000000000E+00 0.  1.
    9000010    2    1    2  501    0 -0.36572727644E+03 -0.34293095422E+02  0.23174765976E+04  0.25536051439E+04  0.10076055744E+04 0.  0.
   -9000010    2    1    2    0  503  0.36572727644E+03  0.34293095422E+02  0.72510017599E+03  0.12879038907E+04  0.99899635099E+03 0.  0.
        -13    1    3    3    0    0 -0.25023844804E+03 -0.24408706562E+03  0.22854064867E+04  0.23119862882E+04  0.10566000000E+00 0.  1.
          4    1    3    3  501    0 -0.11548882840E+03  0.20979397020E+03  0.32070110921E+02  0.24161885570E+03  0.00000000000E+00 0.  1.
         13    1    4    4    0    0  0.19578781191E+03  0.41239596923E+03  0.44511675922E+01  0.45653381779E+03  0.10566000000E+00 0. -1.
         -4    1    4    4    0  503  0.16993946453E+03 -0.37810287381E+03  0.72064900840E+03  0.83137007289E+03  0.00000000000E+00 0. -1.
<mgrwt>
<rscale>  2 0.10704476E+04</rscale>
<asrwt>0</asrwt>
<pdfrwt beam="1">  1       21 0.52954504E+00 0.10724745E+04</pdfrwt>
<pdfrwt beam="2">  1       21 0.61456330E-01 0.10724745E+04</pdfrwt>
<totfact> 0.85996946E-01</totfact>
</mgrwt>
</event>
<event>
 8    1  0.7208583E-006  0.1121026E+04  0.7818608E-02  0.8682933E-01
         21   -1    0    0  501  502  0.00000000000E+00  0.00000000000E+00  0.22181477141E+04  0.22181477141E+04  0.00000000000E+00 0. -1.
         21   -1    0    0  502  503 -0.00000000000E+00 -0.00000000000E+00 -0.56577305498E+03  0.56577305498E+03  0.00000000000E+00 0. -1.
    9000010    2    1    2  501    0 -0.17125636348E+02 -0.38646307023E+03  0.11385446958E+04  0.15507461006E+04  0.97922543472E+03 0.  0.
   -9000010    2    1    2    0  503  0.17125636348E+02  0.38646307023E+03  0.51382996327E+03  0.12331746685E+04  0.10521651675E+04 0.  0.
        -13    1    3    3    0    0 -0.26614299139E+03 -0.17067275343E+03  0.11772564431E+04  0.12189725282E+04  0.10566000000E+00 0.  1.
          4    1    3    3  501    0  0.24901735505E+03 -0.21579031680E+03 -0.38711747247E+02  0.33177357236E+03  0.00000000000E+00 0.  1.
         13    1    4    4    0    0  0.17500485565E+03 -0.18180574265E+03 -0.18928188743E+03  0.31544836604E+03  0.10566000000E+00 0. -1.
         -4    1    4    4    0  503 -0.15787921931E+03  0.56826881288E+03  0.70311185070E+03  0.91772630244E+03  0.00000000000E+00 0. -1.
<mgrwt>
<rscale>  2 0.11035832E+04</rscale>
<asrwt>0</asrwt>
<pdfrwt beam="1">  1       21 0.34125349E+00 0.11210257E+04</pdfrwt>
<pdfrwt beam="2">  1       21 0.87042010E-01 0.11210257E+04</pdfrwt>
<totfact> 0.75854402E+00</totfact>
</mgrwt>
</event>
<event>
 8    1  0.7208583E-006  0.1019131E+04  0.7818608E-02  0.8757022E-01
         21   -1    0    0  503  502  0.00000000000E+00  0.00000000000E+00  0.97724847323E+03  0.97724847323E+03  0.00000000000E+00 0. -1.
         21   -1    0    0  501  503 -0.00000000000E+00 -0.00000000000E+00 -0.12262605938E+04  0.12262605938E+04  0.00000000000E+00 0. -1.
    9000010    2    1    2  501    0 -0.22616691790E+03 -0.54063786196E+00 -0.52782203759E+03  0.11469287102E+04  0.99282304361E+03 0.  0.
   -9000010    2    1    2    0  502  0.22616691790E+03  0.54063786196E+00  0.27880991706E+03  0.10565803568E+04  0.99371792448E+03 0.  0.
        -13    1    3    3    0    0 -0.32038866739E+03  0.45009791508E+03 -0.34635085030E+03  0.65207051307E+03  0.10566000000E+00 0.  1.
          4    1    3    3  501    0  0.94221749493E+02 -0.45063855294E+03 -0.18147118729E+03  0.49485819715E+03  0.00000000000E+00 0.  1.
         13    1    4    4    0    0 -0.30385272130E+03 -0.47029784681E+01 -0.18200876075E+03  0.35422562641E+03  0.10566000000E+00 0. -1.
         -4    1    4    4    0  502  0.53001963920E+03  0.52436163301E+01  0.46081867781E+03  0.70235473037E+03  0.00000000000E+00 0. -1.
<mgrwt>
<rscale>  2 0.10189123E+04</rscale>
<asrwt>0</asrwt>
<pdfrwt beam="1">  1       21 0.15034592E+00 0.10191306E+04</pdfrwt>
<pdfrwt beam="2">  1       21 0.18865548E+00 0.10191306E+04</pdfrwt>
<totfact> 0.22172815E+01</totfact>
</mgrwt>
</event>
<event>
 8    1  0.7208583E-006  0.1024274E+04  0.7818608E-02  0.8753594E-01
         21   -1    0    0  503  502  0.00000000000E+00  0.00000000000E+00  0.21422494225E+04  0.21422494225E+04  0.00000000000E+00 0.  1.
         21   -1    0    0  501  503 -0.00000000000E+00 -0.00000000000E+00 -0.51046393863E+03  0.51046393863E+03  0.00000000000E+00 0.  1.
    9000010    2    1    2  501    0 -0.92238233901E+02  0.17951316980E+03  0.52693623559E+03  0.11461178835E+04  0.99759287115E+03 0.  0.
   -9000010    2    1    2    0  502  0.92238233901E+02 -0.17951316980E+03  0.11048492482E+04  0.15065954776E+04  0.10041938069E+04 0.  0.
        -13    1    3    3    0    0 -0.10975489936E+03 -0.39436495184E+03  0.76667063508E+02  0.41647053073E+03  0.10566000000E+00 0.  1.
          4    1    3    3  501    0  0.17516665455E+02  0.57387812165E+03  0.45026917209E+03  0.72964735277E+03  0.00000000000E+00 0.  1.
         13    1    4    4    0    0 -0.45185847842E+03 -0.58695950508E+02  0.38729022268E+03  0.59800921972E+03  0.10566000000E+00 0. -1.
         -4    1    4    4    0  502  0.54409671232E+03 -0.12081721929E+03  0.71755902555E+03  0.90858625787E+03  0.00000000000E+00 0. -1.
<mgrwt>
<rscale>  2 0.10226529E+04</rscale>
<asrwt>0</asrwt>
<pdfrwt beam="1">  1       21 0.32957683E+00 0.10242744E+04</pdfrwt>
<pdfrwt beam="2">  1       21 0.78532914E-01 0.10242744E+04</pdfrwt>
<totfact> 0.12078658E+01</totfact>
</mgrwt>
</event>
<event>
 8    1  0.7208583E-006  0.1081192E+04  0.7818608E-02  0.8706228E-01
         21   -1    0    0  501  502  0.00000000000E+00  0.00000000000E+00  0.13339526570E+04  0.13339526570E+04  0.00000000000E+00 0.  1.
         21   -1    0    0  502  503 -0.00000000000E+00 -0.00000000000E+00 -0.16523828812E+04  0.16523828812E+04  0.00000000000E+00 0.  1.
    9000010    2    1    2  501    0  0.18159377667E+03  0.32433156195E+03  0.87560654449E+03  0.13755281572E+04  0.99359127845E+03 0.  0.
   -9000010    2    1    2    0  503 -0.18159377667E+03 -0.32433156195E+03 -0.11940367687E+04  0.16108073811E+04  0.10152878173E+04 0.  0.
        -13    1    3    3    0    0 -0.40383137664E+03  0.55051542592E+02  0.25427302696E+03  0.48038030404E+03  0.10566000000E+00 0.  1.
          4    1    3    3  501    0  0.58542515331E+03  0.26928001936E+03  0.62133351754E+03  0.89514785314E+03  0.00000000000E+00 0.  1.
         13    1    4    4    0    0  0.19387025956E+03 -0.74538143497E+02  0.10713089515E+03  0.23370633761E+03  0.10566000000E+00 0. -1.
         -4    1    4    4    0  503 -0.37546403623E+03 -0.24979341846E+03 -0.13011676638E+04  0.13771010434E+04  0.00000000000E+00 0. -1.
<mgrwt>
<rscale>  2 0.10760690E+04</rscale>
<asrwt>0</asrwt>
<pdfrwt beam="1">  1       21 0.20522349E+00 0.10811922E+04</pdfrwt>
<pdfrwt beam="2">  1       21 0.25421275E+00 0.10811922E+04</pdfrwt>
<totfact> 0.24634947E+00</totfact>
</mgrwt>
</event>
<event>
 8    1  0.7208583E-006  0.9985875E+03  0.7818608E-02  0.8782930E-01
         21   -1    0    0  501  502  0.00000000000E+00  0.00000000000E+00  0.17164337072E+04  0.17164337072E+04  0.00000000000E+00 0.  1.
         21   -1    0    0  502  503 -0.00000000000E+00 -0.00000000000E+00 -0.59959506953E+03  0.59959506953E+03  0.00000000000E+00 0.  1.
    9000010    2    1    2  501    0  0.12594021758E+03 -0.11147459704E+03  0.83263660000E+03  0.12777861082E+04  0.95455021154E+03 0.  0.
   -9000010    2    1    2    0  503 -0.12594021758E+03  0.11147459704E+03  0.28420203768E+03  0.10382426686E+04  0.98432185613E+03 0.  0.
        -13    1    3    3    0    0  0.19903224429E+03 -0.50223384248E+03  0.63537417074E+03  0.83399821031E+03  0.10566000000E+00 0.  1.
          4    1    3    3  501    0 -0.73092026710E+02  0.39075924545E+03  0.19726242926E+03  0.44378789784E+03  0.00000000000E+00 0.  1.
         13    1    4    4    0    0  0.11341457385E+03 -0.40007555566E+03  0.24347953141E+02  0.41655269749E+03  0.10566000000E+00 0. -1.
         -4    1    4    4    0  503 -0.23935479143E+03  0.51155015270E+03  0.25985408453E+03  0.62168997109E+03  0.00000000000E+00 0. -1.
<mgrwt>
<rscale>  2 0.99117199E+03</rscale>
<asrwt>0</asrwt>
<pdfrwt beam="1">  1       21 0.26406672E+00 0.99858752E+03</pdfrwt>
<pdfrwt beam="2">  1       21 0.92245396E-01 0.99858752E+03</pdfrwt>
<totfact> 0.23611135E+01</totfact>
</mgrwt>
</event>
<event>
 8    1  0.7208583E-006  0.1097734E+04  0.7818608E-02  0.8689997E-01
         21   -1    0    0  501  502  0.00000000000E+00  0.00000000000E+00  0.96678940909E+03  0.96678940909E+03  0.00000000000E+00 0.  1.
         21   -1    0    0  502  503 -0.00000000000E+00 -0.00000000000E+00 -0.18508525865E+04  0.18508525865E+04  0.00000000000E+00 0. -1.
    9000010    2    1    2  501    0 -0.22353804127E+03 -0.39099050932E+03  0.36939662495E+03  0.11582202651E+04  0.10010881488E+04 0.  0.
   -9000010    2    1    2    0  503  0.22353804127E+03  0.39099050932E+03 -0.12534598024E+04  0.16594217306E+04  0.98978592097E+03 0.  0.
        -13    1    3    3    0    0  0.25852165195E+03  0.20475934883E+03  0.82745181880E+02  0.34000972302E+03  0.10566000000E+00 0.  1.
          4    1    3    3  501    0 -0.48205969322E+03 -0.59574985815E+03  0.28665144307E+03  0.81821054205E+03  0.00000000000E+00 0.  1.
         13    1    4    4    0    0  0.12283769141E+03  0.19979849660E+03 -0.13861446157E+04  0.14058468780E+04  0.10566000000E+00 0. -1.
         -4    1    4    4    0  503  0.10070034986E+03  0.19119201272E+03  0.13268481325E+03  0.25357485257E+03  0.00000000000E+00 0. -1.
<mgrwt>
<rscale>  2 0.10951507E+04</rscale>
<asrwt>0</asrwt>
<pdfrwt beam="1">  1       21 0.14873683E+00 0.10977342E+04</pdfrwt>
<pdfrwt beam="2">  1       21 0.28474655E+00 0.10977342E+04</pdfrwt>
<totfact> 0.43442695E+00</totfact>
</mgrwt>
</event>
<event>
 8    1  0.7208583E-006  0.1022773E+04  0.7818608E-02  0.8757399E-01
         21   -1    0    0  501  502  0.00000000000E+00  0.00000000000E+00  0.56818692429E+03  0.56818692429E+03  0.00000000000E+00 0. -1.
         21   -1    0    0  502  503 -0.00000000000E+00 -0.00000000000E+00 -0.18843365216E+04  0.18843365216E+04  0.00000000000E+00 0. -1.
    9000010    2    1    2  501    0 -0.25029067658E+02 -0.15103947521E+03 -0.89530265670E+03  0.13465504704E+04  0.99407844002E+03 0.  0.
   -9000010    2    1    2    0  503  0.25029067658E+02  0.15103947521E+03 -0.42084694061E+03  0.11059729755E+04  0.10112490780E+04 0.  0.
        -13    1    3    3    0    0  0.43890293663E+03  0.34175241896E+02 -0.18348113337E+03  0.47693717868E+03  0.10566000000E+00 0.  1.
          4    1    3    3  501    0 -0.46393200429E+03 -0.18521471710E+03 -0.71182152333E+03  0.86961329170E+03  0.00000000000E+00 0.  1.
         13    1    4    4    0    0 -0.41795917706E+02 -0.19685626973E+03 -0.65241398486E+03  0.68274688463E+03  0.10566000000E+00 0. -1.
         -4    1    4    4    0  503  0.66824985364E+02  0.34789574494E+03  0.23156704425E+03  0.42322609087E+03  0.00000000000E+00 0. -1.
<mgrwt>
<rscale>  2 0.10185026E+04</rscale>
<asrwt>0</asrwt>
<pdfrwt beam="1">  1       21 0.87413373E-01 0.10227727E+04</pdfrwt>
<pdfrwt beam="2">  1       21 0.28989793E+00 0.10227727E+04</pdfrwt>
<totfact> 0.17634006E+01</totfact>
</mgrwt>
</event>
<event>
 8    1  0.7208583E-006  0.1068355E+04  0.7818608E-02  0.8715341E-01
         21   -1    0    0  503  502  0.00000000000E+00  0.00000000000E+00  0.18840422593E+04  0.18840422593E+04  0.00000000000E+00 0. -1.
         21   -1    0    0  501  503 -0.00000000000E+00 -0.00000000000E+00 -0.69263423474E+03  0.69263423474E+03  0.00000000000E+00 0. -1.
    9000010    2    1    2  501    0  0.32487038579E+03 -0.76144913693E+02  0.12044735083E+03  0.10639504545E+04  0.10030673905E+04 0.  0.
   -9000010    2    1    2    0  502 -0.32487038579E+03  0.76144913693E+02  0.10709606737E+04  0.15127260395E+04  0.10149110752E+04 0.  0.
        -13    1    3    3    0    0  0.37080730014E+03  0.38493147882E+03 -0.11118024255E+03  0.54592248051E+03  0.10566000000E+00 0.  1.
          4    1    3    3  501    0 -0.45936914351E+02 -0.46107639251E+03  0.23162759339E+03  0.51802797400E+03  0.00000000000E+00 0.  1.
         13    1    4    4    0    0 -0.65170490535E+03  0.12493893664E+03  0.42746280205E+03  0.78933736757E+03  0.10566000000E+00 0. -1.
         -4    1    4    4    0  502  0.32683451956E+03 -0.48794022943E+02  0.64349787167E+03  0.72338867194E+03  0.00000000000E+00 0. -1.
<mgrwt>
<rscale>  2 0.10655331E+04</rscale>
<asrwt>0</asrwt>
<pdfrwt beam="1">  1       21 0.28985265E+00 0.10683554E+04</pdfrwt>
<pdfrwt beam="2">  1       21 0.10655911E+00 0.10683554E+04</pdfrwt>
<totfact> 0.10445367E+01</totfact>
</mgrwt>
</event>
<event>
 8    1  0.7208583E-006  0.1014726E+04  0.7818608E-02  0.8761820E-01
         21   -1    0    0  503  502  0.00000000000E+00  0.00000000000E+00  0.31893942466E+04  0.31893942466E+04  0.00000000000E+00 0. -1.
         21   -1    0    0  501  503 -0.00000000000E+00 -0.00000000000E+00 -0.34884135933E+03  0.34884135933E+03  0.00000000000E+00 0. -1.
    9000010    2    1    2  501    0 -0.16362995225E+03  0.61490449210E+02  0.92277802942E+03  0.13685513811E+04  0.99541838162E+03 0.  0.
   -9000010    2    1    2    0  502  0.16362995225E+03 -0.61490449210E+02  0.19177748579E+04  0.21696842249E+04  0.99955659848E+03 0.  0.
        -13    1    3    3    0    0  0.33157272685E+03  0.16998053484E+03  0.73963104020E+02  0.37987419936E+03  0.10566000000E+00 0.  1.
          4    1    3    3  501    0 -0.49520267911E+03 -0.10849008563E+03  0.84881492540E+03  0.98867718172E+03  0.00000000000E+00 0.  1.
         13    1    4    4    0    0 -0.36653942945E+03  0.13690836983E+03  0.44879743778E+03  0.59541095589E+03  0.10566000000E+00 0. -1.
         -4    1    4    4    0  502  0.53016938171E+03 -0.19839881904E+03  0.14689774201E+04  0.15742732690E+04  0.00000000000E+00 0. -1.
<mgrwt>
<rscale>  2 0.10137056E+04</rscale>
<asrwt>0</asrwt>
<pdfrwt beam="1">  1       21 0.49067602E+00 0.10147262E+04</pdfrwt>
<pdfrwt beam="2">  1       21 0.53667904E-01 0.10147262E+04</pdfrwt>
<totfact> 0.22203636E+00</totfact>
</mgrwt>
</event>
<event>
 8    1  0.7208583E-006  0.1073151E+04  0.7818608E-02  0.8710349E-01
         21   -1    0    0  501  502  0.00000000000E+00  0.00000000000E+00  0.10538123108E+04  0.10538123108E+04  0.00000000000E+00 0.  1.
         21   -1    0    0  502  503 -0.00000000000E+00 -0.00000000000E+00 -0.11663800820E+04  0.11663800820E+04  0.00000000000E+00 0.  1.
    9000010    2    1    2  501    0 -0.48116135538E+02 -0.36943283526E+03 -0.34879817125E+03  0.11213485064E+04  0.99848211113E+03 0.  0.
   -9000010    2    1    2    0  503  0.48116135538E+02  0.36943283526E+03  0.23623040006E+03  0.10988438864E+04  0.10064081193E+04 0.  0.
        -13    1    3    3    0    0  0.29508622110E+01  0.33588467802E+03 -0.22273523098E+03  0.40303624998E+03  0.10566000000E+00 0.  1.
          4    1    3    3  501    0 -0.51066997749E+02 -0.70531751328E+03 -0.12606294027E+03  0.71831225641E+03  0.00000000000E+00 0.  1.
         13    1    4    4    0    0  0.10109414716E+03 -0.70109166651E+02  0.54523858820E+03  0.55894583912E+03  0.10566000000E+00 0. -1.
         -4    1    4    4    0  503 -0.52978011617E+02  0.43954200192E+03 -0.30900818814E+03  0.53989804732E+03  0.00000000000E+00 0. -1.
<mgrwt>
<rscale>  2 0.10712888E+04</rscale>
<asrwt>0</asrwt>
<pdfrwt beam="1">  1       21 0.16212497E+00 0.10731510E+04</pdfrwt>
<pdfrwt beam="2">  1       21 0.17944309E+00 0.10731510E+04</pdfrwt>
<totfact> 0.20515788E+01</totfact>
</mgrwt>
</event>
<event>
 8    1  0.7208583E-006  0.1006132E+04  0.7818608E-02  0.8769244E-01
         21   -1    0    0  501  502  0.00000000000E+00  0.00000000000E+00  0.53949810965E+03  0.53949810965E+03  0.00000000000E+00 0.  1.
         21   -1    0    0  502  503 -0.00000000000E+00 -0.00000000000E+00 -0.20490861044E+04  0.20490861044E+04  0.00000000000E+00 0.  1.
    9000010    2    1    2  501    0  0.11765504810E+03  0.10975724968E+03 -0.37621204643E+03  0.10741681824E+04  0.99318297210E+03 0.  0.
   -9000010    2    1    2    0  503 -0.11765504810E+03 -0.10975724968E+03 -0.11333759483E+04  0.15144160316E+04  0.99147643059E+03 0.  0.
        -13    1    3    3    0    0 -0.34340272960E+03  0.14322479845E+03 -0.47307036267E+03  0.60185908383E+03  0.10566000000E+00 0.  1.
          4    1    3    3  501    0  0.46105777769E+03 -0.33467548769E+02  0.96858316239E+02  0.47230909860E+03  0.00000000000E+00 0.  1.
         13    1    4    4    0    0 -0.88641873192E+02 -0.46961693306E+03 -0.20819499174E+03  0.52128937382E+03  0.10566000000E+00 0. -1.
         -4    1    4    4    0  503 -0.29013174904E+02  0.35985968338E+03 -0.92518095658E+03  0.99312665782E+03  0.00000000000E+00 0. -1.
<mgrwt>
<rscale>  2 0.10057107E+04</rscale>
<asrwt>0</asrwt>
<pdfrwt beam="1">  1       21 0.82999708E-01 0.10061321E+04</pdfrwt>
<pdfrwt beam="2">  1       21 0.31524402E+00 0.10061321E+04</pdfrwt>
<totfact> 0.13354992E+01</totfact>
</mgrwt>
</event>
<event>
 8    1  0.7208583E-006  0.1007032E+04  0.7818608E-02  0.8772645E-01
         21   -1    0    0  503  502  0.00000000000E+00  0.00000000000E+00  0.91727156120E+03  0.91727156120E+03  0.00000000000E+00 0. -1.
         21   -1    0    0  501  503 -0.00000000000E+00 -0.00000000000E+00 -0.11025398538E+04  0.11025398538E+04  0.00000000000E+00 0. -1.
    9000010    2    1    2  501    0 -0.11880869565E+03  0.50260215420E+02  0.37167954386E+02  0.10077178414E+04  0.99873529807E+03 0.  0.
   -9000010    2    1    2    0  502  0.11880869565E+03 -0.50260215420E+02 -0.22243624700E+03  0.10120935736E+04  0.97888401885E+03 0.  0.
        -13    1    3    3    0    0 -0.11484561768E+03  0.51201343258E+03  0.12073701101E+03  0.53844656934E+03  0.10566000000E+00 0.  1.
          4    1    3    3  501    0 -0.39630779665E+01 -0.46175321716E+03 -0.83569056629E+02  0.46927127205E+03  0.00000000000E+00 0.  1.
         13    1    4    4    0    0 -0.16227462296E+03 -0.39302065522E+03 -0.35011366482E+03  0.55079749286E+03  0.10566000000E+00 0. -1.
         -4    1    4    4    0  502  0.28108331861E+03  0.34276043980E+03  0.12767741782E+03  0.46129608075E+03  0.00000000000E+00 0. -1.
<mgrwt>
<rscale>  2 0.10020746E+04</rscale>
<asrwt>0</asrwt>
<pdfrwt beam="1">  1       21 0.14111870E+00 0.10070322E+04</pdfrwt>
<pdfrwt beam="2">  1       21 0.16962152E+00 0.10070322E+04</pdfrwt>
<totfact> 0.38573913E+01</totfact>
</mgrwt>
</event>
<event>
 8    1  0.7208583E-006  0.1044540E+04  0.7818608E-02  0.8741463E-01
         21   -1    0    0  501  502  0.00000000000E+00  0.00000000000E+00  0.67502254156E+03  0.67502254156E+03  0.00000000000E+00 0. -1.
         21   -1    0    0  502  503 -0.00000000000E+00 -0.00000000000E+00 -0.20157661408E+04  0.20157661408E+04  0.00000000000E+00 0. -1.
    9000010    2    1    2  501    0  0.10523500860E+03 -0.88837917916E+02 -0.25471414337E+02  0.10112037152E+04  0.10014577266E+04 0.  0.
   -9000010    2    1    2    0  503 -0.10523500860E+03  0.88837917916E+02 -0.13152721849E+04  0.16795849671E+04  0.10354217298E+04 0.  0.
        -13    1    3    3    0    0  0.32149172884E+03  0.37574238818E+03 -0.57025278625E+02  0.49778626695E+03  0.10566000000E+00 0.  1.
          4    1    3    3  501    0 -0.21625672025E+03 -0.46458030610E+03  0.31553864287E+02  0.51341744830E+03  0.00000000000E+00 0.  1.
         13    1    4    4    0    0 -0.31232685900E+03 -0.39932454390E+03 -0.74219904474E+03  0.89881454783E+03  0.10566000000E+00 0. -1.
         -4    1    4    4    0  503  0.20709185040E+03  0.48816246182E+03 -0.57307314014E+03  0.78077041925E+03  0.00000000000E+00 0. -1.
<mgrwt>
<rscale>  2 0.10360224E+04</rscale>
<asrwt>0</asrwt>
<pdfrwt beam="1">  1       21 0.10384962E+00 0.10445404E+04</pdfrwt>
<pdfrwt beam="2">  1       21 0.31011786E+00 0.10445404E+04</pdfrwt>
<totfact> 0.80853192E+00</totfact>
</mgrwt>
</event>
<event>
 8    1  0.7208583E-006  0.1152477E+04  0.7818608E-02  0.8659744E-01
         21   -1    0    0  501  502  0.00000000000E+00  0.00000000000E+00  0.85361404639E+03  0.85361404639E+03  0.00000000000E+00 0. -1.
         21   -1    0    0  502  503 -0.00000000000E+00 -0.00000000000E+00 -0.19320974854E+04  0.19320974854E+04  0.00000000000E+00 0. -1.
    9000010    2    1    2  501    0 -0.95788300680E+02  0.30944940257E+03  0.14204386846E+03  0.11611972425E+04  0.11060145768E+04 0.  0.
   -9000010    2    1    2    0  503  0.95788300680E+02 -0.30944940257E+03 -0.12205273075E+04  0.16245142893E+04  0.10219713482E+04 0.  0.
        -13    1    3    3    0    0  0.30206727187E+03 -0.29520748156E+03  0.11107577671E+03  0.43672638257E+03  0.10566000000E+00 0.  1.
          4    1    3    3  501    0 -0.39785557254E+03  0.60465688413E+03  0.30968091753E+02  0.72447085990E+03  0.00000000000E+00 0.  1.
         13    1    4    4    0    0  0.54749122770E+03 -0.17208691250E+03 -0.48960430737E+03  0.75436923242E+03  0.10566000000E+00 0. -1.
         -4    1    4    4    0  503 -0.45170292702E+03 -0.13736249007E+03 -0.73092300009E+03  0.87014505689E+03  0.00000000000E+00 0. -1.
<mgrwt>
<rscale>  2 0.11318298E+04</rscale>
<asrwt>0</asrwt>
<pdfrwt beam="1">  1       21 0.13132524E+00 0.11524767E+04</pdfrwt>
<pdfrwt beam="2">  1       21 0.29724577E+00 0.11524767E+04</pdfrwt>
<totfact> 0.50740054E+00</totfact>
</mgrwt>
</event>
<event>
 8    1  0.7208583E-006  0.1037595E+04  0.7818608E-02  0.8754969E-01
         21   -1    0    0  503  502  0.00000000000E+00  0.00000000000E+00  0.11757285927E+04  0.11757285927E+04  0.00000000000E+00 0. -1.
         21   -1    0    0  501  503 -0.00000000000E+00 -0.00000000000E+00 -0.95252644304E+03  0.95252644304E+03  0.00000000000E+00 0. -1.
    9000010    2    1    2  501    0  0.13449564626E+03 -0.20311441506E+03 -0.22332940888E+03  0.99865606565E+03  0.94238705855E+03 0.  0.
   -9000010    2    1    2    0  502 -0.13449564626E+03  0.20311441506E+03  0.44653155854E+03  0.11295989701E+04  0.10085925123E+04 0.  0.
        -13    1    3    3    0    0  0.41270449247E+03  0.17335214082E+03 -0.27866633310E+03  0.52728635408E+03  0.10566000000E+00 0.  1.
          4    1    3    3  501    0 -0.27820884621E+03 -0.37646655588E+03  0.55336924222E+02  0.47136971157E+03  0.00000000000E+00 0.  1.
         13    1    4    4    0    0  0.14312579949E+03 -0.35052680841E+03  0.23068141499E+02  0.37932332938E+03  0.10566000000E+00 0. -1.
         -4    1    4    4    0  502 -0.27762144575E+03  0.55364122346E+03  0.42346341704E+03  0.75027564070E+03  0.00000000000E+00 0. -1.
<mgrwt>
<rscale>  2 0.10211505E+04</rscale>
<asrwt>0</asrwt>
<pdfrwt beam="1">  1       21 0.18088132E+00 0.10375950E+04</pdfrwt>
<pdfrwt beam="2">  1       21 0.14654253E+00 0.10375950E+04</pdfrwt>
<totfact> 0.27597816E+01</totfact>
</mgrwt>
</event>
<event>
 8    1  0.7208583E-006  0.1021531E+04  0.7818608E-02  0.8756735E-01
         21   -1    0    0  501  502  0.00000000000E+00  0.00000000000E+00  0.10504026997E+04  0.10504026997E+04  0.00000000000E+00 0. -1.
         21   -1    0    0  502  503 -0.00000000000E+00 -0.00000000000E+00 -0.13118375934E+04  0.13118375934E+04  0.00000000000E+00 0. -1.
    9000010    2    1    2  501    0  0.10385099895E+03 -0.75522025518E+02  0.45968967090E+03  0.11118219238E+04  0.10041637269E+04 0.  0.
   -9000010    2    1    2    0  503 -0.10385099895E+03  0.75522025518E+02 -0.72112456454E+03  0.12504183693E+04  0.10134282681E+04 0.  0.
        -13    1    3    3    0    0 -0.42534755696E+03 -0.18107487376E+03  0.29183423007E+03  0.54669542080E+03  0.10566000000E+00 0.  1.
          4    1    3    3  501    0  0.52919855591E+03  0.10555284824E+03  0.16785544084E+03  0.56512650298E+03  0.00000000000E+00 0.  1.
         13    1    4    4    0    0 -0.33785114688E+03  0.43515783506E+03 -0.22657289822E+03  0.59568534331E+03  0.10566000000E+00 0. -1.
         -4    1    4    4    0  503  0.23400014793E+03 -0.35963580954E+03 -0.49455166631E+03  0.65473302604E+03  0.00000000000E+00 0. -1.
<mgrwt>
<rscale>  2 0.10192256E+04</rscale>
<asrwt>0</asrwt>
<pdfrwt beam="1">  1       21 0.16160042E+00 0.10215309E+04</pdfrwt>
<pdfrwt beam="2">  1       21 0.20182117E+00 0.10215309E+04</pdfrwt>
<totfact> 0.13914867E+01</totfact>
</mgrwt>
</event>
<event>
 8    1  0.7208583E-006  0.1140517E+04  0.7818608E-02  0.8660314E-01
         21   -1    0    0  501  502  0.00000000000E+00  0.00000000000E+00  0.14637085749E+04  0.14637085749E+04  0.00000000000E+00 0. -1.
         21   -1    0    0  502  503 -0.00000000000E+00 -0.00000000000E+00 -0.14795747934E+04  0.14795747934E+04  0.00000000000E+00 0. -1.
    9000010    2    1    2  501    0 -0.32907499596E+03 -0.44559186847E+03  0.94422379744E+03  0.14806545183E+04  0.99696376904E+03 0.  0.
   -9000010    2    1    2    0  503  0.32907499596E+03  0.44559186847E+03 -0.96009001596E+03  0.14626288499E+04  0.95428918449E+03 0.  0.
        -13    1    3    3    0    0 -0.22407774516E+03 -0.11456103315E+03  0.10791310962E+04  0.11080879929E+04  0.10566000000E+00 0.  1.
          4    1    3    3  501    0 -0.10499725080E+03 -0.33103083533E+03 -0.13490729871E+03  0.37256652541E+03  0.00000000000E+00 0.  1.
         13    1    4    4    0    0  0.30905711149E+02  0.70442123048E+03 -0.67022336548E+03  0.97281231681E+03  0.10566000000E+00 0. -1.
         -4    1    4    4    0  503  0.29816928481E+03 -0.25882936201E+03 -0.28986665049E+03  0.48981653311E+03  0.00000000000E+00 0. -1.
<mgrwt>
<rscale>  2 0.11311245E+04</rscale>
<asrwt>0</asrwt>
<pdfrwt beam="1">  1       21 0.22518594E+00 0.11405171E+04</pdfrwt>
<pdfrwt beam="2">  1       21 0.22762689E+00 0.11405171E+04</pdfrwt>
<totfact> 0.26843310E+00</totfact>
</mgrwt>
</event>
<event>
 8    1  0.7208583E-006  0.1030777E+04  0.7818608E-02  0.8755300E-01
         21   -1    0    0  503  502  0.00000000000E+00  0.00000000000E+00  0.49654697470E+03  0.49654697470E+03  0.00000000000E+00 0. -1.
         21   -1    0    0  501  503 -0.00000000000E+00 -0.00000000000E+00 -0.21813820872E+04  0.21813820872E+04  0.00000000000E+00 0. -1.
    9000010    2    1    2  501    0 -0.19261359147E+03 -0.13261944697E+03 -0.11442518580E+04  0.15139993453E+04  0.96342814461E+03 0.  0.
   -9000010    2    1    2    0  502  0.19261359147E+03  0.13261944697E+03 -0.54058325458E+03  0.11639297166E+04  0.10038995053E+04 0.  0.
        -13    1    3    3    0    0  0.17782206457E+03 -0.29382808206E+03 -0.49389337523E+02  0.34697974910E+03  0.10566000000E+00 0.  1.
          4    1    3    3  501    0 -0.37043565605E+03  0.16120863509E+03 -0.10948625204E+04  0.11670195962E+04  0.00000000000E+00 0.  1.
         13    1    4    4    0    0 -0.32097873951E+03  0.22976183364E+03  0.22824869519E+02  0.39539706277E+03  0.10566000000E+00 0. -1.
         -4    1    4    4    0  502  0.51359233099E+03 -0.97142386664E+02 -0.56340812410E+03  0.76853265385E+03  0.00000000000E+00 0. -1.
<mgrwt>
<rscale>  2 0.10207898E+04</rscale>
<asrwt>0</asrwt>
<pdfrwt beam="1">  1       21 0.76391843E-01 0.10307774E+04</pdfrwt>
<pdfrwt beam="2">  1       21 0.33559724E+00 0.10307774E+04</pdfrwt>
<totfact> 0.11697869E+01</totfact>
</mgrwt>
</event>
<event>
 8    1  0.7208583E-006  0.1174696E+04  0.7818608E-02  0.8644835E-01
         21   -1    0    0  501  502  0.00000000000E+00  0.00000000000E+00  0.27215360416E+04  0.27215360416E+04  0.00000000000E+00 0.  1.
         21   -1    0    0  502  503 -0.00000000000E+00 -0.00000000000E+00 -0.58406249780E+03  0.58406249780E+03  0.00000000000E+00 0.  1.
    9000010    2    1    2  501    0 -0.38932553649E+03 -0.80270975733E+02  0.29452302417E+03  0.11201059405E+04  0.10049257203E+04 0.  0.
   -9000010    2    1    2    0  503  0.38932553649E+03  0.80270975733E+02  0.18429505196E+04  0.21854925989E+04  0.11053929071E+04 0.  0.
        -13    1    3    3    0    0 -0.39151201937E+03  0.17185664515E+03  0.59192975365E+03  0.73020354164E+03  0.10566000000E+00 0.  1.
          4    1    3    3  501    0  0.21864828789E+01 -0.25212762088E+03 -0.29740672948E+03  0.38990239889E+03  0.00000000000E+00 0.  1.
         13    1    4    4    0    0  0.65285558055E+02  0.46632765651E+03  0.29050871880E+03  0.55328023115E+03  0.10566000000E+00 0. -1.
         -4    1    4    4    0  503  0.32403997843E+03 -0.38605668078E+03  0.15524418008E+04  0.16322123677E+04  0.00000000000E+00 0. -1.
<mgrwt>
<rscale>  2 0.11504549E+04</rscale>
<asrwt>0</asrwt>
<pdfrwt beam="1">  1       21 0.41869784E+00 0.11746963E+04</pdfrwt>
<pdfrwt beam="2">  1       21 0.89855771E-01 0.11746963E+04</pdfrwt>
<totfact> 0.19903248E+00</totfact>
</mgrwt>
</event>
<event>
 8    1  0.7208583E-006  0.1008433E+04  0.7818608E-02  0.8771100E-01
         21   -1    0    0  503  502  0.00000000000E+00  0.00000000000E+00  0.82438151200E+03  0.82438151200E+03  0.00000000000E+00 0. -1.
         21   -1    0    0  501  503 -0.00000000000E+00 -0.00000000000E+00 -0.19694333744E+04  0.19694333744E+04  0.00000000000E+00 0. -1.
    9000010    2    1    2  501    0 -0.85389438595E+02  0.72389783729E+02 -0.14427819316E+04  0.17602716024E+04  0.10021999675E+04 0.  0.
   -9000010    2    1    2    0  502  0.85389438595E+02 -0.72389783729E+02  0.29773006922E+03  0.10335432840E+04  0.98338033780E+03 0.  0.
        -13    1    3    3    0    0 -0.45584573247E+03 -0.22728531407E+03 -0.92947567756E+03  0.10598957459E+04  0.10566000000E+00 0.  1.
          4    1    3    3  501    0  0.37045629388E+03  0.29967509780E+03 -0.51330625402E+03  0.70037585647E+03  0.00000000000E+00 0.  1.
         13    1    4    4    0    0  0.10343135279E+03 -0.52194997545E+03  0.22528433096E+03  0.57782597947E+03  0.10566000000E+00 0. -1.
         -4    1    4    4    0  502 -0.18041914196E+02  0.44956019172E+03  0.72445738262E+02  0.45571730452E+03  0.00000000000E+00 0. -1.
<mgrwt>
<rscale>  2 0.10037245E+04</rscale>
<asrwt>0</asrwt>
<pdfrwt beam="1">  1       21 0.12682792E+00 0.10084327E+04</pdfrwt>
<pdfrwt beam="2">  1       21 0.30298975E+00 0.10084327E+04</pdfrwt>
<totfact> 0.52838841E+00</totfact>
</mgrwt>
</event>
<event>
 8    1  0.7208583E-006  0.1042706E+04  0.7818608E-02  0.8741951E-01
         21   -1    0    0  501  502  0.00000000000E+00  0.00000000000E+00  0.92960214572E+03  0.92960214572E+03  0.00000000000E+00 0.  1.
         21   -1    0    0  502  503 -0.00000000000E+00 -0.00000000000E+00 -0.13622354077E+04  0.13622354077E+04  0.00000000000E+00 0.  1.
    9000010    2    1    2  501    0 -0.12342595765E+03 -0.75401522245E+02 -0.68401760077E+03  0.12470431794E+04  0.10326263877E+04 0.  0.
   -9000010    2    1    2    0  503  0.12342595765E+03  0.75401522245E+02  0.25138433884E+03  0.10447943740E+04  0.10037339496E+04 0.  0.
        -13    1    3    3    0    0  0.36790496549E+03 -0.20653673822E+03 -0.59712556390E+03  0.73114324047E+03  0.10566000000E+00 0.  1.
          4    1    3    3  501    0 -0.49133092314E+03  0.13113521597E+03 -0.86892036874E+02  0.51589993891E+03  0.00000000000E+00 0.  1.
         13    1    4    4    0    0  0.52277402862E+01  0.15326357290E+03 -0.37367070073E+03  0.40391441643E+03  0.10566000000E+00 0. -1.
         -4    1    4    4    0  503  0.11819821736E+03 -0.77862050659E+02  0.62505503957E+03  0.64087995757E+03  0.00000000000E+00 0. -1.
<mgrwt>
<rscale>  2 0.10354803E+04</rscale>
<asrwt>0</asrwt>
<pdfrwt beam="1">  1       21 0.14301572E+00 0.10427064E+04</pdfrwt>
<pdfrwt beam="2">  1       21 0.20957468E+00 0.10427064E+04</pdfrwt>
<totfact> 0.17620305E+01</totfact>
</mgrwt>
</event>
<event>
 8    1  0.7208583E-006  0.1018086E+04  0.7818608E-02  0.8766487E-01
         21   -1    0    0  503  502  0.00000000000E+00  0.00000000000E+00  0.15125229299E+04  0.15125229299E+04  0.00000000000E+00 0. -1.
         21   -1    0    0  501  503 -0.00000000000E+00 -0.00000000000E+00 -0.72818547166E+03  0.72818547166E+03  0.00000000000E+00 0. -1.
    9000010    2    1    2  501    0 -0.13630321119E+03  0.10708063284E+02  0.44060795086E+02  0.98193571222E+03  0.97137179353E+03 0.  0.
   -9000010    2    1    2    0  502  0.13630321119E+03 -0.10708063284E+02  0.74027666312E+03  0.12587726893E+04  0.10088636763E+04 0.  0.
        -13    1    3    3    0    0 -0.52504491485E+03  0.16305484144E+03  0.10579781280E+03  0.55986804899E+03  0.10566000000E+00 0.  1.
          4    1    3    3  501    0  0.38874170366E+03 -0.15234677815E+03 -0.61737017719E+02  0.42206766322E+03  0.00000000000E+00 0.  1.
         13    1    4    4    0    0  0.21384288439E+03 -0.40672897331E+03  0.54048754351E+02  0.46268619597E+03  0.10566000000E+00 0. -1.
         -4    1    4    4    0  502 -0.77539673206E+02  0.39602091002E+03  0.68622790877E+03  0.79608649334E+03  0.00000000000E+00 0. -1.
<mgrwt>
<rscale>  2 0.10086714E+04</rscale>
<asrwt>0</asrwt>
<pdfrwt beam="1">  1       21 0.23269583E+00 0.10180860E+04</pdfrwt>
<pdfrwt beam="2">  1       21 0.11202853E+00 0.10180860E+04</pdfrwt>
<totfact> 0.23868500E+01</totfact>
</mgrwt>
</event>
<event>
 8    1  0.7208583E-006  0.1032591E+04  0.7818608E-02  0.8750605E-01
         21   -1    0    0  501  502  0.00000000000E+00  0.00000000000E+00  0.79789297032E+03  0.79789297032E+03  0.00000000000E+00 0.  1.
         21   -1    0    0  502  503 -0.00000000000E+00 -0.00000000000E+00 -0.15032403237E+04  0.15032403237E+04  0.00000000000E+00 0.  1.
    9000010    2    1    2  501    0  0.16586479389E+03  0.14201304450E+03  0.71828201307E+02  0.10087531588E+04  0.98221423841E+03 0.  0.
   -9000010    2    1    2    0  503 -0.16586479389E+03 -0.14201304450E+03 -0.77717555467E+03  0.12923801353E+04  0.10092401778E+04 0.  0.
        -13    1    3    3    0    0 -0.34188988775E+03  0.27715979056E+03  0.17437777574E+03  0.47340665890E+03  0.10566000000E+00 0.  1.
          4    1    3    3  501    0  0.50775468164E+03 -0.13514674606E+03 -0.10254957443E+03  0.53534649986E+03  0.00000000000E+00 0.  1.
         13    1    4    4    0    0 -0.39341439254E+03  0.20522229678E+03 -0.75610926802E+03  0.87669396696E+03  0.10566000000E+00 0. -1.
         -4    1    4    4    0  503  0.22754959865E+03 -0.34723534128E+03 -0.21066286653E+02  0.41568616829E+03  0.00000000000E+00 0. -1.
<mgrwt>
<rscale>  2 0.10259273E+04</rscale>
<asrwt>0</asrwt>
<pdfrwt beam="1">  1       21 0.12275276E+00 0.10325912E+04</pdfrwt>
<pdfrwt beam="2">  1       21 0.23126774E+00 0.10325912E+04</pdfrwt>
<totfact> 0.18920348E+01</totfact>
</mgrwt>
</event>
<event>
 8    1  0.7208583E-006  0.9993370E+03  0.7818608E-02  0.8787786E-01
         21   -1    0    0  503  502  0.00000000000E+00  0.00000000000E+00  0.59593854918E+03  0.59593854918E+03  0.00000000000E+00 0.  1.
         21   -1    0    0  501  503 -0.00000000000E+00 -0.00000000000E+00 -0.16875750350E+04  0.16875750350E+04  0.00000000000E+00 0.  1.
    9000010    2    1    2  501    0 -0.60149356584E+02 -0.86612835625E+01 -0.25725579834E+03  0.98164354777E+03  0.94538380892E+03 0.  0.
   -9000010    2    1    2    0  502  0.60149356584E+02  0.86612835625E+01 -0.83438068744E+03  0.13018700364E+04  0.99748759245E+03 0.  0.
        -13    1    3    3    0    0 -0.49392454630E+03  0.40487708475E+02 -0.22392368729E+03  0.54382215923E+03  0.10566000000E+00 0.  1.
          4    1    3    3  501    0  0.43377518972E+03 -0.49148992038E+02 -0.33332111049E+02  0.43782138854E+03  0.00000000000E+00 0.  1.
         13    1    4    4    0    0 -0.26685473613E+03 -0.38948890539E+03 -0.49980110774E+03  0.68754215586E+03  0.10566000000E+00 0. -1.
         -4    1    4    4    0  502  0.32700409272E+03  0.39815018895E+03 -0.33457957969E+03  0.61432788051E+03  0.00000000000E+00 0. -1.
<mgrwt>
<rscale>  2 0.98607482E+03</rscale>
<asrwt>0</asrwt>
<pdfrwt beam="1">  1       21 0.91682853E-01 0.99933701E+03</pdfrwt>
<pdfrwt beam="2">  1       21 0.25962693E+00 0.99933701E+03</pdfrwt>
<totfact> 0.25808655E+01</totfact>
</mgrwt>
</event>
<event>
 8    1  0.7208583E-006  0.1057928E+04  0.7818608E-02  0.8722132E-01
         21   -1    0    0  501  502  0.00000000000E+00  0.00000000000E+00  0.71044973716E+03  0.71044973716E+03  0.00000000000E+00 0. -1.
         21   -1    0    0  502  503 -0.00000000000E+00 -0.00000000000E+00 -0.16659014129E+04  0.16659014129E+04  0.00000000000E+00 0. -1.
    9000010    2    1    2  501    0  0.46030820003E+00 -0.34533651270E+03 -0.75607807530E+03  0.12998002886E+04  0.99928435162E+03 0.  0.
   -9000010    2    1    2    0  503 -0.46030820003E+00  0.34533651270E+03 -0.19937360041E+03  0.10765508614E+04  0.99997720267E+03 0.  0.
        -13    1    3    3    0    0  0.19937953570E+03  0.25401130758E+03 -0.10992005580E+02  0.32310180901E+03  0.10566000000E+00 0.  1.
          4    1    3    3  501    0 -0.19891922750E+03 -0.59934782027E+03 -0.74508606972E+03  0.97669847959E+03  0.00000000000E+00 0.  1.
         13    1    4    4    0    0 -0.44652419714E+03  0.16124455589E+02 -0.26307281220E+03  0.51850860396E+03  0.10566000000E+00 0. -1.
         -4    1    4    4    0  503  0.44606388894E+03  0.32921205711E+03  0.63699211782E+02  0.55804225749E+03  0.00000000000E+00 0. -1.
<mgrwt>
<rscale>  2 0.10577644E+04</rscale>
<asrwt>0</asrwt>
<pdfrwt beam="1">  1       21 0.10929996E+00 0.10579281E+04</pdfrwt>
<pdfrwt beam="2">  1       21 0.25629253E+00 0.10579281E+04</pdfrwt>
<totfact> 0.16998545E+01</totfact>
</mgrwt>
</event>
<event>
 8    1  0.7208583E-006  0.1050461E+04  0.7818608E-02  0.8739664E-01
         21   -1    0    0  503  502  0.00000000000E+00  0.00000000000E+00  0.76002905663E+03  0.76002905663E+03  0.00000000000E+00 0. -1.
         21   -1    0    0  501  503 -0.00000000000E+00 -0.00000000000E+00 -0.14415869699E+04  0.14415869699E+04  0.00000000000E+00 0. -1.
    9000010    2    1    2  501    0  0.13018642112E+03 -0.93958707853E+02 -0.56641010441E+03  0.11934352789E+04  0.10381187868E+04 0.  0.
   -9000010    2    1    2    0  502 -0.13018642112E+03  0.93958707853E+02 -0.11514780882E+03  0.10081807476E+04  0.98863171046E+03 0.  0.
        -13    1    3    3    0    0 -0.13018300658E+03  0.15826632729E+02  0.27563562053E+03  0.30524269684E+03  0.10566000000E+00 0.  1.
          4    1    3    3  501    0  0.26036942771E+03 -0.10978534058E+03 -0.84204572494E+03  0.88819258203E+03  0.00000000000E+00 0.  1.
         13    1    4    4    0    0  0.16761902024E+03 -0.36288269751E+03 -0.21484710931E+03  0.45380533232E+03  0.10566000000E+00 0. -1.
         -4    1    4    4    0  502 -0.29780544136E+03  0.45684140536E+03  0.99699300490E+02  0.55437541529E+03  0.00000000000E+00 0. -1.
<mgrwt>
<rscale>  2 0.10380221E+04</rscale>
<asrwt>0</asrwt>
<pdfrwt beam="1">  1       21 0.11692755E+00 0.10504605E+04</pdfrwt>
<pdfrwt beam="2">  1       21 0.22178261E+00 0.10504605E+04</pdfrwt>
<totfact> 0.25408078E+01</totfact>
</mgrwt>
</event>
<event>
 8    1  0.7208583E-006  0.1064972E+04  0.7818608E-02  0.8716723E-01
         21   -1    0    0  501  502  0.00000000000E+00  0.00000000000E+00  0.41824399481E+04  0.41824399481E+04  0.00000000000E+00 0. -1.
         21   -1    0    0  502  503 -0.00000000000E+00 -0.00000000000E+00 -0.34983426952E+03  0.34983426952E+03  0.00000000000E+00 0. -1.
    9000010    2    1    2  501    0 -0.35270861436E+03 -0.14955915178E+03  0.30008142191E+04  0.31841875755E+04  0.99367662344E+03 0.  0.
   -9000010    2    1    2    0  503  0.35270861436E+03  0.14955915178E+03  0.83179145946E+03  0.13480866421E+04  0.98928724648E+03 0.  0.
        -13    1    3    3    0    0 -0.68746507429E+03 -0.18709960225E+03  0.17673955806E+04  0.19055974494E+04  0.10566000000E+00 0.  1.
          4    1    3    3  501    0  0.33475645993E+03  0.37540450471E+02  0.12334186385E+04  0.12785901261E+04  0.00000000000E+00 0.  1.
         13    1    4    4    0    0  0.49105683997E+03 -0.18198979530E+03  0.83868817097E+03  0.98876436271E+03  0.10566000000E+00 0. -1.
         -4    1    4    4    0  503 -0.13834822561E+03  0.33154894708E+03 -0.68967115076E+01  0.35932227939E+03  0.00000000000E+00 0. -1.
<mgrwt>
<rscale>  2 0.10639465E+04</rscale>
<asrwt>0</asrwt>
<pdfrwt beam="1">  1       21 0.64345226E+00 0.10649716E+04</pdfrwt>
<pdfrwt beam="2">  1       21 0.53820660E-01 0.10649716E+04</pdfrwt>
<totfact> 0.15906764E-01</totfact>
</mgrwt>
</event>
<event>
 8    1  0.7208583E-006  0.1009611E+04  0.7818608E-02  0.8766549E-01
         21   -1    0    0  503  502  0.00000000000E+00  0.00000000000E+00  0.74874362908E+03  0.74874362908E+03  0.00000000000E+00 0.  1.
         21   -1    0    0  501  503 -0.00000000000E+00 -0.00000000000E+00 -0.17444324393E+04  0.17444324393E+04  0.00000000000E+00 0.  1.
    9000010    2    1    2  501    0 -0.19051419737E+02  0.14645810121E+03 -0.10853489318E+04  0.14795915010E+04  0.99468375585E+03 0.  0.
   -9000010    2    1    2    0  502  0.19051419737E+02 -0.14645810121E+03  0.89660121570E+02  0.10135845674E+04  0.99875012179E+03 0.  0.
        -13    1    3    3    0    0 -0.34722776012E+03  0.52608200810E+02 -0.99593562209E+01  0.35133166685E+03  0.10566000000E+00 0.  1.
          4    1    3    3  501    0  0.32817634038E+03  0.93849900405E+02 -0.10753895755E+04  0.11282598341E+04  0.00000000000E+00 0.  1.
         13    1    4    4    0    0 -0.17946557089E+03 -0.40070104412E+03  0.37919370999E+03  0.58013541415E+03  0.10566000000E+00 0. -1.
         -4    1    4    4    0  502  0.19851699063E+03  0.25424294290E+03 -0.28953358842E+03  0.43344915320E+03  0.00000000000E+00 0. -1.
<mgrwt>
<rscale>  2 0.10086041E+04</rscale>
<asrwt>0</asrwt>
<pdfrwt beam="1">  1       21 0.11519133E+00 0.10096112E+04</pdfrwt>
<pdfrwt beam="2">  1       21 0.26837422E+00 0.10096112E+04</pdfrwt>
<totfact> 0.12191376E+01</totfact>
</mgrwt>
</event>
<event>
 8    1  0.7208583E-006  0.1088323E+04  0.7818608E-02  0.8710159E-01
         21   -1    0    0  501  502  0.00000000000E+00  0.00000000000E+00  0.23994130690E+04  0.23994130690E+04  0.00000000000E+00 0.  1.
         21   -1    0    0  502  503 -0.00000000000E+00 -0.00000000000E+00 -0.51383898006E+03  0.51383898006E+03  0.00000000000E+00 0.  1.
    9000010    2    1    2  501    0  0.35727637006E+03  0.60776406993E+02  0.46410300988E+03  0.11229928354E+04  0.95623277935E+03 0.  0.
   -9000010    2    1    2    0  503 -0.35727637006E+03 -0.60776406993E+02  0.14214710791E+04  0.17902592137E+04  0.10262104303E+04 0.  0.
        -13    1    3    3    0    0 -0.14924711122E+03 -0.94036975218E+02 -0.20446721475E+03  0.27004537765E+03  0.10566000000E+00 0.  1.
          4    1    3    3  501    0  0.50652348129E+03  0.15481338221E+03  0.66857022463E+03  0.85294745774E+03  0.00000000000E+00 0.  1.
         13    1    4    4    0    0  0.35515303017E+03 -0.15102523602E+02  0.63781253118E+03  0.73018257795E+03  0.10566000000E+00 0. -1.
         -4    1    4    4    0  503 -0.71242940023E+03 -0.45673883391E+02  0.78365854790E+03  0.10600766357E+04  0.00000000000E+00 0. -1.
<mgrwt>
<rscale>  2 0.10715082E+04</rscale>
<asrwt>0</asrwt>
<pdfrwt beam="1">  1       21 0.36914046E+00 0.10883235E+04</pdfrwt>
<pdfrwt beam="2">  1       21 0.79052153E-01 0.10883235E+04</pdfrwt>
<totfact> 0.61851409E+00</totfact>
</mgrwt>
</event>
<event>
 8    1  0.7208583E-006  0.1027092E+04  0.7818608E-02  0.8750295E-01
         21   -1    0    0  501  502  0.00000000000E+00  0.00000000000E+00  0.20601812918E+04  0.20601812918E+04  0.00000000000E+00 0.  1.
         21   -1    0    0  502  503 -0.00000000000E+00 -0.00000000000E+00 -0.56745386319E+03  0.56745386319E+03  0.00000000000E+00 0.  1.
    9000010    2    1    2  501    0  0.11754960403E+02 -0.23880510639E+03  0.11639933016E+04  0.15523525327E+04  0.99887532833E+03 0.  0.
   -9000010    2    1    2    0  503 -0.11754960403E+02  0.23880510639E+03  0.32873412699E+03  0.10752826223E+04  0.99549009722E+03 0.  0.
        -13    1    3    3    0    0  0.42780483562E+03 -0.34414385003E+03  0.41173812029E+03  0.68628001410E+03  0.10566000000E+00 0.  1.
          4    1    3    3  501    0 -0.41604987522E+03  0.10533874364E+03  0.75225518132E+03  0.86607251856E+03  0.00000000000E+00 0.  1.
         13    1    4    4    0    0  0.53657266452E+02  0.36376230575E+03  0.63743667677E+03  0.73588561977E+03  0.10566000000E+00 0. -1.
         -4    1    4    4    0  503 -0.65412226854E+02 -0.12495719936E+03 -0.30870254978E+03  0.33939700254E+03  0.00000000000E+00 0. -1.
<mgrwt>
<rscale>  2 0.10262680E+04</rscale>
<asrwt>0</asrwt>
<pdfrwt beam="1">  1       21 0.31695096E+00 0.10270920E+04</pdfrwt>
<pdfrwt beam="2">  1       21 0.87300595E-01 0.10270920E+04</pdfrwt>
<totfact> 0.11385795E+01</totfact>
</mgrwt>
</event>
<event>
 8    1  0.7208583E-006  0.1060537E+04  0.7818608E-02  0.8720639E-01
         21   -1    0    0  501  502  0.00000000000E+00  0.00000000000E+00  0.14415207810E+04  0.14415207810E+04  0.00000000000E+00 0. -1.
         21   -1    0    0  502  503 -0.00000000000E+00 -0.00000000000E+00 -0.83772030653E+03  0.83772030653E+03  0.00000000000E+00 0. -1.
    9000010    2    1    2  501    0  0.26810708381E+03  0.54231212474E+02  0.60789915278E+03  0.12186957657E+04  0.10202232877E+04 0.  0.
   -9000010    2    1    2    0  503 -0.26810708381E+03 -0.54231212474E+02 -0.40986782695E+01  0.10605453218E+04  0.10246546480E+04 0.  0.
        -13    1    3    3    0    0  0.26515992336E+03 -0.42994347398E+03  0.52302614675E+03  0.72712965634E+03  0.10566000000E+00 0.  1.
          4    1    3    3  501    0  0.29471604437E+01  0.48417468646E+03  0.84873006031E+02  0.49156610940E+03  0.00000000000E+00 0.  1.
         13    1    4    4    0    0 -0.33145296428E+03 -0.24725013711E+03  0.42055793101E+03  0.58979884904E+03  0.10566000000E+00 0. -1.
         -4    1    4    4    0  503  0.63345880475E+02  0.19301892463E+03 -0.42465660928E+03  0.47074647279E+03  0.00000000000E+00 0. -1.
<mgrwt>
<rscale>  2 0.10594656E+04</rscale>
<asrwt>0</asrwt>
<pdfrwt beam="1">  1       21 0.22177243E+00 0.10605374E+04</pdfrwt>
<pdfrwt beam="2">  1       21 0.12888005E+00 0.10605374E+04</pdfrwt>
<totfact> 0.19263401E+01</totfact>
</mgrwt>
</event>
<event>
 8    1  0.7208583E-006  0.1005326E+04  0.7818608E-02  0.8783956E-01
         21   -1    0    0  503  502  0.00000000000E+00  0.00000000000E+00  0.52302837991E+03  0.52302837991E+03  0.00000000000E+00 0.  1.
         21   -1    0    0  501  503 -0.00000000000E+00 -0.00000000000E+00 -0.18200932263E+04  0.18200932263E+04  0.00000000000E+00 0.  1.
    9000010    2    1    2  501    0 -0.27952017634E+02  0.40422650885E+02 -0.60885920993E+03  0.11247996696E+04  0.94448369661E+03 0.  0.
   -9000010    2    1    2    0  502  0.27952017634E+02 -0.40422650885E+02 -0.68820563648E+03  0.12183219367E+04  0.10041245128E+04 0.  0.
        -13    1    3    3    0    0 -0.10758243688E+03  0.12857694069E+03 -0.84446171409E+03  0.86094227921E+03  0.10566000000E+00 0.  1.
          4    1    3    3  501    0  0.79630419251E+02 -0.88154289800E+02  0.23560250417E+03  0.26385739036E+03  0.00000000000E+00 0.  1.
         13    1    4    4    0    0  0.31430750804E+03 -0.42039863743E+03 -0.30252619883E+03  0.60584349143E+03  0.10566000000E+00 0. -1.
         -4    1    4    4    0  502 -0.28635549040E+03  0.37997598655E+03 -0.38567943765E+03  0.61247844522E+03  0.00000000000E+00 0. -1.
<mgrwt>
<rscale>  2 0.99009245E+03</rscale>
<asrwt>0</asrwt>
<pdfrwt beam="1">  1       21 0.80465905E-01 0.10053265E+04</pdfrwt>
<pdfrwt beam="2">  1       21 0.28001434E+00 0.10053265E+04</pdfrwt>
<totfact> 0.25588153E+01</totfact>
</mgrwt>
</event>
<event>
 8    1  0.7208583E-006  0.1142112E+04  0.7818608E-02  0.8654457E-01
         21   -1    0    0  503  502  0.00000000000E+00  0.00000000000E+00  0.56146433999E+03  0.56146433999E+03  0.00000000000E+00 0.  1.
         21   -1    0    0  501  503 -0.00000000000E+00 -0.00000000000E+00 -0.32922746106E+04  0.32922746106E+04  0.00000000000E+00 0. -1.
    9000010    2    1    2  501    0  0.32156902197E+03  0.46768871701E+03 -0.24206319955E+04  0.26702568946E+04  0.97399859003E+03 0.  0.
   -9000010    2    1    2    0  502 -0.32156902197E+03 -0.46768871701E+03 -0.31017827506E+03  0.11834820560E+04  0.99110031914E+03 0.  0.
        -13    1    3    3    0    0 -0.20316059611E+03 -0.89327271477E+02 -0.13464096989E+03  0.25958002847E+03  0.10566000000E+00 0.  1.
          4    1    3    3  501    0  0.52472961809E+03  0.55701598849E+03 -0.22859910256E+04  0.24106768661E+04  0.00000000000E+00 0.  1.
         13    1    4    4    0    0  0.12136344089E+03  0.24648419168E+03 -0.19120024098E+03  0.33472538722E+03  0.10566000000E+00 0. -1.
         -4    1    4    4    0  502 -0.44293246286E+03 -0.71417290870E+03 -0.11897803407E+03  0.84875666876E+03  0.00000000000E+00 0. -1.
<mgrwt>
<rscale>  2 0.11383915E+04</rscale>
<asrwt>0</asrwt>
<pdfrwt beam="1">  1       21 0.86379130E-01 0.11421117E+04</pdfrwt>
<pdfrwt beam="2">  1       21 0.50650378E+00 0.11421117E+04</pdfrwt>
<totfact> 0.54436148E-01</totfact>
</mgrwt>
</event>
<event>
 8    1  0.7208583E-006  0.1018662E+04  0.7818608E-02  0.8779234E-01
         21   -1    0    0  503  502  0.00000000000E+00  0.00000000000E+00  0.65729969428E+03  0.65729969428E+03  0.00000000000E+00 0. -1.
         21   -1    0    0  501  503 -0.00000000000E+00 -0.00000000000E+00 -0.18237452678E+04  0.18237452678E+04  0.00000000000E+00 0. -1.
    9000010    2    1    2  501    0 -0.61024848166E+02 -0.14875376114E+03 -0.36708149895E+02  0.10193233055E+04  0.10058930358E+04 0.  0.
   -9000010    2    1    2    0  502  0.61024848166E+02  0.14875376114E+03 -0.11297374236E+04  0.14617216565E+04  0.91349430283E+03 0.  0.
        -13    1    3    3    0    0  0.43475105612E+03  0.10621487269E+03  0.66201911161E+02  0.45240776317E+03  0.10566000000E+00 0.  1.
          4    1    3    3  501    0 -0.49577590428E+03 -0.25496863383E+03 -0.10291006106E+03  0.56691554236E+03  0.00000000000E+00 0.  1.
         13    1    4    4    0    0  0.43912519857E+03  0.20781732531E+03 -0.36869839440E+03  0.60988318383E+03  0.10566000000E+00 0. -1.
         -4    1    4    4    0  502 -0.37810035040E+03 -0.59063564177E+02 -0.76103902920E+03  0.85183847269E+03  0.00000000000E+00 0. -1.
<mgrwt>
<rscale>  2 0.99507392E+03</rscale>
<asrwt>0</asrwt>
<pdfrwt beam="1">  1       21 0.10112303E+00 0.10186621E+04</pdfrwt>
<pdfrwt beam="2">  1       21 0.28057620E+00 0.10186621E+04</pdfrwt>
<totfact> 0.14128217E+01</totfact>
</mgrwt>
</event>
<event>
 8    1  0.7208583E-006  0.1079926E+04  0.7818608E-02  0.8703551E-01
         21   -1    0    0  501  502  0.00000000000E+00  0.00000000000E+00  0.11060192080E+04  0.11060192080E+04  0.00000000000E+00 0. -1.
         21   -1    0    0  502  503 -0.00000000000E+00 -0.00000000000E+00 -0.11553946044E+04  0.11553946044E+04  0.00000000000E+00 0. -1.
    9000010    2    1    2  501    0  0.27604476252E+03  0.28756228821E+03 -0.36360862606E+03  0.11366991826E+04  0.10004903889E+04 0.  0.
   -9000010    2    1    2    0  503 -0.27604476252E+03 -0.28756228821E+03  0.31423322967E+03  0.11247146297E+04  0.10036671237E+04 0.  0.
        -13    1    3    3    0    0  0.58043054916E+03  0.12435073358E+03  0.52509187423E+02  0.59591941844E+03  0.10566000000E+00 0.  1.
          4    1    3    3  501    0 -0.30438578664E+03  0.16321155463E+03 -0.41611781348E+03  0.54077976420E+03  0.00000000000E+00 0.  1.
         13    1    4    4    0    0 -0.43511849476E+03 -0.20428884023E+03  0.61126640792E+03  0.77763016103E+03  0.10566000000E+00 0. -1.
         -4    1    4    4    0  503  0.15907373224E+03 -0.83273447983E+02 -0.29703317825E+03  0.34708446869E+03  0.00000000000E+00 0. -1.
<mgrwt>
<rscale>  2 0.10791874E+04</rscale>
<asrwt>0</asrwt>
<pdfrwt beam="1">  1       21 0.17015680E+00 0.10799261E+04</pdfrwt>
<pdfrwt beam="2">  1       21 0.17775302E+00 0.10799261E+04</pdfrwt>
<totfact> 0.18080204E+01</totfact>
</mgrwt>
</event>
<event>
 8    1  0.7208583E-006  0.1042738E+04  0.7818608E-02  0.8735848E-01
         21   -1    0    0  503  502  0.00000000000E+00  0.00000000000E+00  0.56897478383E+03  0.56897478383E+03  0.00000000000E+00 0.  1.
         21   -1    0    0  501  503 -0.00000000000E+00 -0.00000000000E+00 -0.19468586726E+04  0.19468586726E+04  0.00000000000E+00 0.  1.
    9000010    2    1    2  501    0  0.26173254672E+03 -0.18872155142E+02 -0.86687888613E+03  0.13546150486E+04  0.10072948141E+04 0.  0.
   -9000010    2    1    2    0  502 -0.26173254672E+03  0.18872155142E+02 -0.51100500268E+03  0.11612184078E+04  0.10091788710E+04 0.  0.
        -13    1    3    3    0    0  0.53299206322E+03 -0.32090469440E+03 -0.62597336640E+03  0.88255483056E+03  0.10566000000E+00 0.  1.
          4    1    3    3  501    0 -0.27125951650E+03  0.30203253926E+03 -0.24090551973E+03  0.47206021809E+03  0.00000000000E+00 0.  1.
         13    1    4    4    0    0 -0.14429076466E+03  0.18369785167E+03 -0.78588706859E+03  0.81986780716E+03  0.10566000000E+00 0. -1.
         -4    1    4    4    0  502 -0.11744178206E+03 -0.16482569653E+03  0.27488206591E+03  0.34135060066E+03  0.00000000000E+00 0. -1.
<mgrwt>
<rscale>  2 0.10422817E+04</rscale>
<asrwt>0</asrwt>
<pdfrwt beam="1">  1       21 0.87534581E-01 0.10427378E+04</pdfrwt>
<pdfrwt beam="2">  1       21 0.29951672E+00 0.10427378E+04</pdfrwt>
<totfact> 0.14952145E+01</totfact>
</mgrwt>
</event>
<event>
 8    1  0.7208583E-006  0.1094182E+04  0.7818608E-02  0.8692788E-01
         21   -1    0    0  501  502  0.00000000000E+00  0.00000000000E+00  0.20074046247E+04  0.20074046247E+04  0.00000000000E+00 0. -1.
         21   -1    0    0  502  503 -0.00000000000E+00 -0.00000000000E+00 -0.60730170395E+03  0.60730170395E+03  0.00000000000E+00 0. -1.
    9000010    2    1    2  501    0  0.25530622987E+03  0.31538074466E+03  0.49094788624E+03  0.11992769298E+04  0.10161638855E+04 0.  0.
   -9000010    2    1    2    0  503 -0.25530622987E+03 -0.31538074466E+03  0.90915503450E+03  0.14154293989E+04  0.10060970238E+04 0.  0.
        -13    1    3    3    0    0 -0.25882702580E+03 -0.20644528858E+03  0.27021542558E+02  0.33217655153E+03  0.10566000000E+00 0.  1.
          4    1    3    3  501    0  0.51413325567E+03  0.52182603324E+03  0.46392634368E+03  0.86710037822E+03  0.00000000000E+00 0.  1.
         13    1    4    4    0    0 -0.61023943756E+02 -0.61739586471E+03  0.25819608377E+03  0.67198720546E+03  0.10566000000E+00 0. -1.
         -4    1    4    4    0  503 -0.19428228611E+03  0.30201512005E+03  0.65095895072E+03  0.74344219342E+03  0.00000000000E+00 0. -1.
<mgrwt>
<rscale>  2 0.10918393E+04</rscale>
<asrwt>0</asrwt>
<pdfrwt beam="1">  1       21 0.30883148E+00 0.10941825E+04</pdfrwt>
<pdfrwt beam="2">  1       21 0.93431032E-01 0.10941825E+04</pdfrwt>
<totfact> 0.10748389E+01</totfact>
</mgrwt>
</event>
<event>
 8    1  0.7208583E-006  0.1150318E+04  0.7818608E-02  0.8645284E-01
         21   -1    0    0  503  502  0.00000000000E+00  0.00000000000E+00  0.13340086948E+04  0.13340086948E+04  0.00000000000E+00 0. -1.
         21   -1    0    0  501  503 -0.00000000000E+00 -0.00000000000E+00 -0.13591095422E+04  0.13591095422E+04  0.00000000000E+00 0. -1.
    9000010    2    1    2  501    0 -0.32451589448E+03 -0.46893661160E+03 -0.71386486608E+03  0.13523620973E+04  0.99702963035E+03 0.  0.
   -9000010    2    1    2    0  502  0.32451589448E+03  0.46893661160E+03  0.68876401874E+03  0.13407561397E+04  0.99900902952E+03 0.  0.
        -13    1    3    3    0    0 -0.10134511444E+03  0.31292535063E+03 -0.27289511138E+03  0.42739309806E+03  0.10566000000E+00 0.  1.
          4    1    3    3  501    0 -0.22317078004E+03 -0.78186196223E+03 -0.44096975469E+03  0.92496899926E+03  0.00000000000E+00 0.  1.
         13    1    4    4    0    0  0.29632567179E+02 -0.56713051163E+02 -0.23178188895E+03  0.24045231215E+03  0.10566000000E+00 0. -1.
         -4    1    4    4    0  502  0.29488332730E+03  0.52564966276E+03  0.92054590769E+03  0.11003038275E+04  0.00000000000E+00 0. -1.
<mgrwt>
<rscale>  2 0.11498880E+04</rscale>
<asrwt>0</asrwt>
<pdfrwt beam="1">  1       21 0.20523211E+00 0.11503178E+04</pdfrwt>
<pdfrwt beam="2">  1       21 0.20909377E+00 0.11503178E+04</pdfrwt>
<totfact> 0.52477082E+00</totfact>
</mgrwt>
</event>
<event>
 8    1  0.7208583E-006  0.1019543E+04  0.7818608E-02  0.8760075E-01
         21   -1    0    0  503  502  0.00000000000E+00  0.00000000000E+00  0.87584290246E+03  0.87584290246E+03  0.00000000000E+00 0. -1.
         21   -1    0    0  501  503 -0.00000000000E+00 -0.00000000000E+00 -0.11985494100E+04  0.11985494100E+04  0.00000000000E+00 0. -1.
    9000010    2    1    2  501    0  0.71496108931E+02 -0.13185389275E+02  0.37687756192E+01  0.10038535927E+04  0.10012104094E+04 0.  0.
   -9000010    2    1    2    0  502 -0.71496108931E+02  0.13185389275E+02 -0.32647528316E+03  0.10705387197E+04  0.10169471431E+04 0.  0.
        -13    1    3    3    0    0  0.13132370558E+02  0.49084186417E+03  0.54000973928E+02  0.49397804722E+03  0.10566000000E+00 0.  1.
          4    1    3    3  501    0  0.58363738373E+02 -0.50402725345E+03 -0.50232198309E+02  0.50987554552E+03  0.00000000000E+00 0.  1.
         13    1    4    4    0    0  0.11929437461E+03  0.22120129107E+03 -0.61654636275E+03  0.66580071160E+03  0.10566000000E+00 0. -1.
         -4    1    4    4    0  502 -0.19079048355E+03 -0.20801590179E+03  0.29007107958E+03  0.40473800812E+03  0.00000000000E+00 0. -1.
<mgrwt>
<rscale>  2 0.10155957E+04</rscale>
<asrwt>0</asrwt>
<pdfrwt beam="1">  1       21 0.13474506E+00 0.10195426E+04</pdfrwt>
<pdfrwt beam="2">  1       21 0.18439222E+00 0.10195426E+04</pdfrwt>
<totfact> 0.33348116E+01</totfact>
</mgrwt>
</event>
<event>
 8    1  0.7208583E-006  0.1032780E+04  0.7818608E-02  0.8751558E-01
         21   -1    0    0  503  502  0.00000000000E+00  0.00000000000E+00  0.17356675323E+04  0.17356675323E+04  0.00000000000E+00 0.  1.
         21   -1    0    0  501  503 -0.00000000000E+00 -0.00000000000E+00 -0.92906280527E+03  0.92906280527E+03  0.00000000000E+00 0.  1.
    9000010    2    1    2  501    0 -0.17246709107E+03  0.72549602940E+02 -0.39824109803E+03  0.10778188397E+04  0.98391520807E+03 0.  0.
   -9000010    2    1    2    0  502  0.17246709107E+03 -0.72549602940E+02  0.12048458250E+04  0.15869114978E+04  0.10156900597E+04 0.  0.
        -13    1    3    3    0    0 -0.29184979979E+01  0.32077662577E+03  0.22094783657E+03  0.38951780309E+03  0.10566000000E+00 0.  1.
          4    1    3    3  501    0 -0.16954859307E+03 -0.24822702283E+03 -0.61918893460E+03  0.68830103662E+03  0.00000000000E+00 0.  1.
         13    1    4    4    0    0  0.23578868878E+03  0.38006200265E+03  0.98071934249E+03  0.10778932561E+04  0.10566000000E+00 0. -1.
         -4    1    4    4    0  502 -0.63321597712E+02 -0.45261160559E+03  0.22412648253E+03  0.50901824173E+03  0.00000000000E+00 0. -1.
<mgrwt>
<rscale>  2 0.10248818E+04</rscale>
<asrwt>0</asrwt>
<pdfrwt beam="1">  1       21 0.26702577E+00 0.10327801E+04</pdfrwt>
<pdfrwt beam="2">  1       21 0.14293274E+00 0.10327801E+04</pdfrwt>
<totfact> 0.66660893E+00</totfact>
</mgrwt>
</event>
<event>
 8    1  0.7208583E-006  0.1028811E+04  0.7818608E-02  0.8748403E-01
         21   -1    0    0  501  502  0.00000000000E+00  0.00000000000E+00  0.10113865287E+04  0.10113865287E+04  0.00000000000E+00 0. -1.
         21   -1    0    0  502  503 -0.00000000000E+00 -0.00000000000E+00 -0.18031259779E+04  0.18031259779E+04  0.00000000000E+00 0. -1.
    9000010    2    1    2  501    0 -0.88267222432E+02 -0.22810385263E+03 -0.13087820387E+04  0.16647412174E+04  0.99931497839E+03 0.  0.
   -9000010    2    1    2    0  503  0.88267222432E+02  0.22810385263E+03  0.51704258957E+03  0.11497712892E+04  0.99740588923E+03 0.  0.
        -13    1    3    3    0    0 -0.54093909819E+03 -0.16730478515E+03 -0.63546877173E+03  0.85113252205E+03  0.10566000000E+00 0.  1.
          4    1    3    3  501    0  0.45267187576E+03 -0.60799067480E+02 -0.67331326699E+03  0.81360869539E+03  0.00000000000E+00 0.  1.
         13    1    4    4    0    0  0.52254199983E+03  0.14214394352E+02  0.15486746780E+03  0.54519366682E+03  0.10566000000E+00 0. -1.
         -4    1    4    4    0  503 -0.43427477739E+03  0.21388945828E+03  0.36217512177E+03  0.60457762237E+03  0.00000000000E+00 0. -1.
<mgrwt>
<rscale>  2 0.10283475E+04</rscale>
<asrwt>0</asrwt>
<pdfrwt beam="1">  1       21 0.15559793E+00 0.10288114E+04</pdfrwt>
<pdfrwt beam="2">  1       21 0.27740399E+00 0.10288114E+04</pdfrwt>
<totfact> 0.43331547E+00</totfact>
</mgrwt>
</event>
<event>
 8    1  0.7208583E-006  0.1019515E+04  0.7818608E-02  0.8760002E-01
         21   -1    0    0  503  502  0.00000000000E+00  0.00000000000E+00  0.45717841392E+03  0.45717841392E+03  0.00000000000E+00 0.  1.
         21   -1    0    0  501  503 -0.00000000000E+00 -0.00000000000E+00 -0.22480330630E+04  0.22480330630E+04  0.00000000000E+00 0.  1.
    9000010    2    1    2  501    0 -0.85884958037E+02 -0.66016957921E+02 -0.97155765487E+03  0.13972897459E+04  0.99837863182E+03 0.  0.
   -9000010    2    1    2    0  502  0.85884958037E+02  0.66016957921E+02 -0.81929699422E+03  0.13079217310E+04  0.10137441615E+04 0.  0.
        -13    1    3    3    0    0  0.31298645555E+03  0.19588232135E+03 -0.81559527734E+03  0.89527988515E+03  0.10566000000E+00 0.  1.
          4    1    3    3  501    0 -0.39887141359E+03 -0.26189927927E+03 -0.15596237753E+03  0.50200986073E+03  0.00000000000E+00 0.  1.
         13    1    4    4    0    0  0.32736254223E+03  0.39745190022E+02  0.10982463046E+03  0.34757355308E+03  0.10566000000E+00 0. -1.
         -4    1    4    4    0  502 -0.24147758419E+03  0.26271767899E+02 -0.92912162468E+03  0.96034817796E+03  0.00000000000E+00 0. -1.
<mgrwt>
<rscale>  2 0.10156745E+04</rscale>
<asrwt>0</asrwt>
<pdfrwt beam="1">  1       21 0.70335143E-01 0.10195154E+04</pdfrwt>
<pdfrwt beam="2">  1       21 0.34585123E+00 0.10195154E+04</pdfrwt>
<totfact> 0.12106577E+01</totfact>
</mgrwt>
</event>
<event>
 8    1  0.7208583E-006  0.9961539E+03  0.7818608E-02  0.8839088E-01
         21   -1    0    0  503  502  0.00000000000E+00  0.00000000000E+00  0.33003263528E+03  0.33003263528E+03  0.00000000000E+00 0.  1.
         21   -1    0    0  501  503 -0.00000000000E+00 -0.00000000000E+00 -0.23878375092E+04  0.23878375092E+04  0.00000000000E+00 0.  1.
    9000010    2    1    2  501    0 -0.13618110669E+03 -0.14127415090E+01 -0.76250472709E+03  0.10838183899E+04  0.75809072921E+03 0.  0.
   -9000010    2    1    2    0  502  0.13618110669E+03  0.14127415090E+01 -0.12953001468E+04  0.16340517546E+04  0.98680057598E+03 0.  0.
        -13    1    3    3    0    0  0.13240421688E+03 -0.88190545066E+02 -0.78472572195E+03  0.80068902748E+03  0.10566000000E+00 0.  1.
          4    1    3    3  501    0 -0.26858532358E+03  0.86777803557E+02  0.22220994854E+02  0.28312936238E+03  0.00000000000E+00 0.  1.
         13    1    4    4    0    0  0.54516128437E+03 -0.12891803845E+03 -0.82608086968E+03  0.99811337083E+03  0.10566000000E+00 0. -1.
         -4    1    4    4    0  502 -0.40898017767E+03  0.13033077996E+03 -0.46921927716E+03  0.63593838381E+03  0.00000000000E+00 0. -1.
<mgrwt>
<rscale>  2 0.93411308E+03</rscale>
<asrwt>0</asrwt>
<pdfrwt beam="1">  1       21 0.50774254E-01 0.99615394E+03</pdfrwt>
<pdfrwt beam="2">  1       21 0.36735960E+00 0.99615394E+03</pdfrwt>
<totfact> 0.18166118E+01</totfact>
</mgrwt>
</event>
<event>
 8    1  0.7208583E-006  0.1041927E+04  0.7818608E-02  0.8736789E-01
         21   -1    0    0  501  502  0.00000000000E+00  0.00000000000E+00  0.10961812945E+04  0.10961812945E+04  0.00000000000E+00 0. -1.
         21   -1    0    0  502  503 -0.00000000000E+00 -0.00000000000E+00 -0.10388280277E+04  0.10388280277E+04  0.00000000000E+00 0. -1.
    9000010    2    1    2  501    0  0.21110534819E+03  0.23875261551E+03  0.26544529706E+03  0.10725053597E+04  0.98905928105E+03 0.  0.
   -9000010    2    1    2    0  503 -0.21110534819E+03 -0.23875261551E+03 -0.20809203024E+03  0.10625039625E+04  0.99198996856E+03 0.  0.
        -13    1    3    3    0    0  0.41529870345E+03  0.36642188519E+03 -0.16618875686E+03  0.57823587324E+03  0.10566000000E+00 0.  1.
          4    1    3    3  501    0 -0.20419335526E+03 -0.12766926968E+03  0.43163405392E+03  0.49426948647E+03  0.00000000000E+00 0.  1.
         13    1    4    4    0    0 -0.53284561442E+03  0.13401791622E+03 -0.10362601773E+03  0.55912754662E+03  0.10566000000E+00 0. -1.
         -4    1    4    4    0  503  0.32174026623E+03 -0.37277053173E+03 -0.10446601251E+03  0.50337641583E+03  0.00000000000E+00 0. -1.
<mgrwt>
<rscale>  2 0.10412291E+04</rscale>
<asrwt>0</asrwt>
<pdfrwt beam="1">  1       21 0.16864328E+00 0.10419272E+04</pdfrwt>
<pdfrwt beam="2">  1       21 0.15981970E+00 0.10419272E+04</pdfrwt>
<totfact> 0.26580126E+01</totfact>
</mgrwt>
</event>
<event>
 8    1  0.7208583E-006  0.1115367E+04  0.7818608E-02  0.8674474E-01
         21   -1    0    0  501  502  0.00000000000E+00  0.00000000000E+00  0.29013738188E+04  0.29013738188E+04  0.00000000000E+00 0.  1.
         21   -1    0    0  502  503 -0.00000000000E+00 -0.00000000000E+00 -0.66050742324E+03  0.66050742324E+03  0.00000000000E+00 0.  1.
    9000010    2    1    2  501    0 -0.47367796408E+03  0.65059632112E+02  0.21787546674E+04  0.24447864413E+04  0.10007023899E+04 0.  0.
   -9000010    2    1    2    0  503  0.47367796408E+03 -0.65059632112E+02  0.62111728164E+02  0.11170948008E+04  0.10076901100E+04 0.  0.
        -13    1    3    3    0    0 -0.31681765528E+03  0.20566498280E+03  0.15206685382E+03  0.40718036672E+03  0.10566000000E+00 0.  1.
          4    1    3    3  501    0 -0.15686030880E+03 -0.14060535069E+03  0.20266878136E+04  0.20376060745E+04  0.00000000000E+00 0.  1.
         13    1    4    4    0    0  0.49975527350E+03 -0.39635801208E+03  0.30347949947E+03  0.70636734415E+03  0.10566000000E+00 0. -1.
         -4    1    4    4    0  503 -0.26077309416E+02  0.33129837997E+03 -0.24136777130E+03  0.41072745667E+03  0.00000000000E+00 0. -1.
<mgrwt>
<rscale>  2 0.11137861E+04</rscale>
<asrwt>0</asrwt>
<pdfrwt beam="1">  1       21 0.44636520E+00 0.11153667E+04</pdfrwt>
<pdfrwt beam="2">  1       21 0.10161653E+00 0.11153667E+04</pdfrwt>
<totfact> 0.94390084E-01</totfact>
</mgrwt>
</event>
<event>
 8    1  0.7208583E-006  0.1037372E+04  0.7818608E-02  0.8745368E-01
         21   -1    0    0  501  502  0.00000000000E+00  0.00000000000E+00  0.24807442549E+04  0.24807442549E+04  0.00000000000E+00 0.  1.
         21   -1    0    0  502  503 -0.00000000000E+00 -0.00000000000E+00 -0.80846118830E+03  0.80846118830E+03  0.00000000000E+00 0.  1.
    9000010    2    1    2  501    0  0.12163257226E+03 -0.60414632618E+02  0.19744039567E+04  0.22303387905E+04  0.10284433506E+04 0.  0.
   -9000010    2    1    2    0  503 -0.12163257226E+03  0.60414632618E+02 -0.30212089015E+03  0.10588666527E+04  0.10057222010E+04 0.  0.
        -13    1    3    3    0    0 -0.18134622021E+03 -0.20263199213E+03  0.49308555934E+02  0.27636483255E+03  0.10566000000E+00 0.  1.
          4    1    3    3  501    0  0.30297879247E+03  0.14221735951E+03  0.19250954008E+04  0.19539739579E+04  0.00000000000E+00 0.  1.
         13    1    4    4    0    0 -0.14389000488E+03  0.80825365233E+02  0.36001614795E+03  0.39604129976E+03  0.10566000000E+00 0. -1.
         -4    1    4    4    0  503  0.22257432622E+02 -0.20410732615E+02 -0.66213703810E+03  0.66282535296E+03  0.00000000000E+00 0. -1.
<mgrwt>
<rscale>  2 0.10316950E+04</rscale>
<asrwt>0</asrwt>
<pdfrwt beam="1">  1       21 0.38165296E+00 0.10373717E+04</pdfrwt>
<pdfrwt beam="2">  1       21 0.12437865E+00 0.10373717E+04</pdfrwt>
<totfact> 0.15545633E+00</totfact>
</mgrwt>
</event>
<event>
 8    1  0.7208583E-006  0.1026579E+04  0.7818608E-02  0.8777848E-01
         21   -1    0    0  501  502  0.00000000000E+00  0.00000000000E+00  0.11574260546E+04  0.11574260546E+04  0.00000000000E+00 0. -1.
         21   -1    0    0  502  503 -0.00000000000E+00 -0.00000000000E+00 -0.81990423588E+03  0.81990423588E+03  0.00000000000E+00 0. -1.
    9000010    2    1    2  501    0 -0.10584721479E+03 -0.10489922133E+02  0.58331711701E+02  0.91346400365E+03  0.90537297620E+03 0.  0.
   -9000010    2    1    2    0  503  0.10584721479E+03  0.10489922133E+02  0.27919010699E+03  0.10638662868E+04  0.10210537150E+04 0.  0.
        -13    1    3    3    0    0  0.37320774970E+03  0.54135278580E+02  0.17568501025E+03  0.41602870912E+03  0.10566000000E+00 0.  1.
          4    1    3    3  501    0 -0.47905496448E+03 -0.64625200713E+02 -0.11735329855E+03  0.49743529453E+03  0.00000000000E+00 0.  1.
         13    1    4    4    0    0  0.15340235629E+03 -0.42322799196E+03 -0.12700018929E+03  0.46774274483E+03  0.10566000000E+00 0. -1.
         -4    1    4    4    0  503 -0.47555141505E+02  0.43371791410E+03  0.40619029627E+03  0.59612354196E+03  0.00000000000E+00 0. -1.
<mgrwt>
<rscale>  2 0.99654131E+03</rscale>
<asrwt>0</asrwt>
<pdfrwt beam="1">  1       21 0.17806555E+00 0.10265790E+04</pdfrwt>
<pdfrwt beam="2">  1       21 0.12613911E+00 0.10265790E+04</pdfrwt>
<totfact> 0.45360399E+01</totfact>
</mgrwt>
</event>
<event>
 8    1  0.7208583E-006  0.1114335E+04  0.7818608E-02  0.8679694E-01
         21   -1    0    0  503  502  0.00000000000E+00  0.00000000000E+00  0.11130824326E+04  0.11130824326E+04  0.00000000000E+00 0. -1.
         21   -1    0    0  501  503 -0.00000000000E+00 -0.00000000000E+00 -0.12192724754E+04  0.12192724754E+04  0.00000000000E+00 0. -1.
    9000010    2    1    2  501    0  0.27062731533E+03  0.41351993678E+03 -0.43550700992E+03  0.11964149247E+04  0.99875143779E+03 0.  0.
   -9000010    2    1    2    0  502 -0.27062731533E+03 -0.41351993678E+03  0.32931696709E+03  0.11359399833E+04  0.96833470399E+03 0.  0.
        -13    1    3    3    0    0 -0.64523872686E+02  0.55756953462E+03 -0.57715698277E+03  0.80508217593E+03  0.10566000000E+00 0.  1.
          4    1    3    3  501    0  0.33515118802E+03 -0.14404959784E+03  0.14164997285E+03  0.39133274879E+03  0.00000000000E+00 0.  1.
         13    1    4    4    0    0  0.15010756924E+03 -0.51716798305E+03 -0.74489151015E+02  0.54363926442E+03  0.10566000000E+00 0. -1.
         -4    1    4    4    0  502 -0.42073488457E+03  0.10364804627E+03  0.40380611810E+03  0.59230071890E+03  0.00000000000E+00 0. -1.
<mgrwt>
<rscale>  2 0.11074774E+04</rscale>
<asrwt>0</asrwt>
<pdfrwt beam="1">  1       21 0.17124345E+00 0.11143349E+04</pdfrwt>
<pdfrwt beam="2">  1       21 0.18758038E+00 0.11143349E+04</pdfrwt>
<totfact> 0.14622937E+01</totfact>
</mgrwt>
</event>
<event>
 8    1  0.7208583E-006  0.1091769E+04  0.7818608E-02  0.8703420E-01
         21   -1    0    0  501  502  0.00000000000E+00  0.00000000000E+00  0.93993513451E+03  0.93993513451E+03  0.00000000000E+00 0. -1.
         21   -1    0    0  502  503 -0.00000000000E+00 -0.00000000000E+00 -0.17540802563E+04  0.17540802563E+04  0.00000000000E+00 0. -1.
    9000010    2    1    2  501    0 -0.34655805671E+03  0.19600061712E+03 -0.11493160967E+04  0.15519565691E+04  0.96391025188E+03 0.  0.
   -9000010    2    1    2    0  503  0.34655805671E+03 -0.19600061712E+03  0.33517097489E+03  0.11420588217E+04  0.10165825305E+04 0.  0.
        -13    1    3    3    0    0 -0.52621468551E+03  0.46948411559E+02 -0.12017095285E+04  0.13127116403E+04  0.10566000000E+00 0.  1.
          4    1    3    3  501    0  0.17965662881E+03  0.14905220556E+03  0.52393431788E+02  0.23924492879E+03  0.00000000000E+00 0.  1.
         13    1    4    4    0    0 -0.15952080272E+03 -0.47263259894E+03  0.58073192053E+02  0.50219614383E+03  0.10566000000E+00 0. -1.
         -4    1    4    4    0  503  0.50607885942E+03  0.27663198182E+03  0.27709778283E+03  0.63986267790E+03  0.00000000000E+00 0. -1.
<mgrwt>
<rscale>  2 0.10793410E+04</rscale>
<asrwt>0</asrwt>
<pdfrwt beam="1">  1       21 0.14460541E+00 0.10917686E+04</pdfrwt>
<pdfrwt beam="2">  1       21 0.26985850E+00 0.10917686E+04</pdfrwt>
<totfact> 0.60555941E+00</totfact>
</mgrwt>
</event>
<event>
 8    1  0.7208583E-006  0.1031979E+04  0.7818608E-02  0.8748321E-01
         21   -1    0    0  501  502  0.00000000000E+00  0.00000000000E+00  0.12008611423E+04  0.12008611423E+04  0.00000000000E+00 0. -1.
         21   -1    0    0  502  503 -0.00000000000E+00 -0.00000000000E+00 -0.87794931532E+03  0.87794931532E+03  0.00000000000E+00 0. -1.
    9000010    2    1    2  501    0 -0.17800371116E+03  0.15449318385E+03  0.97895306801E+02  0.10225848434E+04  0.99022361409E+03 0.  0.
   -9000010    2    1    2    0  503  0.17800371116E+03 -0.15449318385E+03  0.22501652014E+03  0.10562256141E+04  0.10047022686E+04 0.  0.
        -13    1    3    3    0    0  0.29279301702E+03  0.34618853275E+03  0.21368908728E+03  0.50123576111E+03  0.10566000000E+00 0.  1.
          4    1    3    3  501    0 -0.47079672818E+03 -0.19169534890E+03 -0.11579378048E+03  0.52134908234E+03  0.00000000000E+00 0.  1.
         13    1    4    4    0    0  0.19343936423E+03  0.40471382313E+03 -0.11855362872E+02  0.44872333019E+03  0.10566000000E+00 0. -1.
         -4    1    4    4    0  503 -0.15435653069E+02 -0.55920700698E+03  0.23687188301E+03  0.60750228394E+03  0.00000000000E+00 0. -1.
<mgrwt>
<rscale>  2 0.10284379E+04</rscale>
<asrwt>0</asrwt>
<pdfrwt beam="1">  1       21 0.18474787E+00 0.10319787E+04</pdfrwt>
<pdfrwt beam="2">  1       21 0.13506913E+00 0.10319787E+04</pdfrwt>
<totfact> 0.32804002E+01</totfact>
</mgrwt>
</event>
<event>
 8    1  0.7208583E-006  0.1011934E+04  0.7818608E-02  0.8765663E-01
         21   -1    0    0  501  502  0.00000000000E+00  0.00000000000E+00  0.12409156726E+04  0.12409156726E+04  0.00000000000E+00 0.  1.
         21   -1    0    0  502  503 -0.00000000000E+00 -0.00000000000E+00 -0.82298063379E+03  0.82298063379E+03  0.00000000000E+00 0.  1.
    9000010    2    1    2  501    0  0.16617295115E+03 -0.21664732950E+02  0.12571456391E+03  0.10197128837E+04  0.99796162419E+03 0.  0.
   -9000010    2    1    2    0  503 -0.16617295115E+03  0.21664732950E+02  0.29222047486E+03  0.10441834226E+04  0.98835388590E+03 0.  0.
        -13    1    3    3    0    0  0.36045798841E+03 -0.42377632062E+03  0.13707900631E+03  0.57298079939E+03  0.10566000000E+00 0.  1.
          4    1    3    3  501    0 -0.19428503726E+03  0.40211158767E+03 -0.11364442406E+02  0.44673208436E+03  0.00000000000E+00 0.  1.
         13    1    4    4    0    0  0.39096209292E+03 -0.44346699382E+02 -0.34452280875E+02  0.39497463041E+03  0.10566000000E+00 0. -1.
         -4    1    4    4    0  503 -0.55713504407E+03  0.66011432332E+02  0.32667275574E+03  0.64920879220E+03  0.00000000000E+00 0. -1.
<mgrwt>
<rscale>  2 0.10095571E+04</rscale>
<asrwt>0</asrwt>
<pdfrwt beam="1">  1       21 0.19091010E+00 0.10119339E+04</pdfrwt>
<pdfrwt beam="2">  1       21 0.12661241E+00 0.10119339E+04</pdfrwt>
<totfact> 0.35460845E+01</totfact>
</mgrwt>
</event>
<event>
 8    1  0.7208583E-006  0.1052832E+04  0.7818608E-02  0.8765823E-01
         21   -1    0    0  503  502  0.00000000000E+00  0.00000000000E+00  0.79879468943E+03  0.79879468943E+03  0.00000000000E+00 0.  1.
         21   -1    0    0  501  503 -0.00000000000E+00 -0.00000000000E+00 -0.12569754133E+04  0.12569754133E+04  0.00000000000E+00 0.  1.
    9000010    2    1    2  501    0  0.19181708739E+02  0.32572915514E+03 -0.49947521825E+03  0.11653025030E+04  0.10009930116E+04 0.  0.
   -9000010    2    1    2    0  502 -0.19181708739E+02 -0.32572915514E+03  0.41294494330E+02  0.89046759980E+03  0.82750219973E+03 0.  0.
        -13    1    3    3    0    0  0.22686922216E+03  0.39629445889E+03 -0.72107358964E+03  0.85350224074E+03  0.10566000000E+00 0.  1.
          4    1    3    3  501    0 -0.20768751342E+03 -0.70565303750E+02  0.22159837139E+03  0.31180026223E+03  0.00000000000E+00 0.  1.
         13    1    4    4    0    0  0.12361513496E+03 -0.72034616852E+02  0.40213739781E+03  0.42683039430E+03  0.10566000000E+00 0. -1.
         -4    1    4    4    0  502 -0.14279684370E+03 -0.25369453829E+03 -0.36084290348E+03  0.46363720550E+03  0.00000000000E+00 0. -1.
<mgrwt>
<rscale>  2 0.10093850E+04</rscale>
<asrwt>0</asrwt>
<pdfrwt beam="1">  1       21 0.12289149E+00 0.10528316E+04</pdfrwt>
<pdfrwt beam="2">  1       21 0.19338083E+00 0.10528316E+04</pdfrwt>
<totfact> 0.36568086E+01</totfact>
</mgrwt>
</event>
<event>
 8    1  0.7208583E-006  0.1008565E+04  0.7818608E-02  0.8767112E-01
         21   -1    0    0  503  502  0.00000000000E+00  0.00000000000E+00  0.69726543916E+03  0.69726543916E+03  0.00000000000E+00 0.  1.
         21   -1    0    0  501  503 -0.00000000000E+00 -0.00000000000E+00 -0.14556378506E+04  0.14556378506E+04  0.00000000000E+00 0.  1.
    9000010    2    1    2  501    0 -0.85528481185E+00  0.53325008914E+02 -0.38651136050E+03  0.10800899903E+04  0.10071539442E+04 0.  0.
   -9000010    2    1    2    0  502  0.85528481185E+00 -0.53325008914E+02 -0.37186105093E+03  0.10728132994E+04  0.10048897682E+04 0.  0.
        -13    1    3    3    0    0 -0.12084981114E+03  0.49896057214E+03 -0.34105645377E+03  0.61634880160E+03  0.10566000000E+00 0.  1.
          4    1    3    3  501    0  0.11999452633E+03 -0.44563556323E+03 -0.45454906729E+02  0.46374118871E+03  0.00000000000E+00 0.  1.
         13    1    4    4    0    0  0.31021604768E+03 -0.40959657563E+03 -0.30154433767E+03  0.59576199086E+03  0.10566000000E+00 0. -1.
         -4    1    4    4    0  502 -0.30936076287E+03  0.35627156672E+03 -0.70316713256E+02  0.47705130858E+03  0.00000000000E+00 0. -1.
<mgrwt>
<rscale>  2 0.10079993E+04</rscale>
<asrwt>0</asrwt>
<pdfrwt beam="1">  1       21 0.10727161E+00 0.10085650E+04</pdfrwt>
<pdfrwt beam="2">  1       21 0.22394428E+00 0.10085650E+04</pdfrwt>
<totfact> 0.31251550E+01</totfact>
</mgrwt>
</event>
<event>
 8    1  0.7208583E-006  0.1016982E+04  0.7818608E-02  0.8773658E-01
         21   -1    0    0  501  502  0.00000000000E+00  0.00000000000E+00  0.79673585641E+03  0.79673585641E+03  0.00000000000E+00 0. -1.
         21   -1    0    0  502  503 -0.00000000000E+00 -0.00000000000E+00 -0.15821845936E+04  0.15821845936E+04  0.00000000000E+00 0. -1.
    9000010    2    1    2  501    0 -0.23325469571E+02  0.19023607137E+03  0.18604987350E+03  0.97248466160E+03  0.93508182596E+03 0.  0.
   -9000010    2    1    2    0  503  0.23325469571E+02 -0.19023607137E+03 -0.97149861069E+03  0.14064357884E+04  0.99875834713E+03 0.  0.
        -13    1    3    3    0    0 -0.31184404134E+03 -0.24668320940E+03 -0.45059809745E+02  0.40016210408E+03  0.10566000000E+00 0.  1.
          4    1    3    3  501    0  0.28851857177E+03  0.43691928077E+03  0.23110968324E+03  0.57232255753E+03  0.00000000000E+00 0.  1.
         13    1    4    4    0    0  0.49113730951E+03 -0.80531476252E+02 -0.30132705756E+03  0.58180682554E+03  0.10566000000E+00 0. -1.
         -4    1    4    4    0  503 -0.46781183994E+03 -0.10970459512E+03 -0.67017155313E+03  0.82462896287E+03  0.00000000000E+00 0. -1.
<mgrwt>
<rscale>  2 0.10009937E+04</rscale>
<asrwt>0</asrwt>
<pdfrwt beam="1">  1       21 0.12257475E+00 0.10169818E+04</pdfrwt>
<pdfrwt beam="2">  1       21 0.24341301E+00 0.10169818E+04</pdfrwt>
<totfact> 0.15517964E+01</totfact>
</mgrwt>
</event>
<event>
 8    1  0.7208583E-006  0.1196759E+04  0.7818608E-02  0.8634911E-01
         21   -1    0    0  501  502  0.00000000000E+00  0.00000000000E+00  0.22915901066E+04  0.22915901066E+04  0.00000000000E+00 0.  1.
         21   -1    0    0  502  503 -0.00000000000E+00 -0.00000000000E+00 -0.73106965631E+03  0.73106965631E+03  0.00000000000E+00 0.  1.
    9000010    2    1    2  501    0  0.41757398619E+03 -0.11572166911E+03  0.15459066686E+04  0.19550085732E+04  0.11155588530E+04 0.  0.
   -9000010    2    1    2    0  503 -0.41757398619E+03  0.11572166911E+03  0.14613781644E+02  0.10676511897E+04  0.97565668224E+03 0.  0.
        -13    1    3    3    0    0 -0.11986588365E+03  0.40624923433E+03  0.75427990285E+03  0.86506904549E+03  0.10566000000E+00 0.  1.
          4    1    3    3  501    0  0.53743986984E+03 -0.52197090344E+03  0.79162676577E+03  0.10899395277E+04  0.00000000000E+00 0.  1.
         13    1    4    4    0    0 -0.63013301865E+03 -0.24408552718E+02  0.28871267374E+03  0.69355491332E+03  0.10566000000E+00 0. -1.
         -4    1    4    4    0  503  0.21255903246E+03  0.14013022183E+03 -0.27409889210E+03  0.37409627638E+03  0.00000000000E+00 0. -1.
<mgrwt>
<rscale>  2 0.11630599E+04</rscale>
<asrwt>0</asrwt>
<pdfrwt beam="1">  1       21 0.35255232E+00 0.11967586E+04</pdfrwt>
<pdfrwt beam="2">  1       21 0.11247226E+00 0.11967586E+04</pdfrwt>
<totfact> 0.31760926E+00</totfact>
</mgrwt>
</event>
<event>
 8    1  0.7208583E-006  0.1097238E+04  0.7818608E-02  0.8691118E-01
         21   -1    0    0  503  502  0.00000000000E+00  0.00000000000E+00  0.89397385097E+03  0.89397385097E+03  0.00000000000E+00 0.  1.
         21   -1    0    0  501  503 -0.00000000000E+00 -0.00000000000E+00 -0.14716409221E+04  0.14716409221E+04  0.00000000000E+00 0.  1.
    9000010    2    1    2  501    0 -0.42458617619E+03  0.11617120228E+03  0.79653571879E+02  0.10865521124E+04  0.99019272474E+03 0.  0.
   -9000010    2    1    2    0  502  0.42458617619E+03 -0.11617120228E+03 -0.65732064301E+03  0.12790626607E+04  0.10050680042E+04 0.  0.
        -13    1    3    3    0    0 -0.30296615541E+03  0.35792981218E+03 -0.34557147288E+03  0.58251342972E+03  0.10566000000E+00 0.  1.
          4    1    3    3  501    0 -0.12162002077E+03 -0.24175860990E+03  0.42522504476E+03  0.50403868265E+03  0.00000000000E+00 0.  1.
         13    1    4    4    0    0 -0.25102937101E+03 -0.27609737699E+03 -0.37662684358E+03  0.53018232446E+03  0.10566000000E+00 0. -1.
         -4    1    4    4    0  502  0.67561554720E+03  0.15992617471E+03 -0.28069379943E+03  0.74888033624E+03  0.00000000000E+00 0. -1.
<mgrwt>
<rscale>  2 0.10938196E+04</rscale>
<asrwt>0</asrwt>
<pdfrwt beam="1">  1       21 0.13753444E+00 0.10972378E+04</pdfrwt>
<pdfrwt beam="2">  1       21 0.22640629E+00 0.10972378E+04</pdfrwt>
<totfact> 0.14589094E+01</totfact>
</mgrwt>
</event>
<event>
 8    1  0.7208583E-006  0.1044002E+04  0.7818608E-02  0.8734820E-01
         21   -1    0    0  501  502  0.00000000000E+00  0.00000000000E+00  0.15173525748E+04  0.15173525748E+04  0.00000000000E+00 0. -1.
         21   -1    0    0  502  503 -0.00000000000E+00 -0.00000000000E+00 -0.79508323505E+03  0.79508323505E+03  0.00000000000E+00 0. -1.
    9000010    2    1    2  501    0 -0.21164005309E+03  0.23659335937E+03  0.72369390334E+03  0.12684326119E+04  0.99217966894E+03 0.  0.
   -9000010    2    1    2    0  503  0.21164005309E+03 -0.23659335937E+03 -0.14245635606E+01  0.10440031980E+04  0.99457162548E+03 0.  0.
        -13    1    3    3    0    0  0.17952139478E+03  0.49372731342E+03  0.57132972533E+03  0.77615221278E+03  0.10566000000E+00 0.  1.
          4    1    3    3  501    0 -0.39116144787E+03 -0.25713395404E+03  0.15236417801E+03  0.49228039912E+03  0.00000000000E+00 0.  1.
         13    1    4    4    0    0 -0.27504174178E+03  0.17963973148E+03 -0.18603398647E+03  0.37752754619E+03  0.10566000000E+00 0. -1.
         -4    1    4    4    0  503  0.48668179486E+03 -0.41623309086E+03  0.18460942291E+03  0.66647565177E+03  0.00000000000E+00 0. -1.
<mgrwt>
<rscale>  2 0.10434321E+04</rscale>
<asrwt>0</asrwt>
<pdfrwt beam="1">  1       21 0.23343886E+00 0.10440022E+04</pdfrwt>
<pdfrwt beam="2">  1       21 0.12232050E+00 0.10440022E+04</pdfrwt>
<totfact> 0.18366104E+01</totfact>
</mgrwt>
</event>
<event>
 8    1  0.7208583E-006  0.1053534E+04  0.7818608E-02  0.8727449E-01
         21   -1    0    0  501  502  0.00000000000E+00  0.00000000000E+00  0.29296810227E+04  0.29296810227E+04  0.00000000000E+00 0. -1.
         21   -1    0    0  502  503 -0.00000000000E+00 -0.00000000000E+00 -0.10669554467E+04  0.10669554467E+04  0.00000000000E+00 0. -1.
    9000010    2    1    2  501    0  0.77302774092E+02 -0.29584891967E+03  0.25402812174E+04  0.27500839117E+04  0.10081818068E+04 0.  0.
   -9000010    2    1    2    0  503 -0.77302774092E+02  0.29584891967E+03 -0.67755564142E+03  0.12465525577E+04  0.10006544507E+04 0.  0.
        -13    1    3    3    0    0 -0.36588079320E+03 -0.39707543827E+03  0.91508730402E+03  0.10625076205E+04  0.10566000000E+00 0.  1.
          4    1    3    3  501    0  0.44318356729E+03  0.10122651859E+03  0.16251939134E+04  0.16875762912E+04  0.00000000000E+00 0.  1.
         13    1    4    4    0    0  0.18223799493E+03  0.48692209522E+03 -0.27079714096E+02  0.52061227001E+03  0.10566000000E+00 0. -1.
         -4    1    4    4    0  503 -0.25954076902E+03 -0.19107317554E+03 -0.65047592733E+03  0.72594028765E+03  0.00000000000E+00 0. -1.
<mgrwt>
<rscale>  2 0.10517286E+04</rscale>
<asrwt>0</asrwt>
<pdfrwt beam="1">  1       21 0.45072015E+00 0.10535335E+04</pdfrwt>
<pdfrwt beam="2">  1       21 0.16414699E+00 0.10535335E+04</pdfrwt>
<totfact> 0.22249110E-01</totfact>
</mgrwt>
</event>
<event>
 8    1  0.7208583E-006  0.1035536E+04  0.7818608E-02  0.8745243E-01
         21   -1    0    0  501  502  0.00000000000E+00  0.00000000000E+00  0.23113294887E+04  0.23113294887E+04  0.00000000000E+00 0.  1.
         21   -1    0    0  502  503 -0.00000000000E+00 -0.00000000000E+00 -0.64889264732E+03  0.64889264732E+03  0.00000000000E+00 0.  1.
    9000010    2    1    2  501    0  0.45749089040E+02  0.22073695554E+03  0.16395105132E+04  0.19391568119E+04  0.10107010614E+04 0.  0.
   -9000010    2    1    2    0  503 -0.45749089040E+02 -0.22073695554E+03  0.22926328176E+02  0.10210653241E+04  0.99560584415E+03 0.  0.
        -13    1    3    3    0    0  0.36920771566E+02  0.68389267816E+02  0.17493870828E+04  0.17511126211E+04  0.10566000000E+00 0.  1.
          4    1    3    3  501    0  0.88283174741E+01  0.15234768773E+03 -0.10987656956E+03  0.18804419078E+03  0.00000000000E+00 0.  1.
         13    1    4    4    0    0 -0.45365774858E+03 -0.35859935941E+03  0.90203046784E+02  0.58526528534E+03  0.10566000000E+00 0. -1.
         -4    1    4    4    0  503  0.40790865954E+03  0.13786240386E+03 -0.67276718609E+02  0.43580003877E+03  0.00000000000E+00 0. -1.
<mgrwt>
<rscale>  2 0.10318340E+04</rscale>
<asrwt>0</asrwt>
<pdfrwt beam="1">  1       21 0.35558915E+00 0.10355358E+04</pdfrwt>
<pdfrwt beam="2">  1       21 0.99829640E-01 0.10355358E+04</pdfrwt>
<totfact> 0.43120187E+00</totfact>
</mgrwt>
</event>
<event>
 8    1  0.7208583E-006  0.1062338E+04  0.7818608E-02  0.8721091E-01
         21   -1    0    0  503  502  0.00000000000E+00  0.00000000000E+00  0.72343139068E+03  0.72343139068E+03  0.00000000000E+00 0. -1.
         21   -1    0    0  501  503 -0.00000000000E+00 -0.00000000000E+00 -0.24645018309E+04  0.24645018309E+04  0.00000000000E+00 0. -1.
    9000010    2    1    2  501    0  0.24701687838E+03  0.20831294382E+03 -0.18431712973E+04  0.21206996714E+04  0.99783517897E+03 0.  0.
   -9000010    2    1    2    0  502 -0.24701687838E+03 -0.20831294382E+03  0.10210085709E+03  0.10672335501E+04  0.10120035794E+04 0.  0.
        -13    1    3    3    0    0  0.57249258080E+03 -0.90939337074E+02 -0.12764726733E+04  0.14019273215E+04  0.10566000000E+00 0.  1.
          4    1    3    3  501    0 -0.32547570241E+03  0.29925228089E+03 -0.56669862404E+03  0.71877234989E+03  0.00000000000E+00 0.  1.
         13    1    4    4    0    0 -0.11378083214E+03 -0.55918028889E+03 -0.17929774503E+03  0.59814410118E+03  0.10566000000E+00 0. -1.
         -4    1    4    4    0  502 -0.13323604624E+03  0.35086734507E+03  0.28139860212E+03  0.46908944897E+03  0.00000000000E+00 0. -1.
<mgrwt>
<rscale>  2 0.10589502E+04</rscale>
<asrwt>0</asrwt>
<pdfrwt beam="1">  1       21 0.11129714E+00 0.10623384E+04</pdfrwt>
<pdfrwt beam="2">  1       21 0.37915413E+00 0.10623384E+04</pdfrwt>
<totfact> 0.21907537E+00</totfact>
</mgrwt>
</event>
<event>
 8    1  0.7208583E-006  0.1024429E+04  0.7818608E-02  0.8752657E-01
         21   -1    0    0  503  502  0.00000000000E+00  0.00000000000E+00  0.57934873420E+03  0.57934873420E+03  0.00000000000E+00 0. -1.
         21   -1    0    0  501  503 -0.00000000000E+00 -0.00000000000E+00 -0.19524468678E+04  0.19524468678E+04  0.00000000000E+00 0. -1.
    9000010    2    1    2  501    0  0.64857726791E+02  0.10192234613E+03 -0.33907716706E+03  0.10762356230E+04  0.10142559350E+04 0.  0.
   -9000010    2    1    2    0  502 -0.64857726791E+02 -0.10192234613E+03 -0.10340209666E+04  0.14555599790E+04  0.10172810840E+04 0.  0.
        -13    1    3    3    0    0 -0.11504033678E+03  0.34437865262E+02 -0.67696773119E+03  0.68753586516E+03  0.10566000000E+00 0.  1.
          4    1    3    3  501    0  0.17989806358E+03  0.67484480869E+02  0.33789056413E+03  0.38869975786E+03  0.00000000000E+00 0.  1.
         13    1    4    4    0    0  0.60662225221E+01  0.31285836332E+03  0.27059562827E+02  0.31408499751E+03  0.10566000000E+00 0. -1.
         -4    1    4    4    0  502 -0.70923949313E+02 -0.41478070945E+03 -0.10610805294E+04  0.11414749815E+04  0.00000000000E+00 0. -1.
<mgrwt>
<rscale>  2 0.10236775E+04</rscale>
<asrwt>0</asrwt>
<pdfrwt beam="1">  1       21 0.89130574E-01 0.10244294E+04</pdfrwt>
<pdfrwt beam="2">  1       21 0.30037644E+00 0.10244294E+04</pdfrwt>
<totfact> 0.14133036E+01</totfact>
</mgrwt>
</event>
<event>
 8    1  0.7208583E-006  0.1034879E+04  0.7818608E-02  0.8742769E-01
         21   -1    0    0  501  502  0.00000000000E+00  0.00000000000E+00  0.16232746343E+04  0.16232746343E+04  0.00000000000E+00 0.  1.
         21   -1    0    0  502  503 -0.00000000000E+00 -0.00000000000E+00 -0.67424841072E+03  0.67424841072E+03  0.00000000000E+00 0.  1.
    9000010    2    1    2  501    0  0.25667724954E+03 -0.66063231315E+02  0.30191595086E+03  0.10780203771E+04  0.10003634995E+04 0.  0.
   -9000010    2    1    2    0  503 -0.25667724954E+03  0.66063231315E+02  0.64711027274E+03  0.12195026680E+04  0.99909333455E+03 0.  0.
        -13    1    3    3    0    0  0.55903119657E+03  0.17202931111E+03 -0.63471194997E+01  0.58493611592E+03  0.10566000000E+00 0.  1.
          4    1    3    3  501    0 -0.30235394703E+03 -0.23809254243E+03  0.30826307036E+03  0.49308426115E+03  0.00000000000E+00 0.  1.
         13    1    4    4    0    0 -0.55601431820E+03 -0.19623735732E+03  0.55766919289E+03  0.81157622089E+03  0.10566000000E+00 0. -1.
         -4    1    4    4    0  503  0.29933706866E+03  0.26230058863E+03  0.89441079852E+02  0.40792644709E+03  0.00000000000E+00 0. -1.
<mgrwt>
<rscale>  2 0.10345720E+04</rscale>
<asrwt>0</asrwt>
<pdfrwt beam="1">  1       21 0.24973456E+00 0.10348791E+04</pdfrwt>
<pdfrwt beam="2">  1       21 0.10373053E+00 0.10348791E+04</pdfrwt>
<totfact> 0.21926366E+01</totfact>
</mgrwt>
</event>
<event>
 8    1  0.7208583E-006  0.1131427E+04  0.7818608E-02  0.8662236E-01
         21   -1    0    0  501  502  0.00000000000E+00  0.00000000000E+00  0.11330303991E+04  0.11330303991E+04  0.00000000000E+00 0.  1.
         21   -1    0    0  502  503 -0.00000000000E+00 -0.00000000000E+00 -0.13350283061E+04  0.13350283061E+04  0.00000000000E+00 0.  1.
    9000010    2    1    2  501    0  0.33824171374E+03  0.36023087849E+03 -0.59676432286E+03  0.12697396022E+04  0.10059509221E+04 0.  0.
   -9000010    2    1    2    0  503 -0.33824171374E+03 -0.36023087849E+03  0.39476641586E+03  0.11983191030E+04  0.10178184547E+04 0.  0.
        -13    1    3    3    0    0  0.18006161946E+03  0.62894239665E+03 -0.68345776863E+03  0.94610002525E+03  0.10566000000E+00 0.  1.
          4    1    3    3  501    0  0.15818009428E+03 -0.26871151816E+03  0.86693445776E+02  0.32363957694E+03  0.00000000000E+00 0.  1.
         13    1    4    4    0    0  0.19435211912E+03  0.17694792902E+03  0.35381784447E+03  0.44076115303E+03  0.10566000000E+00 0. -1.
         -4    1    4    4    0  503 -0.53259383286E+03 -0.53717880751E+03  0.40948571386E+02  0.75755794995E+03  0.00000000000E+00 0. -1.
<mgrwt>
<rscale>  2 0.11287520E+04</rscale>
<asrwt>0</asrwt>
<pdfrwt beam="1">  1       21 0.17431237E+00 0.11314275E+04</pdfrwt>
<pdfrwt beam="2">  1       21 0.20538897E+00 0.11314275E+04</pdfrwt>
<totfact> 0.99455686E+00</totfact>
</mgrwt>
</event>
<event>
 8    1  0.7208583E-006  0.1016832E+04  0.7818608E-02  0.8762862E-01
         21   -1    0    0  503  502  0.00000000000E+00  0.00000000000E+00  0.10373590004E+04  0.10373590004E+04  0.00000000000E+00 0. -1.
         21   -1    0    0  501  503 -0.00000000000E+00 -0.00000000000E+00 -0.11524771883E+04  0.11524771883E+04  0.00000000000E+00 0. -1.
    9000010    2    1    2  501    0  0.13711506722E+03  0.19504211802E+03 -0.48045816992E+03  0.11093636404E+04  0.97108478727E+03 0.  0.
   -9000010    2    1    2    0  502 -0.13711506722E+03 -0.19504211802E+03  0.36533998204E+03  0.10804725483E+04  0.98848654811E+03 0.  0.
        -13    1    3    3    0    0  0.84730001321E+02 -0.24327036685E+03 -0.59921122185E+03  0.65223749054E+03  0.10566000000E+00 0.  1.
          4    1    3    3  501    0  0.52385065897E+02  0.43831248487E+03  0.11875305193E+03  0.45712614983E+03  0.00000000000E+00 0.  1.
         13    1    4    4    0    0 -0.73141318785E+02  0.33932486058E+03 -0.10822811738E+03  0.36359916127E+03  0.10566000000E+00 0. -1.
         -4    1    4    4    0  502 -0.63973748433E+02 -0.53436697860E+03  0.47356809942E+03  0.71687338707E+03  0.00000000000E+00 0. -1.
<mgrwt>
<rscale>  2 0.10125785E+04</rscale>
<asrwt>0</asrwt>
<pdfrwt beam="1">  1       21 0.15959369E+00 0.10168322E+04</pdfrwt>
<pdfrwt beam="2">  1       21 0.17730418E+00 0.10168322E+04</pdfrwt>
<totfact> 0.22750089E+01</totfact>
</mgrwt>
</event>
<event>
 8    1  0.7208583E-006  0.1109695E+04  0.7818608E-02  0.8688020E-01
         21   -1    0    0  501  502  0.00000000000E+00  0.00000000000E+00  0.78149714327E+03  0.78149714327E+03  0.00000000000E+00 0.  1.
         21   -1    0    0  502  503 -0.00000000000E+00 -0.00000000000E+00 -0.19716971936E+04  0.19716971936E+04  0.00000000000E+00 0.  1.
    9000010    2    1    2  501    0 -0.43239713904E+03 -0.20678290421E+02  0.62052528012E+02  0.11114288916E+04  0.10217772689E+04 0.  0.
   -9000010    2    1    2    0  503  0.43239713904E+03  0.20678290421E+02 -0.12522525783E+04  0.16417654452E+04  0.96946499669E+03 0.  0.
        -13    1    3    3    0    0 -0.16002903539E+03  0.32845889444E+03 -0.35043632832E+03  0.50626096914E+03  0.10566000000E+00 0.  1.
          4    1    3    3  501    0 -0.27236810365E+03 -0.34913718486E+03  0.41248885633E+03  0.60516792243E+03  0.00000000000E+00 0.  1.
         13    1    4    4    0    0 -0.28581108549E+03 -0.10063572471E+03 -0.20394889486E+03  0.36525427931E+03  0.10566000000E+00 0. -1.
         -4    1    4    4    0  503  0.71820822453E+03  0.12131401513E+03 -0.10483036834E+04  0.12765111659E+04  0.00000000000E+00 0. -1.
<mgrwt>
<rscale>  2 0.10975029E+04</rscale>
<asrwt>0</asrwt>
<pdfrwt beam="1">  1       21 0.12023033E+00 0.11096953E+04</pdfrwt>
<pdfrwt beam="2">  1       21 0.30333803E+00 0.11096953E+04</pdfrwt>
<totfact> 0.59664512E+00</totfact>
</mgrwt>
</event>
<event>
 8    1  0.7208583E-006  0.1100015E+04  0.7818608E-02  0.8691785E-01
         21   -1    0    0  503  502  0.00000000000E+00  0.00000000000E+00  0.76644171977E+03  0.76644171977E+03  0.00000000000E+00 0.  1.
         21   -1    0    0  501  503 -0.00000000000E+00 -0.00000000000E+00 -0.24414543384E+04  0.24414543384E+04  0.00000000000E+00 0.  1.
    9000010    2    1    2  501    0 -0.38202840573E+03 -0.43863088191E+02 -0.18057383478E+04  0.21001409065E+04  0.10010150714E+04 0.  0.
   -9000010    2    1    2    0  502  0.38202840573E+03  0.43863088191E+02  0.13072572916E+03  0.11077551517E+04  0.10306127238E+04 0.  0.
        -13    1    3    3    0    0 -0.17980442097E+02 -0.27097541226E+03 -0.16025211910E+04  0.16253692347E+04  0.10566000000E+00 0.  1.
          4    1    3    3  501    0 -0.36404796364E+03  0.22711232407E+03 -0.20321715685E+03  0.47477167187E+03  0.00000000000E+00 0.  1.
         13    1    4    4    0    0  0.24760956267E+03 -0.41453313874E+02 -0.44472051389E+03  0.51069092355E+03  0.10566000000E+00 0. -1.
         -4    1    4    4    0  502  0.13441884307E+03  0.85316402065E+02  0.57544624305E+03  0.59706422810E+03  0.00000000000E+00 0. -1.
<mgrwt>
<rscale>  2 0.10930283E+04</rscale>
<asrwt>0</asrwt>
<pdfrwt beam="1">  1       21 0.11791411E+00 0.11000147E+04</pdfrwt>
<pdfrwt beam="2">  1       21 0.37560835E+00 0.11000147E+04</pdfrwt>
<totfact> 0.19616996E+00</totfact>
</mgrwt>
</event>
<event>
 8    1  0.7208583E-006  0.1430115E+04  0.7818608E-02  0.8456808E-01
         21   -1    0    0  503  502  0.00000000000E+00  0.00000000000E+00  0.19969988305E+04  0.19969988305E+04  0.00000000000E+00 0. -1.
         21   -1    0    0  501  503 -0.00000000000E+00 -0.00000000000E+00 -0.10282063045E+04  0.10282063045E+04  0.00000000000E+00 0.  1.
    9000010    2    1    2  501    0 -0.22774937158E+03 -0.97247264513E+03  0.21415103059E+03  0.14081979237E+04  0.96932342730E+03 0.  0.
   -9000010    2    1    2    0  502  0.22774937158E+03  0.97247264513E+03  0.75464149538E+03  0.16170072113E+04  0.10235505425E+04 0.  0.
        -13    1    3    3    0    0 -0.59922278643E+03 -0.56496261992E+03  0.20651158267E+02  0.82381866402E+03  0.10566000000E+00 0.  1.
          4    1    3    3  501    0  0.37147341485E+03 -0.40751002521E+03  0.19349987232E+03  0.58437925971E+03  0.00000000000E+00 0.  1.
         13    1    4    4    0    0 -0.39282987727E+03  0.33103285037E+03  0.13711202985E+03  0.53169331423E+03  0.10566000000E+00 0. -1.
         -4    1    4    4    0  502  0.62057924885E+03  0.64143979476E+03  0.61752946553E+03  0.10853138971E+04  0.00000000000E+00 0. -1.
<mgrwt>
<rscale>  2 0.14204433E+04</rscale>
<asrwt>0</asrwt>
<pdfrwt beam="1">  1       21 0.30723059E+00 0.14301149E+04</pdfrwt>
<pdfrwt beam="2">  1       21 0.15818559E+00 0.14301149E+04</pdfrwt>
<totfact> 0.23186640E+00</totfact>
</mgrwt>
</event>
<event>
 8    1  0.7208583E-006  0.1021276E+04  0.7818608E-02  0.8758530E-01
         21   -1    0    0  503  502  0.00000000000E+00  0.00000000000E+00  0.96476637764E+03  0.96476637764E+03  0.00000000000E+00 0.  1.
         21   -1    0    0  501  503 -0.00000000000E+00 -0.00000000000E+00 -0.10692417369E+04  0.10692417369E+04  0.00000000000E+00 0.  1.
    9000010    2    1    2  501    0  0.85170385327E+02 -0.15627042771E+03  0.17243854797E+02  0.10055038290E+04  0.98947772006E+03 0.  0.
   -9000010    2    1    2    0  502 -0.85170385327E+02  0.15627042771E+03 -0.12171921409E+03  0.10285042856E+04  0.10056495698E+04 0.  0.
        -13    1    3    3    0    0 -0.40584205619E+03 -0.61453010791E+02  0.22020260414E+03  0.46580408450E+03  0.10566000000E+00 0.  1.
          4    1    3    3  501    0  0.49101244152E+03 -0.94817416918E+02 -0.20295874934E+03  0.53969974449E+03  0.00000000000E+00 0.  1.
         13    1    4    4    0    0 -0.44630391614E+03  0.24352925552E+03 -0.32654668413E+03  0.60425692543E+03  0.10566000000E+00 0. -1.
         -4    1    4    4    0  502  0.36113353081E+03 -0.87258827815E+02  0.20482747005E+03  0.42424736015E+03  0.00000000000E+00 0. -1.
<mgrwt>
<rscale>  2 0.10172728E+04</rscale>
<asrwt>0</asrwt>
<pdfrwt beam="1">  1       21 0.14842560E+00 0.10212764E+04</pdfrwt>
<pdfrwt beam="2">  1       21 0.16449873E+00 0.10212764E+04</pdfrwt>
<totfact> 0.36458910E+01</totfact>
</mgrwt>
</event>
<event>
 8    1  0.7208583E-006  0.1025504E+04  0.7818608E-02  0.8751390E-01
         21   -1    0    0  503  502  0.00000000000E+00  0.00000000000E+00  0.19911668037E+04  0.19911668037E+04  0.00000000000E+00 0. -1.
         21   -1    0    0  501  503 -0.00000000000E+00 -0.00000000000E+00 -0.58258950775E+03  0.58258950775E+03  0.00000000000E+00 0. -1.
    9000010    2    1    2  501    0 -0.35215849482E+02  0.21891566599E+03  0.30824985513E+03  0.10708301225E+04  0.10012466994E+04 0.  0.
   -9000010    2    1    2    0  502  0.35215849482E+02 -0.21891566599E+03  0.11003274408E+04  0.15029261890E+04  0.99945106314E+03 0.  0.
        -13    1    3    3    0    0 -0.20654959182E+03  0.13399061261E+03 -0.32591760923E+03  0.40845870944E+03  0.10566000000E+00 0.  1.
          4    1    3    3  501    0  0.17133374234E+03  0.84925053375E+02  0.63416746436E+03  0.66237141304E+03  0.00000000000E+00 0.  1.
         13    1    4    4    0    0  0.26604710536E+02 -0.61716916563E+03  0.57754844104E+03  0.84567594416E+03  0.10566000000E+00 0. -1.
         -4    1    4    4    0  502  0.86111389461E+01  0.39825349964E+03  0.52277899979E+03  0.65725024482E+03  0.00000000000E+00 0. -1.
<mgrwt>
<rscale>  2 0.10250658E+04</rscale>
<asrwt>0</asrwt>
<pdfrwt beam="1">  1       21 0.30633335E+00 0.10255044E+04</pdfrwt>
<pdfrwt beam="2">  1       21 0.89629156E-01 0.10255044E+04</pdfrwt>
<totfact> 0.12640879E+01</totfact>
</mgrwt>
</event>
<event>
 8    1  0.7208583E-006  0.1022762E+04  0.7818608E-02  0.8758485E-01
         21   -1    0    0  501  502  0.00000000000E+00  0.00000000000E+00  0.21078232321E+04  0.21078232321E+04  0.00000000000E+00 0.  1.
         21   -1    0    0  502  503 -0.00000000000E+00 -0.00000000000E+00 -0.73351988347E+03  0.73351988347E+03  0.00000000000E+00 0.  1.
    9000010    2    1    2  501    0 -0.19686411334E+03 -0.27179106038E+02  0.15174932821E+04  0.18299801359E+04  0.10032682860E+04 0.  0.
   -9000010    2    1    2    0  503  0.19686411334E+03  0.27179106038E+02 -0.14318993352E+03  0.10113629796E+04  0.98125304408E+03 0.  0.
        -13    1    3    3    0    0 -0.16841982304E+02  0.28872132605E+03  0.21026338538E+02  0.28997547234E+03  0.10566000000E+00 0.  1.
          4    1    3    3  501    0 -0.18002213104E+03 -0.31590043209E+03  0.14964669436E+04  0.15400046636E+04  0.00000000000E+00 0.  1.
         13    1    4    4    0    0  0.21404612115E+03  0.14245844734E+03 -0.53983946749E+03  0.59794382096E+03  0.10566000000E+00 0. -1.
         -4    1    4    4    0  503 -0.17182007806E+02 -0.11527934131E+03  0.39664953398E+03  0.41341915864E+03  0.00000000000E+00 0. -1.
<mgrwt>
<rscale>  2 0.10173218E+04</rscale>
<asrwt>0</asrwt>
<pdfrwt beam="1">  1       21 0.32428049E+00 0.10227617E+04</pdfrwt>
<pdfrwt beam="2">  1       21 0.11284921E+00 0.10227617E+04</pdfrwt>
<totfact> 0.51676733E+00</totfact>
</mgrwt>
</event>
<event>
 8    1  0.7208583E-006  0.1030501E+04  0.7818608E-02  0.8771935E-01
         21   -1    0    0  501  502  0.00000000000E+00  0.00000000000E+00  0.48455208919E+03  0.48455208919E+03  0.00000000000E+00 0.  1.
         21   -1    0    0  502  503 -0.00000000000E+00 -0.00000000000E+00 -0.31079974584E+04  0.31079974584E+04  0.00000000000E+00 0.  1.
    9000010    2    1    2  501    0 -0.30468366161E+03 -0.22525022481E+03 -0.18120697451E+03  0.94180228634E+03  0.84296250303E+03 0.  0.
   -9000010    2    1    2    0  503  0.30468366161E+03  0.22525022481E+03 -0.24422383947E+04  0.26507472613E+04  0.95831251116E+03 0.  0.
        -13    1    3    3    0    0  0.26638512490E+03 -0.75226481916E+02 -0.21484671885E+03  0.35039860461E+03  0.10566000000E+00 0.  1.
          4    1    3    3  501    0 -0.57106878652E+03 -0.15002374289E+03  0.33639744334E+02  0.59140368173E+03  0.00000000000E+00 0.  1.
         13    1    4    4    0    0  0.58122733491E+03 -0.85685552170E+02 -0.17154114087E+04  0.18132301401E+04  0.10566000000E+00 0. -1.
         -4    1    4    4    0  503 -0.27654367330E+03  0.31093577698E+03 -0.72682698604E+03  0.83751712119E+03  0.00000000000E+00 0. -1.
<mgrwt>
<rscale>  2 0.10028327E+04</rscale>
<asrwt>0</asrwt>
<pdfrwt beam="1">  1       21 0.74546477E-01 0.10305012E+04</pdfrwt>
<pdfrwt beam="2">  1       21 0.47815345E+00 0.10305012E+04</pdfrwt>
<totfact> 0.12605389E+00</totfact>
</mgrwt>
</event>
<event>
 8    1  0.7208583E-006  0.1029749E+04  0.7818608E-02  0.8751313E-01
         21   -1    0    0  503  502  0.00000000000E+00  0.00000000000E+00  0.17804453505E+04  0.17804453505E+04  0.00000000000E+00 0.  1.
         21   -1    0    0  501  503 -0.00000000000E+00 -0.00000000000E+00 -0.61390817915E+03  0.61390817915E+03  0.00000000000E+00 0.  1.
    9000010    2    1    2  501    0 -0.12691390807E+03 -0.14226475206E+03  0.31874419102E+03  0.10605107733E+04  0.99334729136E+03 0.  0.
   -9000010    2    1    2    0  502  0.12691390807E+03  0.14226475206E+03  0.84779298030E+03  0.13338427563E+04  0.10119472127E+04 0.  0.
        -13    1    3    3    0    0 -0.57036678851E+01 -0.56655567760E+03  0.22356911514E+03  0.60909853723E+03  0.10566000000E+00 0.  1.
          4    1    3    3  501    0 -0.12121024019E+03  0.42429092553E+03  0.95175075873E+02  0.45141223608E+03  0.00000000000E+00 0.  1.
         13    1    4    4    0    0  0.47786944194E+03 -0.15391016256E+03  0.20141258586E+03  0.54093861258E+03  0.10566000000E+00 0. -1.
         -4    1    4    4    0  502 -0.35095553386E+03  0.29617491462E+03  0.64638039443E+03  0.79290414371E+03  0.00000000000E+00 0. -1.
<mgrwt>
<rscale>  2 0.10251504E+04</rscale>
<asrwt>0</asrwt>
<pdfrwt beam="1">  1       21 0.27391467E+00 0.10297493E+04</pdfrwt>
<pdfrwt beam="2">  1       21 0.94447413E-01 0.10297493E+04</pdfrwt>
<totfact> 0.18762775E+01</totfact>
</mgrwt>
</event>
<event>
 8    1  0.7208583E-006  0.1077901E+04  0.7818608E-02  0.8705210E-01
         21   -1    0    0  501  502  0.00000000000E+00  0.00000000000E+00  0.80357673540E+03  0.80357673540E+03  0.00000000000E+00 0. -1.
         21   -1    0    0  502  503 -0.00000000000E+00 -0.00000000000E+00 -0.26535901048E+04  0.26535901048E+04  0.00000000000E+00 0. -1.
    9000010    2    1    2  501    0 -0.68784835035E+02 -0.38153495405E+03  0.24221541792E+03  0.11047799722E+04  0.10057684642E+04 0.  0.
   -9000010    2    1    2    0  503  0.68784835035E+02  0.38153495405E+03 -0.20922287873E+04  0.23523868680E+04  0.10029967117E+04 0.  0.
        -13    1    3    3    0    0  0.15284017503E+03 -0.66128891509E+03  0.96486827620E+01  0.67879028909E+03  0.10566000000E+00 0.  1.
          4    1    3    3  501    0 -0.22162501007E+03  0.27975396104E+03  0.23256673515E+03  0.42598968310E+03  0.00000000000E+00 0.  1.
         13    1    4    4    0    0  0.13144472542E+03  0.26765844122E+03 -0.45628379247E+02  0.30166325125E+03  0.10566000000E+00 0. -1.
         -4    1    4    4    0  503 -0.62659890385E+02  0.11387651283E+03 -0.20466004081E+04  0.20507236168E+04  0.00000000000E+00 0. -1.
<mgrwt>
<rscale>  2 0.10772539E+04</rscale>
<asrwt>0</asrwt>
<pdfrwt beam="1">  1       21 0.12362719E+00 0.10779010E+04</pdfrwt>
<pdfrwt beam="2">  1       21 0.40824463E+00 0.10779010E+04</pdfrwt>
<totfact> 0.10222165E+00</totfact>
</mgrwt>
</event>
<event>
 8    1  0.7208583E-006  0.1029076E+04  0.7818608E-02  0.8748430E-01
         21   -1    0    0  503  502  0.00000000000E+00  0.00000000000E+00  0.19591203596E+04  0.19591203596E+04  0.00000000000E+00 0. -1.
         21   -1    0    0  501  503 -0.00000000000E+00 -0.00000000000E+00 -0.11096669659E+04  0.11096669659E+04  0.00000000000E+00 0. -1.
    9000010    2    1    2  501    0 -0.73001681817E+02  0.17605090444E+03 -0.67596827878E+03  0.12287036509E+04  0.10081946148E+04 0.  0.
   -9000010    2    1    2    0  502  0.73001681817E+02 -0.17605090444E+03  0.15254216725E+04  0.18400836747E+04  0.10112731997E+04 0.  0.
        -13    1    3    3    0    0  0.37705626151E+03 -0.17359232231E+02 -0.63296229330E+03  0.73696271493E+03  0.10566000000E+00 0.  1.
          4    1    3    3  501    0 -0.45005794333E+03  0.19341013667E+03 -0.43005985479E+02  0.49174093597E+03  0.00000000000E+00 0.  1.
         13    1    4    4    0    0 -0.39537591278E+03  0.93330304230E+02  0.31340566006E+03  0.51308457102E+03  0.10566000000E+00 0. -1.
         -4    1    4    4    0  502  0.46837759460E+03 -0.26938120867E+03  0.12120160124E+04  0.13269991036E+04  0.00000000000E+00 0. -1.
<mgrwt>
<rscale>  2 0.10283185E+04</rscale>
<asrwt>0</asrwt>
<pdfrwt beam="1">  1       21 0.30140313E+00 0.10290756E+04</pdfrwt>
<pdfrwt beam="2">  1       21 0.17071799E+00 0.10290756E+04</pdfrwt>
<totfact> 0.21738435E+00</totfact>
</mgrwt>
</event>
<event>
 8    1  0.7208583E-006  0.1138323E+04  0.7818608E-02  0.8665509E-01
         21   -1    0    0  501  502  0.00000000000E+00  0.00000000000E+00  0.82581552817E+03  0.82581552817E+03  0.00000000000E+00 0. -1.
         21   -1    0    0  502  503 -0.00000000000E+00 -0.00000000000E+00 -0.19567244586E+04  0.19567244586E+04  0.00000000000E+00 0. -1.
    9000010    2    1    2  501    0 -0.46013362205E+03  0.20584484051E+03  0.11965408905E+03  0.10914791518E+04  0.96068443792E+03 0.  0.
   -9000010    2    1    2    0  503  0.46013362205E+03 -0.20584484051E+03 -0.12505630195E+04  0.16910608350E+04  0.10206291361E+04 0.  0.
        -13    1    3    3    0    0  0.23894857458E+03  0.18884945819E+02 -0.18851442575E+03  0.30494386754E+03  0.10566000000E+00 0.  1.
          4    1    3    3  501    0 -0.69908219663E+03  0.18695989469E+03  0.30816851480E+03  0.78653528425E+03  0.00000000000E+00 0.  1.
         13    1    4    4    0    0  0.21117525410E+03  0.31777408328E+03 -0.97920074498E+03  0.10509088762E+04  0.10566000000E+00 0. -1.
         -4    1    4    4    0  503  0.24895836795E+03 -0.52361892379E+03 -0.27136227452E+03  0.64015195880E+03  0.00000000000E+00 0. -1.
<mgrwt>
<rscale>  2 0.11247256E+04</rscale>
<asrwt>0</asrwt>
<pdfrwt beam="1">  1       21 0.12704854E+00 0.11383228E+04</pdfrwt>
<pdfrwt beam="2">  1       21 0.30103453E+00 0.11383228E+04</pdfrwt>
<totfact> 0.52639332E+00</totfact>
</mgrwt>
</event>
<event>
 8    1  0.7208583E-006  0.1037132E+04  0.7818608E-02  0.8742809E-01
         21   -1    0    0  501  502  0.00000000000E+00  0.00000000000E+00  0.20376407349E+04  0.20376407349E+04  0.00000000000E+00 0.  1.
         21   -1    0    0  502  503 -0.00000000000E+00 -0.00000000000E+00 -0.56549360503E+03  0.56549360503E+03  0.00000000000E+00 0.  1.
    9000010    2    1    2  501    0  0.38437562405E+02  0.24213900415E+03  0.10910371603E+04  0.14981968442E+04  0.99705714738E+03 0.  0.
   -9000010    2    1    2    0  503 -0.38437562405E+02 -0.24213900415E+03  0.38110996955E+03  0.11049374958E+04  0.10077367301E+04 0.  0.
        -13    1    3    3    0    0 -0.13405349075E+03  0.59611633602E+03  0.80916632874E+03  0.10139404239E+04  0.10566000000E+00 0.  1.
          4    1    3    3  501    0  0.17249105316E+03 -0.35397733187E+03  0.28187083161E+03  0.48425642030E+03  0.00000000000E+00 0.  1.
         13    1    4    4    0    0 -0.16101791841E+03 -0.56046314408E+03 -0.13551895992E+02  0.58329184031E+03  0.10566000000E+00 0. -1.
         -4    1    4    4    0  503  0.12258035601E+03  0.31832413993E+03  0.39466186555E+03  0.52164565546E+03  0.00000000000E+00 0. -1.
<mgrwt>
<rscale>  2 0.10345284E+04</rscale>
<asrwt>0</asrwt>
<pdfrwt beam="1">  1       21 0.31348319E+00 0.10371317E+04</pdfrwt>
<pdfrwt beam="2">  1       21 0.86999017E-01 0.10371317E+04</pdfrwt>
<totfact> 0.12120951E+01</totfact>
</mgrwt>
</event>
<event>
 8    1  0.7208583E-006  0.1088789E+04  0.7818608E-02  0.8703139E-01
         21   -1    0    0  501  502  0.00000000000E+00  0.00000000000E+00  0.42460770520E+03  0.42460770520E+03  0.00000000000E+00 0. -1.
         21   -1    0    0  502  503 -0.00000000000E+00 -0.00000000000E+00 -0.27519320092E+04  0.27519320092E+04  0.00000000000E+00 0. -1.
    9000010    2    1    2  501    0 -0.86938647532E+02  0.31443112789E+03 -0.92690300303E+03  0.14026620373E+04  0.10009427312E+04 0.  0.
   -9000010    2    1    2    0  503  0.86938647532E+02 -0.31443112789E+03 -0.14004213010E+04  0.17738776771E+04  0.10387670242E+04 0.  0.
        -13    1    3    3    0    0  0.67566301070E+02  0.46233736407E+03 -0.16572805132E+02  0.46754220376E+03  0.10566000000E+00 0.  1.
          4    1    3    3  501    0 -0.15450494860E+03 -0.14790623618E+03 -0.91033019790E+03  0.93511983353E+03  0.00000000000E+00 0.  1.
         13    1    4    4    0    0  0.53982073875E+02 -0.11833636197E+03 -0.15306607300E+04  0.15361770211E+04  0.10566000000E+00 0. -1.
         -4    1    4    4    0  503  0.32956573657E+02 -0.19609476592E+03  0.13023942902E+03  0.23770065595E+03  0.00000000000E+00 0. -1.
<mgrwt>
<rscale>  2 0.10796690E+04</rscale>
<asrwt>0</asrwt>
<pdfrwt beam="1">  1       21 0.65324263E-01 0.10887893E+04</pdfrwt>
<pdfrwt beam="2">  1       21 0.42337415E+00 0.10887893E+04</pdfrwt>
<totfact> 0.40896386E+00</totfact>
</mgrwt>
</event>
<event>
 8    1  0.7208583E-006  0.1008215E+04  0.7818608E-02  0.8820754E-01
         21   -1    0    0  503  502  0.00000000000E+00  0.00000000000E+00  0.12730944705E+04  0.12730944705E+04  0.00000000000E+00 0.  1.
         21   -1    0    0  501  503 -0.00000000000E+00 -0.00000000000E+00 -0.64626590553E+03  0.64626590553E+03  0.00000000000E+00 0.  1.
    9000010    2    1    2  501    0  0.72872617820E+02 -0.26707501867E+02  0.40760512211E+03  0.10874922359E+04  0.10052232182E+04 0.  0.
   -9000010    2    1    2    0  502 -0.72872617820E+02  0.26707501867E+02  0.21922344286E+03  0.83186814016E+03  0.79870017881E+03 0.  0.
        -13    1    3    3    0    0  0.80667335974E+02  0.45646276637E+03  0.38695030565E+03  0.60381787518E+03  0.10566000000E+00 0.  1.
          4    1    3    3  501    0 -0.77947181538E+01 -0.48317026824E+03  0.20654816452E+02  0.48367436068E+03  0.00000000000E+00 0.  1.
         13    1    4    4    0    0 -0.19772610329E+02  0.40969980535E+03  0.16196330959E+03  0.44099547780E+03  0.10566000000E+00 0. -1.
         -4    1    4    4    0  502 -0.53100007491E+02 -0.38299230348E+03  0.57260133268E+02  0.39087266236E+03  0.00000000000E+00 0. -1.
<mgrwt>
<rscale>  2 0.95229392E+03</rscale>
<asrwt>0</asrwt>
<pdfrwt beam="1">  1       21 0.19586069E+00 0.10082150E+04</pdfrwt>
<pdfrwt beam="2">  1       21 0.99425524E-01 0.10082150E+04</pdfrwt>
<totfact> 0.62729282E+01</totfact>
</mgrwt>
</event>
<event>
 8    1  0.7208583E-006  0.1032019E+04  0.7818608E-02  0.8749582E-01
         21   -1    0    0  501  502  0.00000000000E+00  0.00000000000E+00  0.71668140915E+03  0.71668140915E+03  0.00000000000E+00 0. -1.
         21   -1    0    0  502  503 -0.00000000000E+00 -0.00000000000E+00 -0.15827690634E+04  0.15827690634E+04  0.00000000000E+00 0. -1.
    9000010    2    1    2  501    0  0.21037647755E+03 -0.16975829453E+02 -0.10618307026E+03  0.10178429387E+04  0.99004189931E+03 0.  0.
   -9000010    2    1    2    0  503 -0.21037647755E+03  0.16975829453E+02 -0.75990458398E+03  0.12816075338E+04  0.10102061438E+04 0.  0.
        -13    1    3    3    0    0  0.12260672313E+03  0.33855395941E+03 -0.40737009442E+03  0.54369255741E+03  0.10566000000E+00 0.  1.
          4    1    3    3  501    0  0.87769754421E+02 -0.35552978887E+03  0.30118702417E+03  0.47415038130E+03  0.00000000000E+00 0.  1.
         13    1    4    4    0    0 -0.20869382648E+03 -0.37617880924E+03 -0.77693227886E+03  0.88808073216E+03  0.10566000000E+00 0. -1.
         -4    1    4    4    0  503 -0.16826510738E+01  0.39315463869E+03  0.17027694878E+02  0.39352680167E+03  0.00000000000E+00 0. -1.
<mgrwt>
<rscale>  2 0.10270507E+04</rscale>
<asrwt>0</asrwt>
<pdfrwt beam="1">  1       21 0.11025868E+00 0.10320188E+04</pdfrwt>
<pdfrwt beam="2">  1       21 0.24350293E+00 0.10320188E+04</pdfrwt>
<totfact> 0.20689125E+01</totfact>
</mgrwt>
</event>
<event>
 8    1  0.7208583E-006  0.1074848E+04  0.7818608E-02  0.8715973E-01
         21   -1    0    0  503  502  0.00000000000E+00  0.00000000000E+00  0.12969334044E+04  0.12969334044E+04  0.00000000000E+00 0. -1.
         21   -1    0    0  501  503 -0.00000000000E+00 -0.00000000000E+00 -0.94351955005E+03  0.94351955005E+03  0.00000000000E+00 0. -1.
    9000010    2    1    2  501    0  0.32961609849E+03 -0.65043293493E+02 -0.15694484176E+03  0.10862461788E+04  0.10209905363E+04 0.  0.
   -9000010    2    1    2    0  502 -0.32961609849E+03  0.65043293493E+02  0.51035869608E+03  0.11542067756E+04  0.97920880294E+03 0.  0.
        -13    1    3    3    0    0 -0.13099234828E+03 -0.14563049470E+03 -0.47964581704E+03  0.51809975609E+03  0.10566000000E+00 0.  1.
          4    1    3    3  501    0  0.46060844677E+03  0.80587201212E+02  0.32270097528E+03  0.56814642275E+03  0.00000000000E+00 0.  1.
         13    1    4    4    0    0 -0.33497249410E+03 -0.42139767947E+03  0.18611133309E+03  0.56957880538E+03  0.10566000000E+00 0. -1.
         -4    1    4    4    0  502  0.53563956104E+01  0.48644097297E+03  0.32424736299E+03  0.58462797022E+03  0.00000000000E+00 0. -1.
<mgrwt>
<rscale>  2 0.10648071E+04</rscale>
<asrwt>0</asrwt>
<pdfrwt beam="1">  1       21 0.19952822E+00 0.10748484E+04</pdfrwt>
<pdfrwt beam="2">  1       21 0.14515685E+00 0.10748484E+04</pdfrwt>
<totfact> 0.20003145E+01</totfact>
</mgrwt>
</event>
<event>
 8    1  0.7208583E-006  0.1041649E+04  0.7818608E-02  0.8738395E-01
         21   -1    0    0  503  502  0.00000000000E+00  0.00000000000E+00  0.67202105695E+03  0.67202105695E+03  0.00000000000E+00 0. -1.
         21   -1    0    0  501  503 -0.00000000000E+00 -0.00000000000E+00 -0.17489212454E+04  0.17489212454E+04  0.00000000000E+00 0. -1.
    9000010    2    1    2  501    0 -0.16303436905E+03 -0.18906775659E+03 -0.18424935318E+03  0.10491340608E+04  0.10022013926E+04 0.  0.
   -9000010    2    1    2    0  502  0.16303436905E+03  0.18906775659E+03 -0.89265083529E+03  0.13718082416E+04  0.10112890367E+04 0.  0.
        -13    1    3    3    0    0 -0.18232960069E+03 -0.57537058220E+03 -0.25623649691E+03  0.65570766631E+03  0.10566000000E+00 0.  1.
          4    1    3    3  501    0  0.19295231640E+02  0.38630282561E+03  0.71987143729E+02  0.39342639451E+03  0.00000000000E+00 0.  1.
         13    1    4    4    0    0  0.12492108914E+03  0.42452491044E+03  0.54668814357E+01  0.44255686195E+03  0.10566000000E+00 0. -1.
         -4    1    4    4    0  502  0.38113279902E+02 -0.23545715385E+03 -0.89811771672E+03  0.92925137961E+03  0.00000000000E+00 0. -1.
<mgrwt>
<rscale>  2 0.10394367E+04</rscale>
<asrwt>0</asrwt>
<pdfrwt beam="1">  1       21 0.10338785E+00 0.10416489E+04</pdfrwt>
<pdfrwt beam="2">  1       21 0.26906481E+00 0.10416489E+04</pdfrwt>
<totfact> 0.16018452E+01</totfact>
</mgrwt>
</event>
<event>
 8    1  0.7208583E-006  0.1088879E+04  0.7818608E-02  0.8695949E-01
         21   -1    0    0  503  502  0.00000000000E+00  0.00000000000E+00  0.93245882965E+03  0.93245882965E+03  0.00000000000E+00 0.  1.
         21   -1    0    0  501  503 -0.00000000000E+00 -0.00000000000E+00 -0.12762208569E+04  0.12762208569E+04  0.00000000000E+00 0.  1.
    9000010    2    1    2  501    0  0.12826176933E+03 -0.37858602077E+03 -0.82648481917E+02  0.10889311326E+04  0.10095354295E+04 0.  0.
   -9000010    2    1    2    0  502 -0.12826176933E+03  0.37858602077E+03 -0.26111354538E+03  0.11197485539E+04  0.10128563985E+04 0.  0.
        -13    1    3    3    0    0  0.53184046427E+03 -0.38342348088E+03 -0.16705729109E+03  0.67659145338E+03  0.10566000000E+00 0.  1.
          4    1    3    3  501    0 -0.40357869494E+03  0.48374601129E+01  0.84408809169E+02  0.41233967926E+03  0.00000000000E+00 0.  1.
         13    1    4    4    0    0 -0.34112913263E+03 -0.11881380960E+03  0.19643093486E+03  0.41118235591E+03  0.10566000000E+00 0. -1.
         -4    1    4    4    0  502  0.21286736330E+03  0.49739983037E+03 -0.45754448023E+03  0.70856619803E+03  0.00000000000E+00 0. -1.
<mgrwt>
<rscale>  2 0.10881056E+04</rscale>
<asrwt>0</asrwt>
<pdfrwt beam="1">  1       21 0.14345520E+00 0.10888786E+04</pdfrwt>
<pdfrwt beam="2">  1       21 0.19634167E+00 0.10888786E+04</pdfrwt>
<totfact> 0.21891282E+01</totfact>
</mgrwt>
</event>
<event>
 8    1  0.7208583E-006  0.1027867E+04  0.7818608E-02  0.8749091E-01
         21   -1    0    0  503  502  0.00000000000E+00  0.00000000000E+00  0.87639672225E+03  0.87639672225E+03  0.00000000000E+00 0. -1.
         21   -1    0    0  501  503 -0.00000000000E+00 -0.00000000000E+00 -0.13378086333E+04  0.13378086333E+04  0.00000000000E+00 0. -1.
    9000010    2    1    2  501    0 -0.13387460297E+03 -0.20861040706E+03 -0.58043491658E+03  0.11794701543E+04  0.99639572521E+03 0.  0.
   -9000010    2    1    2    0  502  0.13387460297E+03  0.20861040706E+03  0.11902300554E+03  0.10347352012E+04  0.99753182887E+03 0.  0.
        -13    1    3    3    0    0 -0.52937398419E+03 -0.26914390036E+03 -0.48843544691E+03  0.76892421681E+03  0.10566000000E+00 0.  1.
          4    1    3    3  501    0  0.39549938122E+03  0.60533493301E+02 -0.91999469669E+02  0.41054593747E+03  0.00000000000E+00 0.  1.
         13    1    4    4    0    0  0.25228586395E+03  0.48539833102E+03  0.35507007007E+03  0.65217671127E+03  0.10566000000E+00 0. -1.
         -4    1    4    4    0  502 -0.11841126098E+03 -0.27678792396E+03 -0.23604706453E+03  0.38255848997E+03  0.00000000000E+00 0. -1.
<mgrwt>
<rscale>  2 0.10275912E+04</rscale>
<asrwt>0</asrwt>
<pdfrwt beam="1">  1       21 0.13483026E+00 0.10278669E+04</pdfrwt>
<pdfrwt beam="2">  1       21 0.20581671E+00 0.10278669E+04</pdfrwt>
<totfact> 0.22516604E+01</totfact>
</mgrwt>
</event>
<event>
 8    1  0.7208583E-006  0.9991272E+03  0.7818608E-02  0.8775833E-01
         21   -1    0    0  501  502  0.00000000000E+00  0.00000000000E+00  0.52299545606E+03  0.52299545606E+03  0.00000000000E+00 0. -1.
         21   -1    0    0  502  503 -0.00000000000E+00 -0.00000000000E+00 -0.20522177929E+04  0.20522177929E+04  0.00000000000E+00 0. -1.
    9000010    2    1    2  501    0 -0.55351008221E+02 -0.24213727769E+02 -0.42074035896E+03  0.10841022038E+04  0.99729890201E+03 0.  0.
   -9000010    2    1    2    0  503  0.55351008221E+02  0.24213727769E+02 -0.11084819779E+04  0.14911110451E+04  0.99550480406E+03 0.  0.
        -13    1    3    3    0    0  0.31170890905E+03 -0.22754736293E+02  0.19418702743E+03  0.36795221809E+03  0.10566000000E+00 0.  1.
          4    1    3    3  501    0 -0.36705991727E+03 -0.14589914759E+01 -0.61492738640E+03  0.71614998573E+03  0.00000000000E+00 0.  1.
         13    1    4    4    0    0 -0.25392339977E+03 -0.44762131678E+02 -0.11435927137E+04  0.11722990435E+04  0.10566000000E+00 0. -1.
         -4    1    4    4    0  503  0.30927440800E+03  0.68975859447E+02  0.35110735813E+02  0.31881200165E+03  0.00000000000E+00 0. -1.
<mgrwt>
<rscale>  2 0.99867918E+03</rscale>
<asrwt>0</asrwt>
<pdfrwt beam="1">  1       21 0.80460840E-01 0.99912719E+03</pdfrwt>
<pdfrwt beam="2">  1       21 0.31572581E+00 0.99912719E+03</pdfrwt>
<totfact> 0.14328305E+01</totfact>
</mgrwt>
</event>
<event>
 8    1  0.7208583E-006  0.1000825E+04  0.7818608E-02  0.8795125E-01
         21   -1    0    0  503  502  0.00000000000E+00  0.00000000000E+00  0.10432673258E+04  0.10432673258E+04  0.00000000000E+00 0.  1.
         21   -1    0    0  501  503 -0.00000000000E+00 -0.00000000000E+00 -0.97389499102E+03  0.97389499102E+03  0.00000000000E+00 0.  1.
    9000010    2    1    2  501    0  0.27093883351E+01  0.18460842455E+03 -0.27874501302E+03  0.10389178308E+04  0.98364824281E+03 0.  0.
   -9000010    2    1    2    0  502 -0.27093883351E+01 -0.18460842455E+03  0.34811734778E+03  0.97824448603E+03  0.89537085915E+03 0.  0.
        -13    1    3    3    0    0  0.41570108574E+03 -0.17412225297E+03 -0.85378881148E+02  0.45871071077E+03  0.10566000000E+00 0.  1.
          4    1    3    3  501    0 -0.41299169741E+03  0.35873067753E+03 -0.19336613188E+03  0.58020711999E+03  0.00000000000E+00 0.  1.
         13    1    4    4    0    0  0.23746200459E+03  0.18718951377E+03  0.43243309896E+03  0.52766136293E+03  0.10566000000E+00 0. -1.
         -4    1    4    4    0  502 -0.24017139293E+03 -0.37179793832E+03 -0.84315751183E+02  0.45058312309E+03  0.00000000000E+00 0. -1.
<mgrwt>
<rscale>  2 0.97843057E+03</rscale>
<asrwt>0</asrwt>
<pdfrwt beam="1">  1       21 0.16050267E+00 0.10008254E+04</pdfrwt>
<pdfrwt beam="2">  1       21 0.14983000E+00 0.10008254E+04</pdfrwt>
<totfact> 0.38500160E+01</totfact>
</mgrwt>
</event>
<event>
 8    1  0.7208583E-006  0.1076944E+04  0.7818608E-02  0.8707332E-01
         21   -1    0    0  501  502  0.00000000000E+00  0.00000000000E+00  0.10512015423E+04  0.10512015423E+04  0.00000000000E+00 0. -1.
         21   -1    0    0  502  503 -0.00000000000E+00 -0.00000000000E+00 -0.12028484248E+04  0.12028484248E+04  0.00000000000E+00 0. -1.
    9000010    2    1    2  501    0  0.38363142472E+03 -0.52551181179E+02  0.26267616721E+03  0.11001559350E+04  0.99569554369E+03 0.  0.
   -9000010    2    1    2    0  503 -0.38363142472E+03  0.52551181179E+02 -0.41432304971E+03  0.11538940321E+04  0.10049244505E+04 0.  0.
        -13    1    3    3    0    0 -0.15339507759E+03 -0.38657619880E+03  0.20897558028E+03  0.46544818361E+03  0.10566000000E+00 0.  1.
          4    1    3    3  501    0  0.53702650232E+03  0.33402501762E+03  0.53700586921E+02  0.63470775135E+03  0.00000000000E+00 0.  1.
         13    1    4    4    0    0 -0.63389910355E+03  0.68050217162E+02  0.35903375382E+02  0.63855146156E+03  0.10566000000E+00 0. -1.
         -4    1    4    4    0  503  0.25026767883E+03 -0.15499035983E+02 -0.45022642509E+03  0.51534257056E+03  0.00000000000E+00 0. -1.
<mgrwt>
<rscale>  2 0.10747856E+04</rscale>
<asrwt>0</asrwt>
<pdfrwt beam="1">  1       21 0.16172331E+00 0.10769438E+04</pdfrwt>
<pdfrwt beam="2">  1       21 0.18505360E+00 0.10769438E+04</pdfrwt>
<totfact> 0.18603796E+01</totfact>
</mgrwt>
</event>
<event>
 8    1  0.7208583E-006  0.1034799E+04  0.7818608E-02  0.8749104E-01
         21   -1    0    0  501  502  0.00000000000E+00  0.00000000000E+00  0.17033345867E+04  0.17033345867E+04  0.00000000000E+00 0. -1.
         21   -1    0    0  502  503 -0.00000000000E+00 -0.00000000000E+00 -0.79195986150E+03  0.79195986150E+03  0.00000000000E+00 0. -1.
    9000010    2    1    2  501    0 -0.74139535317E+02 -0.19369776565E+03 -0.13505917161E+03  0.10435755005E+04  0.10138014353E+04 0.  0.
   -9000010    2    1    2    0  503  0.74139535317E+02  0.19369776565E+03  0.10464338968E+04  0.14517189477E+04  0.98460576249E+03 0.  0.
        -13    1    3    3    0    0  0.28224114220E+03  0.72792450204E+02 -0.42288523880E+03  0.51360562645E+03  0.10566000000E+00 0.  1.
          4    1    3    3  501    0 -0.35638067752E+03 -0.26649021585E+03  0.28782606719E+03  0.52996987406E+03  0.00000000000E+00 0.  1.
         13    1    4    4    0    0  0.65751082179E+02  0.33833937309E+03  0.11952914049E+04  0.12439928818E+04  0.10566000000E+00 0. -1.
         -4    1    4    4    0  503  0.83884531378E+01 -0.14464160744E+03 -0.14885750806E+03  0.20772606590E+03  0.00000000000E+00 0. -1.
<mgrwt>
<rscale>  2 0.10275771E+04</rscale>
<asrwt>0</asrwt>
<pdfrwt beam="1">  1       21 0.26205147E+00 0.10347989E+04</pdfrwt>
<pdfrwt beam="2">  1       21 0.12183998E+00 0.10347989E+04</pdfrwt>
<totfact> 0.11510337E+01</totfact>
</mgrwt>
</event>
<event>
 8    1  0.7208583E-006  0.1181434E+04  0.7818608E-02  0.8659319E-01
         21   -1    0    0  501  502  0.00000000000E+00  0.00000000000E+00  0.10843659472E+04  0.10843659472E+04  0.00000000000E+00 0.  1.
         21   -1    0    0  502  503 -0.00000000000E+00 -0.00000000000E+00 -0.10942037616E+04  0.10942037616E+04  0.00000000000E+00 0.  1.
    9000010    2    1    2  501    0 -0.28731189264E+02  0.24708894749E+02  0.58009323622E+01  0.99703196362E+03  0.99629467275E+03 0.  0.
   -9000010    2    1    2    0  503  0.28731189264E+02 -0.24708894749E+02 -0.15638746753E+02  0.11815377451E+04  0.11808263471E+04 0.  0.
        -13    1    3    3    0    0  0.47721721050E+03  0.93863421359E+02  0.18697781616E+01  0.48636417950E+03  0.10566000000E+00 0.  1.
          4    1    3    3  501    0 -0.50594839976E+03 -0.69154526610E+02  0.39311542006E+01  0.51066778412E+03  0.00000000000E+00 0.  1.
         13    1    4    4    0    0  0.48451125585E+03 -0.36556119062E+03 -0.64198060379E+02  0.61033396042E+03  0.10566000000E+00 0. -1.
         -4    1    4    4    0  503 -0.45578006658E+03  0.34085229587E+03  0.48559313626E+02  0.57120378468E+03  0.00000000000E+00 0. -1.
<mgrwt>
<rscale>  2 0.11323550E+04</rscale>
<asrwt>0</asrwt>
<pdfrwt beam="1">  1       21 0.16682553E+00 0.11814342E+04</pdfrwt>
<pdfrwt beam="2">  1       21 0.16833904E+00 0.11814342E+04</pdfrwt>
<totfact> 0.22617623E+01</totfact>
</mgrwt>
</event>
<event>
 8    1  0.7208583E-006  0.1241195E+04  0.7818608E-02  0.8580118E-01
         21   -1    0    0  501  502  0.00000000000E+00  0.00000000000E+00  0.98551916887E+03  0.98551916887E+03  0.00000000000E+00 0. -1.
         21   -1    0    0  502  503 -0.00000000000E+00 -0.00000000000E+00 -0.17834179953E+04  0.17834179953E+04  0.00000000000E+00 0. -1.
    9000010    2    1    2  501    0 -0.16468658926E+03 -0.55976104774E+03  0.11965711578E+03  0.12254103953E+04  0.10709148932E+04 0.  0.
   -9000010    2    1    2    0  503  0.16468658926E+03  0.55976104774E+03 -0.91755594218E+03  0.15435267688E+04  0.10954961779E+04 0.  0.
        -13    1    3    3    0    0  0.31397918211E+03  0.15398245496E+03 -0.37706767797E+02  0.35173190747E+03  0.10566000000E+00 0.  1.
          4    1    3    3  501    0 -0.47866577137E+03 -0.71374350269E+03  0.15736388358E+03  0.87367848788E+03  0.00000000000E+00 0.  1.
         13    1    4    4    0    0 -0.26782720244E+03  0.71312845793E+03 -0.70443920739E+03  0.10375539581E+04  0.10566000000E+00 0. -1.
         -4    1    4    4    0  503  0.43251379170E+03 -0.15336741019E+03 -0.21311673478E+03  0.50597281070E+03  0.00000000000E+00 0. -1.
<mgrwt>
<rscale>  2 0.12357494E+04</rscale>
<asrwt>0</asrwt>
<pdfrwt beam="1">  1       21 0.15161833E+00 0.12411954E+04</pdfrwt>
<pdfrwt beam="2">  1       21 0.27437200E+00 0.12411954E+04</pdfrwt>
<totfact> 0.47043737E+00</totfact>
</mgrwt>
</event>
<event>
 8    1  0.7208583E-006  0.1095551E+04  0.7818608E-02  0.8692670E-01
         21   -1    0    0  503  502  0.00000000000E+00  0.00000000000E+00  0.90981458003E+03  0.90981458003E+03  0.00000000000E+00 0. -1.
         21   -1    0    0  501  503 -0.00000000000E+00 -0.00000000000E+00 -0.15992837266E+04  0.15992837266E+04  0.00000000000E+00 0. -1.
    9000010    2    1    2  501    0  0.14382192252E+03 -0.37274326622E+03 -0.88731718668E+03  0.14098096006E+04  0.10201024616E+04 0.  0.
   -9000010    2    1    2    0  502 -0.14382192252E+03  0.37274326622E+03  0.19784804012E+03  0.10992887061E+04  0.10048231309E+04 0.  0.
        -13    1    3    3    0    0 -0.16591437931E+03 -0.60797301302E+03 -0.28225739275E+03  0.69052734396E+03  0.10566000000E+00 0.  1.
          4    1    3    3  501    0  0.30973630182E+03  0.23522974680E+03 -0.60505979393E+03  0.71928225661E+03  0.00000000000E+00 0.  1.
         13    1    4    4    0    0 -0.43384613007E+03  0.29742555291E+03 -0.23233410711E+03  0.57503354041E+03  0.10566000000E+00 0. -1.
         -4    1    4    4    0  502  0.29002420756E+03  0.75317713311E+02  0.43018214723E+03  0.52425516564E+03  0.00000000000E+00 0. -1.
<mgrwt>
<rscale>  2 0.10919801E+04</rscale>
<asrwt>0</asrwt>
<pdfrwt beam="1">  1       21 0.13997148E+00 0.10955507E+04</pdfrwt>
<pdfrwt beam="2">  1       21 0.24604365E+00 0.10955507E+04</pdfrwt>
<totfact> 0.99195658E+00</totfact>
</mgrwt>
</event>
<event>
 8    1  0.7208583E-006  0.1159220E+04  0.7818608E-02  0.8653586E-01
         21   -1    0    0  501  502  0.00000000000E+00  0.00000000000E+00  0.19800162519E+04  0.19800162519E+04  0.00000000000E+00 0.  1.
         21   -1    0    0  502  503 -0.00000000000E+00 -0.00000000000E+00 -0.65542928421E+03  0.65542928421E+03  0.00000000000E+00 0.  1.
    9000010    2    1    2  501    0 -0.12866026700E+03 -0.52256100298E+03  0.40415073419E+03  0.11552452140E+04  0.93895166142E+03 0.  0.
   -9000010    2    1    2    0  503  0.12866026700E+03  0.52256100298E+03  0.92043623350E+03  0.14802003221E+04  0.10267261891E+04 0.  0.
        -13    1    3    3    0    0 -0.42189603910E+03 -0.43841542039E+03  0.54719207328E+03  0.81830527608E+03  0.10566000000E+00 0.  1.
          4    1    3    3  501    0  0.29323577209E+03 -0.84145582590E+02 -0.14304133909E+03  0.33693993796E+03  0.00000000000E+00 0.  1.
         13    1    4    4    0    0  0.39659681224E+03 -0.75160902087E+02  0.66338192108E+03  0.77653961719E+03  0.10566000000E+00 0. -1.
         -4    1    4    4    0  503 -0.26793654523E+03  0.59772190507E+03  0.25705431241E+03  0.70366070488E+03  0.00000000000E+00 0. -1.
<mgrwt>
<rscale>  2 0.11394773E+04</rscale>
<asrwt>0</asrwt>
<pdfrwt beam="1">  1       21 0.30461788E+00 0.11592196E+04</pdfrwt>
<pdfrwt beam="2">  1       21 0.10083528E+00 0.11592196E+04</pdfrwt>
<totfact> 0.93204954E+00</totfact>
</mgrwt>
</event>
<event>
 8    1  0.7208583E-006  0.1000469E+04  0.7818608E-02  0.8795328E-01
         21   -1    0    0  501  502  0.00000000000E+00  0.00000000000E+00  0.19157416155E+04  0.19157416155E+04  0.00000000000E+00 0.  1.
         21   -1    0    0  502  503 -0.00000000000E+00 -0.00000000000E+00 -0.79387529909E+03  0.79387529909E+03  0.00000000000E+00 0.  1.
    9000010    2    1    2  501    0  0.55379192839E+02 -0.10162871093E+03  0.13991340665E+04  0.16714383205E+04  0.90704722780E+03 0.  0.
   -9000010    2    1    2    0  503 -0.55379192839E+02  0.10162871093E+03 -0.27726775007E+03  0.10381785941E+04  0.99375154744E+03 0.  0.
        -13    1    3    3    0    0 -0.26518624010E+03 -0.68097869047E+02  0.13081980494E+04  0.13365415105E+04  0.10566000000E+00 0.  1.
          4    1    3    3  501    0  0.32056543294E+03 -0.33530841880E+02  0.90936017083E+02  0.33489681001E+03  0.00000000000E+00 0.  1.
         13    1    4    4    0    0  0.15155633997E+03  0.21539917799E+03  0.30907331626E+03  0.40606952120E+03  0.10566000000E+00 0. -1.
         -4    1    4    4    0  503 -0.20693553281E+03 -0.11377046707E+03 -0.58634106633E+03  0.63210907285E+03  0.00000000000E+00 0. -1.
<mgrwt>
<rscale>  2 0.97822062E+03</rscale>
<asrwt>0</asrwt>
<pdfrwt beam="1">  1       21 0.29472948E+00 0.10004686E+04</pdfrwt>
<pdfrwt beam="2">  1       21 0.12213466E+00 0.10004686E+04</pdfrwt>
<totfact> 0.67424374E+00</totfact>
</mgrwt>
</event>
<event>
 8    1  0.7208583E-006  0.1065317E+04  0.7818608E-02  0.8716754E-01
         21   -1    0    0  503  502  0.00000000000E+00  0.00000000000E+00  0.16891866356E+04  0.16891866356E+04  0.00000000000E+00 0. -1.
         21   -1    0    0  501  503 -0.00000000000E+00 -0.00000000000E+00 -0.67169515405E+03  0.67169515405E+03  0.00000000000E+00 0. -1.
    9000010    2    1    2  501    0 -0.24815853232E+03  0.24769920508E+03  0.59102371177E+03  0.12133731953E+04  0.10000139648E+04 0.  0.
   -9000010    2    1    2    0  502  0.24815853232E+03 -0.24769920508E+03  0.42646776977E+03  0.11475085943E+04  0.10059640461E+04 0.  0.
        -13    1    3    3    0    0  0.69208463919E+02 -0.25345335265E+03  0.56093875955E+03  0.61941966112E+03  0.10566000000E+00 0.  1.
          4    1    3    3  501    0 -0.31736699624E+03  0.50115255773E+03  0.30084952218E+02  0.59395353419E+03  0.00000000000E+00 0.  1.
         13    1    4    4    0    0  0.99358941004E+02 -0.62246771729E+03  0.12152190772E+03  0.64195470513E+03  0.10566000000E+00 0. -1.
         -4    1    4    4    0  502  0.14879959132E+03  0.37476851221E+03  0.30494586205E+03  0.50555388921E+03  0.00000000000E+00 0. -1.
<mgrwt>
<rscale>  2 0.10639104E+04</rscale>
<asrwt>0</asrwt>
<pdfrwt beam="1">  1       21 0.25987487E+00 0.10653174E+04</pdfrwt>
<pdfrwt beam="2">  1       21 0.10333772E+00 0.10653174E+04</pdfrwt>
<totfact> 0.18574761E+01</totfact>
</mgrwt>
</event>
<event>
 8    1  0.7208583E-006  0.1077206E+04  0.7818608E-02  0.8705850E-01
         21   -1    0    0  503  502  0.00000000000E+00  0.00000000000E+00  0.10406650893E+04  0.10406650893E+04  0.00000000000E+00 0.  1.
         21   -1    0    0  501  503 -0.00000000000E+00 -0.00000000000E+00 -0.12158400476E+04  0.12158400476E+04  0.00000000000E+00 0.  1.
    9000010    2    1    2  501    0  0.12786272634E+03 -0.35531720388E+03 -0.41717937448E+03  0.11551675490E+04  0.10088479784E+04 0.  0.
   -9000010    2    1    2    0  502 -0.12786272634E+03  0.35531720388E+03  0.24200441620E+03  0.11013375879E+04  0.10058723343E+04 0.  0.
        -13    1    3    3    0    0 -0.37833264288E+03 -0.42177116234E+03 -0.22627115792E+03  0.61010257344E+03  0.10566000000E+00 0.  1.
          4    1    3    3  501    0  0.50619536922E+03  0.66453958462E+02 -0.19090821657E+03  0.54506497555E+03  0.00000000000E+00 0.  1.
         13    1    4    4    0    0 -0.32009198187E+03  0.15298221902E+03 -0.31749417104E+03  0.47609347402E+03  0.10566000000E+00 0. -1.
         -4    1    4    4    0  502  0.19222925553E+03  0.20233498486E+03  0.55949858724E+03  0.62524411385E+03  0.00000000000E+00 0. -1.
<mgrwt>
<rscale>  2 0.10765091E+04</rscale>
<asrwt>0</asrwt>
<pdfrwt beam="1">  1       21 0.16010232E+00 0.10772063E+04</pdfrwt>
<pdfrwt beam="2">  1       21 0.18705231E+00 0.10772063E+04</pdfrwt>
<totfact> 0.18511904E+01</totfact>
</mgrwt>
</event>
<event>
 8    1  0.7208583E-006  0.1043248E+04  0.7818608E-02  0.8738561E-01
         21   -1    0    0  503  502  0.00000000000E+00  0.00000000000E+00  0.77178947476E+03  0.77178947476E+03  0.00000000000E+00 0. -1.
         21   -1    0    0  501  503 -0.00000000000E+00 -0.00000000000E+00 -0.17350443853E+04  0.17350443853E+04  0.00000000000E+00 0. -1.
    9000010    2    1    2  501    0  0.15645226365E+03  0.84883945548E+01  0.75341805147E+02  0.10459645719E+04  0.10314146278E+04 0.  0.
   -9000010    2    1    2    0  502 -0.15645226365E+03 -0.84883945548E+01 -0.10385967157E+04  0.14608692881E+04  0.10153356960E+04 0.  0.
        -13    1    3    3    0    0  0.51372018703E+03  0.21238607470E+03  0.23657349971E+03  0.60413848348E+03  0.10566000000E+00 0.  1.
          4    1    3    3  501    0 -0.35726792338E+03 -0.20389768015E+03 -0.16123169457E+03  0.44182608839E+03  0.00000000000E+00 0.  1.
         13    1    4    4    0    0  0.10911112411E+03  0.21953689603E+03  0.10367049353E+03  0.26617525902E+03  0.10566000000E+00 0. -1.
         -4    1    4    4    0  502 -0.26556338775E+03 -0.22802529059E+03 -0.11422672092E+04  0.11946940291E+04  0.00000000000E+00 0. -1.
<mgrwt>
<rscale>  2 0.10392512E+04</rscale>
<asrwt>0</asrwt>
<pdfrwt beam="1">  1       21 0.11873684E+00 0.10432476E+04</pdfrwt>
<pdfrwt beam="2">  1       21 0.26692990E+00 0.10432476E+04</pdfrwt>
<totfact> 0.11389975E+01</totfact>
</mgrwt>
</event>
<event>
 8    1  0.7208583E-006  0.1124252E+04  0.7818608E-02  0.8686188E-01
         21   -1    0    0  503  502  0.00000000000E+00  0.00000000000E+00  0.11585201004E+04  0.11585201004E+04  0.00000000000E+00 0.  1.
         21   -1    0    0  501  503 -0.00000000000E+00 -0.00000000000E+00 -0.10819747352E+04  0.10819747352E+04  0.00000000000E+00 0.  1.
    9000010    2    1    2  501    0  0.15442468506E+03  0.14129486371E+03 -0.27008448587E+03  0.10640191256E+04  0.10076605819E+04 0.  0.
   -9000010    2    1    2    0  502 -0.15442468506E+03 -0.14129486371E+03  0.34662985104E+03  0.11764757101E+04  0.11045956821E+04 0.  0.
        -13    1    3    3    0    0  0.56886822236E+03  0.68657236675E+02 -0.17494922469E+02  0.57326342464E+03  0.10566000000E+00 0.  1.
          4    1    3    3  501    0 -0.41444353730E+03  0.72637627035E+02 -0.25258956341E+03  0.49075570095E+03  0.00000000000E+00 0.  1.
         13    1    4    4    0    0  0.45742610463E+03 -0.13067396800E+03  0.52552864082E+01  0.47575409227E+03  0.10566000000E+00 0. -1.
         -4    1    4    4    0  502 -0.61185078969E+03 -0.10620895711E+02  0.34137456463E+03  0.70072161780E+03  0.00000000000E+00 0. -1.
<mgrwt>
<rscale>  2 0.10996882E+04</rscale>
<asrwt>0</asrwt>
<pdfrwt beam="1">  1       21 0.17823386E+00 0.11242521E+04</pdfrwt>
<pdfrwt beam="2">  1       21 0.16645765E+00 0.11242521E+04</pdfrwt>
<totfact> 0.19065738E+01</totfact>
</mgrwt>
</event>
<event>
 8    1  0.7208583E-006  0.1109566E+04  0.7818608E-02  0.8679797E-01
         21   -1    0    0  501  502  0.00000000000E+00  0.00000000000E+00  0.10570059724E+04  0.10570059724E+04  0.00000000000E+00 0.  1.
         21   -1    0    0  502  503 -0.00000000000E+00 -0.00000000000E+00 -0.15853264882E+04  0.15853264882E+04  0.00000000000E+00 0.  1.
    9000010    2    1    2  501    0  0.23068657071E+03  0.41091245966E+03  0.42454051704E+03  0.11797731440E+04  0.99476865512E+03 0.  0.
   -9000010    2    1    2    0  503 -0.23068657071E+03 -0.41091245966E+03 -0.95286103283E+03  0.14625593166E+04  0.10045248942E+04 0.  0.
        -13    1    3    3    0    0  0.23010591528E+03 -0.48737081629E+02 -0.26293691914E+03  0.35278870444E+03  0.10566000000E+00 0.  1.
          4    1    3    3  501    0  0.58065542816E+00  0.45964954129E+03  0.68747743617E+03  0.82698443952E+03  0.00000000000E+00 0.  1.
         13    1    4    4    0    0 -0.35607356041E+03 -0.41286918910E+02  0.72239153211E+02  0.36566582629E+03  0.10566000000E+00 0. -1.
         -4    1    4    4    0  503  0.12538698970E+03 -0.36962554075E+03 -0.10251001860E+04  0.10968934903E+04  0.00000000000E+00 0. -1.
<mgrwt>
<rscale>  2 0.11073527E+04</rscale>
<asrwt>0</asrwt>
<pdfrwt beam="1">  1       21 0.16261630E+00 0.11095655E+04</pdfrwt>
<pdfrwt beam="2">  1       21 0.24389638E+00 0.11095655E+04</pdfrwt>
<totfact> 0.64468646E+00</totfact>
</mgrwt>
</event>
<event>
 8    1  0.7208583E-006  0.1072421E+04  0.7818608E-02  0.8710512E-01
         21   -1    0    0  501  502  0.00000000000E+00  0.00000000000E+00  0.16426895874E+04  0.16426895874E+04  0.00000000000E+00 0.  1.
         21   -1    0    0  502  503 -0.00000000000E+00 -0.00000000000E+00 -0.92145268049E+03  0.92145268049E+03  0.00000000000E+00 0.  1.
    9000010    2    1    2  501    0  0.23189361478E+03 -0.32070614650E+03  0.99314479117E+03  0.14577876833E+04  0.99105059026E+03 0.  0.
   -9000010    2    1    2    0  503 -0.23189361478E+03  0.32070614650E+03 -0.27190788427E+03  0.11063545846E+04  0.99672437928E+03 0.  0.
        -13    1    3    3    0    0  0.17823734847E+03  0.35004940013E+03  0.32992909980E+03  0.51298767722E+03  0.10566000000E+00 0.  1.
          4    1    3    3  501    0  0.53656266307E+02 -0.67075554663E+03  0.66321569137E+03  0.94480000611E+03  0.00000000000E+00 0.  1.
         13    1    4    4    0    0 -0.16517024875E+03  0.49987183531E+03  0.22606742514E+03  0.57293939879E+03  0.10566000000E+00 0. -1.
         -4    1    4    4    0  503 -0.66723366035E+02 -0.17916568881E+03 -0.49797530941E+03  0.53341518577E+03  0.00000000000E+00 0. -1.
<mgrwt>
<rscale>  2 0.10711006E+04</rscale>
<asrwt>0</asrwt>
<pdfrwt beam="1">  1       21 0.25272148E+00 0.10724209E+04</pdfrwt>
<pdfrwt beam="2">  1       21 0.14176195E+00 0.10724209E+04</pdfrwt>
<totfact> 0.85833480E+00</totfact>
</mgrwt>
</event>
<event>
 8    1  0.7208583E-006  0.1077613E+04  0.7818608E-02  0.8705417E-01
         21   -1    0    0  501  502  0.00000000000E+00  0.00000000000E+00  0.15403328770E+04  0.15403328770E+04  0.00000000000E+00 0. -1.
         21   -1    0    0  502  503 -0.00000000000E+00 -0.00000000000E+00 -0.80287005344E+03  0.80287005344E+03  0.00000000000E+00 0. -1.
    9000010    2    1    2  501    0 -0.37205349452E+03 -0.17267548365E+03  0.74833846772E+02  0.10802087037E+04  0.99649892795E+03 0.  0.
   -9000010    2    1    2    0  503  0.37205349452E+03  0.17267548365E+03  0.66262897683E+03  0.12629942268E+04  0.99389970853E+03 0.  0.
        -13    1    3    3    0    0  0.13566924142E+03 -0.40344787753E+03 -0.18600848189E+03  0.46451641462E+03  0.10566000000E+00 0.  1.
          4    1    3    3  501    0 -0.50772273594E+03  0.23077239388E+03  0.26084232867E+03  0.61569228904E+03  0.00000000000E+00 0.  1.
         13    1    4    4    0    0  0.76968274069E+02  0.38114530091E+03  0.78950764264E+03  0.88006714776E+03  0.10566000000E+00 0. -1.
         -4    1    4    4    0  503  0.29508522045E+03 -0.20846981726E+03 -0.12687866582E+03  0.38292707906E+03  0.00000000000E+00 0. -1.
<mgrwt>
<rscale>  2 0.10770122E+04</rscale>
<asrwt>0</asrwt>
<pdfrwt beam="1">  1       21 0.23697429E+00 0.10776134E+04</pdfrwt>
<pdfrwt beam="2">  1       21 0.12351847E+00 0.10776134E+04</pdfrwt>
<totfact> 0.16696988E+01</totfact>
</mgrwt>
</event>
<event>
 8    1  0.7208583E-006  0.1050649E+04  0.7818608E-02  0.8766289E-01
         21   -1    0    0  503  502  0.00000000000E+00  0.00000000000E+00  0.16278204387E+04  0.16278204387E+04  0.00000000000E+00 0.  1.
         21   -1    0    0  501  503 -0.00000000000E+00 -0.00000000000E+00 -0.58106277432E+03  0.58106277432E+03  0.00000000000E+00 0.  1.
    9000010    2    1    2  501    0  0.11897227193E+03 -0.68224098845E+02  0.44281734347E+03  0.99702199125E+03  0.88269854549E+03 0.  0.
   -9000010    2    1    2    0  502 -0.11897227193E+03  0.68224098845E+02  0.60394032093E+03  0.12118612218E+04  0.10416596279E+04 0.  0.
        -13    1    3    3    0    0  0.34394348927E+03 -0.31898583508E+03  0.46355809613E+03  0.65949617622E+03  0.10566000000E+00 0.  1.
          4    1    3    3  501    0 -0.22497121734E+03  0.25076173623E+03 -0.20740752665E+02  0.33752581503E+03  0.00000000000E+00 0.  1.
         13    1    4    4    0    0 -0.52263936415E+03 -0.18922240079E+03  0.21860775937E+03  0.59728250062E+03  0.10566000000E+00 0. -1.
         -4    1    4    4    0  502  0.40366709223E+03  0.25744649963E+03  0.38533256156E+03  0.61457872117E+03  0.00000000000E+00 0. -1.
<mgrwt>
<rscale>  2 0.10088842E+04</rscale>
<asrwt>0</asrwt>
<pdfrwt beam="1">  1       21 0.25043391E+00 0.10506492E+04</pdfrwt>
<pdfrwt beam="2">  1       21 0.89394274E-01 0.10506492E+04</pdfrwt>
<totfact> 0.31731591E+01</totfact>
</mgrwt>
</event>
<event>
 8    1  0.7208583E-006  0.9825262E+03  0.7818608E-02  0.8801793E-01
         21   -1    0    0  503  502  0.00000000000E+00  0.00000000000E+00  0.11537674232E+04  0.11537674232E+04  0.00000000000E+00 0.  1.
         21   -1    0    0  501  503 -0.00000000000E+00 -0.00000000000E+00 -0.10193102589E+04  0.10193102589E+04  0.00000000000E+00 0.  1.
    9000010    2    1    2  501    0 -0.11608281137E+03  0.59386406021E+02 -0.43746688513E+03  0.10362158431E+04  0.93024944699E+03 0.  0.
   -9000010    2    1    2    0  502  0.11608281137E+03 -0.59386406021E+02  0.57192404941E+03  0.11368618390E+04  0.97383559099E+03 0.  0.
        -13    1    3    3    0    0  0.18261924280E+03 -0.31621725318E+03 -0.41924073214E+03  0.55597296850E+03  0.10566000000E+00 0.  1.
          4    1    3    3  501    0 -0.29870205417E+03  0.37560365920E+03 -0.18226152992E+02  0.48024287462E+03  0.00000000000E+00 0.  1.
         13    1    4    4    0    0  0.53573828667E+03  0.73660756635E+02  0.34647906021E+03  0.64225319711E+03  0.10566000000E+00 0. -1.
         -4    1    4    4    0  502 -0.41965547530E+03 -0.13304716266E+03  0.22544498920E+03  0.49460864185E+03  0.00000000000E+00 0. -1.
<mgrwt>
<rscale>  2 0.97154786E+03</rscale>
<asrwt>0</asrwt>
<pdfrwt beam="1">  1       21 0.17750268E+00 0.98252619E+03</pdfrwt>
<pdfrwt beam="2">  1       21 0.15681696E+00 0.98252619E+03</pdfrwt>
<totfact> 0.24152748E+01</totfact>
</mgrwt>
</event>
<event>
 8    1  0.7208583E-006  0.1274652E+04  0.7818608E-02  0.8564998E-01
         21   -1    0    0  503  502  0.00000000000E+00  0.00000000000E+00  0.13215890388E+04  0.13215890388E+04  0.00000000000E+00 0. -1.
         21   -1    0    0  501  503 -0.00000000000E+00 -0.00000000000E+00 -0.12060194167E+04  0.12060194167E+04  0.00000000000E+00 0. -1.
    9000010    2    1    2  501    0 -0.64180422827E+03 -0.25551973236E+03 -0.17992567190E+03  0.12872882463E+04  0.10712304983E+04 0.  0.
   -9000010    2    1    2    0  502  0.64180422827E+03  0.25551973236E+03  0.29549529402E+03  0.12403202093E+04  0.98685042015E+03 0.  0.
        -13    1    3    3    0    0 -0.84009447176E+03 -0.27052738551E+03  0.15663513810E+03  0.89636954736E+03  0.10566000000E+00 0.  1.
          4    1    3    3  501    0  0.19829024349E+03  0.15007653150E+02 -0.33656081000E+03  0.39091869890E+03  0.00000000000E+00 0.  1.
         13    1    4    4    0    0  0.31653356818E+03  0.47564390600E+03 -0.20242740198E+03  0.60614147634E+03  0.10566000000E+00 0. -1.
         -4    1    4    4    0  502  0.32527066009E+03 -0.22012417364E+03  0.49792269600E+03  0.63417873296E+03  0.00000000000E+00 0. -1.
<mgrwt>
<rscale>  2 0.12567678E+04</rscale>
<asrwt>0</asrwt>
<pdfrwt beam="1">  1       21 0.20332139E+00 0.12746520E+04</pdfrwt>
<pdfrwt beam="2">  1       21 0.18554145E+00 0.12746520E+04</pdfrwt>
<totfact> 0.81077823E+00</totfact>
</mgrwt>
</event>
<event>
 8    1  0.7208583E-006  0.1018839E+04  0.7818608E-02  0.8760103E-01
         21   -1    0    0  503  502  0.00000000000E+00  0.00000000000E+00  0.61837347748E+03  0.61837347748E+03  0.00000000000E+00 0. -1.
         21   -1    0    0  501  503 -0.00000000000E+00 -0.00000000000E+00 -0.19208042511E+04  0.19208042511E+04  0.00000000000E+00 0. -1.
    9000010    2    1    2  501    0  0.93151920101E+02 -0.15809879452E+03 -0.11178752345E+04  0.15037581460E+04  0.98892416927E+03 0.  0.
   -9000010    2    1    2    0  502 -0.93151920101E+02  0.15809879452E+03 -0.18455553912E+03  0.10354195826E+04  0.10021778565E+04 0.  0.
        -13    1    3    3    0    0  0.37597064425E+02  0.41988514959E+03 -0.53353851340E+03  0.67998561348E+03  0.10566000000E+00 0.  1.
          4    1    3    3  501    0  0.55554855677E+02 -0.57798394411E+03 -0.58433672115E+03  0.82377253251E+03  0.00000000000E+00 0.  1.
         13    1    4    4    0    0 -0.71833941458E+02  0.51599726574E+03  0.15301232488E+03  0.54297889105E+03  0.10566000000E+00 0. -1.
         -4    1    4    4    0  502 -0.21317978643E+02 -0.35789847122E+03 -0.33756786400E+03  0.49244069157E+03  0.00000000000E+00 0. -1.
<mgrwt>
<rscale>  2 0.10155647E+04</rscale>
<asrwt>0</asrwt>
<pdfrwt beam="1">  1       21 0.95134382E-01 0.10188390E+04</pdfrwt>
<pdfrwt beam="2">  1       21 0.29550834E+00 0.10188390E+04</pdfrwt>
<totfact> 0.12969167E+01</totfact>
</mgrwt>
</event>
<event>
 8    1  0.7208583E-006  0.1030695E+04  0.7818608E-02  0.8747502E-01
         21   -1    0    0  501  502  0.00000000000E+00  0.00000000000E+00  0.18744941395E+04  0.18744941395E+04  0.00000000000E+00 0. -1.
         21   -1    0    0  502  503 -0.00000000000E+00 -0.00000000000E+00 -0.77228409483E+03  0.77228409483E+03  0.00000000000E+00 0. -1.
    9000010    2    1    2  501    0 -0.10479986152E+03  0.23624811691E+03  0.12377079061E+04  0.16072153997E+04  0.99218158443E+03 0.  0.
   -9000010    2    1    2    0  503  0.10479986152E+03 -0.23624811691E+03 -0.13549786141E+03  0.10395628347E+04  0.99776501896E+03 0.  0.
        -13    1    3    3    0    0  0.19031429439E+03  0.55735373221E+03  0.69464613890E+03  0.91071180014E+03  0.10566000000E+00 0.  1.
          4    1    3    3  501    0 -0.29511415591E+03 -0.32110561530E+03  0.54306176719E+03  0.69650359955E+03  0.00000000000E+00 0.  1.
         13    1    4    4    0    0 -0.44044151146E+03 -0.19966424057E+03 -0.45307728152E+02  0.48570292914E+03  0.10566000000E+00 0. -1.
         -4    1    4    4    0  503  0.54524137298E+03 -0.36583876333E+02 -0.90190133256E+02  0.55385990553E+03  0.00000000000E+00 0. -1.
<mgrwt>
<rscale>  2 0.10293408E+04</rscale>
<asrwt>0</asrwt>
<pdfrwt beam="1">  1       21 0.28838371E+00 0.10306945E+04</pdfrwt>
<pdfrwt beam="2">  1       21 0.11881294E+00 0.10306945E+04</pdfrwt>
<totfact> 0.80171063E+00</totfact>
</mgrwt>
</event>
<event>
 8    1  0.7208583E-006  0.1120554E+04  0.7818608E-02  0.8669622E-01
         21   -1    0    0  501  502  0.00000000000E+00  0.00000000000E+00  0.13984322298E+04  0.13984322298E+04  0.00000000000E+00 0.  1.
         21   -1    0    0  502  503 -0.00000000000E+00 -0.00000000000E+00 -0.90724270448E+03  0.90724270448E+03  0.00000000000E+00 0.  1.
    9000010    2    1    2  501    0 -0.39418562061E+03  0.31533359068E+03  0.37842258493E+03  0.11794614230E+04  0.99654805131E+03 0.  0.
   -9000010    2    1    2    0  503  0.39418562061E+03 -0.31533359068E+03  0.11276694039E+03  0.11262135113E+04  0.10004113720E+04 0.  0.
        -13    1    3    3    0    0 -0.25431287461E+03 -0.24033742647E+03  0.48356948407E+03  0.59688908002E+03  0.10566000000E+00 0.  1.
          4    1    3    3  501    0 -0.13987274600E+03  0.55567101715E+03 -0.10514689914E+03  0.58257234295E+03  0.00000000000E+00 0.  1.
         13    1    4    4    0    0  0.18624889526E+02  0.11561393039E+02 -0.40633566137E+03  0.40692656977E+03  0.10566000000E+00 0. -1.
         -4    1    4    4    0  503  0.37556073109E+03 -0.32689498371E+03  0.51910260176E+03  0.71928694154E+03  0.00000000000E+00 0. -1.
<mgrwt>
<rscale>  2 0.11196907E+04</rscale>
<asrwt>0</asrwt>
<pdfrwt beam="1">  1       21 0.21514342E+00 0.11205537E+04</pdfrwt>
<pdfrwt beam="2">  1       21 0.13957580E+00 0.11205537E+04</pdfrwt>
<totfact> 0.16892397E+01</totfact>
</mgrwt>
</event>
<event>
 8    1  0.7208583E-006  0.1130091E+04  0.7818608E-02  0.8661871E-01
         21   -1    0    0  503  502  0.00000000000E+00  0.00000000000E+00  0.20156666000E+04  0.20156666000E+04  0.00000000000E+00 0.  1.
         21   -1    0    0  501  503 -0.00000000000E+00 -0.00000000000E+00 -0.67783852902E+03  0.67783852902E+03  0.00000000000E+00 0.  1.
    9000010    2    1    2  501    0 -0.12240622336E+03 -0.51405038969E+03  0.31618944180E+03  0.11700713007E+04  0.99491708143E+03 0.  0.
   -9000010    2    1    2    0  502  0.12240622336E+03  0.51405038969E+03  0.10216386291E+04  0.15234338283E+04  0.99893646145E+03 0.  0.
        -13    1    3    3    0    0 -0.32074136419E+03 -0.46452398602E+03  0.59772160492E+03  0.82214882135E+03  0.10566000000E+00 0.  1.
          4    1    3    3  501    0  0.19833514084E+03 -0.49526403663E+02 -0.28153216312E+03  0.34792247933E+03  0.00000000000E+00 0.  1.
         13    1    4    4    0    0  0.11858999352E+02 -0.52008333841E+02  0.93932368445E+03  0.94083712617E+03  0.10566000000E+00 0. -1.
         -4    1    4    4    0  502  0.11054722401E+03  0.56605872353E+03  0.82314944694E+02  0.58259670213E+03  0.00000000000E+00 0. -1.
<mgrwt>
<rscale>  2 0.11292019E+04</rscale>
<asrwt>0</asrwt>
<pdfrwt beam="1">  1       21 0.31010255E+00 0.11300908E+04</pdfrwt>
<pdfrwt beam="2">  1       21 0.10428285E+00 0.11300908E+04</pdfrwt>
<totfact> 0.78469798E+00</totfact>
</mgrwt>
</event>
<event>
 8    1  0.7208583E-006  0.1043487E+04  0.7818608E-02  0.8746782E-01
         21   -1    0    0  501  502  0.00000000000E+00  0.00000000000E+00  0.18019026183E+04  0.18019026183E+04  0.00000000000E+00 0.  1.
         21   -1    0    0  502  503 -0.00000000000E+00 -0.00000000000E+00 -0.63530095829E+03  0.63530095829E+03  0.00000000000E+00 0.  1.
    9000010    2    1    2  501    0 -0.18621200489E+03 -0.20596650957E+02  0.97429643634E+03  0.14276268600E+04  0.10265309410E+04 0.  0.
   -9000010    2    1    2    0  503  0.18621200489E+03  0.20596650957E+02  0.19230522365E+03  0.10095767166E+04  0.97322387701E+03 0.  0.
        -13    1    3    3    0    0 -0.41322566330E+03 -0.17973439495E+03  0.39228648437E+02  0.45232598815E+03  0.10566000000E+00 0.  1.
          4    1    3    3  501    0  0.22701365841E+03  0.15913774399E+03  0.93506778790E+03  0.97530087186E+03  0.00000000000E+00 0.  1.
         13    1    4    4    0    0  0.54933773315E+02 -0.20899975400E+03 -0.34707074944E+03  0.40884805601E+03  0.10566000000E+00 0. -1.
         -4    1    4    4    0  503  0.13127823157E+03  0.22959640495E+03  0.53937597310E+03  0.60072866055E+03  0.00000000000E+00 0. -1.
<mgrwt>
<rscale>  2 0.10301341E+04</rscale>
<asrwt>0</asrwt>
<pdfrwt beam="1">  1       21 0.27721579E+00 0.10434869E+04</pdfrwt>
<pdfrwt beam="2">  1       21 0.97738610E-01 0.10434869E+04</pdfrwt>
<totfact> 0.16225067E+01</totfact>
</mgrwt>
</event>
<event>
 8    1  0.7208583E-006  0.1097786E+04  0.7818608E-02  0.8705174E-01
         21   -1    0    0  501  502  0.00000000000E+00  0.00000000000E+00  0.22155281019E+04  0.22155281019E+04  0.00000000000E+00 0.  1.
         21   -1    0    0  502  503 -0.00000000000E+00 -0.00000000000E+00 -0.53156216842E+03  0.53156216842E+03  0.00000000000E+00 0.  1.
    9000010    2    1    2  501    0  0.46078051455E+01 -0.15110271586E+03  0.11779422180E+04  0.16101808661E+04  0.10873275910E+04 0.  0.
   -9000010    2    1    2    0  503 -0.46078051455E+01  0.15110271586E+03  0.50602371551E+03  0.11369094042E+04  0.10068017333E+04 0.  0.
        -13    1    3    3    0    0  0.74881808891E+02 -0.54741391208E+03  0.26567354765E+03  0.61306746899E+03  0.10566000000E+00 0.  1.
          4    1    3    3  501    0 -0.70274003745E+02  0.39631119622E+03  0.91226867030E+03  0.99711339709E+03  0.00000000000E+00 0.  1.
         13    1    4    4    0    0 -0.39022466853E+03  0.34332695618E+03  0.47633941165E+03  0.70501626721E+03  0.10566000000E+00 0. -1.
         -4    1    4    4    0  503  0.38561686339E+03 -0.19222424032E+03  0.29684303856E+02  0.43189313700E+03  0.00000000000E+00 0. -1.
<mgrwt>
<rscale>  2 0.10772950E+04</rscale>
<asrwt>0</asrwt>
<pdfrwt beam="1">  1       21 0.34085047E+00 0.10977862E+04</pdfrwt>
<pdfrwt beam="2">  1       21 0.81778796E-01 0.10977862E+04</pdfrwt>
<totfact> 0.89716570E+00</totfact>
</mgrwt>
</event>
<event>
 8    1  0.7208583E-006  0.1008598E+04  0.7818608E-02  0.8768623E-01
         21   -1    0    0  501  502  0.00000000000E+00  0.00000000000E+00  0.41614981759E+03  0.41614981759E+03  0.00000000000E+00 0.  1.
         21   -1    0    0  502  503 -0.00000000000E+00 -0.00000000000E+00 -0.24244660070E+04  0.24244660070E+04  0.00000000000E+00 0.  1.
    9000010    2    1    2  501    0  0.15442321644E+03 -0.10736039057E+03 -0.10426871038E+04  0.14506779067E+04  0.99090726572E+03 0.  0.
   -9000010    2    1    2    0  503 -0.15442321644E+03  0.10736039057E+03 -0.96562908554E+03  0.13899379178E+04  0.98189363038E+03 0.  0.
        -13    1    3    3    0    0  0.53996550846E+03  0.11559038522E+03 -0.46956683994E+03  0.72485647946E+03  0.10566000000E+00 0.  1.
          4    1    3    3  501    0 -0.38554229202E+03 -0.22295077579E+03 -0.57312026390E+03  0.72582142725E+03  0.00000000000E+00 0.  1.
         13    1    4    4    0    0 -0.10171425325E+03 -0.38318674987E+03 -0.12584557362E+03  0.41595071121E+03  0.10566000000E+00 0. -1.
         -4    1    4    4    0  503 -0.52708963193E+02  0.49054714044E+03 -0.83978351193E+03  0.97398720664E+03  0.00000000000E+00 0. -1.
<mgrwt>
<rscale>  2 0.10063772E+04</rscale>
<asrwt>0</asrwt>
<pdfrwt beam="1">  1       21 0.64023050E-01 0.10085980E+04</pdfrwt>
<pdfrwt beam="2">  1       21 0.37299477E+00 0.10085980E+04</pdfrwt>
<totfact> 0.97674264E+00</totfact>
</mgrwt>
</event>
<event>
 8    1  0.7208583E-006  0.1023108E+04  0.7818608E-02  0.8757039E-01
         21   -1    0    0  503  502  0.00000000000E+00  0.00000000000E+00  0.19339421498E+04  0.19339421498E+04  0.00000000000E+00 0. -1.
         21   -1    0    0  501  503 -0.00000000000E+00 -0.00000000000E+00 -0.57750732285E+03  0.57750732285E+03  0.00000000000E+00 0. -1.
    9000010    2    1    2  501    0 -0.88490873116E+02 -0.23868707822E+02  0.32221993294E+03  0.10566813361E+04  0.10021723459E+04 0.  0.
   -9000010    2    1    2    0  502  0.88490873116E+02  0.23868707822E+02  0.10342148940E+04  0.14547681366E+04  0.10189943741E+04 0.  0.
        -13    1    3    3    0    0  0.28365040138E+03 -0.38449479026E+03  0.79207284850E+02  0.48432179290E+03  0.10566000000E+00 0.  1.
          4    1    3    3  501    0 -0.37214127450E+03  0.36062608243E+03  0.24301264809E+03  0.57235954316E+03  0.00000000000E+00 0.  1.
         13    1    4    4    0    0  0.44277317703E+03  0.11269480946E+02  0.10059452996E+04  0.10991364994E+04  0.10566000000E+00 0. -1.
         -4    1    4    4    0  502 -0.35428230391E+03  0.12599226876E+02  0.28269594446E+02  0.35563163717E+03  0.00000000000E+00 0. -1.
<mgrwt>
<rscale>  2 0.10188937E+04</rscale>
<asrwt>0</asrwt>
<pdfrwt beam="1">  1       21 0.29752956E+00 0.10231080E+04</pdfrwt>
<pdfrwt beam="2">  1       21 0.88847282E-01 0.10231080E+04</pdfrwt>
<totfact> 0.14930829E+01</totfact>
</mgrwt>
</event>
<event>
 8    1  0.7208583E-006  0.1001340E+04  0.7818608E-02  0.8779242E-01
         21   -1    0    0  503  502  0.00000000000E+00  0.00000000000E+00  0.19451189238E+04  0.19451189238E+04  0.00000000000E+00 0. -1.
         21   -1    0    0  501  503 -0.00000000000E+00 -0.00000000000E+00 -0.55241021710E+03  0.55241021710E+03  0.00000000000E+00 0. -1.
    9000010    2    1    2  501    0 -0.85515946881E+02  0.11558683905E+03  0.32999269806E+03  0.10543135567E+04  0.99096347087E+03 0.  0.
   -9000010    2    1    2    0  502  0.85515946881E+02 -0.11558683905E+03  0.10627160086E+04  0.14432155842E+04  0.96583260084E+03 0.  0.
        -13    1    3    3    0    0 -0.64760575146E+01 -0.76732374376E+02 -0.34216852263E+03  0.35072653968E+03  0.10566000000E+00 0.  1.
          4    1    3    3  501    0 -0.79039889367E+02  0.19231921342E+03  0.67216122069E+03  0.70358701705E+03  0.00000000000E+00 0.  1.
         13    1    4    4    0    0 -0.34653072253E+03  0.16003941398E+03  0.17885224725E+03  0.42152614770E+03  0.10566000000E+00 0. -1.
         -4    1    4    4    0  502  0.43204666941E+03 -0.27562625303E+03  0.88386376140E+03  0.10216894365E+04  0.00000000000E+00 0. -1.
<mgrwt>
<rscale>  2 0.99506537E+03</rscale>
<asrwt>0</asrwt>
<pdfrwt beam="1">  1       21 0.29924906E+00 0.10013400E+04</pdfrwt>
<pdfrwt beam="2">  1       21 0.84986188E-01 0.10013400E+04</pdfrwt>
<totfact> 0.16339575E+01</totfact>
</mgrwt>
</event>
<event>
 8    1  0.7208583E-006  0.1054316E+04  0.7818608E-02  0.8726084E-01
         21   -1    0    0  501  502  0.00000000000E+00  0.00000000000E+00  0.93377672756E+03  0.93377672756E+03  0.00000000000E+00 0. -1.
         21   -1    0    0  502  503 -0.00000000000E+00 -0.00000000000E+00 -0.12558239067E+04  0.12558239067E+04  0.00000000000E+00 0. -1.
    9000010    2    1    2  501    0  0.10391277680E+03  0.27416362150E+03 -0.41938700112E+03  0.11308006740E+04  0.10083953347E+04 0.  0.
   -9000010    2    1    2    0  503 -0.10391277680E+03 -0.27416362150E+03  0.97339821936E+02  0.10587999603E+04  0.10127283735E+04 0.  0.
        -13    1    3    3    0    0 -0.51252416864E+02 -0.18898191926E+03  0.24029471127E+03  0.30997183012E+03  0.10566000000E+00 0.  1.
          4    1    3    3  501    0  0.15516519366E+03  0.46314554075E+03 -0.65968171239E+03  0.82082884385E+03  0.00000000000E+00 0.  1.
         13    1    4    4    0    0  0.36088017204E+03  0.10099154526E+02  0.30810937561E+03  0.47462394587E+03  0.10566000000E+00 0. -1.
         -4    1    4    4    0  503 -0.46479294883E+03 -0.28426277602E+03 -0.21076955367E+03  0.58417601446E+03  0.00000000000E+00 0. -1.
<mgrwt>
<rscale>  2 0.10532741E+04</rscale>
<asrwt>0</asrwt>
<pdfrwt beam="1">  1       21 0.14365796E+00 0.10543160E+04</pdfrwt>
<pdfrwt beam="2">  1       21 0.19320368E+00 0.10543160E+04</pdfrwt>
<totfact> 0.23253374E+01</totfact>
</mgrwt>
</event>
<event>
 8    1  0.7208583E-006  0.1012584E+04  0.7818608E-02  0.8765119E-01
         21   -1    0    0  503  502  0.00000000000E+00  0.00000000000E+00  0.13377707037E+04  0.13377707037E+04  0.00000000000E+00 0. -1.
         21   -1    0    0  501  503 -0.00000000000E+00 -0.00000000000E+00 -0.10948268886E+04  0.10948268886E+04  0.00000000000E+00 0. -1.
    9000010    2    1    2  501    0  0.19063961367E+03 -0.23566105646E+02 -0.55246546005E+03  0.11449632424E+04  0.98428853408E+03 0.  0.
   -9000010    2    1    2    0  502 -0.19063961367E+03  0.23566105646E+02  0.79540927517E+03  0.12876343499E+04  0.99419690218E+03 0.  0.
        -13    1    3    3    0    0  0.35730816251E+03  0.17402273442E+03 -0.73013721056E+03  0.83129621225E+03  0.10566000000E+00 0.  1.
          4    1    3    3  501    0 -0.16666854884E+03 -0.19758884006E+03  0.17767175051E+03  0.31366703018E+03  0.00000000000E+00 0.  1.
         13    1    4    4    0    0 -0.38917499176E+03 -0.44084608398E+02 -0.69389929727E+02  0.39776324670E+03  0.10566000000E+00 0. -1.
         -4    1    4    4    0  502  0.19853537809E+03  0.67650714044E+02  0.86479920490E+03  0.88987110317E+03  0.00000000000E+00 0. -1.
<mgrwt>
<rscale>  2 0.10101435E+04</rscale>
<asrwt>0</asrwt>
<pdfrwt beam="1">  1       21 0.20581088E+00 0.10125840E+04</pdfrwt>
<pdfrwt beam="2">  1       21 0.16843491E+00 0.10125840E+04</pdfrwt>
<totfact> 0.11363150E+01</totfact>
</mgrwt>
</event>
<event>
 8    1  0.7208583E-006  0.1077613E+04  0.7818608E-02  0.8713557E-01
         21   -1    0    0  503  502  0.00000000000E+00  0.00000000000E+00  0.81584233889E+03  0.81584233889E+03  0.00000000000E+00 0. -1.
         21   -1    0    0  501  503 -0.00000000000E+00 -0.00000000000E+00 -0.18395374522E+04  0.18395374522E+04  0.00000000000E+00 0. -1.
    9000010    2    1    2  501    0 -0.12050178549E+03  0.26160324361E+03  0.16482385716E+03  0.10510643664E+04  0.99730259256E+03 0.  0.
   -9000010    2    1    2    0  502  0.12050178549E+03 -0.26160324361E+03 -0.11885189705E+04  0.16043154247E+04  0.10384092167E+04 0.  0.
        -13    1    3    3    0    0  0.34404504328E+03 -0.61945219632E+02 -0.17484632708E+03  0.39086500393E+03  0.10566000000E+00 0.  1.
          4    1    3    3  501    0 -0.46454682877E+03  0.32354846325E+03  0.33967018423E+03  0.66019936250E+03  0.00000000000E+00 0.  1.
         13    1    4    4    0    0  0.19443261677E+03 -0.34582110212E+03 -0.13503766039E+04  0.14074492036E+04  0.10566000000E+00 0. -1.
         -4    1    4    4    0  502 -0.73930831283E+02  0.84217858509E+02  0.16185763343E+03  0.19686622109E+03  0.00000000000E+00 0. -1.
<mgrwt>
<rscale>  2 0.10675861E+04</rscale>
<asrwt>0</asrwt>
<pdfrwt beam="1">  1       21 0.12551421E+00 0.10776134E+04</pdfrwt>
<pdfrwt beam="2">  1       21 0.28300576E+00 0.10776134E+04</pdfrwt>
<totfact> 0.74169195E+00</totfact>
</mgrwt>
</event>
<event>
 8    1  0.7208583E-006  0.1203986E+04  0.7818608E-02  0.8609282E-01
         21   -1    0    0  503  502  0.00000000000E+00  0.00000000000E+00  0.11250606259E+04  0.11250606259E+04  0.00000000000E+00 0. -1.
         21   -1    0    0  501  503 -0.00000000000E+00 -0.00000000000E+00 -0.15770544661E+04  0.15770544661E+04  0.00000000000E+00 0. -1.
    9000010    2    1    2  501    0  0.54383706310E+03 -0.25701620526E+03 -0.83738837083E+03  0.14665608195E+04  0.10429598615E+04 0.  0.
   -9000010    2    1    2    0  502 -0.54383706310E+03  0.25701620526E+03  0.38539453062E+03  0.12355542725E+04  0.10080919279E+04 0.  0.
        -13    1    3    3    0    0  0.42386666670E+03 -0.65701626712E+03 -0.48450347114E+03  0.91982441319E+03  0.10566000000E+00 0.  1.
          4    1    3    3  501    0  0.11997039640E+03  0.40000006186E+03 -0.35288489969E+03  0.54673640626E+03  0.00000000000E+00 0.  1.
         13    1    4    4    0    0 -0.73497926129E+03  0.45220548336E+03  0.42079157699E+03  0.96007805731E+03  0.10566000000E+00 0. -1.
         -4    1    4    4    0  502  0.19114219820E+03 -0.19518927810E+03 -0.35397046371E+02  0.27547621514E+03  0.00000000000E+00 0. -1.
<mgrwt>
<rscale>  2 0.11963953E+04</rscale>
<asrwt>0</asrwt>
<pdfrwt beam="1">  1       21 0.17308625E+00 0.12039856E+04</pdfrwt>
<pdfrwt beam="2">  1       21 0.24262376E+00 0.12039856E+04</pdfrwt>
<totfact> 0.52621549E+00</totfact>
</mgrwt>
</event>
<event>
 8    1  0.7208583E-006  0.1139603E+04  0.7818608E-02  0.8654559E-01
         21   -1    0    0  503  502  0.00000000000E+00  0.00000000000E+00  0.13786367499E+04  0.13786367499E+04  0.00000000000E+00 0.  1.
         21   -1    0    0  501  503 -0.00000000000E+00 -0.00000000000E+00 -0.12559364359E+04  0.12559364359E+04  0.00000000000E+00 0.  1.
    9000010    2    1    2  501    0 -0.44435305978E+03 -0.33042266801E+03 -0.60194675829E+03  0.12840889875E+04  0.98990698899E+03 0.  0.
   -9000010    2    1    2    0  502  0.44435305978E+03  0.33042266801E+03  0.72464707226E+03  0.13504841982E+04  0.99602480342E+03 0.  0.
        -13    1    3    3    0    0  0.24670307906E+03  0.13621517610E+03 -0.55743981578E+02  0.28727057988E+03  0.10566000000E+00 0.  1.
          4    1    3    3  501    0 -0.69105613883E+03 -0.46663784411E+03 -0.54620277672E+03  0.99681840767E+03  0.00000000000E+00 0.  1.
         13    1    4    4    0    0  0.54004831943E+03  0.85771309538E+01  0.83723717233E+03  0.99633922355E+03  0.10566000000E+00 0. -1.
         -4    1    4    4    0  502 -0.95695259656E+02  0.32184553706E+03 -0.11259010007E+03  0.35414497466E+03  0.00000000000E+00 0. -1.
<mgrwt>
<rscale>  2 0.11382645E+04</rscale>
<asrwt>0</asrwt>
<pdfrwt beam="1">  1       21 0.21209796E+00 0.11396026E+04</pdfrwt>
<pdfrwt beam="2">  1       21 0.19322099E+00 0.11396026E+04</pdfrwt>
<totfact> 0.61947195E+00</totfact>
</mgrwt>
</event>
<event>
 8    1  0.7208583E-006  0.1073437E+04  0.7818608E-02  0.8712420E-01
         21   -1    0    0  503  502  0.00000000000E+00  0.00000000000E+00  0.94405118076E+03  0.94405118076E+03  0.00000000000E+00 0. -1.
         21   -1    0    0  501  503 -0.00000000000E+00 -0.00000000000E+00 -0.13088236067E+04  0.13088236067E+04  0.00000000000E+00 0. -1.
    9000010    2    1    2  501    0  0.16760965584E+02 -0.34984263926E+03  0.14081110157E+03  0.10826328627E+04  0.10146897786E+04 0.  0.
   -9000010    2    1    2    0  502 -0.16760965584E+02  0.34984263926E+03 -0.50558352753E+03  0.11702419248E+04  0.99558056278E+03 0.  0.
        -13    1    3    3    0    0  0.12711016116E+03  0.29699206922E+02  0.51925674040E+03  0.53541256016E+03  0.10566000000E+00 0.  1.
          4    1    3    3  501    0 -0.11034919557E+03 -0.37954184618E+03 -0.37844563884E+03  0.54722030255E+03  0.00000000000E+00 0.  1.
         13    1    4    4    0    0  0.15008504097E+03  0.16854888027E+03 -0.77379826188E+03  0.80603846423E+03  0.10566000000E+00 0. -1.
         -4    1    4    4    0  502 -0.16684600655E+03  0.18129375899E+03  0.26821473435E+03  0.36420346055E+03  0.00000000000E+00 0. -1.
<mgrwt>
<rscale>  2 0.10688966E+04</rscale>
<asrwt>0</asrwt>
<pdfrwt beam="1">  1       21 0.14523864E+00 0.10734366E+04</pdfrwt>
<pdfrwt beam="2">  1       21 0.20135748E+00 0.10734366E+04</pdfrwt>
<totfact> 0.19329678E+01</totfact>
</mgrwt>
</event>
<event>
 8    1  0.7208583E-006  0.1145835E+04  0.7818608E-02  0.8648705E-01
         21   -1    0    0  503  502  0.00000000000E+00  0.00000000000E+00  0.12503967468E+04  0.12503967468E+04  0.00000000000E+00 0.  1.
         21   -1    0    0  501  503 -0.00000000000E+00 -0.00000000000E+00 -0.18886239762E+04  0.18886239762E+04  0.00000000000E+00 0.  1.
    9000010    2    1    2  501    0  0.42770250845E+03 -0.37165020698E+03 -0.13656163262E+04  0.17826515988E+04  0.99593446573E+03 0.  0.
   -9000010    2    1    2    0  502 -0.42770250845E+03  0.37165020698E+03  0.72738909686E+03  0.13563691243E+04  0.99478087589E+03 0.  0.
        -13    1    3    3    0    0  0.41302189524E+03 -0.22051934370E+03 -0.15052378117E+04  0.15763745582E+04  0.10566000000E+00 0.  1.
          4    1    3    3  501    0  0.14680613207E+02 -0.15113086328E+03  0.13962148548E+03  0.20627704053E+03  0.00000000000E+00 0.  1.
         13    1    4    4    0    0  0.27624199939E+03  0.12486312663E+03  0.48514308937E+03  0.57207016261E+03  0.10566000000E+00 0. -1.
         -4    1    4    4    0  502 -0.70394450784E+03  0.24678708035E+03  0.24224600749E+03  0.78429896168E+03  0.00000000000E+00 0. -1.
<mgrwt>
<rscale>  2 0.11455847E+04</rscale>
<asrwt>0</asrwt>
<pdfrwt beam="1">  1       21 0.19236873E+00 0.11458354E+04</pdfrwt>
<pdfrwt beam="2">  1       21 0.29055754E+00 0.11458354E+04</pdfrwt>
<totfact> 0.16789837E+00</totfact>
</mgrwt>
</event>
<event>
 8    1  0.7208583E-006  0.1109565E+04  0.7818608E-02  0.8679801E-01
         21   -1    0    0  503  502  0.00000000000E+00  0.00000000000E+00  0.11141793821E+04  0.11141793821E+04  0.00000000000E+00 0.  1.
         21   -1    0    0  501  503 -0.00000000000E+00 -0.00000000000E+00 -0.13100677787E+04  0.13100677787E+04  0.00000000000E+00 0.  1.
    9000010    2    1    2  501    0  0.41600633566E+03  0.18797451196E+03 -0.58803869577E+03  0.12557566795E+04  0.10113059092E+04 0.  0.
   -9000010    2    1    2    0  502 -0.41600633566E+03 -0.18797451196E+03  0.39215029919E+03  0.11684904813E+04  0.10015949577E+04 0.  0.
        -13    1    3    3    0    0  0.85350803577E+02  0.57800289105E+03 -0.21400644359E+03  0.62223056080E+03  0.10566000000E+00 0.  1.
          4    1    3    3  501    0  0.33065553208E+03 -0.39002837909E+03 -0.37403225218E+03  0.63352611869E+03  0.00000000000E+00 0.  1.
         13    1    4    4    0    0  0.21997937939E+03 -0.22255721835E+03  0.42841923581E+03  0.53053340665E+03  0.10566000000E+00 0. -1.
         -4    1    4    4    0  502 -0.63598571505E+03  0.34582706387E+02 -0.36268936619E+02  0.63795707465E+03  0.00000000000E+00 0. -1.
<mgrwt>
<rscale>  2 0.11073478E+04</rscale>
<asrwt>0</asrwt>
<pdfrwt beam="1">  1       21 0.17141221E+00 0.11095654E+04</pdfrwt>
<pdfrwt beam="2">  1       21 0.20154889E+00 0.11095654E+04</pdfrwt>
<totfact> 0.11315724E+01</totfact>
</mgrwt>
</event>
<event>
 8    1  0.7208583E-006  0.1016437E+04  0.7818608E-02  0.8764256E-01
         21   -1    0    0  503  502  0.00000000000E+00  0.00000000000E+00  0.11885664860E+04  0.11885664860E+04  0.00000000000E+00 0. -1.
         21   -1    0    0  501  503 -0.00000000000E+00 -0.00000000000E+00 -0.11368641799E+04  0.11368641799E+04  0.00000000000E+00 0. -1.
    9000010    2    1    2  501    0  0.13352317067E+03  0.26861281547E+02 -0.55723728981E+03  0.11405458849E+04  0.98578981176E+03 0.  0.
   -9000010    2    1    2    0  502 -0.13352317067E+03 -0.26861281547E+02  0.60893959597E+03  0.11848847810E+04  0.10072708410E+04 0.  0.
        -13    1    3    3    0    0 -0.37544440259E+03  0.18065273428E+03 -0.41961273143E+03  0.59132796770E+03  0.10566000000E+00 0.  1.
          4    1    3    3  501    0  0.50896757326E+03 -0.15379145273E+03 -0.13762455838E+03  0.54921791725E+03  0.00000000000E+00 0.  1.
         13    1    4    4    0    0 -0.34691981066E+03 -0.42365009089E+03  0.44452011991E+03  0.70528781551E+03  0.10566000000E+00 0. -1.
         -4    1    4    4    0  502  0.21339663999E+03  0.39678880934E+03  0.16441947606E+03  0.47959696547E+03  0.00000000000E+00 0. -1.
<mgrwt>
<rscale>  2 0.10110741E+04</rscale>
<asrwt>0</asrwt>
<pdfrwt beam="1">  1       21 0.18285638E+00 0.10164372E+04</pdfrwt>
<pdfrwt beam="2">  1       21 0.17490218E+00 0.10164372E+04</pdfrwt>
<totfact> 0.15220488E+01</totfact>
</mgrwt>
</event>
<event>
 8    1  0.7208583E-006  0.1342860E+04  0.7818608E-02  0.8513676E-01
         21   -1    0    0  503  502  0.00000000000E+00  0.00000000000E+00  0.24200147532E+04  0.24200147532E+04  0.00000000000E+00 0.  1.
         21   -1    0    0  501  503 -0.00000000000E+00 -0.00000000000E+00 -0.10008299491E+04  0.10008299491E+04  0.00000000000E+00 0. -1.
    9000010    2    1    2  501    0  0.57660963078E+03 -0.60527925488E+03 -0.20466136506E+03  0.13136786051E+04  0.99248353155E+03 0.  0.
   -9000010    2    1    2    0  502 -0.57660963078E+03  0.60527925488E+03  0.16238461692E+04  0.21071660973E+04  0.10509190918E+04 0.  0.
        -13    1    3    3    0    0 -0.14414812551E+03 -0.38002076250E+03 -0.35974458237E+03  0.54278046918E+03  0.10566000000E+00 0.  1.
          4    1    3    3  501    0  0.72075775629E+03 -0.22525849238E+03  0.15508321731E+03  0.77089813590E+03  0.00000000000E+00 0.  1.
         13    1    4    4    0    0 -0.25520029724E+02 -0.28646677711E+03  0.44272245561E+03  0.52793718392E+03  0.10566000000E+00 0. -1.
         -4    1    4    4    0  502 -0.55108960106E+03  0.89174603199E+03  0.11811237136E+04  0.15792289133E+04  0.00000000000E+00 0. -1.
<mgrwt>
<rscale>  2 0.13314088E+04</rscale>
<asrwt>0</asrwt>
<pdfrwt beam="1">  1       21 0.37230996E+00 0.13428599E+04</pdfrwt>
<pdfrwt beam="2">  1       21 0.15397384E+00 0.13428599E+04</pdfrwt>
<totfact> 0.89538854E-01</totfact>
</mgrwt>
</event>
<event>
 8    1  0.7208583E-006  0.1068748E+04  0.7818608E-02  0.8730515E-01
         21   -1    0    0  501  502  0.00000000000E+00  0.00000000000E+00  0.11112704804E+04  0.11112704804E+04  0.00000000000E+00 0. -1.
         21   -1    0    0  502  503 -0.00000000000E+00 -0.00000000000E+00 -0.10183399600E+04  0.10183399600E+04  0.00000000000E+00 0. -1.
    9000010    2    1    2  501    0  0.23598251167E+03 -0.28395767238E+03 -0.22194152559E+03  0.10915490713E+04  0.10029464735E+04 0.  0.
   -9000010    2    1    2    0  503 -0.23598251167E+03  0.28395767238E+03  0.31487204599E+03  0.10380613690E+04  0.91766404257E+03 0.  0.
        -13    1    3    3    0    0 -0.31466555071E+02  0.40972454510E+02 -0.55342727839E+03  0.55583329312E+03  0.10566000000E+00 0.  1.
          4    1    3    3  501    0  0.26744906674E+03 -0.32493012689E+03  0.33148575280E+03  0.53571577816E+03  0.00000000000E+00 0.  1.
         13    1    4    4    0    0 -0.47998355533E+03  0.33967264384E+03  0.46194488094E+03  0.74776654281E+03  0.10566000000E+00 0. -1.
         -4    1    4    4    0  503  0.24400104366E+03 -0.55714971457E+02 -0.14707283495E+03  0.29029482622E+03  0.00000000000E+00 0. -1.
<mgrwt>
<rscale>  2 0.10482682E+04</rscale>
<asrwt>0</asrwt>
<pdfrwt beam="1">  1       21 0.17096469E+00 0.10687476E+04</pdfrwt>
<pdfrwt beam="2">  1       21 0.15666769E+00 0.10687476E+04</pdfrwt>
<totfact> 0.26907693E+01</totfact>
</mgrwt>
</event>
<event>
 8    1  0.7208583E-006  0.1055697E+04  0.7818608E-02  0.8730150E-01
         21   -1    0    0  501  502  0.00000000000E+00  0.00000000000E+00  0.15816650616E+04  0.15816650616E+04  0.00000000000E+00 0. -1.
         21   -1    0    0  502  503 -0.00000000000E+00 -0.00000000000E+00 -0.75097111139E+03  0.75097111139E+03  0.00000000000E+00 0. -1.
    9000010    2    1    2  501    0 -0.12430787718E+03 -0.22252061740E+03  0.77927741498E+02  0.10585695667E+04  0.10244651879E+04 0.  0.
   -9000010    2    1    2    0  503  0.12430787718E+03  0.22252061740E+03  0.75276620871E+03  0.12740666063E+04  0.99580162622E+03 0.  0.
        -13    1    3    3    0    0  0.13186554665E+03  0.31680142389E+03  0.26424748716E+03  0.43310323274E+03  0.10566000000E+00 0.  1.
          4    1    3    3  501    0 -0.25617342383E+03 -0.53932204130E+03 -0.18631974566E+03  0.62546633397E+03  0.00000000000E+00 0.  1.
         13    1    4    4    0    0  0.19454096264E+03  0.58704499394E+03  0.29645606655E+03  0.68582375404E+03  0.10566000000E+00 0. -1.
         -4    1    4    4    0  503 -0.70233085454E+02 -0.36452437654E+03  0.45631014217E+03  0.58824285225E+03  0.00000000000E+00 0. -1.
<mgrwt>
<rscale>  2 0.10486796E+04</rscale>
<asrwt>0</asrwt>
<pdfrwt beam="1">  1       21 0.24333308E+00 0.10556973E+04</pdfrwt>
<pdfrwt beam="2">  1       21 0.11553402E+00 0.10556973E+04</pdfrwt>
<totfact> 0.18159439E+01</totfact>
</mgrwt>
</event>
<event>
 8    1  0.7208583E-006  0.1062969E+04  0.7818608E-02  0.8724659E-01
         21   -1    0    0  503  502  0.00000000000E+00  0.00000000000E+00  0.61067857423E+03  0.61067857423E+03  0.00000000000E+00 0. -1.
         21   -1    0    0  501  503 -0.00000000000E+00 -0.00000000000E+00 -0.19690282060E+04  0.19690282060E+04  0.00000000000E+00 0. -1.
    9000010    2    1    2  501    0 -0.15912902064E+03 -0.16061084574E+03 -0.28636154443E+03  0.10700510076E+04  0.10059266055E+04 0.  0.
   -9000010    2    1    2    0  502  0.15912902064E+03  0.16061084574E+03 -0.10719880873E+04  0.15096557726E+04  0.10386453695E+04 0.  0.
        -13    1    3    3    0    0  0.24968420771E+03  0.99786340977E+02 -0.47832534000E+03  0.54872093042E+03  0.10566000000E+00 0.  1.
          4    1    3    3  501    0 -0.40881322835E+03 -0.26039718672E+03  0.19196379557E+03  0.52133007714E+03  0.00000000000E+00 0.  1.
         13    1    4    4    0    0  0.33510038623E+03  0.38191889657E+03 -0.11134425251E+04  0.12238907550E+04  0.10566000000E+00 0. -1.
         -4    1    4    4    0  502 -0.17597136559E+03 -0.22130805083E+03  0.41454437788E+02  0.28576501760E+03  0.00000000000E+00 0. -1.
<mgrwt>
<rscale>  2 0.10548903E+04</rscale>
<asrwt>0</asrwt>
<pdfrwt beam="1">  1       21 0.93950550E-01 0.10629685E+04</pdfrwt>
<pdfrwt beam="2">  1       21 0.30292742E+00 0.10629685E+04</pdfrwt>
<totfact> 0.11746047E+01</totfact>
</mgrwt>
</event>
<event>
 8    1  0.7208583E-006  0.1003648E+04  0.7818608E-02  0.8774237E-01
         21   -1    0    0  503  502  0.00000000000E+00  0.00000000000E+00  0.85878938677E+03  0.85878938677E+03  0.00000000000E+00 0.  1.
         21   -1    0    0  501  503 -0.00000000000E+00 -0.00000000000E+00 -0.11682853472E+04  0.11682853472E+04  0.00000000000E+00 0.  1.
    9000010    2    1    2  501    0 -0.17666373355E+03  0.11445877304E+03 -0.24988581606E+03  0.10216577688E+04  0.96800350725E+03 0.  0.
   -9000010    2    1    2    0  502  0.17666373355E+03 -0.11445877304E+03 -0.59610144390E+02  0.10054169652E+04  0.98132513421E+03 0.  0.
        -13    1    3    3    0    0  0.25616615760E+03  0.24656262481E+03 -0.40902107616E+03  0.54195247039E+03  0.10566000000E+00 0.  1.
          4    1    3    3  501    0 -0.43282989116E+03 -0.13210385177E+03  0.15913526010E+03  0.47970529843E+03  0.00000000000E+00 0.  1.
         13    1    4    4    0    0  0.29059491439E+02 -0.29669289813E+03  0.39441508423E+03  0.49440307410E+03  0.10566000000E+00 0. -1.
         -4    1    4    4    0  502  0.14760424212E+03  0.18223412508E+03 -0.45402522862E+03  0.51101389106E+03  0.00000000000E+00 0. -1.
<mgrwt>
<rscale>  2 0.10003770E+04</rscale>
<asrwt>0</asrwt>
<pdfrwt beam="1">  1       21 0.13212144E+00 0.10036483E+04</pdfrwt>
<pdfrwt beam="2">  1       21 0.17973621E+00 0.10036483E+04</pdfrwt>
<totfact> 0.38666595E+01</totfact>
</mgrwt>
</event>
<event>
 8    1  0.7208583E-006  0.1014449E+04  0.7818608E-02  0.8762339E-01
         21   -1    0    0  501  502  0.00000000000E+00  0.00000000000E+00  0.20628412469E+04  0.20628412469E+04  0.00000000000E+00 0.  1.
         21   -1    0    0  502  503 -0.00000000000E+00 -0.00000000000E+00 -0.53269441892E+03  0.53269441892E+03  0.00000000000E+00 0.  1.
    9000010    2    1    2  501    0 -0.12077907101E+03  0.10246607445E+03  0.11023630090E+04  0.14945790672E+04  0.99673241347E+03 0.  0.
   -9000010    2    1    2    0  503  0.12077907101E+03 -0.10246607445E+03  0.42778381903E+03  0.11009565987E+04  0.10020077624E+04 0.  0.
        -13    1    3    3    0    0  0.37804278368E+03  0.11961769324E+03  0.84412241156E+03  0.93261320798E+03  0.10566000000E+00 0.  1.
          4    1    3    3  501    0 -0.49882185469E+03 -0.17151618788E+02  0.25824059740E+03  0.56196585919E+03  0.00000000000E+00 0.  1.
         13    1    4    4    0    0 -0.17262060894E+03  0.26529876803E+03  0.53205043675E+03  0.61907914628E+03  0.10566000000E+00 0. -1.
         -4    1    4    4    0  503  0.29339967995E+03 -0.36776484248E+03 -0.10426661772E+03  0.48187745239E+03  0.00000000000E+00 0. -1.
<mgrwt>
<rscale>  2 0.10131437E+04</rscale>
<asrwt>0</asrwt>
<pdfrwt beam="1">  1       21 0.31736019E+00 0.10144488E+04</pdfrwt>
<pdfrwt beam="2">  1       21 0.81952989E-01 0.10144488E+04</pdfrwt>
<totfact> 0.13291869E+01</totfact>
</mgrwt>
</event>
<event>
 8    1  0.7208583E-006  0.1051450E+04  0.7818608E-02  0.8763495E-01
         21   -1    0    0  501  502  0.00000000000E+00  0.00000000000E+00  0.75417642706E+03  0.75417642706E+03  0.00000000000E+00 0. -1.
         21   -1    0    0  502  503 -0.00000000000E+00 -0.00000000000E+00 -0.12706867904E+04  0.12706867904E+04  0.00000000000E+00 0. -1.
    9000010    2    1    2  501    0 -0.17154247682E+03 -0.49557173923E+02 -0.34626809083E+03  0.11069994202E+04  0.10361772970E+04 0.  0.
   -9000010    2    1    2    0  503  0.17154247682E+03  0.49557173923E+02 -0.17024227248E+03  0.91786379722E+03  0.88408641210E+03 0.  0.
        -13    1    3    3    0    0 -0.14804749020E+03  0.26807225935E+03 -0.61710825742E+03  0.68891465954E+03  0.10566000000E+00 0.  1.
          4    1    3    3  501    0 -0.23494986623E+02 -0.31762943328E+03  0.27084016659E+03  0.41808476068E+03  0.00000000000E+00 0.  1.
         13    1    4    4    0    0  0.14300838282E+03 -0.37043587916E+03  0.11014091024E+03  0.41207422802E+03  0.10566000000E+00 0. -1.
         -4    1    4    4    0  503  0.28534094003E+02  0.41999305308E+03 -0.28038318273E+03  0.50578956920E+03  0.00000000000E+00 0. -1.
<mgrwt>
<rscale>  2 0.10118950E+04</rscale>
<asrwt>0</asrwt>
<pdfrwt beam="1">  1       21 0.11602714E+00 0.10514495E+04</pdfrwt>
<pdfrwt beam="2">  1       21 0.19549027E+00 0.10514495E+04</pdfrwt>
<totfact> 0.41325934E+01</totfact>
</mgrwt>
</event>
<event>
 8    1  0.7208583E-006  0.1151013E+04  0.7818608E-02  0.8648455E-01
         21   -1    0    0  503  502  0.00000000000E+00  0.00000000000E+00  0.89757976541E+03  0.89757976541E+03  0.00000000000E+00 0.  1.
         21   -1    0    0  501  503 -0.00000000000E+00 -0.00000000000E+00 -0.26921904805E+04  0.26921904805E+04  0.00000000000E+00 0.  1.
    9000010    2    1    2  501    0  0.18431192788E+03  0.51896204830E+03 -0.21207658935E+04  0.24129814461E+04  0.10107121201E+04 0.  0.
   -9000010    2    1    2    0  502 -0.18431192788E+03 -0.51896204830E+03  0.32615517842E+03  0.11767887998E+04  0.98750300486E+03 0.  0.
        -13    1    3    3    0    0  0.28505899922E+03 -0.24222909752E+03 -0.55817427534E+03  0.67193161969E+03  0.10566000000E+00 0.  1.
          4    1    3    3  501    0 -0.10074707134E+03  0.76119114582E+03 -0.15625916181E+04  0.17410498264E+04  0.00000000000E+00 0.  1.
         13    1    4    4    0    0 -0.36453146857E+03 -0.24108180523E+03  0.60327212759E+03  0.74494355456E+03  0.10566000000E+00 0. -1.
         -4    1    4    4    0  502  0.18021954068E+03 -0.27788024307E+03 -0.27711694917E+03  0.43184524525E+03  0.00000000000E+00 0. -1.
<mgrwt>
<rscale>  2 0.11458979E+04</rscale>
<asrwt>0</asrwt>
<pdfrwt beam="1">  1       21 0.13808920E+00 0.11510132E+04</pdfrwt>
<pdfrwt beam="2">  1       21 0.41418314E+00 0.11510132E+04</pdfrwt>
<totfact> 0.66373300E-01</totfact>
</mgrwt>
</event>
<event>
 8    1  0.7208583E-006  0.1137209E+04  0.7818608E-02  0.8656743E-01
         21   -1    0    0  503  502  0.00000000000E+00  0.00000000000E+00  0.93985966623E+03  0.93985966623E+03  0.00000000000E+00 0. -1.
         21   -1    0    0  501  503 -0.00000000000E+00 -0.00000000000E+00 -0.30222894027E+04  0.30222894027E+04  0.00000000000E+00 0.  1.
    9000010    2    1    2  501    0 -0.33429707759E+03 -0.40469865264E+03 -0.25055167698E+04  0.27487869268E+04  0.10013389782E+04 0.  0.
   -9000010    2    1    2    0  502  0.33429707759E+03  0.40469865264E+03  0.42308703340E+03  0.12133621421E+04  0.10088158973E+04 0.  0.
        -13    1    3    3    0    0 -0.58724023522E+03 -0.53747373197E+03 -0.14373335991E+04  0.16430632954E+04  0.10566000000E+00 0.  1.
          4    1    3    3  501    0  0.25294315763E+03  0.13277507933E+03 -0.10681831707E+04  0.11057236314E+04  0.00000000000E+00 0.  1.
         13    1    4    4    0    0  0.30727539178E+03 -0.29422785364E+03  0.74639996166E+02  0.43192515143E+03  0.10566000000E+00 0. -1.
         -4    1    4    4    0  502  0.27021685810E+02  0.69892650628E+03  0.34844703724E+03  0.78143699070E+03  0.00000000000E+00 0. -1.
<mgrwt>
<rscale>  2 0.11355488E+04</rscale>
<asrwt>0</asrwt>
<pdfrwt beam="1">  1       21 0.14459379E+00 0.11372093E+04</pdfrwt>
<pdfrwt beam="2">  1       21 0.46496760E+00 0.11372093E+04</pdfrwt>
<totfact> 0.25787285E-01</totfact>
</mgrwt>
</event>
<event>
 8    1  0.7208583E-006  0.1057269E+04  0.7818608E-02  0.8730133E-01
         21   -1    0    0  501  502  0.00000000000E+00  0.00000000000E+00  0.86311009064E+03  0.86311009064E+03  0.00000000000E+00 0. -1.
         21   -1    0    0  502  503 -0.00000000000E+00 -0.00000000000E+00 -0.19776396761E+04  0.19776396761E+04  0.00000000000E+00 0. -1.
    9000010    2    1    2  501    0  0.16139730635E+03  0.18202178826E+03 -0.14106637287E+04  0.17427908140E+04  0.99406571416E+03 0.  0.
   -9000010    2    1    2    0  503 -0.16139730635E+03 -0.18202178826E+03  0.29613414329E+03  0.10979589527E+04  0.10289010686E+04 0.  0.
        -13    1    3    3    0    0  0.31710176130E+03 -0.24078121614E+03 -0.11616617856E+04  0.12280013177E+04  0.10566000000E+00 0.  1.
          4    1    3    3  501    0 -0.15570445495E+03  0.42280300440E+03 -0.24900194310E+03  0.51478949629E+03  0.00000000000E+00 0.  1.
         13    1    4    4    0    0 -0.27489589772E+03  0.32992221039E+03 -0.99816875858E+02  0.44088529048E+03  0.10566000000E+00 0. -1.
         -4    1    4    4    0  503  0.11349859136E+03 -0.51194399865E+03  0.39595101914E+03  0.65707366220E+03  0.00000000000E+00 0. -1.
<mgrwt>
<rscale>  2 0.10486983E+04</rscale>
<asrwt>0</asrwt>
<pdfrwt beam="1">  1       21 0.13278617E+00 0.10572693E+04</pdfrwt>
<pdfrwt beam="2">  1       21 0.30425226E+00 0.10572693E+04</pdfrwt>
<totfact> 0.44799733E+00</totfact>
</mgrwt>
</event>
<event>
 8    1  0.7208583E-006  0.9823601E+03  0.7818608E-02  0.8806251E-01
         21   -1    0    0  503  502  0.00000000000E+00  0.00000000000E+00  0.68207198801E+03  0.68207198801E+03  0.00000000000E+00 0.  1.
         21   -1    0    0  501  503 -0.00000000000E+00 -0.00000000000E+00 -0.13465894329E+04  0.13465894329E+04  0.00000000000E+00 0.  1.
    9000010    2    1    2  501    0  0.14962370806E+03 -0.12698234914E+02 -0.43570876180E+03  0.10200064852E+04  0.90995747457E+03 0.  0.
   -9000010    2    1    2    0  502 -0.14962370806E+03  0.12698234914E+02 -0.22880868312E+03  0.10086549358E+04  0.97081556785E+03 0.  0.
        -13    1    3    3    0    0 -0.36934765253E+03 -0.62169381250E+02 -0.30377569461E+03  0.48224724384E+03  0.10566000000E+00 0.  1.
          4    1    3    3  501    0  0.51897136059E+03  0.49471146336E+02 -0.13193306720E+03  0.53775924134E+03  0.00000000000E+00 0.  1.
         13    1    4    4    0    0  0.27121128826E+03 -0.33861097928E+03 -0.88154723137E+02  0.44270105551E+03  0.10566000000E+00 0. -1.
         -4    1    4    4    0  502 -0.42083499633E+03  0.35130921420E+03 -0.14065395999E+03  0.56595388025E+03  0.00000000000E+00 0. -1.
<mgrwt>
<rscale>  2 0.96697860E+03</rscale>
<asrwt>0</asrwt>
<pdfrwt beam="1">  1       21 0.10493415E+00 0.98236010E+03</pdfrwt>
<pdfrwt beam="2">  1       21 0.20716760E+00 0.98236010E+03</pdfrwt>
<totfact> 0.44694607E+01</totfact>
</mgrwt>
</event>
<event>
 8    1  0.7208583E-006  0.1149139E+04  0.7818608E-02  0.8649374E-01
         21   -1    0    0  501  502  0.00000000000E+00  0.00000000000E+00  0.11369397049E+04  0.11369397049E+04  0.00000000000E+00 0. -1.
         21   -1    0    0  502  503 -0.00000000000E+00 -0.00000000000E+00 -0.14991672074E+04  0.14991672074E+04  0.00000000000E+00 0. -1.
    9000010    2    1    2  501    0  0.53922463972E+03 -0.17845308649E+03 -0.82381145865E+03  0.14139253896E+04  0.99895493982E+03 0.  0.
   -9000010    2    1    2    0  503 -0.53922463972E+03  0.17845308649E+03  0.46158395606E+03  0.12221815227E+04  0.97880499068E+03 0.  0.
        -13    1    3    3    0    0  0.73291574973E+03 -0.35457871234E+03 -0.37963644802E+03  0.89834036048E+03  0.10566000000E+00 0.  1.
          4    1    3    3  501    0 -0.19369111000E+03  0.17612562585E+03 -0.44417501063E+03  0.51558502911E+03  0.00000000000E+00 0.  1.
         13    1    4    4    0    0  0.88663205747E+02 -0.31347314257E+03  0.68306080133E+02  0.33285478352E+03  0.10566000000E+00 0. -1.
         -4    1    4    4    0  503 -0.62788784547E+03  0.49192622906E+03  0.39327787593E+03  0.88932673918E+03  0.00000000000E+00 0. -1.
<mgrwt>
<rscale>  2 0.11447454E+04</rscale>
<asrwt>0</asrwt>
<pdfrwt beam="1">  1       21 0.17491380E+00 0.11491387E+04</pdfrwt>
<pdfrwt beam="2">  1       21 0.23064111E+00 0.11491387E+04</pdfrwt>
<totfact> 0.63044977E+00</totfact>
</mgrwt>
</event>
<event>
 8    1  0.7208583E-006  0.1017855E+04  0.7818608E-02  0.8759605E-01
         21   -1    0    0  503  502  0.00000000000E+00  0.00000000000E+00  0.14824079237E+04  0.14824079237E+04  0.00000000000E+00 0.  1.
         21   -1    0    0  501  503 -0.00000000000E+00 -0.00000000000E+00 -0.92666789594E+03  0.92666789594E+03  0.00000000000E+00 0.  1.
    9000010    2    1    2  501    0  0.10054803331E+03  0.13555957287E+03  0.88059505940E+03  0.13406379410E+04  0.99668255998E+03 0.  0.
   -9000010    2    1    2    0  502 -0.10054803331E+03 -0.13555957287E+03 -0.32485503165E+03  0.10684378786E+04  0.10037641178E+04 0.  0.
        -13    1    3    3    0    0 -0.52718620646E+02  0.19592294247E+02  0.10696008933E+04  0.10710785186E+04  0.10566000000E+00 0.  1.
          4    1    3    3  501    0  0.15326665396E+03  0.11596727862E+03 -0.18900583391E+03  0.26955942235E+03  0.00000000000E+00 0.  1.
         13    1    4    4    0    0 -0.40345373480E+03 -0.34132632391E+03  0.66318091372E+02  0.53261306399E+03  0.10566000000E+00 0. -1.
         -4    1    4    4    0  502  0.30290570149E+03  0.20576675105E+03 -0.39117312302E+03  0.53582481466E+03  0.00000000000E+00 0. -1.
<mgrwt>
<rscale>  2 0.10161047E+04</rscale>
<asrwt>0</asrwt>
<pdfrwt beam="1">  1       21 0.22806276E+00 0.10178550E+04</pdfrwt>
<pdfrwt beam="2">  1       21 0.14256429E+00 0.10178550E+04</pdfrwt>
<totfact> 0.12974301E+01</totfact>
</mgrwt>
</event>
<event>
 8    1  0.7208583E-006  0.1120628E+04  0.7818608E-02  0.8671379E-01
         21   -1    0    0  503  502  0.00000000000E+00  0.00000000000E+00  0.33894162276E+04  0.33894162276E+04  0.00000000000E+00 0.  1.
         21   -1    0    0  501  503 -0.00000000000E+00 -0.00000000000E+00 -0.85045558490E+03  0.85045558490E+03  0.00000000000E+00 0.  1.
    9000010    2    1    2  501    0 -0.21873264507E+03 -0.44297812783E+03 -0.33276954889E+03  0.11572362507E+04  0.99216257518E+03 0.  0.
   -9000010    2    1    2    0  502  0.21873264507E+03  0.44297812783E+03  0.28717301916E+04  0.30826355618E+04  0.10058499499E+04 0.  0.
        -13    1    3    3    0    0 -0.35649039292E+03  0.19079419336E+03  0.44729712544E+02  0.40680287955E+03  0.10566000000E+00 0.  1.
          4    1    3    3  501    0  0.13775774785E+03 -0.63377232119E+03 -0.37749926143E+03  0.75043337118E+03  0.00000000000E+00 0.  1.
         13    1    4    4    0    0  0.48337004803E+03 -0.12044335975E+03  0.12795912141E+04  0.13731376088E+04  0.10566000000E+00 0. -1.
         -4    1    4    4    0  502 -0.26463740296E+03  0.56342148758E+03  0.15921389775E+04  0.17094979530E+04  0.00000000000E+00 0. -1.
<mgrwt>
<rscale>  2 0.11175483E+04</rscale>
<asrwt>0</asrwt>
<pdfrwt beam="1">  1       21 0.52144864E+00 0.11206283E+04</pdfrwt>
<pdfrwt beam="2">  1       21 0.13083932E+00 0.11206283E+04</pdfrwt>
<totfact> 0.14046509E-01</totfact>
</mgrwt>
</event>
<event>
 8    1  0.7208583E-006  0.1041901E+04  0.7818608E-02  0.8745269E-01
         21   -1    0    0  503  502  0.00000000000E+00  0.00000000000E+00  0.10657338397E+04  0.10657338397E+04  0.00000000000E+00 0. -1.
         21   -1    0    0  501  503 -0.00000000000E+00 -0.00000000000E+00 -0.10194183529E+04  0.10194183529E+04  0.00000000000E+00 0. -1.
    9000010    2    1    2  501    0  0.14477212845E+03 -0.46245359819E+01 -0.18122136088E+03  0.10575441764E+04  0.10317839637E+04 0.  0.
   -9000010    2    1    2    0  502 -0.14477212845E+03  0.46245359819E+01  0.22753684773E+03  0.10276080163E+04  0.99157695742E+03 0.  0.
        -13    1    3    3    0    0  0.58247012576E+03  0.58558497687E+02 -0.18924954294E+03  0.61523649577E+03  0.10566000000E+00 0.  1.
          4    1    3    3  501    0 -0.43769799731E+03 -0.63183033669E+02  0.80281820641E+01  0.44230768058E+03  0.00000000000E+00 0.  1.
         13    1    4    4    0    0  0.12064565898E+03  0.15108981922E+03 -0.33602783522E+03  0.38768315118E+03  0.10566000000E+00 0. -1.
         -4    1    4    4    0  502 -0.26541778744E+03 -0.14646528324E+03  0.56356468294E+03  0.63992486507E+03  0.00000000000E+00 0. -1.
<mgrwt>
<rscale>  2 0.10318053E+04</rscale>
<asrwt>0</asrwt>
<pdfrwt beam="1">  1       21 0.16395905E+00 0.10419014E+04</pdfrwt>
<pdfrwt beam="2">  1       21 0.15683359E+00 0.10419014E+04</pdfrwt>
<totfact> 0.30910811E+01</totfact>
</mgrwt>
</event>
<event>
 8    1  0.7208583E-006  0.1025851E+04  0.7818608E-02  0.8752214E-01
         21   -1    0    0  503  502  0.00000000000E+00  0.00000000000E+00  0.89605029665E+03  0.89605029665E+03  0.00000000000E+00 0.  1.
         21   -1    0    0  501  503 -0.00000000000E+00 -0.00000000000E+00 -0.14560748500E+04  0.14560748500E+04  0.00000000000E+00 0.  1.
    9000010    2    1    2  501    0  0.20098344190E+02 -0.39407989308E+01 -0.80498208667E+03  0.13039807154E+04  0.10256461734E+04 0.  0.
   -9000010    2    1    2    0  502 -0.20098344190E+02  0.39407989308E+01  0.24495753330E+03  0.10481444313E+04  0.10189126961E+04 0.  0.
        -13    1    3    3    0    0  0.33040382363E+03  0.19961475080E+02  0.10096788050E+03  0.34606310294E+03  0.10566000000E+00 0.  1.
          4    1    3    3  501    0 -0.31030547944E+03 -0.23902274011E+02 -0.90594996717E+03  0.95791761247E+03  0.00000000000E+00 0.  1.
         13    1    4    4    0    0  0.37297259099E+03 -0.33379820757E+03  0.10663344512E+03  0.51176215158E+03  0.10566000000E+00 0. -1.
         -4    1    4    4    0  502 -0.39307093518E+03  0.33773900650E+03  0.13832408818E+03  0.53638227969E+03  0.00000000000E+00 0. -1.
<mgrwt>
<rscale>  2 0.10241635E+04</rscale>
<asrwt>0</asrwt>
<pdfrwt beam="1">  1       21 0.13785389E+00 0.10258506E+04</pdfrwt>
<pdfrwt beam="2">  1       21 0.22401151E+00 0.10258506E+04</pdfrwt>
<totfact> 0.15346988E+01</totfact>
</mgrwt>
</event>
<event>
 8    1  0.7208583E-006  0.1266539E+04  0.7818608E-02  0.8611133E-01
         21   -1    0    0  503  502  0.00000000000E+00  0.00000000000E+00  0.14717654953E+04  0.14717654953E+04  0.00000000000E+00 0.  1.
         21   -1    0    0  501  503 -0.00000000000E+00 -0.00000000000E+00 -0.89151652734E+03  0.89151652734E+03  0.00000000000E+00 0.  1.
    9000010    2    1    2  501    0 -0.20454214034E+03  0.25482778712E+03  0.49364539111E+03  0.13593403743E+04  0.12236608161E+04 0.  0.
   -9000010    2    1    2    0  502  0.20454214034E+03 -0.25482778712E+03  0.86603576804E+02  0.10039416483E+04  0.94531685977E+03 0.  0.
        -13    1    3    3    0    0  0.33154896442E+03  0.32709627168E+03 -0.17654288795E+03  0.49808040435E+03  0.10566000000E+00 0.  1.
          4    1    3    3  501    0 -0.53609110476E+03 -0.72268484555E+02  0.67018827905E+03  0.86125996995E+03  0.00000000000E+00 0.  1.
         13    1    4    4    0    0 -0.53574096826E+02 -0.44903606397E+02 -0.40464087514E+03  0.41063459025E+03  0.10566000000E+00 0. -1.
         -4    1    4    4    0  502  0.25811623717E+03 -0.20992418073E+03  0.49124445194E+03  0.59330705803E+03  0.00000000000E+00 0. -1.
<mgrwt>
<rscale>  2 0.11939483E+04</rscale>
<asrwt>0</asrwt>
<pdfrwt beam="1">  1       21 0.22642546E+00 0.12665388E+04</pdfrwt>
<pdfrwt beam="2">  1       21 0.13715639E+00 0.12665388E+04</pdfrwt>
<totfact> 0.14208297E+01</totfact>
</mgrwt>
</event>
<event>
 8    1  0.7208583E-006  0.1129418E+04  0.7818608E-02  0.8665131E-01
         21   -1    0    0  503  502  0.00000000000E+00  0.00000000000E+00  0.17510208341E+04  0.17510208341E+04  0.00000000000E+00 0. -1.
         21   -1    0    0  501  503 -0.00000000000E+00 -0.00000000000E+00 -0.11422827125E+04  0.11422827125E+04  0.00000000000E+00 0. -1.
    9000010    2    1    2  501    0  0.13115149517E+03  0.48309999384E+03 -0.57618836255E+03  0.12679031456E+04  0.10124223619E+04 0.  0.
   -9000010    2    1    2    0  502 -0.13115149517E+03 -0.48309999384E+03  0.11849264842E+04  0.16254004010E+04  0.99362436165E+03 0.  0.
        -13    1    3    3    0    0  0.30768704084E+03  0.12049681477E+03  0.20492259785E+03  0.38882397013E+03  0.10566000000E+00 0.  1.
          4    1    3    3  501    0 -0.17653554567E+03  0.36260317906E+03 -0.78111096041E+03  0.87907917551E+03  0.00000000000E+00 0.  1.
         13    1    4    4    0    0 -0.35411462161E+03  0.17457727067E+03  0.27676251910E+03  0.48215339034E+03  0.10566000000E+00 0. -1.
         -4    1    4    4    0  502  0.22296312645E+03 -0.65767726451E+03  0.90816396506E+03  0.11432470107E+04  0.00000000000E+00 0. -1.
<mgrwt>
<rscale>  2 0.11251896E+04</rscale>
<asrwt>0</asrwt>
<pdfrwt beam="1">  1       21 0.26938782E+00 0.11294182E+04</pdfrwt>
<pdfrwt beam="2">  1       21 0.17573580E+00 0.11294182E+04</pdfrwt>
<totfact> 0.32534941E+00</totfact>
</mgrwt>
</event>
<event>
 8    1  0.7208583E-006  0.1120402E+04  0.7818608E-02  0.8684245E-01
         21   -1    0    0  501  502  0.00000000000E+00  0.00000000000E+00  0.15771288281E+04  0.15771288281E+04  0.00000000000E+00 0. -1.
         21   -1    0    0  502  503 -0.00000000000E+00 -0.00000000000E+00 -0.84088774886E+03  0.84088774886E+03  0.00000000000E+00 0. -1.
    9000010    2    1    2  501    0 -0.12674102274E+02  0.34284807197E+03  0.78535015991E+03  0.13682381911E+04  0.10665811927E+04 0.  0.
   -9000010    2    1    2    0  503  0.12674102274E+02 -0.34284807197E+03 -0.49109080642E+02  0.10497783859E+04  0.99091751639E+03 0.  0.
        -13    1    3    3    0    0 -0.80670410764E+02  0.65290703920E+03  0.81733299219E+03  0.10492037687E+04  0.10566000000E+00 0.  1.
          4    1    3    3  501    0  0.67996308490E+02 -0.31005896722E+03 -0.31982832277E+02  0.31903442241E+03  0.00000000000E+00 0.  1.
         13    1    4    4    0    0 -0.11925050188E+03 -0.46789452969E+03 -0.41792773085E+03  0.63859969659E+03  0.10566000000E+00 0. -1.
         -4    1    4    4    0  503  0.13192460415E+03  0.12504645771E+03  0.36881865021E+03  0.41117868927E+03  0.00000000000E+00 0. -1.
<mgrwt>
<rscale>  2 0.11020110E+04</rscale>
<asrwt>0</asrwt>
<pdfrwt beam="1">  1       21 0.24263520E+00 0.11204021E+04</pdfrwt>
<pdfrwt beam="2">  1       21 0.12936735E+00 0.11204021E+04</pdfrwt>
<totfact> 0.13167852E+01</totfact>
</mgrwt>
</event>
<event>
 8    1  0.7208583E-006  0.1036512E+04  0.7818608E-02  0.8741757E-01
         21   -1    0    0  501  502  0.00000000000E+00  0.00000000000E+00  0.22545451574E+04  0.22545451574E+04  0.00000000000E+00 0. -1.
         21   -1    0    0  502  503 -0.00000000000E+00 -0.00000000000E+00 -0.89677965057E+03  0.89677965057E+03  0.00000000000E+00 0. -1.
    9000010    2    1    2  501    0  0.27824847335E+03  0.20777018760E+02  0.17588710513E+04  0.20399101189E+04  0.99486281506E+03 0.  0.
   -9000010    2    1    2    0  503 -0.27824847335E+03 -0.20777018760E+02 -0.40110554446E+03  0.11114146891E+04  0.99824999666E+03 0.  0.
        -13    1    3    3    0    0 -0.31016107291E+03 -0.22384279168E+03  0.82483731867E+03  0.90920960178E+03  0.10566000000E+00 0.  1.
          4    1    3    3  501    0  0.58840954626E+03  0.24461981044E+03  0.93403373265E+03  0.11307005172E+04  0.00000000000E+00 0.  1.
         13    1    4    4    0    0 -0.21506984011E+03  0.46285477531E+03 -0.54969944770E+02  0.51333350284E+03  0.10566000000E+00 0. -1.
         -4    1    4    4    0  503 -0.63178633232E+02 -0.48363179407E+03 -0.34613559969E+03  0.59808118621E+03  0.00000000000E+00 0. -1.
<mgrwt>
<rscale>  2 0.10356955E+04</rscale>
<asrwt>0</asrwt>
<pdfrwt beam="1">  1       21 0.34685310E+00 0.10365119E+04</pdfrwt>
<pdfrwt beam="2">  1       21 0.13796610E+00 0.10365119E+04</pdfrwt>
<totfact> 0.20196347E+00</totfact>
</mgrwt>
</event>
<event>
 8    1  0.7208583E-006  0.1066902E+04  0.7818608E-02  0.8714579E-01
         21   -1    0    0  503  502  0.00000000000E+00  0.00000000000E+00  0.12618341628E+04  0.12618341628E+04  0.00000000000E+00 0.  1.
         21   -1    0    0  501  503 -0.00000000000E+00 -0.00000000000E+00 -0.12764185944E+04  0.12764185944E+04  0.00000000000E+00 0.  1.
    9000010    2    1    2  501    0 -0.57624427096E+02 -0.37125077727E+03 -0.69610981933E+03  0.12739106931E+04  0.99856489981E+03 0.  0.
   -9000010    2    1    2    0  502  0.57624427096E+02  0.37125077727E+03  0.68152538770E+03  0.12643420641E+04  0.99646188420E+03 0.  0.
        -13    1    3    3    0    0  0.29046360972E+03  0.20677672699E+03 -0.91951552268E+02  0.36821301243E+03  0.10566000000E+00 0.  1.
          4    1    3    3  501    0 -0.34808803681E+03 -0.57802750426E+03 -0.60415826706E+03  0.90569768064E+03  0.00000000000E+00 0.  1.
         13    1    4    4    0    0 -0.41393006548E+03  0.23953436688E+03  0.73755494398E+02  0.48389533594E+03  0.10566000000E+00 0. -1.
         -4    1    4    4    0  502  0.47155449258E+03  0.13171641039E+03  0.60776989330E+03  0.78044672812E+03  0.00000000000E+00 0. -1.
<mgrwt>
<rscale>  2 0.10664095E+04</rscale>
<asrwt>0</asrwt>
<pdfrwt beam="1">  1       21 0.19412833E+00 0.10669019E+04</pdfrwt>
<pdfrwt beam="2">  1       21 0.19637209E+00 0.10669019E+04</pdfrwt>
<totfact> 0.82041694E+00</totfact>
</mgrwt>
</event>
