<event>
 6    2  0.2379986E-005  0.1040828E+04  0.7818608E-02  0.9661941E-01
         -4   -1    0    0    0  501 -0.00000000000E+00  0.00000000000E+00  0.18101411070E+04  0.18101411070E+04  0.00000000000E+00 0. -1.
         21   -1    0    0  501  502  0.00000000000E+00 -0.00000000000E+00 -0.24540093667E+03  0.24540093667E+03  0.00000000000E+00 0. -1.
   -9000010    2    1    2    0  502  0.11352044133E+03  0.22992816336E+03  0.10393133282E+04  0.14708821181E+04  0.10087458354E+04 0.  0.
         13    1    3    3    0    0  0.19717636128E+02 -0.38888665666E+03  0.56221781869E+03  0.68389363480E+03  0.10566000000E+00 0. -1.
         -4    1    3    3    0  502  0.93802805207E+02  0.61881482001E+03  0.47709550950E+03  0.78698848334E+03  0.00000000000E+00 0. -1.
        -13    1    1    2    0    0 -0.11352044133E+03 -0.22992816336E+03  0.52542684215E+03  0.58465992553E+03  0.10566000000E+00 0.  1.
<mgrwt>
<rscale>  1 0.73328744E+03</rscale>
<asrwt>0</asrwt>
<pdfrwt beam="2">  1       21 0.37753991E-01 0.10408276E+04</pdfrwt>
<pdfrwt beam="1">  1       -4 0.27848324E+00 0.10408276E+04</pdfrwt>
<totfact> 0.11457094E+01</totfact>
</mgrwt>
</event>
<event>
 6    2  0.2379986E-005  0.9981325E+03  0.7818608E-02  0.1007431E+00
         21   -1    0    0  501  502  0.00000000000E+00  0.00000000000E+00  0.16198090742E+04  0.16198090742E+04  0.00000000000E+00 0. -1.
         -4   -1    0    0    0  501 -0.00000000000E+00 -0.00000000000E+00 -0.23647293072E+03  0.23647293072E+03  0.00000000000E+00 0. -1.
   -9000010    2    1    2    0  502  0.45011921666E+02 -0.61789463132E+02  0.14462717765E+04  0.17572622295E+04  0.99520072402E+03 0.  0.
         13    1    3    3    0    0 -0.43825209870E+02 -0.38154633270E+03  0.13616499994E+04  0.14147752419E+04  0.10566000000E+00 0. -1.
         -4    1    3    3    0  502  0.88837131536E+02  0.31975686957E+03  0.84621777108E+02  0.34248698769E+03  0.00000000000E+00 0. -1.
        -13    1    1    2    0    0 -0.45011921666E+02  0.61789463132E+02 -0.62935633018E+02  0.99019775367E+02  0.10566000000E+00 0.  1.
<mgrwt>
<rscale>  1 0.52508562E+03</rscale>
<asrwt>0</asrwt>
<pdfrwt beam="1">  1       21 0.24920139E+00 0.99813250E+03</pdfrwt>
<pdfrwt beam="2">  1       -4 0.36380452E-01 0.99813250E+03</pdfrwt>
<totfact> 0.16293105E+01</totfact>
</mgrwt>
</event>
<event>
 6    2  0.2379986E-005  0.1040350E+04  0.7818608E-02  0.9741622E-01
         21   -1    0    0  501  502  0.00000000000E+00  0.00000000000E+00  0.23693067192E+03  0.23693067192E+03  0.00000000000E+00 0. -1.
         -4   -1    0    0    0  501 -0.00000000000E+00 -0.00000000000E+00 -0.16579038741E+04  0.16579038741E+04  0.00000000000E+00 0. -1.
   -9000010    2    1    2    0  502  0.76139773340E+02  0.18124084832E+03 -0.12959115667E+04  0.16618411255E+04  0.10216083533E+04 0.  0.
         13    1    3    3    0    0  0.52007035265E+03 -0.33539315655E+02 -0.84963698971E+03  0.99673521200E+03  0.10566000000E+00 0. -1.
         -4    1    3    3    0  502 -0.44393057931E+03  0.21478016397E+03 -0.44627457702E+03  0.66510591350E+03  0.00000000000E+00 0. -1.
        -13    1    1    2    0    0 -0.76139773340E+02 -0.18124084832E+03 -0.12506163546E+03  0.23299342053E+03  0.10566000000E+00 0.  1.
<mgrwt>
<rscale>  1 0.68591801E+03</rscale>
<asrwt>0</asrwt>
<pdfrwt beam="1">  1       21 0.36450872E-01 0.10403505E+04</pdfrwt>
<pdfrwt beam="2">  1       -4 0.25506214E+00 0.10403505E+04</pdfrwt>
<totfact> 0.17182317E+01</totfact>
</mgrwt>
</event>
<event>
 6    2  0.2379986E-005  0.1028801E+04  0.7818608E-02  0.9695062E-01
         21   -1    0    0  501  502  0.00000000000E+00  0.00000000000E+00  0.12551133565E+04  0.12551133565E+04  0.00000000000E+00 0. -1.
         -4   -1    0    0    0  501 -0.00000000000E+00 -0.00000000000E+00 -0.48335311846E+03  0.48335311846E+03  0.00000000000E+00 0. -1.
   -9000010    2    1    2    0  502  0.23655636114E+03 -0.21039608984E+02  0.98129902931E+03  0.14217519452E+04  0.10010141017E+04 0.  0.
         13    1    3    3    0    0  0.42501007580E+03  0.34205881251E+03  0.28839924556E+03  0.61709961251E+03  0.10566000000E+00 0. -1.
         -4    1    3    3    0  502 -0.18845371466E+03 -0.36309842150E+03  0.69289978375E+03  0.80465233274E+03  0.00000000000E+00 0. -1.
        -13    1    1    2    0    0 -0.23655636114E+03  0.21039608984E+02 -0.20953879125E+03  0.31671452974E+03  0.10566000000E+00 0.  1.
<mgrwt>
<rscale>  1 0.71311545E+03</rscale>
<asrwt>0</asrwt>
<pdfrwt beam="1">  1       21 0.19309436E+00 0.10288007E+04</pdfrwt>
<pdfrwt beam="2">  1       -4 0.74362019E-01 0.10288007E+04</pdfrwt>
<totfact> 0.83301225E+00</totfact>
</mgrwt>
</event>
<event>
 6    2  0.2379986E-005  0.9893231E+03  0.7818608E-02  0.1019495E+00
         21   -1    0    0  501  502  0.00000000000E+00  0.00000000000E+00  0.36588495966E+03  0.36588495966E+03  0.00000000000E+00 0. -1.
         -4   -1    0    0    0  501 -0.00000000000E+00 -0.00000000000E+00 -0.74447217982E+03  0.74447217982E+03  0.00000000000E+00 0. -1.
   -9000010    2    1    2    0  502  0.53695092880E+02  0.75739882773E+01 -0.35319120304E+03  0.10504781185E+04  0.98783587875E+03 0.  0.
         13    1    3    3    0    0  0.26267327674E+03  0.40223794386E+03  0.11334681139E+01  0.48041014738E+03  0.10566000000E+00 0. -1.
         -4    1    3    3    0  502 -0.20897818386E+03 -0.39466395558E+03 -0.35432467115E+03  0.57006797117E+03  0.00000000000E+00 0. -1.
        -13    1    1    2    0    0 -0.53695092880E+02 -0.75739882773E+01 -0.25396017126E+02  0.59879020932E+02  0.10566000000E+00 0.  1.
<mgrwt>
<rscale>  1 0.47869291E+03</rscale>
<asrwt>0</asrwt>
<pdfrwt beam="1">  1       21 0.56289994E-01 0.98932313E+03</pdfrwt>
<pdfrwt beam="2">  1       -4 0.11453418E+00 0.98932313E+03</pdfrwt>
<totfact> 0.69569698E+01</totfact>
</mgrwt>
</event>
<event>
 6    2  0.2379986E-005  0.1049662E+04  0.7818608E-02  0.9567246E-01
         -4   -1    0    0    0  501 -0.00000000000E+00  0.00000000000E+00  0.69930348560E+03  0.69930348560E+03  0.00000000000E+00 0. -1.
         21   -1    0    0  501  502  0.00000000000E+00 -0.00000000000E+00 -0.70322527927E+03  0.70322527927E+03  0.00000000000E+00 0. -1.
   -9000010    2    1    2    0  502  0.23624489457E+03 -0.25202897775E+03 -0.65236907531E+02  0.10516871907E+04  0.99119112036E+03 0.  0.
         13    1    3    3    0    0 -0.33199411604E+02  0.16513815673E+03  0.36027548491E+03  0.39770749041E+03  0.10566000000E+00 0. -1.
         -4    1    3    3    0  502  0.26944430618E+03 -0.41716713448E+03 -0.42551239244E+03  0.65397970026E+03  0.00000000000E+00 0. -1.
        -13    1    1    2    0    0 -0.23624489457E+03  0.25202897775E+03  0.61315113854E+02  0.35084157420E+03  0.10566000000E+00 0.  1.
<mgrwt>
<rscale>  1 0.79502521E+03</rscale>
<asrwt>0</asrwt>
<pdfrwt beam="2">  1       21 0.10818850E+00 0.10496619E+04</pdfrwt>
<pdfrwt beam="1">  1       -4 0.10758515E+00 0.10496619E+04</pdfrwt>
<totfact> 0.17383601E+01</totfact>
</mgrwt>
</event>
<event>
 6    2  0.2379986E-005  0.1057241E+04  0.7818608E-02  0.9650427E-01
         -4   -1    0    0    0  501 -0.00000000000E+00  0.00000000000E+00  0.34862007736E+03  0.34862007736E+03  0.00000000000E+00 0. -1.
         21   -1    0    0  501  502  0.00000000000E+00 -0.00000000000E+00 -0.13610380523E+04  0.13610380523E+04  0.00000000000E+00 0.  1.
   -9000010    2    1    2    0  502 -0.14493930562E+03  0.20906112426E+03 -0.57459233668E+03  0.12032933830E+04  0.10261796413E+04 0.  0.
         13    1    3    3    0    0 -0.12418217795E+03  0.60441862277E+03 -0.51338579395E+03  0.80268802748E+03  0.10566000000E+00 0. -1.
         -4    1    3    3    0  502 -0.20757127676E+02 -0.39535749851E+03 -0.61206542729E+02  0.40060535550E+03  0.00000000000E+00 0. -1.
        -13    1    1    2    0    0  0.14493930562E+03 -0.20906112426E+03 -0.43782563824E+03  0.50636474665E+03  0.10566000000E+00 0.  1.
<mgrwt>
<rscale>  1 0.74046633E+03</rscale>
<asrwt>0</asrwt>
<pdfrwt beam="2">  1       21 0.20939047E+00 0.10572410E+04</pdfrwt>
<pdfrwt beam="1">  1       -4 0.53633857E-01 0.10572410E+04</pdfrwt>
<totfact> 0.13160782E+01</totfact>
</mgrwt>
</event>
<event>
 6    2  0.2379986E-005  0.1007681E+04  0.7818608E-02  0.1018380E+00
         -4   -1    0    0    0  501 -0.00000000000E+00  0.00000000000E+00  0.24359334741E+04  0.24359334741E+04  0.00000000000E+00 0. -1.
         21   -1    0    0  501  502  0.00000000000E+00 -0.00000000000E+00 -0.11570925127E+03  0.11570925127E+03  0.00000000000E+00 0. -1.
   -9000010    2    1    2    0  502  0.53030533813E+02 -0.23440733085E+01  0.22268606542E+04  0.24442439390E+04  0.10062814358E+04 0.  0.
         13    1    3    3    0    0 -0.16825913510E+03  0.26135309041E+03  0.16129620362E+03  0.35019002110E+03  0.10566000000E+00 0. -1.
         -4    1    3    3    0  502  0.22128966892E+03 -0.26369716371E+03  0.20655644506E+04  0.20940539179E+04  0.00000000000E+00 0. -1.
        -13    1    1    2    0    0 -0.53030533813E+02  0.23440733085E+01  0.93363568601E+02  0.10739878632E+03  0.10566000000E+00 0.  1.
<mgrwt>
<rscale>  1 0.48275845E+03</rscale>
<asrwt>0</asrwt>
<pdfrwt beam="2">  1       21 0.17801425E-01 0.10076805E+04</pdfrwt>
<pdfrwt beam="1">  1       -4 0.37475896E+00 0.10076805E+04</pdfrwt>
<totfact> 0.12551676E+01</totfact>
</mgrwt>
</event>
<event>
 6    2  0.2379986E-005  0.1016383E+04  0.7818608E-02  0.9758743E-01
         21   -1    0    0  501  502  0.00000000000E+00  0.00000000000E+00  0.61542438553E+03  0.61542438553E+03  0.00000000000E+00 0. -1.
         -4   -1    0    0    0  501 -0.00000000000E+00 -0.00000000000E+00 -0.10673047675E+04  0.10673047675E+04  0.00000000000E+00 0. -1.
   -9000010    2    1    2    0  502  0.18297942620E+03  0.78679420509E+02  0.16930925469E+03  0.10303883698E+04  0.99667579846E+03 0.  0.
         13    1    3    3    0    0  0.64405748119E+02 -0.31251313144E+02 -0.41653407856E+03  0.42264097616E+03  0.10566000000E+00 0. -1.
         -4    1    3    3    0  502  0.11857367808E+03  0.10993073365E+03  0.58584333325E+03  0.60774739362E+03  0.00000000000E+00 0. -1.
        -13    1    1    2    0    0 -0.18297942620E+03 -0.78679420509E+02 -0.62118963662E+03  0.65234078320E+03  0.10566000000E+00 0.  1.
<mgrwt>
<rscale>  1 0.67624410E+03</rscale>
<asrwt>0</asrwt>
<pdfrwt beam="1">  1       21 0.94680675E-01 0.10163831E+04</pdfrwt>
<pdfrwt beam="2">  1       -4 0.16420073E+00 0.10163831E+04</pdfrwt>
<totfact> 0.81099852E+00</totfact>
</mgrwt>
</event>
<event>
 6    2  0.2379986E-005  0.1010948E+04  0.7818608E-02  0.9887762E-01
         -4   -1    0    0    0  501 -0.00000000000E+00  0.00000000000E+00  0.32615924525E+03  0.32615924525E+03  0.00000000000E+00 0. -1.
         21   -1    0    0  501  502  0.00000000000E+00 -0.00000000000E+00 -0.11148604595E+04  0.11148604595E+04  0.00000000000E+00 0. -1.
   -9000010    2    1    2    0  502  0.99490173864E+01 -0.13239268352E+03 -0.82334664833E+03  0.13038077415E+04  0.10021916573E+04 0.  0.
         13    1    3    3    0    0 -0.49474935966E+03 -0.96188169848E+02 -0.38277206010E+03  0.63288510336E+03  0.10566000000E+00 0. -1.
         -4    1    3    3    0  502  0.50469837705E+03 -0.36204513675E+02 -0.44057458823E+03  0.67092263816E+03  0.00000000000E+00 0. -1.
        -13    1    1    2    0    0 -0.99490173864E+01  0.13239268352E+03  0.34645434040E+02  0.13721196326E+03  0.10566000000E+00 0.  1.
<mgrwt>
<rscale>  1 0.60858073E+03</rscale>
<asrwt>0</asrwt>
<pdfrwt beam="2">  1       21 0.17151700E+00 0.10109475E+04</pdfrwt>
<pdfrwt beam="1">  1       -4 0.50178345E-01 0.10109475E+04</pdfrwt>
<totfact> 0.28235859E+01</totfact>
</mgrwt>
</event>
<event>
 6    2  0.2379986E-005  0.9673024E+03  0.7818608E-02  0.9639840E-01
         -4   -1    0    0    0  501 -0.00000000000E+00  0.00000000000E+00  0.24031518478E+03  0.24031518478E+03  0.00000000000E+00 0. -1.
         21   -1    0    0  501  502  0.00000000000E+00 -0.00000000000E+00 -0.17979357838E+04  0.17979357838E+04  0.00000000000E+00 0. -1.
   -9000010    2    1    2    0  502 -0.27399431880E+03 -0.20848767398E+03 -0.12080651156E+04  0.15476095067E+04  0.90395457013E+03 0.  0.
         13    1    3    3    0    0 -0.66037059850E+02  0.79668234408E+02 -0.11871330445E+04  0.11916345066E+04  0.10566000000E+00 0. -1.
         -4    1    3    3    0  502 -0.20795725895E+03 -0.28815590839E+03 -0.20932071063E+02  0.35597500008E+03  0.00000000000E+00 0. -1.
        -13    1    1    2    0    0  0.27399431880E+03  0.20848767398E+03 -0.34955548347E+03  0.49064146189E+03  0.10566000000E+00 0.  1.
<mgrwt>
<rscale>  1 0.74714485E+03</rscale>
<asrwt>0</asrwt>
<pdfrwt beam="2">  1       21 0.27660550E+00 0.96730236E+03</pdfrwt>
<pdfrwt beam="1">  1       -4 0.36971568E-01 0.96730236E+03</pdfrwt>
<totfact> 0.10657407E+01</totfact>
</mgrwt>
</event>
<event>
 6    2  0.2379986E-005  0.9760169E+03  0.7818608E-02  0.9933863E-01
         -4   -1    0    0    0  501 -0.00000000000E+00  0.00000000000E+00  0.55089780077E+03  0.55089780077E+03  0.00000000000E+00 0. -1.
         21   -1    0    0  501  502  0.00000000000E+00 -0.00000000000E+00 -0.76903289524E+03  0.76903289524E+03  0.00000000000E+00 0. -1.
   -9000010    2    1    2    0  502  0.12178990618E+03 -0.36853705001E+02 -0.43494149471E+03  0.10685425436E+04  0.96768697772E+03 0.  0.
         13    1    3    3    0    0  0.52924175273E+02 -0.16720297929E+03  0.28446689221E+03  0.33418442295E+03  0.10566000000E+00 0. -1.
         -4    1    3    3    0  502  0.68865730907E+02  0.13034927429E+03 -0.71940838692E+03  0.73435812066E+03  0.00000000000E+00 0. -1.
        -13    1    1    2    0    0 -0.12178990618E+03  0.36853705001E+02  0.21680640024E+03  0.25138815241E+03  0.10566000000E+00 0.  1.
<mgrwt>
<rscale>  1 0.58647862E+03</rscale>
<asrwt>0</asrwt>
<pdfrwt beam="2">  1       21 0.11831275E+00 0.97601694E+03</pdfrwt>
<pdfrwt beam="1">  1       -4 0.84753508E-01 0.97601694E+03</pdfrwt>
<totfact> 0.24639756E+01</totfact>
</mgrwt>
</event>
<event>
 6    2  0.2379986E-005  0.1107940E+04  0.7818608E-02  0.9437222E-01
         -4   -1    0    0    0  501 -0.00000000000E+00  0.00000000000E+00  0.22365812428E+04  0.22365812428E+04  0.00000000000E+00 0. -1.
         21   -1    0    0  501  502  0.00000000000E+00 -0.00000000000E+00 -0.33694133987E+03  0.33694133987E+03  0.00000000000E+00 0. -1.
   -9000010    2    1    2    0  502  0.24981860041E+03 -0.38967804363E+03  0.76023624953E+03  0.13436855986E+04  0.10066148827E+04 0.  0.
         13    1    3    3    0    0  0.22032981728E+03 -0.24751828522E+03  0.10054852864E+04  0.10586837121E+04  0.10566000000E+00 0. -1.
         -4    1    3    3    0  502  0.29488783132E+02 -0.14215975841E+03 -0.24524903688E+03  0.28500188654E+03  0.00000000000E+00 0. -1.
        -13    1    1    2    0    0 -0.24981860041E+03  0.38967804363E+03  0.11394036534E+04  0.12298369841E+04  0.10566000000E+00 0.  1.
<mgrwt>
<rscale>  1 0.89074727E+03</rscale>
<asrwt>0</asrwt>
<pdfrwt beam="2">  1       21 0.51837130E-01 0.11079404E+04</pdfrwt>
<pdfrwt beam="1">  1       -4 0.34408941E+00 0.11079404E+04</pdfrwt>
<totfact> 0.22454052E+00</totfact>
</mgrwt>
</event>
<event>
 6    2  0.2379986E-005  0.1017996E+04  0.7818608E-02  0.9778118E-01
         21   -1    0    0  501  502  0.00000000000E+00  0.00000000000E+00  0.14764807851E+04  0.14764807851E+04  0.00000000000E+00 0. -1.
         -4   -1    0    0    0  501 -0.00000000000E+00 -0.00000000000E+00 -0.25110604949E+03  0.25110604949E+03  0.00000000000E+00 0. -1.
   -9000010    2    1    2    0  502 -0.64579777269E+02 -0.17435892277E+03  0.11214330907E+04  0.15145716748E+04  0.10008714201E+04 0.  0.
         13    1    3    3    0    0 -0.89853330694E+02 -0.41678554356E+03  0.66096993662E+02  0.43145409268E+03  0.10566000000E+00 0. -1.
         -4    1    3    3    0  502  0.25273553425E+02  0.24242662079E+03  0.10553360971E+04  0.10831175821E+04  0.00000000000E+00 0. -1.
        -13    1    1    2    0    0  0.64579777269E+02  0.17435892277E+03  0.10394164486E+03  0.21301515974E+03  0.10566000000E+00 0.  1.
<mgrwt>
<rscale>  1 0.66550201E+03</rscale>
<asrwt>0</asrwt>
<pdfrwt beam="1">  1       21 0.22715088E+00 0.10179957E+04</pdfrwt>
<pdfrwt beam="2">  1       -4 0.38631701E-01 0.10179957E+04</pdfrwt>
<totfact> 0.19960767E+01</totfact>
</mgrwt>
</event>
<event>
 6    2  0.2379986E-005  0.1044776E+04  0.7818608E-02  0.9684536E-01
         -4   -1    0    0    0  501 -0.00000000000E+00  0.00000000000E+00  0.44090264493E+03  0.44090264493E+03  0.00000000000E+00 0. -1.
         21   -1    0    0  501  502  0.00000000000E+00 -0.00000000000E+00 -0.94663618185E+03  0.94663618185E+03  0.00000000000E+00 0. -1.
   -9000010    2    1    2    0  502  0.24534104671E+02 -0.23364184756E+03 -0.33516185013E+03  0.10972197838E+04  0.10180212930E+04 0.  0.
         13    1    3    3    0    0  0.47920771115E+03  0.51720948240E+02 -0.37592019110E+02  0.48345450456E+03  0.10566000000E+00 0. -1.
         -4    1    3    3    0  502 -0.45467360648E+03 -0.28536279580E+03 -0.29756983102E+03  0.61376527923E+03  0.00000000000E+00 0. -1.
        -13    1    1    2    0    0 -0.24534104671E+02  0.23364184756E+03 -0.17057168679E+03  0.29031904299E+03  0.10566000000E+00 0.  1.
<mgrwt>
<rscale>  1 0.71944992E+03</rscale>
<asrwt>0</asrwt>
<pdfrwt beam="2">  1       21 0.14563634E+00 0.10447764E+04</pdfrwt>
<pdfrwt beam="1">  1       -4 0.67831176E-01 0.10447764E+04</pdfrwt>
<totfact> 0.23315439E+01</totfact>
</mgrwt>
</event>
<event>
 6    2  0.2379986E-005  0.1333302E+04  0.7818608E-02  0.9092748E-01
         -4   -1    0    0    0  501 -0.00000000000E+00  0.00000000000E+00  0.69257864587E+03  0.69257864587E+03  0.00000000000E+00 0. -1.
         21   -1    0    0  501  502  0.00000000000E+00 -0.00000000000E+00 -0.26539493033E+04  0.26539493033E+04  0.00000000000E+00 0.  1.
   -9000010    2    1    2    0  502 -0.37964178706E+03  0.86500911367E+03 -0.19970179595E+04  0.24012029286E+04  0.94091770111E+03 0.  0.
         13    1    3    3    0    0 -0.21165668798E+03  0.85521370152E+03 -0.20445975030E+04  0.22263351026E+04  0.10566000000E+00 0. -1.
         -4    1    3    3    0  502 -0.16798509907E+03  0.97954121464E+01  0.47579543410E+02  0.17486782598E+03  0.00000000000E+00 0. -1.
        -13    1    1    2    0    0  0.37964178706E+03 -0.86500911367E+03  0.35647302134E+02  0.94532502057E+03  0.10566000000E+00 0.  1.
<mgrwt>
<rscale>  1 0.12232479E+04</rscale>
<asrwt>0</asrwt>
<pdfrwt beam="2">  1       21 0.40829989E+00 0.13333022E+04</pdfrwt>
<pdfrwt beam="1">  1       -4 0.10655056E+00 0.13333022E+04</pdfrwt>
<totfact> 0.13957439E-01</totfact>
</mgrwt>
</event>
<event>
 6    2  0.2379986E-005  0.1002655E+04  0.7818608E-02  0.9804860E-01
         -4   -1    0    0    0  501 -0.00000000000E+00  0.00000000000E+00  0.39830133512E+03  0.39830133512E+03  0.00000000000E+00 0. -1.
         21   -1    0    0  501  502  0.00000000000E+00 -0.00000000000E+00 -0.88829601570E+03  0.88829601570E+03  0.00000000000E+00 0. -1.
   -9000010    2    1    2    0  502 -0.83614443701E+02  0.15737695301E+03 -0.46975112494E+03  0.11072410204E+04  0.98669026419E+03 0.  0.
         13    1    3    3    0    0 -0.36750415562E+03  0.18664732937E+02  0.16109126733E+03  0.40169401817E+03  0.10566000000E+00 0. -1.
         -4    1    3    3    0  502  0.28388971192E+03  0.13871222007E+03 -0.63084239228E+03  0.70554700228E+03  0.00000000000E+00 0. -1.
        -13    1    1    2    0    0  0.83614443701E+02 -0.15737695301E+03 -0.20243555635E+02  0.17935633037E+03  0.10566000000E+00 0.  1.
<mgrwt>
<rscale>  1 0.65102360E+03</rscale>
<asrwt>0</asrwt>
<pdfrwt beam="2">  1       21 0.13666092E+00 0.10026548E+04</pdfrwt>
<pdfrwt beam="1">  1       -4 0.61277129E-01 0.10026548E+04</pdfrwt>
<totfact> 0.34868819E+01</totfact>
</mgrwt>
</event>
<event>
 6    2  0.2379986E-005  0.1021064E+04  0.7818608E-02  0.9585532E-01
         -4   -1    0    0    0  501 -0.00000000000E+00  0.00000000000E+00  0.73352183251E+03  0.73352183251E+03  0.00000000000E+00 0. -1.
         21   -1    0    0  501  502  0.00000000000E+00 -0.00000000000E+00 -0.65300403614E+03  0.65300403614E+03  0.00000000000E+00 0. -1.
   -9000010    2    1    2    0  502  0.23228098827E+03 -0.26500300148E+03 -0.15872420670E+02  0.10211874866E+04  0.95832713658E+03 0.  0.
         13    1    3    3    0    0  0.35198779214E+03 -0.45376006645E+03  0.28920912294E+03  0.64298952688E+03  0.10566000000E+00 0. -1.
         -4    1    3    3    0  502 -0.11970680387E+03  0.18875706497E+03 -0.30508154361E+03  0.37819795970E+03  0.00000000000E+00 0. -1.
        -13    1    1    2    0    0 -0.23228098827E+03  0.26500300148E+03  0.96390217044E+02  0.36533838207E+03  0.10566000000E+00 0.  1.
<mgrwt>
<rscale>  1 0.78261233E+03</rscale>
<asrwt>0</asrwt>
<pdfrwt beam="2">  1       21 0.10046216E+00 0.10210641E+04</pdfrwt>
<pdfrwt beam="1">  1       -4 0.11284951E+00 0.10210641E+04</pdfrwt>
<totfact> 0.18665720E+01</totfact>
</mgrwt>
</event>
<event>
 6    2  0.2379986E-005  0.1047663E+04  0.7818608E-02  0.9557249E-01
         21   -1    0    0  501  502  0.00000000000E+00  0.00000000000E+00  0.10343227901E+04  0.10343227901E+04  0.00000000000E+00 0. -1.
         -4   -1    0    0    0  501 -0.00000000000E+00 -0.00000000000E+00 -0.54211802387E+03  0.54211802387E+03  0.00000000000E+00 0. -1.
   -9000010    2    1    2    0  502  0.19727099878E+03 -0.30068915165E+03  0.59183162334E+03  0.12032715030E+04  0.98400600943E+03 0.  0.
         13    1    3    3    0    0 -0.31311638667E+02  0.33851641735E+03  0.33552051551E+03  0.47764820843E+03  0.10566000000E+00 0. -1.
         -4    1    3    3    0  502  0.22858263744E+03 -0.63920556900E+03  0.25631110783E+03  0.72562329454E+03  0.00000000000E+00 0. -1.
        -13    1    1    2    0    0 -0.19727099878E+03  0.30068915165E+03 -0.99626857085E+02  0.37316931103E+03  0.10566000000E+00 0.  1.
<mgrwt>
<rscale>  1 0.80191534E+03</rscale>
<asrwt>0</asrwt>
<pdfrwt beam="1">  1       21 0.15912658E+00 0.10476629E+04</pdfrwt>
<pdfrwt beam="2">  1       -4 0.83402773E-01 0.10476629E+04</pdfrwt>
<totfact> 0.11365207E+01</totfact>
</mgrwt>
</event>
<event>
 6    2  0.2379986E-005  0.9960054E+03  0.7818608E-02  0.9909553E-01
         -4   -1    0    0    0  501 -0.00000000000E+00  0.00000000000E+00  0.63699076400E+03  0.63699076400E+03  0.00000000000E+00 0. -1.
         21   -1    0    0  501  502  0.00000000000E+00 -0.00000000000E+00 -0.66762333027E+03  0.66762333027E+03  0.00000000000E+00 0. -1.
   -9000010    2    1    2    0  502  0.97013005136E+02 -0.85677055838E+02 -0.27047471468E+03  0.10320772190E+04  0.98755998989E+03 0.  0.
         13    1    3    3    0    0 -0.23017170512E+03 -0.12078199276E+03  0.28544640415E+03  0.38606601044E+03  0.10566000000E+00 0. -1.
         -4    1    3    3    0  502  0.32718471026E+03  0.35104936919E+02 -0.55592111883E+03  0.64601120856E+03  0.00000000000E+00 0. -1.
        -13    1    1    2    0    0 -0.97013005136E+02  0.85677055838E+02  0.23984214841E+03  0.27253687527E+03  0.10566000000E+00 0.  1.
<mgrwt>
<rscale>  1 0.59800513E+03</rscale>
<asrwt>0</asrwt>
<pdfrwt beam="2">  1       21 0.10271128E+00 0.99600543E+03</pdfrwt>
<pdfrwt beam="1">  1       -4 0.97998579E-01 0.99600543E+03</pdfrwt>
<totfact> 0.24982969E+01</totfact>
</mgrwt>
</event>
<event>
 6    2  0.2379986E-005  0.1011334E+04  0.7818608E-02  0.9683499E-01
         21   -1    0    0  501  502  0.00000000000E+00  0.00000000000E+00  0.22345164544E+04  0.22345164544E+04  0.00000000000E+00 0. -1.
         -4   -1    0    0    0  501 -0.00000000000E+00 -0.00000000000E+00 -0.20063377892E+03  0.20063377892E+03  0.00000000000E+00 0. -1.
   -9000010    2    1    2    0  502  0.11123187275E+03 -0.23491329532E+03  0.18754486738E+04  0.21307522539E+04  0.97736413562E+03 0.  0.
         13    1    3    3    0    0  0.34421680554E+03 -0.63122684175E+02  0.14925573463E+03  0.38045626287E+03  0.10566000000E+00 0. -1.
         -4    1    3    3    0  502 -0.23298493278E+03 -0.17179061114E+03  0.17261929391E+04  0.17502959910E+04  0.00000000000E+00 0. -1.
        -13    1    1    2    0    0 -0.11123187275E+03  0.23491329532E+03  0.15843400173E+03  0.30439797946E+03  0.10566000000E+00 0.  1.
<mgrwt>
<rscale>  1 0.72007833E+03</rscale>
<asrwt>0</asrwt>
<pdfrwt beam="1">  1       21 0.34377175E+00 0.10113345E+04</pdfrwt>
<pdfrwt beam="2">  1       -4 0.30866737E-01 0.10113345E+04</pdfrwt>
<totfact> 0.57734838E+00</totfact>
</mgrwt>
</event>
<event>
 6    2  0.2379986E-005  0.1090569E+04  0.7818608E-02  0.9474954E-01
         21   -1    0    0  501  502  0.00000000000E+00  0.00000000000E+00  0.51579375669E+03  0.51579375669E+03  0.00000000000E+00 0. -1.
         -4   -1    0    0    0  501 -0.00000000000E+00 -0.00000000000E+00 -0.11710020195E+04  0.11710020195E+04  0.00000000000E+00 0. -1.
   -9000010    2    1    2    0  502  0.42190327186E+03  0.49473731702E+02 -0.63401428370E+03  0.12614732905E+04  0.10044355279E+04 0.  0.
         13    1    3    3    0    0 -0.30540393991E+03 -0.13149502140E+03 -0.26970104016E+03  0.42813685825E+03  0.10566000000E+00 0. -1.
         -4    1    3    3    0  502  0.72730721177E+03  0.18096875310E+03 -0.36431324354E+03  0.83333643224E+03  0.00000000000E+00 0. -1.
        -13    1    1    2    0    0 -0.42190327186E+03 -0.49473731702E+02 -0.21193979115E+02  0.42532248570E+03  0.10566000000E+00 0.  1.
<mgrwt>
<rscale>  1 0.86155803E+03</rscale>
<asrwt>0</asrwt>
<pdfrwt beam="1">  1       21 0.79352887E-01 0.10905690E+04</pdfrwt>
<pdfrwt beam="2">  1       -4 0.18015415E+00 0.10905690E+04</pdfrwt>
<totfact> 0.94421534E+00</totfact>
</mgrwt>
</event>
<event>
 6    2  0.2379986E-005  0.1086580E+04  0.7818608E-02  0.9487076E-01
         21   -1    0    0  501  502  0.00000000000E+00  0.00000000000E+00  0.61150127725E+03  0.61150127725E+03  0.00000000000E+00 0. -1.
         -4   -1    0    0    0  501 -0.00000000000E+00 -0.00000000000E+00 -0.92165656156E+03  0.92165656156E+03  0.00000000000E+00 0. -1.
   -9000010    2    1    2    0  502 -0.40149882735E+03  0.90555317399E+02 -0.17930793810E+03  0.11012752008E+04  0.10056113351E+04 0.  0.
         13    1    3    3    0    0 -0.37357646140E+03 -0.16792919144E+03 -0.52679803687E+03  0.66728986855E+03  0.10566000000E+00 0. -1.
         -4    1    3    3    0  502 -0.27922365946E+02  0.25848450884E+03  0.34749009877E+03  0.43398533221E+03  0.00000000000E+00 0. -1.
        -13    1    1    2    0    0  0.40149882735E+03 -0.90555317399E+02 -0.13084734621E+03  0.43188263805E+03  0.10566000000E+00 0.  1.
<mgrwt>
<rscale>  1 0.85243429E+03</rscale>
<asrwt>0</asrwt>
<pdfrwt beam="1">  1       21 0.94077119E-01 0.10865798E+04</pdfrwt>
<pdfrwt beam="2">  1       -4 0.14179332E+00 0.10865798E+04</pdfrwt>
<totfact> 0.12164602E+01</totfact>
</mgrwt>
</event>
<event>
 6    2  0.2379986E-005  0.9849756E+03  0.7818608E-02  0.9919607E-01
         -4   -1    0    0    0  501 -0.00000000000E+00  0.00000000000E+00  0.10280809457E+04  0.10280809457E+04  0.00000000000E+00 0. -1.
         21   -1    0    0  501  502  0.00000000000E+00 -0.00000000000E+00 -0.33632219786E+03  0.33632219786E+03  0.00000000000E+00 0.  1.
   -9000010    2    1    2    0  502  0.12506452076E+03  0.33910688310E+02  0.73369684885E+03  0.12282051824E+04  0.97641478631E+03 0.  0.
         13    1    3    3    0    0  0.27497316610E+03 -0.38583617722E+03  0.59667464723E+03  0.76190579702E+03  0.10566000000E+00 0. -1.
         -4    1    3    3    0  502 -0.14990864534E+03  0.41974686553E+03  0.13702220162E+03  0.46629938538E+03  0.00000000000E+00 0. -1.
        -13    1    1    2    0    0 -0.12506452076E+03 -0.33910688310E+02 -0.41938101039E+02  0.13619796114E+03  0.10566000000E+00 0.  1.
<mgrwt>
<rscale>  1 0.59320388E+03</rscale>
<asrwt>0</asrwt>
<pdfrwt beam="2">  1       21 0.51741877E-01 0.98497559E+03</pdfrwt>
<pdfrwt beam="1">  1       -4 0.15816630E+00 0.98497559E+03</pdfrwt>
<totfact> 0.36150390E+01</totfact>
</mgrwt>
</event>
<event>
 6    2  0.2379986E-005  0.1070058E+04  0.7818608E-02  0.9579694E-01
         21   -1    0    0  501  502  0.00000000000E+00  0.00000000000E+00  0.94093879370E+03  0.94093879370E+03  0.00000000000E+00 0. -1.
         -4   -1    0    0    0  501 -0.00000000000E+00 -0.00000000000E+00 -0.78877725182E+03  0.78877725182E+03  0.00000000000E+00 0. -1.
   -9000010    2    1    2    0  502 -0.14974445653E+03 -0.27414698467E+03  0.56654301062E+03  0.12107825389E+04  0.10234468243E+04 0.  0.
         13    1    3    3    0    0  0.30000401978E+02  0.99474500177E+02 -0.26333877686E+03  0.28309454757E+03  0.10566000000E+00 0. -1.
         -4    1    3    3    0  502 -0.17974485850E+03 -0.37362148485E+03  0.82988178748E+03  0.92768799135E+03  0.00000000000E+00 0. -1.
        -13    1    1    2    0    0  0.14974445653E+03  0.27414698467E+03 -0.41438146874E+03  0.51893350659E+03  0.10566000000E+00 0.  1.
<mgrwt>
<rscale>  1 0.78654844E+03</rscale>
<asrwt>0</asrwt>
<pdfrwt beam="1">  1       21 0.14475981E+00 0.10700576E+04</pdfrwt>
<pdfrwt beam="2">  1       -4 0.12135035E+00 0.10700576E+04</pdfrwt>
<totfact> 0.59720382E+00</totfact>
</mgrwt>
</event>
<event>
 6    2  0.2379986E-005  0.1036468E+04  0.7818608E-02  0.9781625E-01
         -4   -1    0    0    0  501 -0.00000000000E+00  0.00000000000E+00  0.17456559777E+04  0.17456559777E+04  0.00000000000E+00 0. -1.
         21   -1    0    0  501  502  0.00000000000E+00 -0.00000000000E+00 -0.22388881364E+03  0.22388881364E+03  0.00000000000E+00 0. -1.
   -9000010    2    1    2    0  502  0.15740507170E+03  0.74494936124E+02  0.10906639453E+04  0.15045976454E+04  0.10217340069E+04 0.  0.
         13    1    3    3    0    0  0.82475151507E+02  0.29752033307E+03 -0.73110826703E+02  0.31727858949E+03  0.10566000000E+00 0. -1.
         -4    1    3    3    0  502  0.74929920190E+02 -0.22302539695E+03  0.11637747720E+04  0.11873190560E+04  0.00000000000E+00 0. -1.
        -13    1    1    2    0    0 -0.15740507170E+03 -0.74494936124E+02  0.43110321871E+03  0.46494714587E+03  0.10566000000E+00 0.  1.
<mgrwt>
<rscale>  1 0.66358050E+03</rscale>
<asrwt>0</asrwt>
<pdfrwt beam="2">  1       21 0.34444434E-01 0.10364682E+04</pdfrwt>
<pdfrwt beam="1">  1       -4 0.26856245E+00 0.10364682E+04</pdfrwt>
<totfact> 0.15946808E+01</totfact>
</mgrwt>
</event>
<event>
 6    2  0.2379986E-005  0.9981576E+03  0.7818608E-02  0.1037188E+00
         21   -1    0    0  501  502  0.00000000000E+00  0.00000000000E+00  0.20571700751E+04  0.20571700751E+04  0.00000000000E+00 0. -1.
         -4   -1    0    0    0  501 -0.00000000000E+00 -0.00000000000E+00 -0.14163349562E+03  0.14163349562E+03  0.00000000000E+00 0. -1.
   -9000010    2    1    2    0  502 -0.30939349933E+02  0.38485615700E+01  0.19231100839E+04  0.21667189337E+04  0.99767053077E+03 0.  0.
         13    1    3    3    0    0  0.11331283621E+03  0.54007135244E+02 -0.85777687005E+02  0.15203418122E+03  0.10566000000E+00 0. -1.
         -4    1    3    3    0  502 -0.14425218614E+03 -0.50158573674E+02  0.20088877709E+04  0.20146847525E+04  0.00000000000E+00 0. -1.
        -13    1    1    2    0    0  0.30939349933E+02 -0.38485615700E+01 -0.75735044196E+01  0.32084637035E+02  0.10566000000E+00 0.  1.
<mgrwt>
<rscale>  1 0.41962494E+03</rscale>
<asrwt>0</asrwt>
<pdfrwt beam="1">  1       21 0.31648768E+00 0.99815757E+03</pdfrwt>
<pdfrwt beam="2">  1       -4 0.21789770E-01 0.99815757E+03</pdfrwt>
<totfact> 0.16743227E+01</totfact>
</mgrwt>
</event>
<event>
 6    2  0.2379986E-005  0.1050153E+04  0.7818608E-02  0.9626345E-01
         -4   -1    0    0    0  501 -0.00000000000E+00  0.00000000000E+00  0.12323174674E+04  0.12323174674E+04  0.00000000000E+00 0. -1.
         21   -1    0    0  501  502  0.00000000000E+00 -0.00000000000E+00 -0.61912470351E+03  0.61912470351E+03  0.00000000000E+00 0. -1.
   -9000010    2    1    2    0  502  0.28154281587E+03  0.95737169988E+01 -0.12856375355E+03  0.10579935238E+04  0.10116638001E+04 0.  0.
         13    1    3    3    0    0 -0.28960547467E+03  0.29108616894E+03 -0.12887452214E+02  0.41081454003E+03  0.10566000000E+00 0. -1.
         -4    1    3    3    0  502  0.57114829055E+03 -0.28151245194E+03 -0.11567630133E+03  0.64717898381E+03  0.00000000000E+00 0. -1.
        -13    1    1    2    0    0 -0.28154281587E+03 -0.95737169988E+01  0.74175651741E+03  0.79344864706E+03  0.10566000000E+00 0.  1.
<mgrwt>
<rscale>  1 0.75576772E+03</rscale>
<asrwt>0</asrwt>
<pdfrwt beam="2">  1       21 0.95249955E-01 0.10501532E+04</pdfrwt>
<pdfrwt beam="1">  1       -4 0.18958730E+00 0.10501532E+04</pdfrwt>
<totfact> 0.52697461E+00</totfact>
</mgrwt>
</event>
<event>
 6    2  0.2379986E-005  0.1042670E+04  0.7818608E-02  0.9607364E-01
         -4   -1    0    0    0  501 -0.00000000000E+00  0.00000000000E+00  0.51764305813E+03  0.51764305813E+03  0.00000000000E+00 0. -1.
         21   -1    0    0  501  502  0.00000000000E+00 -0.00000000000E+00 -0.92057091356E+03  0.92057091356E+03  0.00000000000E+00 0.  1.
   -9000010    2    1    2    0  502  0.20705313710E+03 -0.22676970993E+03 -0.17843153337E+03  0.10578271781E+04  0.99642612561E+03 0.  0.
         13    1    3    3    0    0  0.52276003104E+03 -0.36693379700E+03  0.54808910189E+02  0.64103236208E+03  0.10566000000E+00 0. -1.
         -4    1    3    3    0  502 -0.31570689394E+03  0.14016408707E+03 -0.23324044356E+03  0.41679481606E+03  0.00000000000E+00 0. -1.
        -13    1    1    2    0    0 -0.20705313710E+03  0.22676970993E+03 -0.22449632207E+03  0.38038679355E+03  0.10566000000E+00 0.  1.
<mgrwt>
<rscale>  1 0.76810671E+03</rscale>
<asrwt>0</asrwt>
<pdfrwt beam="2">  1       21 0.14162629E+00 0.10426699E+04</pdfrwt>
<pdfrwt beam="1">  1       -4 0.79637394E-01 0.10426699E+04</pdfrwt>
<totfact> 0.17517850E+01</totfact>
</mgrwt>
</event>
<event>
 6    2  0.2379986E-005  0.1485129E+04  0.7818608E-02  0.8968835E-01
         21   -1    0    0  501  502  0.00000000000E+00  0.00000000000E+00  0.15706653762E+04  0.15706653762E+04  0.00000000000E+00 0.  1.
         -4   -1    0    0    0  501 -0.00000000000E+00 -0.00000000000E+00 -0.10818806918E+04  0.10818806918E+04  0.00000000000E+00 0. -1.
   -9000010    2    1    2    0  502 -0.75378885360E+03 -0.80853323740E+03  0.42753700671E+03  0.15454440307E+04  0.99180932049E+03 0.  0.
         13    1    3    3    0    0 -0.93479109869E+03 -0.85964183962E+03  0.26602215800E+03  0.12975308437E+04  0.10566000000E+00 0. -1.
         -4    1    3    3    0  502  0.18100224510E+03  0.51108602223E+02  0.16151484870E+03  0.24791318703E+03  0.00000000000E+00 0. -1.
        -13    1    1    2    0    0  0.75378885360E+03  0.80853323740E+03  0.61247677727E+02  0.11071020373E+04  0.10566000000E+00 0.  1.
<mgrwt>
<rscale>  1 0.13794429E+04</rscale>
<asrwt>0</asrwt>
<pdfrwt beam="1">  1       21 0.24164083E+00 0.14851294E+04</pdfrwt>
<pdfrwt beam="2">  1       -4 0.16644318E+00 0.14851294E+04</pdfrwt>
<totfact> 0.49461878E-01</totfact>
</mgrwt>
</event>
<event>
 6    2  0.2379986E-005  0.1003301E+04  0.7818608E-02  0.1010254E+00
         21   -1    0    0  501  502  0.00000000000E+00  0.00000000000E+00  0.34101791385E+03  0.34101791385E+03  0.00000000000E+00 0. -1.
         -4   -1    0    0    0  501 -0.00000000000E+00 -0.00000000000E+00 -0.85370902980E+03  0.85370902980E+03  0.00000000000E+00 0. -1.
   -9000010    2    1    2    0  502 -0.99937687674E+01 -0.68244435838E+02 -0.44324403542E+03  0.10968490269E+04  0.10009272373E+04 0.  0.
         13    1    3    3    0    0 -0.16079195757E+03 -0.49191915515E+03 -0.90690660371E+02  0.52541727785E+03  0.10566000000E+00 0. -1.
         -4    1    3    3    0  502  0.15079818880E+03  0.42367471931E+03 -0.35255337504E+03  0.57143174902E+03  0.00000000000E+00 0. -1.
        -13    1    1    2    0    0  0.99937687674E+01  0.68244435838E+02 -0.69447080533E+02  0.97877916792E+02  0.10566000000E+00 0.  1.
<mgrwt>
<rscale>  1 0.51373858E+03</rscale>
<asrwt>0</asrwt>
<pdfrwt beam="1">  1       21 0.52464295E-01 0.10033008E+04</pdfrwt>
<pdfrwt beam="2">  1       -4 0.13133985E+00 0.10033008E+04</pdfrwt>
<totfact> 0.57342536E+01</totfact>
</mgrwt>
</event>
<event>
 6    2  0.2379986E-005  0.1014447E+04  0.7818608E-02  0.9895003E-01
         21   -1    0    0  501  502  0.00000000000E+00  0.00000000000E+00  0.12554869167E+04  0.12554869167E+04  0.00000000000E+00 0. -1.
         -4   -1    0    0    0  501 -0.00000000000E+00 -0.00000000000E+00 -0.26014937671E+03  0.26014937671E+03  0.00000000000E+00 0. -1.
   -9000010    2    1    2    0  502  0.10631099672E+03  0.71942595781E+02  0.89214136089E+03  0.13509328397E+04  0.10062929814E+04 0.  0.
         13    1    3    3    0    0 -0.44717139437E+03  0.73880057332E+01  0.30421684356E+03  0.54089253798E+03  0.10566000000E+00 0. -1.
         -4    1    3    3    0  502  0.55348239109E+03  0.64554590048E+02  0.58792451733E+03  0.81004030173E+03  0.00000000000E+00 0. -1.
        -13    1    1    2    0    0 -0.10631099672E+03 -0.71942595781E+02  0.10319617907E+03  0.16470345367E+03  0.10566000000E+00 0.  1.
<mgrwt>
<rscale>  1 0.60504050E+03</rscale>
<asrwt>0</asrwt>
<pdfrwt beam="1">  1       21 0.19315183E+00 0.10144473E+04</pdfrwt>
<pdfrwt beam="2">  1       -4 0.40022982E-01 0.10144473E+04</pdfrwt>
<totfact> 0.31508131E+01</totfact>
</mgrwt>
</event>
<event>
 6    2  0.2379986E-005  0.1029386E+04  0.7818608E-02  0.9622077E-01
         21   -1    0    0  501  502  0.00000000000E+00  0.00000000000E+00  0.50545666906E+03  0.50545666906E+03  0.00000000000E+00 0. -1.
         -4   -1    0    0    0  501 -0.00000000000E+00 -0.00000000000E+00 -0.11797295024E+04  0.11797295024E+04  0.00000000000E+00 0. -1.
   -9000010    2    1    2    0  502 -0.80425487783E+02 -0.29263245313E+03 -0.98195492346E+02  0.10340585913E+04  0.98363245359E+03 0.  0.
         13    1    3    3    0    0  0.13969823711E+03 -0.61044549011E+03  0.29484843804E+02  0.62691997977E+03  0.10566000000E+00 0. -1.
         -4    1    3    3    0  502 -0.22012372489E+03  0.31781303698E+03 -0.12768033615E+03  0.40713861150E+03  0.00000000000E+00 0. -1.
        -13    1    1    2    0    0  0.80425487783E+02  0.29263245313E+03 -0.57607734097E+03  0.65112758017E+03  0.10566000000E+00 0.  1.
<mgrwt>
<rscale>  1 0.75852034E+03</rscale>
<asrwt>0</asrwt>
<pdfrwt beam="1">  1       21 0.77762564E-01 0.10293856E+04</pdfrwt>
<pdfrwt beam="2">  1       -4 0.18149685E+00 0.10293856E+04</pdfrwt>
<totfact> 0.97549565E+00</totfact>
</mgrwt>
</event>
<event>
 6    2  0.2379986E-005  0.9903836E+03  0.7818608E-02  0.9981317E-01
         -4   -1    0    0    0  501 -0.00000000000E+00  0.00000000000E+00  0.59323533990E+03  0.59323533990E+03  0.00000000000E+00 0. -1.
         21   -1    0    0  501  502  0.00000000000E+00 -0.00000000000E+00 -0.77458051991E+03  0.77458051991E+03  0.00000000000E+00 0. -1.
   -9000010    2    1    2    0  502  0.14580181823E+02  0.10371215852E+03 -0.44377214890E+03  0.10852619381E+04  0.98483042223E+03 0.  0.
         13    1    3    3    0    0  0.34891163198E+03 -0.26930436579E+03 -0.41296135347E+02  0.44268448168E+03  0.10566000000E+00 0. -1.
         -4    1    3    3    0  502 -0.33433145015E+03  0.37301652431E+03 -0.40247601355E+03  0.64257745639E+03  0.00000000000E+00 0. -1.
        -13    1    1    2    0    0 -0.14580181823E+02 -0.10371215852E+03  0.26242696890E+03  0.28255392175E+03  0.10566000000E+00 0.  1.
<mgrwt>
<rscale>  1 0.56477115E+03</rscale>
<asrwt>0</asrwt>
<pdfrwt beam="2">  1       21 0.11916623E+00 0.99038364E+03</pdfrwt>
<pdfrwt beam="1">  1       -4 0.91266976E-01 0.99038364E+03</pdfrwt>
<totfact> 0.20306389E+01</totfact>
</mgrwt>
</event>
<event>
 6    2  0.2379986E-005  0.1089636E+04  0.7818608E-02  0.9488358E-01
         -4   -1    0    0    0  501 -0.00000000000E+00  0.00000000000E+00  0.53312002416E+03  0.53312002416E+03  0.00000000000E+00 0. -1.
         21   -1    0    0  501  502  0.00000000000E+00 -0.00000000000E+00 -0.10515084608E+04  0.10515084608E+04  0.00000000000E+00 0. -1.
   -9000010    2    1    2    0  502 -0.18697068565E+03 -0.36072200694E+03 -0.34576444819E+03  0.11431792171E+04  0.10110525531E+04 0.  0.
         13    1    3    3    0    0 -0.55344206139E+03  0.36721123435E+01 -0.28585510702E+03  0.62291632913E+03  0.10566000000E+00 0. -1.
         -4    1    3    3    0  502  0.36647137573E+03 -0.36439411928E+03 -0.59909341175E+02  0.52026288793E+03  0.00000000000E+00 0. -1.
        -13    1    1    2    0    0  0.18697068565E+03  0.36072200694E+03 -0.17262398848E+03  0.44144926792E+03  0.10566000000E+00 0.  1.
<mgrwt>
<rscale>  1 0.85147577E+03</rscale>
<asrwt>0</asrwt>
<pdfrwt beam="2">  1       21 0.16177053E+00 0.10896356E+04</pdfrwt>
<pdfrwt beam="1">  1       -4 0.82018465E-01 0.10896356E+04</pdfrwt>
<totfact> 0.11215455E+01</totfact>
</mgrwt>
</event>
<event>
 6    2  0.2379986E-005  0.1023057E+04  0.7818608E-02  0.9734036E-01
         21   -1    0    0  501  502  0.00000000000E+00  0.00000000000E+00  0.12041507833E+04  0.12041507833E+04  0.00000000000E+00 0. -1.
         -4   -1    0    0    0  501 -0.00000000000E+00 -0.00000000000E+00 -0.35938946273E+03  0.35938946273E+03  0.00000000000E+00 0. -1.
   -9000010    2    1    2    0  502  0.20854021068E+03 -0.38183373068E+02  0.45462810467E+03  0.11195234369E+04  0.10008491509E+04 0.  0.
         13    1    3    3    0    0  0.47476744975E+02  0.92743433182E+02  0.75072505617E+03  0.75792051485E+03  0.10566000000E+00 0. -1.
         -4    1    3    3    0  502  0.16106346570E+03 -0.13092680625E+03 -0.29609695150E+03  0.36160292209E+03  0.00000000000E+00 0. -1.
        -13    1    1    2    0    0 -0.20854021068E+03  0.38183373068E+02  0.39013321593E+03  0.44401680912E+03  0.10566000000E+00 0.  1.
<mgrwt>
<rscale>  1 0.69025979E+03</rscale>
<asrwt>0</asrwt>
<pdfrwt beam="1">  1       21 0.18525396E+00 0.10230572E+04</pdfrwt>
<pdfrwt beam="2">  1       -4 0.55290687E-01 0.10230572E+04</pdfrwt>
<totfact> 0.18205942E+01</totfact>
</mgrwt>
</event>
<event>
 6    2  0.2379986E-005  0.1032764E+04  0.7818608E-02  0.9596589E-01
         21   -1    0    0  501  502  0.00000000000E+00  0.00000000000E+00  0.15705408448E+04  0.15705408448E+04  0.00000000000E+00 0. -1.
         -4   -1    0    0    0  501 -0.00000000000E+00 -0.00000000000E+00 -0.29908133905E+03  0.29908133905E+03  0.00000000000E+00 0. -1.
   -9000010    2    1    2    0  502  0.26612385593E+03  0.19151588415E+03  0.10573234807E+04  0.14780171673E+04  0.97933730831E+03 0.  0.
         13    1    3    3    0    0  0.40428074020E+03  0.30088679113E+03  0.11179672126E+03  0.51621148382E+03  0.10566000000E+00 0. -1.
         -4    1    3    3    0  502 -0.13815688428E+03 -0.10937090699E+03  0.94552675946E+03  0.96180568350E+03  0.00000000000E+00 0. -1.
        -13    1    1    2    0    0 -0.26612385593E+03 -0.19151588415E+03  0.21413602501E+03  0.39160501650E+03  0.10566000000E+00 0.  1.
<mgrwt>
<rscale>  1 0.77522372E+03</rscale>
<asrwt>0</asrwt>
<pdfrwt beam="1">  1       21 0.24162166E+00 0.10327642E+04</pdfrwt>
<pdfrwt beam="2">  1       -4 0.46012515E-01 0.10327642E+04</pdfrwt>
<totfact> 0.11206480E+01</totfact>
</mgrwt>
</event>
<event>
 6    2  0.2379986E-005  0.1009499E+04  0.7818608E-02  0.9777374E-01
         -4   -1    0    0    0  501 -0.00000000000E+00  0.00000000000E+00  0.54719916927E+03  0.54719916927E+03  0.00000000000E+00 0. -1.
         21   -1    0    0  501  502  0.00000000000E+00 -0.00000000000E+00 -0.65860219317E+03  0.65860219317E+03  0.00000000000E+00 0. -1.
   -9000010    2    1    2    0  502  0.18880959824E+03 -0.29739602209E+02 -0.92054902444E+02  0.10136871535E+04  0.99123863509E+03 0.  0.
         13    1    3    3    0    0  0.38291146938E+03 -0.13236616995E+03  0.34008952473E+03  0.52896398017E+03  0.10566000000E+00 0. -1.
         -4    1    3    3    0  502 -0.19410187114E+03  0.10262656775E+03 -0.43214442717E+03  0.48472317329E+03  0.00000000000E+00 0. -1.
        -13    1    1    2    0    0 -0.18880959824E+03  0.29739602209E+02 -0.19348121460E+02  0.19211420898E+03  0.10566000000E+00 0.  1.
<mgrwt>
<rscale>  1 0.66591041E+03</rscale>
<asrwt>0</asrwt>
<pdfrwt beam="2">  1       21 0.10132341E+00 0.10094987E+04</pdfrwt>
<pdfrwt beam="1">  1       -4 0.84184488E-01 0.10094987E+04</pdfrwt>
<totfact> 0.36934772E+01</totfact>
</mgrwt>
</event>
<event>
 6    2  0.2379986E-005  0.1129819E+04  0.7818608E-02  0.9381791E-01
         -4   -1    0    0    0  501 -0.00000000000E+00  0.00000000000E+00  0.78916231870E+03  0.78916231870E+03  0.00000000000E+00 0. -1.
         21   -1    0    0  501  502  0.00000000000E+00 -0.00000000000E+00 -0.87595635999E+03  0.87595635999E+03  0.00000000000E+00 0. -1.
   -9000010    2    1    2    0  502  0.27070353822E+03 -0.45793513983E+03 -0.31093282753E+02  0.11302471207E+04  0.99674809440E+03 0.  0.
         13    1    3    3    0    0  0.30949242451E+03  0.16336873945E+03  0.26686137622E+03  0.44010215989E+03  0.10566000000E+00 0. -1.
         -4    1    3    3    0  502 -0.38788886289E+02 -0.62130387928E+03 -0.29795465897E+03  0.69014496079E+03  0.00000000000E+00 0. -1.
        -13    1    1    2    0    0 -0.27070353822E+03  0.45793513983E+03 -0.55700758533E+02  0.53487155800E+03  0.10566000000E+00 0.  1.
<mgrwt>
<rscale>  1 0.93589524E+03</rscale>
<asrwt>0</asrwt>
<pdfrwt beam="2">  1       21 0.13476252E+00 0.11298193E+04</pdfrwt>
<pdfrwt beam="1">  1       -4 0.12140959E+00 0.11298193E+04</pdfrwt>
<totfact> 0.72019374E+00</totfact>
</mgrwt>
</event>
<event>
 6    2  0.2379986E-005  0.9394109E+03  0.7818608E-02  0.9763601E-01
         -4   -1    0    0    0  501 -0.00000000000E+00  0.00000000000E+00  0.90431809719E+03  0.90431809719E+03  0.00000000000E+00 0. -1.
         21   -1    0    0  501  502  0.00000000000E+00 -0.00000000000E+00 -0.41582035207E+03  0.41582035207E+03  0.00000000000E+00 0. -1.
   -9000010    2    1    2    0  502 -0.21628274994E+03  0.12182751615E+03  0.24150149716E+03  0.96995659753E+03  0.90602022955E+03 0.  0.
         13    1    3    3    0    0 -0.43518131508E+03  0.39557434247E+03  0.17069093062E+03  0.61237018410E+03  0.10566000000E+00 0. -1.
         -4    1    3    3    0  502  0.21889856514E+03 -0.27374682632E+03  0.70810566536E+02  0.35758641343E+03  0.00000000000E+00 0. -1.
        -13    1    1    2    0    0  0.21628274994E+03 -0.12182751615E+03  0.24699624796E+03  0.35018185173E+03  0.10566000000E+00 0.  1.
<mgrwt>
<rscale>  1 0.67353019E+03</rscale>
<asrwt>0</asrwt>
<pdfrwt beam="2">  1       21 0.63972362E-01 0.93941089E+03</pdfrwt>
<pdfrwt beam="1">  1       -4 0.13912586E+00 0.93941089E+03</pdfrwt>
<totfact> 0.32006953E+01</totfact>
</mgrwt>
</event>
<event>
 6    2  0.2379986E-005  0.1145433E+04  0.7818608E-02  0.9546270E-01
         21   -1    0    0  501  502  0.00000000000E+00  0.00000000000E+00  0.72628141977E+03  0.72628141977E+03  0.00000000000E+00 0. -1.
         -4   -1    0    0    0  501 -0.00000000000E+00 -0.00000000000E+00 -0.86041935118E+03  0.86041935118E+03  0.00000000000E+00 0. -1.
   -9000010    2    1    2    0  502 -0.22032070310E+03  0.18208898596E+03  0.18278399818E+03  0.11599255003E+04  0.11091977124E+04 0.  0.
         13    1    3    3    0    0 -0.23005205168E+03 -0.20382766523E+03 -0.37294069900E+03  0.48327470421E+03  0.10566000000E+00 0. -1.
         -4    1    3    3    0  502  0.97313485799E+01  0.38591665119E+03  0.55572469717E+03  0.67665079610E+03  0.00000000000E+00 0. -1.
        -13    1    1    2    0    0  0.22032070310E+03 -0.18208898596E+03 -0.31692192959E+03  0.42677527065E+03  0.10566000000E+00 0.  1.
<mgrwt>
<rscale>  1 0.80956831E+03</rscale>
<asrwt>0</asrwt>
<pdfrwt beam="1">  1       21 0.11173560E+00 0.11454332E+04</pdfrwt>
<pdfrwt beam="2">  1       -4 0.13237221E+00 0.11454332E+04</pdfrwt>
<totfact> 0.94151591E+00</totfact>
</mgrwt>
</event>
<event>
 6    2  0.2379986E-005  0.1104079E+04  0.7818608E-02  0.9427348E-01
         21   -1    0    0  501  502  0.00000000000E+00  0.00000000000E+00  0.11070441472E+04  0.11070441472E+04  0.00000000000E+00 0. -1.
         -4   -1    0    0    0  501 -0.00000000000E+00 -0.00000000000E+00 -0.61009823256E+03  0.61009823256E+03  0.00000000000E+00 0. -1.
   -9000010    2    1    2    0  502 -0.34599706882E+03  0.33907411390E+03  0.54324876693E+03  0.12304913841E+04  0.99212126134E+03 0.  0.
         13    1    3    3    0    0  0.48988604325E+02  0.60601616831E+03  0.18946749315E+03  0.63683076381E+03  0.10566000000E+00 0. -1.
         -4    1    3    3    0  502 -0.39498567314E+03 -0.26694205441E+03  0.35378127378E+03  0.59366062029E+03  0.00000000000E+00 0. -1.
        -13    1    1    2    0    0  0.34599706882E+03 -0.33907411390E+03 -0.46302852244E+02  0.48665099572E+03  0.10566000000E+00 0.  1.
<mgrwt>
<rscale>  1 0.89858828E+03</rscale>
<asrwt>0</asrwt>
<pdfrwt beam="1">  1       21 0.17031448E+00 0.11040787E+04</pdfrwt>
<pdfrwt beam="2">  1       -4 0.93861267E-01 0.11040787E+04</pdfrwt>
<totfact> 0.70270341E+00</totfact>
</mgrwt>
</event>
<event>
 6    2  0.2379986E-005  0.1166913E+04  0.7818608E-02  0.9445861E-01
         -4   -1    0    0    0  501 -0.00000000000E+00  0.00000000000E+00  0.44334779113E+03  0.44334779113E+03  0.00000000000E+00 0. -1.
         21   -1    0    0  501  502  0.00000000000E+00 -0.00000000000E+00 -0.14280278869E+04  0.14280278869E+04  0.00000000000E+00 0.  1.
   -9000010    2    1    2    0  502 -0.33333378043E+03  0.19113671833E+03 -0.54638284726E+03  0.12884956359E+04  0.11018358016E+04 0.  0.
         13    1    3    3    0    0 -0.72304139566E+02  0.64189439663E+03 -0.30981399800E+03  0.71640842370E+03  0.10566000000E+00 0. -1.
         -4    1    3    3    0  502 -0.26102964086E+03 -0.45075767830E+03 -0.23656884926E+03  0.57208721223E+03  0.00000000000E+00 0. -1.
        -13    1    1    2    0    0  0.33333378043E+03 -0.19113671833E+03 -0.43829724849E+03  0.58288004209E+03  0.10566000000E+00 0.  1.
<mgrwt>
<rscale>  1 0.88395719E+03</rscale>
<asrwt>0</asrwt>
<pdfrwt beam="2">  1       21 0.21969660E+00 0.11669134E+04</pdfrwt>
<pdfrwt beam="1">  1       -4 0.68207353E-01 0.11669134E+04</pdfrwt>
<totfact> 0.65491108E+00</totfact>
</mgrwt>
</event>
<event>
 6    2  0.2379986E-005  0.1068685E+04  0.7818608E-02  0.9537821E-01
         -4   -1    0    0    0  501 -0.00000000000E+00  0.00000000000E+00  0.22546492622E+04  0.22546492622E+04  0.00000000000E+00 0. -1.
         21   -1    0    0  501  502  0.00000000000E+00 -0.00000000000E+00 -0.22769692417E+03  0.22769692417E+03  0.00000000000E+00 0. -1.
   -9000010    2    1    2    0  502  0.30549419427E+03 -0.19495447316E+03  0.14564113399E+04  0.18064386549E+04  0.10053619615E+04 0.  0.
         13    1    3    3    0    0  0.53525408505E+03 -0.26482184292E+03  0.38983556456E+03  0.71316149827E+03  0.10566000000E+00 0. -1.
         -4    1    3    3    0  502 -0.22975989077E+03  0.69867369758E+02  0.10665757753E+04  0.10932771567E+04  0.00000000000E+00 0. -1.
        -13    1    1    2    0    0 -0.30549419427E+03  0.19495447316E+03  0.57054099819E+03  0.67590753149E+03  0.10566000000E+00 0.  1.
<mgrwt>
<rscale>  1 0.81551935E+03</rscale>
<asrwt>0</asrwt>
<pdfrwt beam="2">  1       21 0.35030298E-01 0.10686845E+04</pdfrwt>
<pdfrwt beam="1">  1       -4 0.34686910E+00 0.10686845E+04</pdfrwt>
<totfact> 0.49657602E+00</totfact>
</mgrwt>
</event>
<event>
 6    2  0.2379986E-005  0.1080867E+04  0.7818608E-02  0.9504980E-01
         21   -1    0    0  501  502  0.00000000000E+00  0.00000000000E+00  0.72536975948E+03  0.72536975948E+03  0.00000000000E+00 0. -1.
         -4   -1    0    0    0  501 -0.00000000000E+00 -0.00000000000E+00 -0.87951449389E+03  0.87951449389E+03  0.00000000000E+00 0. -1.
   -9000010    2    1    2    0  502 -0.21712979542E+03  0.32725135329E+03  0.17189772634E+03  0.10944506204E+04  0.10069928182E+04 0.  0.
         13    1    3    3    0    0 -0.47928024071E+03  0.32247883528E+03 -0.22401972898E+03  0.61958615097E+03  0.10566000000E+00 0. -1.
         -4    1    3    3    0  502  0.26215044529E+03  0.47725180082E+01  0.39591745532E+03  0.47486446942E+03  0.00000000000E+00 0. -1.
        -13    1    1    2    0    0  0.21712979542E+03 -0.32725135329E+03 -0.32604246076E+03  0.51043363297E+03  0.10566000000E+00 0.  1.
<mgrwt>
<rscale>  1 0.83917663E+03</rscale>
<asrwt>0</asrwt>
<pdfrwt beam="1">  1       21 0.11159535E+00 0.10808669E+04</pdfrwt>
<pdfrwt beam="2">  1       -4 0.13530992E+00 0.10808669E+04</pdfrwt>
<totfact> 0.89833709E+00</totfact>
</mgrwt>
</event>
<event>
 6    2  0.2379986E-005  0.1024593E+04  0.7818608E-02  0.9596330E-01
         -4   -1    0    0    0  501 -0.00000000000E+00  0.00000000000E+00  0.90286169969E+03  0.90286169969E+03  0.00000000000E+00 0. -1.
         21   -1    0    0  501  502  0.00000000000E+00 -0.00000000000E+00 -0.74048268118E+03  0.74048268118E+03  0.00000000000E+00 0. -1.
   -9000010    2    1    2    0  502  0.24698525572E+02  0.33516880529E+03 -0.30377093414E+03  0.10686758375E+04  0.96790656577E+03 0.  0.
         13    1    3    3    0    0 -0.34923734190E+03  0.25500496062E+03  0.16575760622E+03  0.46310889227E+03  0.10566000000E+00 0. -1.
         -4    1    3    3    0  502  0.37393586747E+03  0.80163844678E+02 -0.46952854036E+03  0.60556694525E+03  0.00000000000E+00 0. -1.
        -13    1    1    2    0    0 -0.24698525572E+02 -0.33516880529E+03  0.46614995264E+03  0.57466854335E+03  0.10566000000E+00 0.  1.
<mgrwt>
<rscale>  1 0.77539590E+03</rscale>
<asrwt>0</asrwt>
<pdfrwt beam="2">  1       21 0.11392041E+00 0.10245932E+04</pdfrwt>
<pdfrwt beam="1">  1       -4 0.13890180E+00 0.10245932E+04</pdfrwt>
<totfact> 0.80097787E+00</totfact>
</mgrwt>
</event>
<event>
 6    2  0.2379986E-005  0.1025099E+04  0.7818608E-02  0.9755168E-01
         21   -1    0    0  501  502  0.00000000000E+00  0.00000000000E+00  0.29337522138E+03  0.29337522138E+03  0.00000000000E+00 0. -1.
         -4   -1    0    0    0  501 -0.00000000000E+00 -0.00000000000E+00 -0.12799617961E+04  0.12799617961E+04  0.00000000000E+00 0. -1.
   -9000010    2    1    2    0  502 -0.17958669837E+03  0.79641796088E+02 -0.77880493578E+03  0.12873869894E+04  0.10060983722E+04 0.  0.
         13    1    3    3    0    0  0.60715541993E+02 -0.28439896250E+03  0.98983058292E+02  0.30719180312E+03  0.10566000000E+00 0. -1.
         -4    1    3    3    0  502 -0.24030224036E+03  0.36404075859E+03 -0.87778799407E+03  0.98019518627E+03  0.00000000000E+00 0. -1.
        -13    1    1    2    0    0  0.17958669837E+03 -0.79641796088E+02 -0.20778163891E+03  0.28595002806E+03  0.10566000000E+00 0.  1.
<mgrwt>
<rscale>  1 0.67824977E+03</rscale>
<asrwt>0</asrwt>
<pdfrwt beam="1">  1       21 0.45134649E-01 0.10250991E+04</pdfrwt>
<pdfrwt beam="2">  1       -4 0.19691720E+00 0.10250991E+04</pdfrwt>
<totfact> 0.25761569E+01</totfact>
</mgrwt>
</event>
<event>
 6    2  0.2379986E-005  0.1006483E+04  0.7818608E-02  0.1012983E+00
         -4   -1    0    0    0  501 -0.00000000000E+00  0.00000000000E+00  0.70798132112E+03  0.70798132112E+03  0.00000000000E+00 0. -1.
         21   -1    0    0  501  502  0.00000000000E+00 -0.00000000000E+00 -0.46965329746E+03  0.46965329746E+03  0.00000000000E+00 0. -1.
   -9000010    2    1    2    0  502 -0.59943988632E+02  0.18772143405E+02  0.82778689456E+02  0.10098809847E+04  0.10045205905E+04 0.  0.
         13    1    3    3    0    0  0.28986019043E+03 -0.50454185751E+02  0.42416752276E+03  0.51621957865E+03  0.10566000000E+00 0. -1.
         -4    1    3    3    0  502 -0.34980417906E+03  0.69226329157E+02 -0.34138883330E+03  0.49366140607E+03  0.00000000000E+00 0. -1.
        -13    1    1    2    0    0  0.59943988632E+02 -0.18772143405E+02  0.15554933420E+03  0.16775363386E+03  0.10566000000E+00 0.  1.
<mgrwt>
<rscale>  1 0.50306029E+03</rscale>
<asrwt>0</asrwt>
<pdfrwt beam="2">  1       21 0.72254354E-01 0.10064826E+04</pdfrwt>
<pdfrwt beam="1">  1       -4 0.10892020E+00 0.10064826E+04</pdfrwt>
<totfact> 0.44805534E+01</totfact>
</mgrwt>
</event>
<event>
 6    2  0.2379986E-005  0.9761947E+03  0.7818608E-02  0.1009209E+00
         21   -1    0    0  501  502  0.00000000000E+00  0.00000000000E+00  0.14799943918E+04  0.14799943918E+04  0.00000000000E+00 0. -1.
         -4   -1    0    0    0  501 -0.00000000000E+00 -0.00000000000E+00 -0.20779059806E+03  0.20779059806E+03  0.00000000000E+00 0. -1.
   -9000010    2    1    2    0  502  0.20316193902E+02 -0.74620561168E+02  0.12803200191E+04  0.16100234302E+04  0.97312646583E+03 0.  0.
         13    1    3    3    0    0 -0.11111472074E+03  0.26772989889E+03  0.12399685568E+02  0.29013711119E+03  0.10566000000E+00 0. -1.
         -4    1    3    3    0  502  0.13143091464E+03 -0.34235046006E+03  0.12679203336E+04  0.13198863190E+04  0.00000000000E+00 0. -1.
        -13    1    1    2    0    0 -0.20316193902E+02  0.74620561168E+02 -0.81162253851E+01  0.77761559670E+02  0.10566000000E+00 0.  1.
<mgrwt>
<rscale>  1 0.51790361E+03</rscale>
<asrwt>0</asrwt>
<pdfrwt beam="1">  1       21 0.22769144E+00 0.97619470E+03</pdfrwt>
<pdfrwt beam="2">  1       -4 0.31967785E-01 0.97619470E+03</pdfrwt>
<totfact> 0.29076746E+01</totfact>
</mgrwt>
</event>
<event>
 6    2  0.2379986E-005  0.1053495E+04  0.7818608E-02  0.9417232E-01
         21   -1    0    0  501  502  0.00000000000E+00  0.00000000000E+00  0.14101327299E+04  0.14101327299E+04  0.00000000000E+00 0.  1.
         -4   -1    0    0    0  501 -0.00000000000E+00 -0.00000000000E+00 -0.47519713153E+03  0.47519713153E+03  0.00000000000E+00 0. -1.
   -9000010    2    1    2    0  502 -0.50249815253E+03  0.28575336504E+03  0.67743869387E+03  0.12525075752E+04  0.88073416144E+03 0.  0.
         13    1    3    3    0    0 -0.56629769125E+03  0.93742767206E+02  0.30663255867E+02  0.57482260563E+03  0.10566000000E+00 0. -1.
         -4    1    3    3    0  502  0.63799538718E+02  0.19201059783E+03  0.64677543800E+03  0.67768496960E+03  0.00000000000E+00 0. -1.
        -13    1    1    2    0    0  0.50249815253E+03 -0.28575336504E+03  0.25749690450E+03  0.63282228621E+03  0.10566000000E+00 0.  1.
<mgrwt>
<rscale>  1 0.90671044E+03</rscale>
<asrwt>0</asrwt>
<pdfrwt beam="1">  1       21 0.21694350E+00 0.10534952E+04</pdfrwt>
<pdfrwt beam="2">  1       -4 0.73107252E-01 0.10534952E+04</pdfrwt>
<totfact> 0.59332437E+00</totfact>
</mgrwt>
</event>
<event>
 6    2  0.2379986E-005  0.1065600E+04  0.7818608E-02  0.9511848E-01
         -4   -1    0    0    0  501 -0.00000000000E+00  0.00000000000E+00  0.23863484369E+04  0.23863484369E+04  0.00000000000E+00 0. -1.
         21   -1    0    0  501  502  0.00000000000E+00 -0.00000000000E+00 -0.23442571089E+03  0.23442571089E+03  0.00000000000E+00 0. -1.
   -9000010    2    1    2    0  502 -0.24659552972E+03  0.31512437982E+03  0.13105355472E+04  0.16890847544E+04  0.98761893301E+03 0.  0.
         13    1    3    3    0    0 -0.37982568579E+03  0.38783687617E+03  0.21627143845E+03  0.58434436795E+03  0.10566000000E+00 0. -1.
         -4    1    3    3    0  502  0.13323015607E+03 -0.72712496349E+02  0.10942641088E+04  0.11047403864E+04  0.00000000000E+00 0. -1.
        -13    1    1    2    0    0  0.24659552972E+03 -0.31512437982E+03  0.84138717884E+03  0.93168939348E+03  0.10566000000E+00 0.  1.
<mgrwt>
<rscale>  1 0.83415925E+03</rscale>
<asrwt>0</asrwt>
<pdfrwt beam="2">  1       21 0.36065496E-01 0.10656002E+04</pdfrwt>
<pdfrwt beam="1">  1       -4 0.36713051E+00 0.10656002E+04</pdfrwt>
<totfact> 0.34484172E+00</totfact>
</mgrwt>
</event>
<event>
 6    2  0.2379986E-005  0.1044573E+04  0.7818608E-02  0.9620614E-01
         -4   -1    0    0    0  501 -0.00000000000E+00  0.00000000000E+00  0.39157861474E+03  0.39157861474E+03  0.00000000000E+00 0. -1.
         21   -1    0    0  501  502  0.00000000000E+00 -0.00000000000E+00 -0.11851491686E+04  0.11851491686E+04  0.00000000000E+00 0. -1.
   -9000010    2    1    2    0  502 -0.80191181876E+02  0.28065885365E+03 -0.73957730541E+03  0.12798855697E+04  0.10029618453E+04 0.  0.
         13    1    3    3    0    0 -0.48306333694E+03  0.12655314983E+03 -0.10131544785E+03  0.50953971225E+03  0.10566000000E+00 0. -1.
         -4    1    3    3    0  502  0.40287215506E+03  0.15410570383E+03 -0.63826185755E+03  0.77034585745E+03  0.00000000000E+00 0. -1.
        -13    1    1    2    0    0  0.80191181876E+02 -0.28065885365E+03 -0.53993248497E+02  0.29684221370E+03  0.10566000000E+00 0.  1.
<mgrwt>
<rscale>  1 0.75946720E+03</rscale>
<asrwt>0</asrwt>
<pdfrwt beam="2">  1       21 0.18233064E+00 0.10445729E+04</pdfrwt>
<pdfrwt beam="1">  1       -4 0.60242865E-01 0.10445729E+04</pdfrwt>
<totfact> 0.15829658E+01</totfact>
</mgrwt>
</event>
<event>
 6    2  0.2379986E-005  0.1096514E+04  0.7818608E-02  0.9458131E-01
         -4   -1    0    0    0  501 -0.00000000000E+00  0.00000000000E+00  0.11656068476E+04  0.11656068476E+04  0.00000000000E+00 0. -1.
         21   -1    0    0  501  502  0.00000000000E+00 -0.00000000000E+00 -0.51000902357E+03  0.51000902357E+03  0.00000000000E+00 0. -1.
   -9000010    2    1    2    0  502 -0.41210505829E+03  0.16375857403E+03  0.42708747910E+03  0.11767527251E+04  0.10028438620E+04 0.  0.
         13    1    3    3    0    0 -0.67581414908E+03  0.28858995667E+02  0.24419281174E+02  0.67687068055E+03  0.10566000000E+00 0. -1.
         -4    1    3    3    0  502  0.26370909079E+03  0.13489957836E+03  0.40266819792E+03  0.49988204451E+03  0.00000000000E+00 0. -1.
        -13    1    1    2    0    0  0.41210505829E+03 -0.16375857403E+03  0.22851034494E+03  0.49886314611E+03  0.10566000000E+00 0.  1.
<mgrwt>
<rscale>  1 0.87442330E+03</rscale>
<asrwt>0</asrwt>
<pdfrwt beam="2">  1       21 0.78462927E-01 0.10965141E+04</pdfrwt>
<pdfrwt beam="1">  1       -4 0.17932413E+00 0.10965141E+04</pdfrwt>
<totfact> 0.98202430E+00</totfact>
</mgrwt>
</event>
<event>
 6    2  0.2379986E-005  0.1037626E+04  0.7818608E-02  0.9739424E-01
         -4   -1    0    0    0  501 -0.00000000000E+00  0.00000000000E+00  0.35436672065E+03  0.35436672065E+03  0.00000000000E+00 0. -1.
         21   -1    0    0  501  502  0.00000000000E+00 -0.00000000000E+00 -0.12368359632E+04  0.12368359632E+04  0.00000000000E+00 0. -1.
   -9000010    2    1    2    0  502 -0.98801031522E+01  0.19934619372E+03 -0.92160379495E+03  0.13878113229E+04  0.10182485903E+04 0.  0.
         13    1    3    3    0    0  0.26753847041E+03 -0.33904425855E+03 -0.37537138934E+03  0.57221633453E+03  0.10566000000E+00 0. -1.
         -4    1    3    3    0  502 -0.27741857356E+03  0.53839045228E+03 -0.54623240561E+03  0.81559498833E+03  0.00000000000E+00 0. -1.
        -13    1    1    2    0    0  0.98801031522E+01 -0.19934619372E+03  0.39134552350E+02  0.20339136103E+03  0.10566000000E+00 0.  1.
<mgrwt>
<rscale>  1 0.68717235E+03</rscale>
<asrwt>0</asrwt>
<pdfrwt beam="2">  1       21 0.19028245E+00 0.10376255E+04</pdfrwt>
<pdfrwt beam="1">  1       -4 0.54517958E-01 0.10376255E+04</pdfrwt>
<totfact> 0.17254217E+01</totfact>
</mgrwt>
</event>
<event>
 6    2  0.2379986E-005  0.1154427E+04  0.7818608E-02  0.9332511E-01
         -4   -1    0    0    0  501 -0.00000000000E+00  0.00000000000E+00  0.88774355232E+03  0.88774355232E+03  0.00000000000E+00 0. -1.
         21   -1    0    0  501  502  0.00000000000E+00 -0.00000000000E+00 -0.86305646995E+03  0.86305646995E+03  0.00000000000E+00 0. -1.
   -9000010    2    1    2    0  502  0.59180485302E+03 -0.68151369509E+02  0.35764831502E+02  0.11549809886E+04  0.98885002279E+03 0.  0.
         13    1    3    3    0    0  0.70577554509E+03 -0.30680500204E+03  0.25576815804E+03  0.81096596178E+03  0.10566000000E+00 0. -1.
         -4    1    3    3    0  502 -0.11397069208E+03  0.23865363253E+03 -0.22000332654E+03  0.34401502679E+03  0.00000000000E+00 0. -1.
        -13    1    1    2    0    0 -0.59180485302E+03  0.68151369509E+02 -0.11077749133E+02  0.59581903369E+03  0.10566000000E+00 0.  1.
<mgrwt>
<rscale>  1 0.97844128E+03</rscale>
<asrwt>0</asrwt>
<pdfrwt beam="2">  1       21 0.13277792E+00 0.11544271E+04</pdfrwt>
<pdfrwt beam="1">  1       -4 0.13657593E+00 0.11544271E+04</pdfrwt>
<totfact> 0.55233012E+00</totfact>
</mgrwt>
</event>
<event>
 6    2  0.2379986E-005  0.1164806E+04  0.7818608E-02  0.9388647E-01
         -4   -1    0    0    0  501 -0.00000000000E+00  0.00000000000E+00  0.17831940772E+04  0.17831940772E+04  0.00000000000E+00 0. -1.
         21   -1    0    0  501  502  0.00000000000E+00 -0.00000000000E+00 -0.46992482846E+03  0.46992482846E+03  0.00000000000E+00 0. -1.
   -9000010    2    1    2    0  502  0.45385770173E+02  0.47148237582E+03  0.41301639896E+03  0.12358624466E+04  0.10641512779E+04 0.  0.
         13    1    3    3    0    0  0.30850099153E+03 -0.21267491956E+03 -0.35724635349E+02  0.37640369806E+03  0.10566000000E+00 0. -1.
         -4    1    3    3    0  502 -0.26311522135E+03  0.68415729538E+03  0.44874103431E+03  0.85945874851E+03  0.00000000000E+00 0. -1.
        -13    1    1    2    0    0 -0.45385770173E+02 -0.47148237582E+03  0.90025284975E+03  0.10172564591E+04  0.10566000000E+00 0.  1.
<mgrwt>
<rscale>  1 0.93015932E+03</rscale>
<asrwt>0</asrwt>
<pdfrwt beam="2">  1       21 0.72296128E-01 0.11648062E+04</pdfrwt>
<pdfrwt beam="1">  1       -4 0.27433755E+00 0.11648062E+04</pdfrwt>
<totfact> 0.28914426E+00</totfact>
</mgrwt>
</event>
<event>
 6    2  0.2379986E-005  0.1051086E+04  0.7818608E-02  0.9595968E-01
         21   -1    0    0  501  502  0.00000000000E+00  0.00000000000E+00  0.61770928866E+03  0.61770928866E+03  0.00000000000E+00 0. -1.
         -4   -1    0    0    0  501 -0.00000000000E+00 -0.00000000000E+00 -0.11459952050E+04  0.11459952050E+04  0.00000000000E+00 0. -1.
   -9000010    2    1    2    0  502 -0.90297503693E+02 -0.29831961697E+03  0.10655874878E+03  0.10564732775E+04  0.10038091383E+04 0.  0.
         13    1    3    3    0    0  0.31258573108E+03 -0.30479116377E+03  0.37232152147E+03  0.57378638822E+03  0.10566000000E+00 0. -1.
         -4    1    3    3    0  502 -0.40288323477E+03  0.64715468080E+01 -0.26576277269E+03  0.48268688932E+03  0.00000000000E+00 0. -1.
        -13    1    1    2    0    0  0.90297503693E+02  0.29831961697E+03 -0.63484466508E+03  0.70723121607E+03  0.10566000000E+00 0.  1.
<mgrwt>
<rscale>  1 0.77563598E+03</rscale>
<asrwt>0</asrwt>
<pdfrwt beam="1">  1       21 0.95032199E-01 0.10510856E+04</pdfrwt>
<pdfrwt beam="2">  1       -4 0.17630695E+00 0.10510856E+04</pdfrwt>
<totfact> 0.65485718E+00</totfact>
</mgrwt>
</event>
<event>
 6    2  0.2379986E-005  0.1058871E+04  0.7818608E-02  0.9608813E-01
         -4   -1    0    0    0  501 -0.00000000000E+00  0.00000000000E+00  0.82943754962E+03  0.82943754962E+03  0.00000000000E+00 0. -1.
         21   -1    0    0  501  502  0.00000000000E+00 -0.00000000000E+00 -0.55074965837E+03  0.55074965837E+03  0.00000000000E+00 0. -1.
   -9000010    2    1    2    0  502 -0.19044082290E+03  0.22101597035E+03  0.24169612316E+03  0.10861053006E+04  0.10178860162E+04 0.  0.
         13    1    3    3    0    0 -0.15136593005E+03 -0.35999261557E+03  0.31160369938E+03  0.49960304711E+03  0.10566000000E+00 0. -1.
         -4    1    3    3    0  502 -0.39074892846E+02  0.58100858592E+03 -0.69907576221E+02  0.58650225351E+03  0.00000000000E+00 0. -1.
        -13    1    1    2    0    0  0.19044082290E+03 -0.22101597035E+03  0.36991768084E+02  0.29408190737E+03  0.10566000000E+00 0.  1.
<mgrwt>
<rscale>  1 0.76715583E+03</rscale>
<asrwt>0</asrwt>
<pdfrwt beam="2">  1       21 0.84730716E-01 0.10588710E+04</pdfrwt>
<pdfrwt beam="1">  1       -4 0.12760578E+00 0.10588710E+04</pdfrwt>
<totfact> 0.20650274E+01</totfact>
</mgrwt>
</event>
<event>
 6    2  0.2379986E-005  0.1053083E+04  0.7818608E-02  0.9591356E-01
         21   -1    0    0  501  502  0.00000000000E+00  0.00000000000E+00  0.89650503014E+03  0.89650503014E+03  0.00000000000E+00 0. -1.
         -4   -1    0    0    0  501 -0.00000000000E+00 -0.00000000000E+00 -0.85105895727E+03  0.85105895727E+03  0.00000000000E+00 0. -1.
   -9000010    2    1    2    0  502 -0.29574088101E+03  0.10803919518E+03  0.52280724459E+03  0.11757171234E+04  0.10049120374E+04 0.  0.
         13    1    3    3    0    0  0.29665057220E+03 -0.12380663788E+03  0.42379462949E+03  0.53191309884E+03  0.10566000000E+00 0. -1.
         -4    1    3    3    0  502 -0.59239145321E+03  0.23184583306E+03  0.99012615102E+02  0.64380402460E+03  0.00000000000E+00 0. -1.
        -13    1    1    2    0    0  0.29574088101E+03 -0.10803919518E+03 -0.47736117173E+03  0.57184686397E+03  0.10566000000E+00 0.  1.
<mgrwt>
<rscale>  1 0.77870926E+03</rscale>
<asrwt>0</asrwt>
<pdfrwt beam="1">  1       21 0.13792385E+00 0.10530828E+04</pdfrwt>
<pdfrwt beam="2">  1       -4 0.13093215E+00 0.10530828E+04</pdfrwt>
<totfact> 0.56271678E+00</totfact>
</mgrwt>
</event>
<event>
 6    2  0.2379986E-005  0.9928259E+03  0.7818608E-02  0.9846115E-01
         -4   -1    0    0    0  501 -0.00000000000E+00  0.00000000000E+00  0.41897550831E+03  0.41897550831E+03  0.00000000000E+00 0. -1.
         21   -1    0    0  501  502  0.00000000000E+00 -0.00000000000E+00 -0.80485454081E+03  0.80485454081E+03  0.00000000000E+00 0. -1.
   -9000010    2    1    2    0  502 -0.15657448372E+03 -0.34877220627E+02 -0.38076407395E+03  0.10633365494E+04  0.97978127555E+03 0.  0.
         13    1    3    3    0    0  0.19222544671E+03  0.13298107679E+03  0.23792597362E+03  0.33353166152E+03  0.10566000000E+00 0. -1.
         -4    1    3    3    0  502 -0.34879993043E+03 -0.16785829742E+03 -0.61869004757E+03  0.72980488793E+03  0.00000000000E+00 0. -1.
        -13    1    1    2    0    0  0.15657448372E+03  0.34877220627E+02 -0.51149585502E+01  0.16049349966E+03  0.10566000000E+00 0.  1.
<mgrwt>
<rscale>  1 0.62945405E+03</rscale>
<asrwt>0</asrwt>
<pdfrwt beam="2">  1       21 0.12382377E+00 0.99282594E+03</pdfrwt>
<pdfrwt beam="1">  1       -4 0.64457771E-01 0.99282594E+03</pdfrwt>
<totfact> 0.40583502E+01</totfact>
</mgrwt>
</event>
<event>
 6    2  0.2379986E-005  0.1091232E+04  0.7818608E-02  0.9429112E-01
         21   -1    0    0  501  502  0.00000000000E+00  0.00000000000E+00  0.64889562383E+03  0.64889562383E+03  0.00000000000E+00 0.  1.
         -4   -1    0    0    0  501 -0.00000000000E+00 -0.00000000000E+00 -0.11917317138E+04  0.11917317138E+04  0.00000000000E+00 0. -1.
   -9000010    2    1    2    0  502  0.46468031428E+03  0.18081325955E+03  0.16436963039E+02  0.10913559661E+04  0.97065258542E+03 0.  0.
         13    1    3    3    0    0  0.85599378036E+02  0.82189844641E+02 -0.45972001005E+03  0.47478934580E+03  0.10566000000E+00 0. -1.
         -4    1    3    3    0  502  0.37908093624E+03  0.98623414909E+02  0.47615697309E+03  0.61656662025E+03  0.00000000000E+00 0. -1.
        -13    1    1    2    0    0 -0.46468031428E+03 -0.18081325955E+03 -0.55927305304E+03  0.74927137162E+03  0.10566000000E+00 0.  1.
<mgrwt>
<rscale>  1 0.89718117E+03</rscale>
<asrwt>0</asrwt>
<pdfrwt beam="1">  1       21 0.99830096E-01 0.10912322E+04</pdfrwt>
<pdfrwt beam="2">  1       -4 0.18334334E+00 0.10912322E+04</pdfrwt>
<totfact> 0.51547727E+00</totfact>
</mgrwt>
</event>
<event>
 6    2  0.2379986E-005  0.1113322E+04  0.7818608E-02  0.9428097E-01
         21   -1    0    0  501  502  0.00000000000E+00  0.00000000000E+00  0.74110136941E+03  0.74110136941E+03  0.00000000000E+00 0. -1.
         -4   -1    0    0    0  501 -0.00000000000E+00 -0.00000000000E+00 -0.84883865095E+03  0.84883865095E+03  0.00000000000E+00 0. -1.
   -9000010    2    1    2    0  502  0.38504142071E+03  0.27164733642E+03 -0.41589859286E+02  0.11140990136E+04  0.10086811809E+04 0.  0.
         13    1    3    3    0    0  0.31483493147E+03  0.61245377503E+03 -0.22018295604E+03  0.72298077839E+03  0.10566000000E+00 0. -1.
         -4    1    3    3    0  502  0.70206489241E+02 -0.34080643861E+03  0.17859309676E+03  0.39111823524E+03  0.00000000000E+00 0. -1.
        -13    1    1    2    0    0 -0.38504142071E+03 -0.27164733642E+03 -0.66147422249E+02  0.47584100673E+03  0.10566000000E+00 0.  1.
<mgrwt>
<rscale>  1 0.89799077E+03</rscale>
<asrwt>0</asrwt>
<pdfrwt beam="1">  1       21 0.11401560E+00 0.11133225E+04</pdfrwt>
<pdfrwt beam="2">  1       -4 0.13059056E+00 0.11133225E+04</pdfrwt>
<totfact> 0.92905795E+00</totfact>
</mgrwt>
</event>
<event>
 6    2  0.2379986E-005  0.9982298E+03  0.7818608E-02  0.9920064E-01
         -4   -1    0    0    0  501 -0.00000000000E+00  0.00000000000E+00  0.52994493002E+03  0.52994493002E+03  0.00000000000E+00 0. -1.
         21   -1    0    0  501  502  0.00000000000E+00 -0.00000000000E+00 -0.68710049574E+03  0.68710049574E+03  0.00000000000E+00 0. -1.
   -9000010    2    1    2    0  502 -0.72431270393E+02 -0.10102199397E+03 -0.28561842117E+03  0.10382873530E+04  0.99046000052E+03 0.  0.
         13    1    3    3    0    0 -0.98948582477E+02  0.40470401019E+03  0.65926829557E+02  0.42180862468E+03  0.10566000000E+00 0. -1.
         -4    1    3    3    0  502  0.26517312084E+02 -0.50572600416E+03 -0.35154525072E+03  0.61647872829E+03  0.00000000000E+00 0. -1.
        -13    1    1    2    0    0  0.72431270393E+02  0.10102199397E+03  0.12846285545E+03  0.17875807280E+03  0.10566000000E+00 0.  1.
<mgrwt>
<rscale>  1 0.59298688E+03</rscale>
<asrwt>0</asrwt>
<pdfrwt beam="2">  1       21 0.10570777E+00 0.99822981E+03</pdfrwt>
<pdfrwt beam="1">  1       -4 0.81529990E-01 0.99822981E+03</pdfrwt>
<totfact> 0.35807884E+01</totfact>
</mgrwt>
</event>
<event>
 6    2  0.2379986E-005  0.8944146E+03  0.7818608E-02  0.9609030E-01
         -4   -1    0    0    0  501 -0.00000000000E+00  0.00000000000E+00  0.10340915346E+04  0.10340915346E+04  0.00000000000E+00 0. -1.
         21   -1    0    0  501  502  0.00000000000E+00 -0.00000000000E+00 -0.46904376924E+03  0.46904376924E+03  0.00000000000E+00 0. -1.
   -9000010    2    1    2    0  502  0.97976005949E+02 -0.47369573202E+03  0.46918471682E+03  0.10100058284E+04  0.75232342158E+03 0.  0.
         13    1    3    3    0    0 -0.63918024507E+02  0.14509147873E+03  0.31411769626E+03  0.35186217377E+03  0.10566000000E+00 0. -1.
         -4    1    3    3    0  502  0.16189403046E+03 -0.61878721076E+03  0.15506702056E+03  0.65814365465E+03  0.00000000000E+00 0. -1.
        -13    1    1    2    0    0 -0.97976005949E+02  0.47369573202E+03  0.95863048537E+02  0.49312947541E+03  0.10566000000E+00 0.  1.
<mgrwt>
<rscale>  1 0.76701379E+03</rscale>
<asrwt>0</asrwt>
<pdfrwt beam="2">  1       21 0.72160580E-01 0.89441460E+03</pdfrwt>
<pdfrwt beam="1">  1       -4 0.15909100E+00 0.89441460E+03</pdfrwt>
<totfact> 0.17076823E+01</totfact>
</mgrwt>
</event>
<event>
 6    2  0.2379986E-005  0.1047467E+04  0.7818608E-02  0.9883646E-01
         -4   -1    0    0    0  501 -0.00000000000E+00  0.00000000000E+00  0.95254497262E+03  0.95254497262E+03  0.00000000000E+00 0. -1.
         21   -1    0    0  501  502  0.00000000000E+00 -0.00000000000E+00 -0.39794776821E+03  0.39794776821E+03  0.00000000000E+00 0. -1.
   -9000010    2    1    2    0  502  0.71233549871E+02 -0.97752846401E+02  0.33490264044E+03  0.10997028881E+04  0.10404599108E+04 0.  0.
         13    1    3    3    0    0  0.94783263517E+02  0.46059655544E+03  0.51369496634E+02  0.47304533638E+03  0.10566000000E+00 0. -1.
         -4    1    3    3    0  502 -0.23549713646E+02 -0.55834940184E+03  0.28353314380E+03  0.62665755177E+03  0.00000000000E+00 0. -1.
        -13    1    1    2    0    0 -0.71233549871E+02  0.97752846401E+02  0.21969456397E+03  0.25078985268E+03  0.10566000000E+00 0.  1.
<mgrwt>
<rscale>  1 0.61060474E+03</rscale>
<asrwt>0</asrwt>
<pdfrwt beam="2">  1       21 0.61222734E-01 0.10474668E+04</pdfrwt>
<pdfrwt beam="1">  1       -4 0.14654538E+00 0.10474668E+04</pdfrwt>
<totfact> 0.30489220E+01</totfact>
</mgrwt>
</event>
<event>
 6    2  0.2379986E-005  0.1012433E+04  0.7818608E-02  0.9742558E-01
         -4   -1    0    0    0  501 -0.00000000000E+00  0.00000000000E+00  0.17209565787E+04  0.17209565787E+04  0.00000000000E+00 0. -1.
         21   -1    0    0  501  502  0.00000000000E+00 -0.00000000000E+00 -0.52292826076E+03  0.52292826076E+03  0.00000000000E+00 0. -1.
   -9000010    2    1    2    0  502  0.20887899504E+03  0.39796547765E+02 -0.14816000147E+02  0.10125418528E+04  0.98985215562E+03 0.  0.
         13    1    3    3    0    0  0.24877898589E+03 -0.19528618172E+03  0.41454333559E+03  0.52141525183E+03  0.10566000000E+00 0. -1.
         -4    1    3    3    0  502 -0.39899990852E+02  0.23508272949E+03 -0.42935933574E+03  0.49112660095E+03  0.00000000000E+00 0. -1.
        -13    1    1    2    0    0 -0.20887899504E+03 -0.39796547765E+02  0.12128443181E+04  0.12313429867E+04  0.10566000000E+00 0.  1.
<mgrwt>
<rscale>  1 0.68538443E+03</rscale>
<asrwt>0</asrwt>
<pdfrwt beam="2">  1       21 0.80450502E-01 0.10124334E+04</pdfrwt>
<pdfrwt beam="1">  1       -4 0.26476255E+00 0.10124334E+04</pdfrwt>
<totfact> 0.26360542E+00</totfact>
</mgrwt>
</event>
<event>
 6    2  0.2379986E-005  0.1054463E+04  0.7818608E-02  0.9578043E-01
         -4   -1    0    0    0  501 -0.00000000000E+00  0.00000000000E+00  0.78380672902E+03  0.78380672902E+03  0.00000000000E+00 0. -1.
         21   -1    0    0  501  502  0.00000000000E+00 -0.00000000000E+00 -0.69419726492E+03  0.69419726492E+03  0.00000000000E+00 0. -1.
   -9000010    2    1    2    0  502  0.16663388985E+02  0.32788085262E+03 -0.15874449066E+03  0.10663448873E+04  0.10020519365E+04 0.  0.
         13    1    3    3    0    0  0.42490330833E+03  0.32807484989E+03  0.14667886332E+03  0.55649854328E+03  0.10566000000E+00 0. -1.
         -4    1    3    3    0  502 -0.40823991935E+03 -0.19399726342E+00 -0.30542335398E+03  0.50984634405E+03  0.00000000000E+00 0. -1.
        -13    1    1    2    0    0 -0.16663388985E+02 -0.32788085262E+03  0.24835395476E+03  0.41165910662E+03  0.10566000000E+00 0.  1.
<mgrwt>
<rscale>  1 0.78766667E+03</rscale>
<asrwt>0</asrwt>
<pdfrwt beam="2">  1       21 0.10679958E+00 0.10544627E+04</pdfrwt>
<pdfrwt beam="1">  1       -4 0.12058565E+00 0.10544627E+04</pdfrwt>
<totfact> 0.13525169E+01</totfact>
</mgrwt>
</event>
<event>
 6    2  0.2379986E-005  0.1020304E+04  0.7818608E-02  0.9723440E-01
         21   -1    0    0  501  502  0.00000000000E+00  0.00000000000E+00  0.11294635945E+04  0.11294635945E+04  0.00000000000E+00 0.  1.
         -4   -1    0    0    0  501 -0.00000000000E+00 -0.00000000000E+00 -0.34552405944E+03  0.34552405944E+03  0.00000000000E+00 0. -1.
   -9000010    2    1    2    0  502  0.16200896091E+03  0.15091849833E+03  0.57822102970E+03  0.11727569289E+04  0.99598993894E+03 0.  0.
         13    1    3    3    0    0 -0.25512097560E+03 -0.30702199080E+03  0.25961608996E+03  0.47618246540E+03  0.10566000000E+00 0. -1.
         -4    1    3    3    0  502  0.41712993652E+03  0.45794048913E+03  0.31860493974E+03  0.69657446346E+03  0.00000000000E+00 0. -1.
        -13    1    1    2    0    0 -0.16200896091E+03 -0.15091849833E+03  0.20571850532E+03  0.30223072503E+03  0.10566000000E+00 0.  1.
<mgrwt>
<rscale>  1 0.69638181E+03</rscale>
<asrwt>0</asrwt>
<pdfrwt beam="1">  1       21 0.17376363E+00 0.10203035E+04</pdfrwt>
<pdfrwt beam="2">  1       -4 0.53157548E-01 0.10203035E+04</pdfrwt>
<totfact> 0.24017067E+01</totfact>
</mgrwt>
</event>
<event>
 6    2  0.2379986E-005  0.1075203E+04  0.7818608E-02  0.9463665E-01
         21   -1    0    0  501  502  0.00000000000E+00  0.00000000000E+00  0.16641332239E+04  0.16641332239E+04  0.00000000000E+00 0.  1.
         -4   -1    0    0    0  501 -0.00000000000E+00 -0.00000000000E+00 -0.69230052861E+03  0.69230052861E+03  0.00000000000E+00 0. -1.
   -9000010    2    1    2    0  502  0.45891462541E+03 -0.46332235513E+02  0.13738555343E+04  0.17445745500E+04  0.97124251441E+03 0.  0.
         13    1    3    3    0    0 -0.18966340923E+03  0.20450587874E+03  0.10570419113E+03  0.29827546065E+03  0.10566000000E+00 0. -1.
         -4    1    3    3    0  502  0.64857803464E+03 -0.25083811425E+03  0.12681513432E+04  0.14462990894E+04  0.00000000000E+00 0. -1.
        -13    1    1    2    0    0 -0.45891462541E+03  0.46332235513E+02 -0.40202283903E+03  0.61185920253E+03  0.10566000000E+00 0.  1.
<mgrwt>
<rscale>  1 0.87016448E+03</rscale>
<asrwt>0</asrwt>
<pdfrwt beam="1">  1       21 0.25602050E+00 0.10752029E+04</pdfrwt>
<pdfrwt beam="2">  1       -4 0.10650777E+00 0.10752029E+04</pdfrwt>
<totfact> 0.13641427E+00</totfact>
</mgrwt>
</event>
<event>
 6    2  0.2379986E-005  0.1023878E+04  0.7818608E-02  0.9819138E-01
         21   -1    0    0  501  502  0.00000000000E+00  0.00000000000E+00  0.72011543196E+03  0.72011543196E+03  0.00000000000E+00 0. -1.
         -4   -1    0    0    0  501 -0.00000000000E+00 -0.00000000000E+00 -0.72513227644E+03  0.72513227644E+03  0.00000000000E+00 0. -1.
   -9000010    2    1    2    0  502 -0.15881330356E+03  0.16886562385E+02  0.32864732179E+03  0.10753306793E+04  0.10113457304E+04 0.  0.
         13    1    3    3    0    0  0.30525807476E+03  0.21261036614E+03  0.42257785315E+03  0.56298997605E+03  0.10566000000E+00 0. -1.
         -4    1    3    3    0  502 -0.46407137831E+03 -0.19572380376E+03 -0.93930531365E+02  0.51234070329E+03  0.00000000000E+00 0. -1.
        -13    1    1    2    0    0  0.15881330356E+03 -0.16886562385E+02 -0.33366416626E+03  0.36991702906E+03  0.10566000000E+00 0.  1.
<mgrwt>
<rscale>  1 0.64345526E+03</rscale>
<asrwt>0</asrwt>
<pdfrwt beam="1">  1       21 0.11078699E+00 0.10238784E+04</pdfrwt>
<pdfrwt beam="2">  1       -4 0.11155881E+00 0.10238784E+04</pdfrwt>
<totfact> 0.15010561E+01</totfact>
</mgrwt>
</event>
<event>
 6    2  0.2379986E-005  0.1036929E+04  0.7818608E-02  0.9959861E-01
         21   -1    0    0  501  502  0.00000000000E+00  0.00000000000E+00  0.11914780517E+04  0.11914780517E+04  0.00000000000E+00 0. -1.
         -4   -1    0    0    0  501 -0.00000000000E+00 -0.00000000000E+00 -0.40898943028E+03  0.40898943028E+03  0.00000000000E+00 0. -1.
   -9000010    2    1    2    0  502  0.94027625107E+02 -0.26445306718E+02  0.95015808445E+03  0.14064221045E+04  0.10323188471E+04 0.  0.
         13    1    3    3    0    0 -0.27538572808E+03  0.23029475097E+03  0.42821546357E+01  0.35901437237E+03  0.10566000000E+00 0. -1.
         -4    1    3    3    0  502  0.36941335319E+03 -0.25674005769E+03  0.94587592981E+03  0.10474077321E+04  0.00000000000E+00 0. -1.
        -13    1    1    2    0    0 -0.94027625107E+02  0.26445306718E+02 -0.16766946301E+03  0.19404537748E+03  0.10566000000E+00 0.  1.
<mgrwt>
<rscale>  1 0.57445849E+03</rscale>
<asrwt>0</asrwt>
<pdfrwt beam="1">  1       21 0.18330431E+00 0.10369295E+04</pdfrwt>
<pdfrwt beam="2">  1       -4 0.62921451E-01 0.10369295E+04</pdfrwt>
<totfact> 0.14174122E+01</totfact>
</mgrwt>
</event>
<event>
 6    2  0.2379986E-005  0.1009590E+04  0.7818608E-02  0.9861304E-01
         -4   -1    0    0    0  501 -0.00000000000E+00  0.00000000000E+00  0.14889332493E+04  0.14889332493E+04  0.00000000000E+00 0. -1.
         21   -1    0    0  501  502  0.00000000000E+00 -0.00000000000E+00 -0.30830830971E+03  0.30830830971E+03  0.00000000000E+00 0. -1.
   -9000010    2    1    2    0  502 -0.11242881235E+03 -0.91900484719E+02  0.54913144556E+03  0.11492678087E+04  0.99909219527E+03 0.  0.
         13    1    3    3    0    0 -0.26990764835E+03  0.84817284324E+02  0.77319622457E+03  0.82333257145E+03  0.10566000000E+00 0. -1.
         -4    1    3    3    0  502  0.15747883600E+03 -0.17671776904E+03 -0.22406477901E+03  0.32593523724E+03  0.00000000000E+00 0. -1.
        -13    1    1    2    0    0  0.11242881235E+03  0.91900484719E+02  0.63149349398E+03  0.64797375027E+03  0.10566000000E+00 0.  1.
<mgrwt>
<rscale>  1 0.62173854E+03</rscale>
<asrwt>0</asrwt>
<pdfrwt beam="2">  1       21 0.47432049E-01 0.10095896E+04</pdfrwt>
<pdfrwt beam="1">  1       -4 0.22906665E+00 0.10095896E+04</pdfrwt>
<totfact> 0.14378789E+01</totfact>
</mgrwt>
</event>
<event>
 6    2  0.2379986E-005  0.1042346E+04  0.7818608E-02  0.9623531E-01
         21   -1    0    0  501  502  0.00000000000E+00  0.00000000000E+00  0.26597733292E+03  0.26597733292E+03  0.00000000000E+00 0. -1.
         -4   -1    0    0    0  501 -0.00000000000E+00 -0.00000000000E+00 -0.16717049938E+04  0.16717049938E+04  0.00000000000E+00 0. -1.
   -9000010    2    1    2    0  502  0.13467573329E+03 -0.25779951065E+03 -0.11187949453E+04  0.15291134399E+04  0.10009433759E+04 0.  0.
         13    1    3    3    0    0  0.39681932175E+03 -0.26599595716E+03 -0.11465800850E+03  0.49129002983E+03  0.10566000000E+00 0. -1.
         -4    1    3    3    0  502 -0.26214358845E+03  0.81964465085E+01 -0.10041369368E+04  0.10378234101E+04  0.00000000000E+00 0. -1.
        -13    1    1    2    0    0 -0.13467573329E+03  0.25779951065E+03 -0.28693271560E+03  0.40856888682E+03  0.10566000000E+00 0.  1.
<mgrwt>
<rscale>  1 0.75758119E+03</rscale>
<asrwt>0</asrwt>
<pdfrwt beam="1">  1       21 0.40919589E-01 0.10423463E+04</pdfrwt>
<pdfrwt beam="2">  1       -4 0.25718539E+00 0.10423463E+04</pdfrwt>
<totfact> 0.13097050E+01</totfact>
</mgrwt>
</event>
<event>
 6    2  0.2379986E-005  0.1038344E+04  0.7818608E-02  0.9648093E-01
         21   -1    0    0  501  502  0.00000000000E+00  0.00000000000E+00  0.19484717353E+04  0.19484717353E+04  0.00000000000E+00 0. -1.
         -4   -1    0    0    0  501 -0.00000000000E+00 -0.00000000000E+00 -0.22041958489E+03  0.22041958489E+03  0.00000000000E+00 0. -1.
   -9000010    2    1    2    0  502  0.22357554664E+03 -0.15255713118E+03  0.13248568522E+04  0.16832719600E+04  0.10024465617E+04 0.  0.
         13    1    3    3    0    0 -0.58524068684E+02 -0.36548701388E+03  0.12734023868E+04  0.13261068862E+04  0.10566000000E+00 0. -1.
         -4    1    3    3    0  502  0.28209961533E+03  0.21292988270E+03  0.51454465459E+02  0.35716507378E+03  0.00000000000E+00 0. -1.
        -13    1    1    2    0    0 -0.22357554664E+03  0.15255713118E+03  0.40319529819E+03  0.48561936017E+03  0.10566000000E+00 0.  1.
<mgrwt>
<rscale>  1 0.74193222E+03</rscale>
<asrwt>0</asrwt>
<pdfrwt beam="1">  1       21 0.29976487E+00 0.10383443E+04</pdfrwt>
<pdfrwt beam="2">  1       -4 0.33910707E-01 0.10383443E+04</pdfrwt>
<totfact> 0.89842295E+00</totfact>
</mgrwt>
</event>
<event>
 6    2  0.2379986E-005  0.1105442E+04  0.7818608E-02  0.9446210E-01
         21   -1    0    0  501  502  0.00000000000E+00  0.00000000000E+00  0.11601311618E+04  0.11601311618E+04  0.00000000000E+00 0. -1.
         -4   -1    0    0    0  501 -0.00000000000E+00 -0.00000000000E+00 -0.52242335099E+03  0.52242335099E+03  0.00000000000E+00 0. -1.
   -9000010    2    1    2    0  502 -0.45030328713E+03  0.31744226941E+02  0.46371286553E+03  0.11987622035E+04  0.10090691020E+04 0.  0.
         13    1    3    3    0    0  0.31378665753E+03 -0.18666126784E+01  0.25936074793E+03  0.40710386810E+03  0.10566000000E+00 0. -1.
         -4    1    3    3    0  502 -0.76408994467E+03  0.33610839620E+02  0.20435211760E+03  0.79165833543E+03  0.00000000000E+00 0. -1.
        -13    1    1    2    0    0  0.45030328713E+03 -0.31744226941E+02  0.17399494527E+03  0.48379230925E+03  0.10566000000E+00 0.  1.
<mgrwt>
<rscale>  1 0.88368454E+03</rscale>
<asrwt>0</asrwt>
<pdfrwt beam="1">  1       21 0.17848172E+00 0.11054416E+04</pdfrwt>
<pdfrwt beam="2">  1       -4 0.80372823E-01 0.11054416E+04</pdfrwt>
<totfact> 0.87875521E+00</totfact>
</mgrwt>
</event>
<event>
 6    2  0.2379986E-005  0.1086418E+04  0.7818608E-02  0.9544675E-01
         -4   -1    0    0    0  501 -0.00000000000E+00  0.00000000000E+00  0.13065950885E+04  0.13065950885E+04  0.00000000000E+00 0. -1.
         21   -1    0    0  501  502  0.00000000000E+00 -0.00000000000E+00 -0.40914116776E+03  0.40914116776E+03  0.00000000000E+00 0. -1.
   -9000010    2    1    2    0  502  0.67635060550E+02 -0.32997919044E+03  0.50352689331E+03  0.11974320197E+04  0.10328810880E+04 0.  0.
         13    1    3    3    0    0  0.54955748251E+03 -0.17705448881E+03  0.22084393989E+03  0.61816969802E+03  0.10566000000E+00 0. -1.
         -4    1    3    3    0  502 -0.48192242196E+03 -0.15292470163E+03  0.28268295342E+03  0.57926232168E+03  0.00000000000E+00 0. -1.
        -13    1    1    2    0    0 -0.67635060550E+02  0.32997919044E+03  0.39392702746E+03  0.51830423659E+03  0.10566000000E+00 0.  1.
<mgrwt>
<rscale>  1 0.81068743E+03</rscale>
<asrwt>0</asrwt>
<pdfrwt beam="2">  1       21 0.62944796E-01 0.10864180E+04</pdfrwt>
<pdfrwt beam="1">  1       -4 0.20101463E+00 0.10864180E+04</pdfrwt>
<totfact> 0.11614929E+01</totfact>
</mgrwt>
</event>
<event>
 6    2  0.2379986E-005  0.1087677E+04  0.7818608E-02  0.9471546E-01
         -4   -1    0    0    0  501 -0.00000000000E+00  0.00000000000E+00  0.48862207953E+03  0.48862207953E+03  0.00000000000E+00 0. -1.
         21   -1    0    0  501  502  0.00000000000E+00 -0.00000000000E+00 -0.14323930909E+04  0.14323930909E+04  0.00000000000E+00 0.  1.
   -9000010    2    1    2    0  502  0.13924893035E+03  0.41037789959E+03 -0.10079808468E+04  0.14829247697E+04  0.99761726130E+03 0.  0.
         13    1    3    3    0    0  0.47450987929E+03  0.50521449312E+02 -0.16122037465E+03  0.50369044338E+03  0.10566000000E+00 0. -1.
         -4    1    3    3    0  502 -0.33526094894E+03  0.35985645027E+03 -0.84676047215E+03  0.97923432634E+03  0.00000000000E+00 0. -1.
        -13    1    1    2    0    0 -0.13924893035E+03 -0.41037789959E+03  0.64209835434E+02  0.43809040072E+03  0.10566000000E+00 0.  1.
<mgrwt>
<rscale>  1 0.86414553E+03</rscale>
<asrwt>0</asrwt>
<pdfrwt beam="2">  1       21 0.22036817E+00 0.10876766E+04</pdfrwt>
<pdfrwt beam="1">  1       -4 0.75172628E-01 0.10876766E+04</pdfrwt>
<totfact> 0.52612400E+00</totfact>
</mgrwt>
</event>
<event>
 6    2  0.2379986E-005  0.1183969E+04  0.7818608E-02  0.9279975E-01
         -4   -1    0    0    0  501 -0.00000000000E+00  0.00000000000E+00  0.92354241258E+03  0.92354241258E+03  0.00000000000E+00 0. -1.
         21   -1    0    0  501  502  0.00000000000E+00 -0.00000000000E+00 -0.10769805371E+04  0.10769805371E+04  0.00000000000E+00 0.  1.
   -9000010    2    1    2    0  502 -0.49148929776E+03 -0.45374850523E+03 -0.45289625016E+03  0.12676350893E+04  0.97690033799E+03 0.  0.
         13    1    3    3    0    0 -0.11566407265E+03 -0.38382738249E+03  0.24648972012E+03  0.47059412505E+03  0.10566000000E+00 0. -1.
         -4    1    3    3    0  502 -0.37582522511E+03 -0.69921122741E+02 -0.69938597028E+03  0.79704096423E+03  0.00000000000E+00 0. -1.
        -13    1    1    2    0    0  0.49148929776E+03  0.45374850523E+03  0.29945812561E+03  0.73288786043E+03  0.10566000000E+00 0.  1.
<mgrwt>
<rscale>  1 0.10264750E+04</rscale>
<asrwt>0</asrwt>
<pdfrwt beam="2">  1       21 0.16568931E+00 0.11839695E+04</pdfrwt>
<pdfrwt beam="1">  1       -4 0.14208345E+00 0.11839695E+04</pdfrwt>
<totfact> 0.26716216E+00</totfact>
</mgrwt>
</event>
<event>
 6    2  0.2379986E-005  0.1015641E+04  0.7818608E-02  0.9494369E-01
         21   -1    0    0  501  502  0.00000000000E+00  0.00000000000E+00  0.11956741793E+04  0.11956741793E+04  0.00000000000E+00 0.  1.
         -4   -1    0    0    0  501 -0.00000000000E+00 -0.00000000000E+00 -0.64272788667E+03  0.64272788667E+03  0.00000000000E+00 0. -1.
   -9000010    2    1    2    0  502 -0.47044972520E+03  0.14149391914E+03 -0.10081551063E+03  0.10206319396E+04  0.88892199645E+03 0.  0.
         13    1    3    3    0    0 -0.52564559116E+03  0.31676532203E+03  0.21913909703E+03  0.65166364925E+03  0.10566000000E+00 0. -1.
         -4    1    3    3    0  502  0.55195865960E+02 -0.17527140289E+03 -0.31995460766E+03  0.36896829031E+03  0.00000000000E+00 0. -1.
        -13    1    1    2    0    0  0.47044972520E+03 -0.14149391914E+03  0.65376180328E+03  0.81777012643E+03  0.10566000000E+00 0.  1.
<mgrwt>
<rscale>  1 0.84700219E+03</rscale>
<asrwt>0</asrwt>
<pdfrwt beam="1">  1       21 0.18394987E+00 0.10156406E+04</pdfrwt>
<pdfrwt beam="2">  1       -4 0.98881213E-01 0.10156406E+04</pdfrwt>
<totfact> 0.49846219E+00</totfact>
</mgrwt>
</event>
<event>
 6    2  0.2379986E-005  0.9473795E+03  0.7818608E-02  0.9853717E-01
         21   -1    0    0  501  502  0.00000000000E+00  0.00000000000E+00  0.13227716122E+04  0.13227716122E+04  0.00000000000E+00 0. -1.
         -4   -1    0    0    0  501 -0.00000000000E+00 -0.00000000000E+00 -0.24059514534E+03  0.24059514534E+03  0.00000000000E+00 0. -1.
   -9000010    2    1    2    0  502 -0.13588802420E+03 -0.11822083697E+03  0.88745640166E+03  0.12981166183E+04  0.93010008517E+03 0.  0.
         13    1    3    3    0    0  0.28738512293E+03 -0.35350365382E+03  0.51201358766E+03  0.68535608793E+03  0.10566000000E+00 0. -1.
         -4    1    3    3    0  502 -0.42327314714E+03  0.23528281685E+03  0.37544281400E+03  0.61276053036E+03  0.00000000000E+00 0. -1.
        -13    1    1    2    0    0  0.13588802420E+03  0.11822083697E+03  0.19472006519E+03  0.26525013924E+03  0.10566000000E+00 0.  1.
<mgrwt>
<rscale>  1 0.62557739E+03</rscale>
<asrwt>0</asrwt>
<pdfrwt beam="1">  1       21 0.20350332E+00 0.94737949E+03</pdfrwt>
<pdfrwt beam="2">  1       -4 0.37014639E-01 0.94737949E+03</pdfrwt>
<totfact> 0.31563706E+01</totfact>
</mgrwt>
</event>
<event>
 6    2  0.2379986E-005  0.1701877E+04  0.7818608E-02  0.8817968E-01
         -4   -1    0    0    0  501 -0.00000000000E+00  0.00000000000E+00  0.19936802477E+04  0.19936802477E+04  0.00000000000E+00 0. -1.
         21   -1    0    0  501  502  0.00000000000E+00 -0.00000000000E+00 -0.12002790014E+04  0.12002790014E+04  0.00000000000E+00 0.  1.
   -9000010    2    1    2    0  502 -0.10163883437E+04 -0.87869265426E+03  0.16241084798E+03  0.17096092432E+04  0.10446245426E+04 0.  0.
         13    1    3    3    0    0  0.21713946948E+03 -0.11465136278E+03  0.71657330294E+02  0.25579145479E+03  0.10566000000E+00 0. -1.
         -4    1    3    3    0  502 -0.12335278132E+04 -0.76404129148E+03  0.90753517682E+02  0.14538177884E+04  0.00000000000E+00 0. -1.
        -13    1    1    2    0    0  0.10163883437E+04  0.87869265426E+03  0.63099039832E+03  0.14843500058E+04  0.10566000000E+00 0.  1.
<mgrwt>
<rscale>  1 0.16042064E+04</rscale>
<asrwt>0</asrwt>
<pdfrwt beam="2">  1       21 0.18465831E+00 0.17018773E+04</pdfrwt>
<pdfrwt beam="1">  1       -4 0.30672004E+00 0.17018773E+04</pdfrwt>
<totfact> 0.14452259E-01</totfact>
</mgrwt>
</event>
<event>
 6    2  0.2379986E-005  0.1207922E+04  0.7818608E-02  0.9261058E-01
         21   -1    0    0  501  502  0.00000000000E+00  0.00000000000E+00  0.63795670038E+03  0.63795670038E+03  0.00000000000E+00 0.  1.
         -4   -1    0    0    0  501 -0.00000000000E+00 -0.00000000000E+00 -0.14039077168E+04  0.14039077168E+04  0.00000000000E+00 0. -1.
   -9000010    2    1    2    0  502 -0.33396465293E+03  0.58692641249E+03 -0.58847174455E+03  0.13436424566E+04  0.10015293576E+04 0.  0.
         13    1    3    3    0    0  0.33829032626E+03  0.45563866705E+02 -0.21321337168E+03  0.40246287259E+03  0.10566000000E+00 0. -1.
         -4    1    3    3    0  502 -0.67225497919E+03  0.54136254578E+03 -0.37525837287E+03  0.94117958405E+03  0.00000000000E+00 0. -1.
        -13    1    1    2    0    0  0.33396465293E+03 -0.58692641249E+03 -0.17747927188E+03  0.69822196055E+03  0.10566000000E+00 0.  1.
<mgrwt>
<rscale>  1 0.10444837E+04</rscale>
<asrwt>0</asrwt>
<pdfrwt beam="1">  1       21 0.98147187E-01 0.12079222E+04</pdfrwt>
<pdfrwt beam="2">  1       -4 0.21598580E+00 0.12079222E+04</pdfrwt>
<totfact> 0.32144865E+00</totfact>
</mgrwt>
</event>
<event>
 6    2  0.2379986E-005  0.1012328E+04  0.7818608E-02  0.9971656E-01
         21   -1    0    0  501  502  0.00000000000E+00  0.00000000000E+00  0.54564725152E+03  0.54564725152E+03  0.00000000000E+00 0. -1.
         -4   -1    0    0    0  501 -0.00000000000E+00 -0.00000000000E+00 -0.67571786854E+03  0.67571786854E+03  0.00000000000E+00 0. -1.
   -9000010    2    1    2    0  502 -0.87595759974E+02  0.50508381063E+02 -0.27094459348E+03  0.10479592317E+04  0.10072653398E+04 0.  0.
         13    1    3    3    0    0  0.24673280266E+03 -0.27248277040E+03  0.17201077430E+03  0.40584683529E+03  0.10566000000E+00 0. -1.
         -4    1    3    3    0  502 -0.33432856264E+03  0.32299115146E+03 -0.44295536779E+03  0.64211239637E+03  0.00000000000E+00 0. -1.
        -13    1    1    2    0    0  0.87595759974E+02 -0.50508381063E+02  0.14087397646E+03  0.17340588840E+03  0.10566000000E+00 0.  1.
<mgrwt>
<rscale>  1 0.56910735E+03</rscale>
<asrwt>0</asrwt>
<pdfrwt beam="1">  1       21 0.83945731E-01 0.10123278E+04</pdfrwt>
<pdfrwt beam="2">  1       -4 0.10395660E+00 0.10123278E+04</pdfrwt>
<totfact> 0.35338986E+01</totfact>
</mgrwt>
</event>
<event>
 6    2  0.2379986E-005  0.1089903E+04  0.7818608E-02  0.9469657E-01
         21   -1    0    0  501  502  0.00000000000E+00  0.00000000000E+00  0.11775011763E+04  0.11775011763E+04  0.00000000000E+00 0. -1.
         -4   -1    0    0    0  501 -0.00000000000E+00 -0.00000000000E+00 -0.49359294105E+03  0.49359294105E+03  0.00000000000E+00 0. -1.
   -9000010    2    1    2    0  502 -0.17339163429E+03  0.39740213366E+03  0.45846206695E+03  0.11824029054E+04  0.99994802327E+03 0.  0.
         13    1    3    3    0    0 -0.50627333983E+03  0.10621938095E+03  0.52281655016E+03  0.73548107236E+03  0.10566000000E+00 0. -1.
         -4    1    3    3    0  502  0.33288170554E+03  0.29118275270E+03 -0.64354483213E+02  0.44692183306E+03  0.00000000000E+00 0. -1.
        -13    1    1    2    0    0  0.17339163429E+03 -0.39740213366E+03  0.22544616835E+03  0.48869121198E+03  0.10566000000E+00 0.  1.
<mgrwt>
<rscale>  1 0.86558310E+03</rscale>
<asrwt>0</asrwt>
<pdfrwt beam="1">  1       21 0.18115403E+00 0.10899033E+04</pdfrwt>
<pdfrwt beam="2">  1       -4 0.75937376E-01 0.10899033E+04</pdfrwt>
<totfact> 0.95864522E+00</totfact>
</mgrwt>
</event>
<event>
 6    2  0.2379986E-005  0.1047115E+04  0.7818608E-02  0.9818447E-01
         21   -1    0    0  501  502  0.00000000000E+00  0.00000000000E+00  0.58413421386E+03  0.58413421386E+03  0.00000000000E+00 0. -1.
         -4   -1    0    0    0  501 -0.00000000000E+00 -0.00000000000E+00 -0.88616952299E+03  0.88616952299E+03  0.00000000000E+00 0. -1.
   -9000010    2    1    2    0  502  0.87307979657E+02  0.12154000628E+03  0.89707076831E+02  0.10509509444E+04  0.10363666684E+04 0.  0.
         13    1    3    3    0    0  0.11892773629E+03 -0.10433292032E+03 -0.44357511899E+03  0.47094379927E+03  0.10566000000E+00 0. -1.
         -4    1    3    3    0  502 -0.31619756632E+02  0.22587292660E+03  0.53328219582E+03  0.58000714509E+03  0.00000000000E+00 0. -1.
        -13    1    1    2    0    0 -0.87307979657E+02 -0.12154000628E+03 -0.39174238596E+03  0.41935279248E+03  0.10566000000E+00 0.  1.
<mgrwt>
<rscale>  1 0.64381927E+03</rscale>
<asrwt>0</asrwt>
<pdfrwt beam="1">  1       21 0.89866802E-01 0.10471153E+04</pdfrwt>
<pdfrwt beam="2">  1       -4 0.13633377E+00 0.10471153E+04</pdfrwt>
<totfact> 0.15134263E+01</totfact>
</mgrwt>
</event>
<event>
 6    2  0.2379986E-005  0.1026515E+04  0.7818608E-02  0.9655078E-01
         -4   -1    0    0    0  501 -0.00000000000E+00  0.00000000000E+00  0.67220474566E+03  0.67220474566E+03  0.00000000000E+00 0. -1.
         21   -1    0    0  501  502  0.00000000000E+00 -0.00000000000E+00 -0.63229094226E+03  0.63229094226E+03  0.00000000000E+00 0. -1.
   -9000010    2    1    2    0  502  0.11979345023E+03 -0.24595735275E+03  0.72023076856E+02  0.10290387826E+04  0.98938769064E+03 0.  0.
         13    1    3    3    0    0 -0.43858220272E+02 -0.52778790551E+03 -0.23673050531E+03  0.58010771413E+03  0.10566000000E+00 0. -1.
         -4    1    3    3    0  502  0.16365167050E+03  0.28183055276E+03  0.30875358216E+03  0.44893106845E+03  0.00000000000E+00 0. -1.
        -13    1    1    2    0    0 -0.11979345023E+03  0.24595735275E+03 -0.32109273449E+02  0.27545690533E+03  0.10566000000E+00 0.  1.
<mgrwt>
<rscale>  1 0.73755568E+03</rscale>
<asrwt>0</asrwt>
<pdfrwt beam="2">  1       21 0.97275530E-01 0.10265152E+04</pdfrwt>
<pdfrwt beam="1">  1       -4 0.10341611E+00 0.10265152E+04</pdfrwt>
<totfact> 0.25029703E+01</totfact>
</mgrwt>
</event>
<event>
 6    2  0.2379986E-005  0.1022678E+04  0.7818608E-02  0.9719259E-01
         21   -1    0    0  501  502  0.00000000000E+00  0.00000000000E+00  0.43743932900E+03  0.43743932900E+03  0.00000000000E+00 0. -1.
         -4   -1    0    0    0  501 -0.00000000000E+00 -0.00000000000E+00 -0.88676517875E+03  0.88676517875E+03  0.00000000000E+00 0. -1.
   -9000010    2    1    2    0  502  0.81824222442E+02  0.20740704715E+03 -0.36936298449E+03  0.10873354351E+04  0.99807637363E+03 0.  0.
         13    1    3    3    0    0  0.27052036825E+03 -0.34228340752E+03 -0.10432883717E+03  0.44857966753E+03  0.10566000000E+00 0. -1.
         -4    1    3    3    0  502 -0.18869614581E+03  0.54969045466E+03 -0.26503414732E+03  0.63875576759E+03  0.00000000000E+00 0. -1.
        -13    1    1    2    0    0 -0.81824222442E+02 -0.20740704715E+03 -0.79962865263E+02  0.23686907263E+03  0.10566000000E+00 0.  1.
<mgrwt>
<rscale>  1 0.69881582E+03</rscale>
<asrwt>0</asrwt>
<pdfrwt beam="1">  1       21 0.67298358E-01 0.10226775E+04</pdfrwt>
<pdfrwt beam="2">  1       -4 0.13642541E+00 0.10226775E+04</pdfrwt>
<totfact> 0.29813414E+01</totfact>
</mgrwt>
</event>
<event>
 6    2  0.2379986E-005  0.1035887E+04  0.7818608E-02  0.9644822E-01
         -4   -1    0    0    0  501 -0.00000000000E+00  0.00000000000E+00  0.96039312554E+03  0.96039312554E+03  0.00000000000E+00 0. -1.
         21   -1    0    0  501  502  0.00000000000E+00 -0.00000000000E+00 -0.46239151449E+03  0.46239151449E+03  0.00000000000E+00 0. -1.
   -9000010    2    1    2    0  502  0.35900704182E+02  0.27328879874E+03  0.49271645505E+03  0.11470971863E+04  0.99854234851E+03 0.  0.
         13    1    3    3    0    0 -0.19561813194E+03  0.54184653363E+03  0.47633222857E+02  0.57804243325E+03  0.10566000000E+00 0. -1.
         -4    1    3    3    0  502  0.23151883613E+03 -0.26855773489E+03  0.44508323219E+03  0.56905475310E+03  0.00000000000E+00 0. -1.
        -13    1    1    2    0    0 -0.35900704182E+02 -0.27328879874E+03  0.52851560034E+01  0.27568745368E+03  0.10566000000E+00 0.  1.
<mgrwt>
<rscale>  1 0.74399278E+03</rscale>
<asrwt>0</asrwt>
<pdfrwt beam="2">  1       21 0.71137156E-01 0.10358873E+04</pdfrwt>
<pdfrwt beam="1">  1       -4 0.14775279E+00 0.10358873E+04</pdfrwt>
<totfact> 0.21240885E+01</totfact>
</mgrwt>
</event>
<event>
 6    2  0.2379986E-005  0.1047540E+04  0.7818608E-02  0.9661782E-01
         -4   -1    0    0    0  501 -0.00000000000E+00  0.00000000000E+00  0.10170168999E+04  0.10170168999E+04  0.00000000000E+00 0. -1.
         21   -1    0    0  501  502  0.00000000000E+00 -0.00000000000E+00 -0.41790670333E+03  0.41790670333E+03  0.00000000000E+00 0. -1.
   -9000010    2    1    2    0  502  0.17810061233E+03  0.17780395683E+03  0.43371215199E+03  0.11337748037E+04  0.10168603638E+04 0.  0.
         13    1    3    3    0    0  0.96756712401E+02 -0.36830959349E+02 -0.32500586452E+03  0.34109705964E+03  0.10566000000E+00 0. -1.
         -4    1    3    3    0  502  0.81343899931E+02  0.21463491618E+03  0.75871801650E+03  0.79267774402E+03  0.00000000000E+00 0. -1.
        -13    1    1    2    0    0 -0.17810061233E+03 -0.17780395683E+03  0.16539804462E+03  0.30114879961E+03  0.10566000000E+00 0.  1.
<mgrwt>
<rscale>  1 0.73338581E+03</rscale>
<asrwt>0</asrwt>
<pdfrwt beam="2">  1       21 0.64293339E-01 0.10475395E+04</pdfrwt>
<pdfrwt beam="1">  1       -4 0.15646414E+00 0.10475395E+04</pdfrwt>
<totfact> 0.22890424E+01</totfact>
</mgrwt>
</event>
<event>
 6    2  0.2379986E-005  0.1006375E+04  0.7818608E-02  0.9819315E-01
         -4   -1    0    0    0  501 -0.00000000000E+00  0.00000000000E+00  0.83757596572E+03  0.83757596572E+03  0.00000000000E+00 0. -1.
         21   -1    0    0  501  502  0.00000000000E+00 -0.00000000000E+00 -0.48001621275E+03  0.48001621275E+03  0.00000000000E+00 0. -1.
   -9000010    2    1    2    0  502 -0.14082724792E+03  0.91771769131E+02  0.10175860478E+03  0.10115062266E+04  0.99223770407E+03 0.  0.
         13    1    3    3    0    0 -0.28958497952E+03 -0.10577536451E+03  0.47350170178E+03  0.56502368168E+03  0.10566000000E+00 0. -1.
         -4    1    3    3    0  502  0.14875773160E+03  0.19754713364E+03 -0.37174309701E+03  0.44648254489E+03  0.00000000000E+00 0. -1.
        -13    1    1    2    0    0  0.14082724792E+03 -0.91771769131E+02  0.25580114820E+03  0.30608595190E+03  0.10566000000E+00 0.  1.
<mgrwt>
<rscale>  1 0.64336215E+03</rscale>
<asrwt>0</asrwt>
<pdfrwt beam="2">  1       21 0.73848648E-01 0.10063747E+04</pdfrwt>
<pdfrwt beam="1">  1       -4 0.12885784E+00 0.10063747E+04</pdfrwt>
<totfact> 0.27950461E+01</totfact>
</mgrwt>
</event>
<event>
 6    2  0.2379986E-005  0.8021191E+03  0.7818608E-02  0.9839822E-01
         -4   -1    0    0    0  501 -0.00000000000E+00  0.00000000000E+00  0.76581856878E+03  0.76581856878E+03  0.00000000000E+00 0. -1.
         21   -1    0    0  501  502  0.00000000000E+00 -0.00000000000E+00 -0.49370623711E+03  0.49370623711E+03  0.00000000000E+00 0. -1.
   -9000010    2    1    2    0  502 -0.15709270745E+03  0.26780702857E+03 -0.60651454372E+02  0.80440891762E+03  0.73959203927E+03 0.  0.
         13    1    3    3    0    0  0.20789566514E+03 -0.54663399423E+02  0.16172720044E+03  0.26900630727E+03  0.10566000000E+00 0. -1.
         -4    1    3    3    0  502 -0.36498837259E+03  0.32247042800E+03 -0.22237865481E+03  0.53540261036E+03  0.00000000000E+00 0. -1.
        -13    1    1    2    0    0  0.15709270745E+03 -0.26780702857E+03  0.33276378604E+03  0.45511588826E+03  0.10566000000E+00 0.  1.
<mgrwt>
<rscale>  1 0.63268578E+03</rscale>
<asrwt>0</asrwt>
<pdfrwt beam="2">  1       21 0.75954806E-01 0.80211914E+03</pdfrwt>
<pdfrwt beam="1">  1       -4 0.11781824E+00 0.80211914E+03</pdfrwt>
<totfact> 0.33523914E+01</totfact>
</mgrwt>
</event>
<event>
 6    2  0.2379986E-005  0.1030150E+04  0.7818608E-02  0.9714894E-01
         -4   -1    0    0    0  501 -0.00000000000E+00  0.00000000000E+00  0.11682266057E+04  0.11682266057E+04  0.00000000000E+00 0. -1.
         21   -1    0    0  501  502  0.00000000000E+00 -0.00000000000E+00 -0.61928580867E+03  0.61928580867E+03  0.00000000000E+00 0. -1.
   -9000010    2    1    2    0  502  0.40174441377E+02 -0.21767627744E+03 -0.16208895042E+03  0.10428243855E+04  0.10060879303E+04 0.  0.
         13    1    3    3    0    0 -0.26019135298E+03 -0.27531580044E+03 -0.47347097301E+03  0.60636053927E+03  0.10566000000E+00 0. -1.
         -4    1    3    3    0  502  0.30036579436E+03  0.57639522994E+02  0.31138202259E+03  0.43646384618E+03  0.00000000000E+00 0. -1.
        -13    1    1    2    0    0 -0.40174441377E+02  0.21767627744E+03  0.71102974748E+03  0.74468802895E+03  0.10566000000E+00 0.  1.
<mgrwt>
<rscale>  1 0.70136909E+03</rscale>
<asrwt>0</asrwt>
<pdfrwt beam="2">  1       21 0.95274740E-01 0.10301504E+04</pdfrwt>
<pdfrwt beam="1">  1       -4 0.17972717E+00 0.10301504E+04</pdfrwt>
<totfact> 0.61727995E+00</totfact>
</mgrwt>
</event>
<event>
 6    2  0.2379986E-005  0.1156073E+04  0.7818608E-02  0.9341772E-01
         21   -1    0    0  501  502  0.00000000000E+00  0.00000000000E+00  0.54456335257E+03  0.54456335257E+03  0.00000000000E+00 0. -1.
         -4   -1    0    0    0  501 -0.00000000000E+00 -0.00000000000E+00 -0.16006900313E+04  0.16006900313E+04  0.00000000000E+00 0. -1.
   -9000010    2    1    2    0  502  0.26616868600E+03  0.50810113412E+03 -0.10646150113E+04  0.15715944304E+04  0.10037387109E+04 0.  0.
         13    1    3    3    0    0  0.34564740122E+03  0.60502557633E+03 -0.23919337653E+03  0.73670995414E+03  0.10566000000E+00 0. -1.
         -4    1    3    3    0  502 -0.79478715222E+02 -0.96924442214E+02 -0.82542163474E+03  0.83488447630E+03  0.00000000000E+00 0. -1.
        -13    1    1    2    0    0 -0.26616868600E+03 -0.50810113412E+03  0.84883325401E+01  0.57365895343E+03  0.10566000000E+00 0.  1.
<mgrwt>
<rscale>  1 0.97026519E+03</rscale>
<asrwt>0</asrwt>
<pdfrwt beam="1">  1       21 0.83778977E-01 0.11560726E+04</pdfrwt>
<pdfrwt beam="2">  1       -4 0.24626001E+00 0.11560726E+04</pdfrwt>
<totfact> 0.30568086E+00</totfact>
</mgrwt>
</event>
<event>
 6    2  0.2379986E-005  0.1007721E+04  0.7818608E-02  0.9939678E-01
         21   -1    0    0  501  502  0.00000000000E+00  0.00000000000E+00  0.62009410115E+03  0.62009410115E+03  0.00000000000E+00 0.  1.
         -4   -1    0    0    0  501 -0.00000000000E+00 -0.00000000000E+00 -0.51729776171E+03  0.51729776171E+03  0.00000000000E+00 0. -1.
   -9000010    2    1    2    0  502  0.94188235751E+02 -0.63297493350E+02  0.41872370048E+02  0.10085907075E+04  0.10013111022E+04 0.  0.
         13    1    3    3    0    0  0.69597223918E+02 -0.92341857523E+02 -0.47573502600E+03  0.48958617051E+03  0.10566000000E+00 0. -1.
         -4    1    3    3    0  502  0.24591011833E+02  0.29044364174E+02  0.51760739604E+03  0.51900453697E+03  0.00000000000E+00 0. -1.
        -13    1    1    2    0    0 -0.94188235751E+02  0.63297493350E+02  0.60923969398E+02  0.12880115539E+03  0.10566000000E+00 0.  1.
<mgrwt>
<rscale>  1 0.58376280E+03</rscale>
<asrwt>0</asrwt>
<pdfrwt beam="1">  1       21 0.95399093E-01 0.10077212E+04</pdfrwt>
<pdfrwt beam="2">  1       -4 0.79584271E-01 0.10077212E+04</pdfrwt>
<totfact> 0.48796428E+01</totfact>
</mgrwt>
</event>
<event>
 6    2  0.2379986E-005  0.9955120E+03  0.7818608E-02  0.9889236E-01
         21   -1    0    0  501  502  0.00000000000E+00  0.00000000000E+00  0.80368126787E+03  0.80368126787E+03  0.00000000000E+00 0. -1.
         -4   -1    0    0    0  501 -0.00000000000E+00 -0.00000000000E+00 -0.40208558278E+03  0.40208558278E+03  0.00000000000E+00 0. -1.
   -9000010    2    1    2    0  502  0.12721292278E+03 -0.54456290285E+02  0.32286543941E+03  0.10465591937E+04  0.98584757378E+03 0.  0.
         13    1    3    3    0    0  0.66406545097E+02 -0.26402246900E+03  0.62044589159E+03  0.67754764329E+03  0.10566000000E+00 0. -1.
         -4    1    3    3    0  502  0.60806377682E+02  0.20956617872E+03 -0.29758045218E+03  0.36901155043E+03  0.00000000000E+00 0. -1.
        -13    1    1    2    0    0 -0.12721292278E+03  0.54456290285E+02  0.78730245681E+02  0.15920765692E+03  0.10566000000E+00 0.  1.
<mgrwt>
<rscale>  1 0.60785797E+03</rscale>
<asrwt>0</asrwt>
<pdfrwt beam="1">  1       21 0.12364327E+00 0.99551196E+03</pdfrwt>
<pdfrwt beam="2">  1       -4 0.61859321E-01 0.99551196E+03</pdfrwt>
<totfact> 0.44583446E+01</totfact>
</mgrwt>
</event>
<event>
 6    2  0.2379986E-005  0.9630394E+03  0.7818608E-02  0.1009145E+00
         -4   -1    0    0    0  501 -0.00000000000E+00  0.00000000000E+00  0.55777638323E+03  0.55777638323E+03  0.00000000000E+00 0. -1.
         21   -1    0    0  501  502  0.00000000000E+00 -0.00000000000E+00 -0.49416874470E+03  0.49416874470E+03  0.00000000000E+00 0.  1.
   -9000010    2    1    2    0  502  0.65379607916E+02  0.47320114774E+02  0.89491663793E+02  0.96718853337E+03  0.95965161115E+03 0.  0.
         13    1    3    3    0    0  0.38460677552E+03 -0.59636844485E+01  0.37382990960E+03  0.53638302525E+03  0.10566000000E+00 0. -1.
         -4    1    3    3    0  502 -0.31922716760E+03  0.53283799223E+02 -0.28433824580E+03  0.43080550811E+03  0.00000000000E+00 0. -1.
        -13    1    1    2    0    0 -0.65379607916E+02 -0.47320114774E+02 -0.25884025261E+02  0.84756594559E+02  0.10566000000E+00 0.  1.
<mgrwt>
<rscale>  1 0.51815721E+03</rscale>
<asrwt>0</asrwt>
<pdfrwt beam="2">  1       21 0.76025961E-01 0.96303941E+03</pdfrwt>
<pdfrwt beam="1">  1       -4 0.85811751E-01 0.96303941E+03</pdfrwt>
<totfact> 0.70696795E+01</totfact>
</mgrwt>
</event>
<event>
 6    2  0.2379986E-005  0.1002899E+04  0.7818608E-02  0.9900931E-01
         21   -1    0    0  501  502  0.00000000000E+00  0.00000000000E+00  0.36648427346E+03  0.36648427346E+03  0.00000000000E+00 0. -1.
         -4   -1    0    0    0  501 -0.00000000000E+00 -0.00000000000E+00 -0.14541341131E+04  0.14541341131E+04  0.00000000000E+00 0. -1.
   -9000010    2    1    2    0  502 -0.13033826786E+03 -0.84085672601E+00 -0.33590375739E+03  0.10576564252E+04  0.99439278380E+03 0.  0.
         13    1    3    3    0    0 -0.94249176950E+02  0.28670158590E+03  0.25785471337E+03  0.39695059023E+03  0.10566000000E+00 0. -1.
         -4    1    3    3    0  502 -0.36089090906E+02 -0.28754244263E+03 -0.59375847075E+03  0.66070583499E+03  0.00000000000E+00 0. -1.
        -13    1    1    2    0    0  0.13033826786E+03  0.84085672601E+00 -0.75174608222E+03  0.76296196131E+03  0.10566000000E+00 0.  1.
<mgrwt>
<rscale>  1 0.60216163E+03</rscale>
<asrwt>0</asrwt>
<pdfrwt beam="1">  1       21 0.56382196E-01 0.10028987E+04</pdfrwt>
<pdfrwt beam="2">  1       -4 0.22371294E+00 0.10028987E+04</pdfrwt>
<totfact> 0.10682736E+01</totfact>
</mgrwt>
</event>
<event>
 6    2  0.2379986E-005  0.9997238E+03  0.7818608E-02  0.9620648E-01
         21   -1    0    0  501  502  0.00000000000E+00  0.00000000000E+00  0.26384418198E+03  0.26384418198E+03  0.00000000000E+00 0. -1.
         -4   -1    0    0    0  501 -0.00000000000E+00 -0.00000000000E+00 -0.17726138600E+04  0.17726138600E+04  0.00000000000E+00 0. -1.
   -9000010    2    1    2    0  502 -0.77163105047E+02 -0.32385789465E+03 -0.13128714902E+04  0.16501755134E+04  0.94266091179E+03 0.  0.
         13    1    3    3    0    0 -0.10393797564E+03 -0.20793492299E+03  0.84800160423E+02  0.24744921368E+03  0.10566000000E+00 0. -1.
         -4    1    3    3    0  502  0.26774870597E+02 -0.11592297166E+03 -0.13976716506E+04  0.14027262997E+04  0.00000000000E+00 0. -1.
        -13    1    1    2    0    0  0.77163105047E+02  0.32385789465E+03 -0.19589818780E+03  0.38628252854E+03  0.10566000000E+00 0.  1.
<mgrwt>
<rscale>  1 0.75944479E+03</rscale>
<asrwt>0</asrwt>
<pdfrwt beam="1">  1       21 0.40591413E-01 0.99972380E+03</pdfrwt>
<pdfrwt beam="2">  1       -4 0.27270982E+00 0.99972380E+03</pdfrwt>
<totfact> 0.10741916E+01</totfact>
</mgrwt>
</event>
<event>
 6    2  0.2379986E-005  0.9990004E+03  0.7818608E-02  0.9950845E-01
         21   -1    0    0  501  502  0.00000000000E+00  0.00000000000E+00  0.10617897538E+04  0.10617897538E+04  0.00000000000E+00 0. -1.
         -4   -1    0    0    0  501 -0.00000000000E+00 -0.00000000000E+00 -0.29316054380E+03  0.29316054380E+03  0.00000000000E+00 0. -1.
   -9000010    2    1    2    0  502  0.69335896767E+02 -0.88474607639E+02  0.72509193949E+03  0.12344068288E+04  0.99265637334E+03 0.  0.
         13    1    3    3    0    0  0.25606726124E+03 -0.47620571652E+03  0.25735263758E+03  0.59880941706E+03  0.10566000000E+00 0. -1.
         -4    1    3    3    0  502 -0.18673136448E+03  0.38773110888E+03  0.46773930191E+03  0.63559741175E+03  0.00000000000E+00 0. -1.
        -13    1    1    2    0    0 -0.69335896767E+02  0.88474607639E+02  0.43537270502E+02  0.12054346877E+03  0.10566000000E+00 0.  1.
<mgrwt>
<rscale>  1 0.57859167E+03</rscale>
<asrwt>0</asrwt>
<pdfrwt beam="1">  1       21 0.16335227E+00 0.99900045E+03</pdfrwt>
<pdfrwt beam="2">  1       -4 0.45101622E-01 0.99900045E+03</pdfrwt>
<totfact> 0.40739222E+01</totfact>
</mgrwt>
</event>
<event>
 6    2  0.2379986E-005  0.1008415E+04  0.7818608E-02  0.9897799E-01
         21   -1    0    0  501  502  0.00000000000E+00  0.00000000000E+00  0.86426751504E+03  0.86426751504E+03  0.00000000000E+00 0. -1.
         -4   -1    0    0    0  501 -0.00000000000E+00 -0.00000000000E+00 -0.43333300435E+03  0.43333300435E+03  0.00000000000E+00 0. -1.
   -9000010    2    1    2    0  502 -0.11348053900E+03 -0.62414923176E+02  0.52560807726E+03  0.11371743659E+04  0.10000641140E+04 0.  0.
         13    1    3    3    0    0  0.19873220500E+02 -0.30113533033E+03 -0.19980320077E+03  0.36193751156E+03  0.10566000000E+00 0. -1.
         -4    1    3    3    0  502 -0.13335375950E+03  0.23872040716E+03  0.72541127803E+03  0.77523685430E+03  0.00000000000E+00 0. -1.
        -13    1    1    2    0    0  0.11348053900E+03  0.62414923176E+02 -0.94673566568E+02  0.16042615353E+03  0.10566000000E+00 0.  1.
<mgrwt>
<rscale>  1 0.60368094E+03</rscale>
<asrwt>0</asrwt>
<pdfrwt beam="1">  1       21 0.13296423E+00 0.10084154E+04</pdfrwt>
<pdfrwt beam="2">  1       -4 0.66666616E-01 0.10084154E+04</pdfrwt>
<totfact> 0.31150174E+01</totfact>
</mgrwt>
</event>
<event>
 6    2  0.2379986E-005  0.1040842E+04  0.7818608E-02  0.9741369E-01
         21   -1    0    0  501  502  0.00000000000E+00  0.00000000000E+00  0.36106145366E+04  0.36106145366E+04  0.00000000000E+00 0. -1.
         -4   -1    0    0    0  501 -0.00000000000E+00 -0.00000000000E+00 -0.13821172817E+03  0.13821172817E+03  0.00000000000E+00 0. -1.
   -9000010    2    1    2    0  502  0.13517539835E+03 -0.14257826321E+03  0.33703959093E+04  0.35274524449E+04  0.10221307238E+04 0.  0.
         13    1    3    3    0    0 -0.70233225116E+01 -0.49949240323E+03  0.91773573296E+03  0.10448831871E+04  0.10566000000E+00 0. -1.
         -4    1    3    3    0  502  0.14219872086E+03  0.35691414002E+03  0.24526601763E+04  0.24825692578E+04  0.00000000000E+00 0. -1.
        -13    1    1    2    0    0 -0.13517539835E+03  0.14257826321E+03  0.10200689912E+03  0.22137381979E+03  0.10566000000E+00 0.  1.
<mgrwt>
<rscale>  1 0.68606203E+03</rscale>
<asrwt>0</asrwt>
<pdfrwt beam="1">  1       21 0.55547909E+00 0.10408420E+04</pdfrwt>
<pdfrwt beam="2">  1       -4 0.21263346E-01 0.10408420E+04</pdfrwt>
<totfact> 0.40912726E-01</totfact>
</mgrwt>
</event>
<event>
 6    2  0.2379986E-005  0.9956466E+03  0.7818608E-02  0.9784754E-01
         -4   -1    0    0    0  501 -0.00000000000E+00  0.00000000000E+00  0.63303292303E+03  0.63303292303E+03  0.00000000000E+00 0. -1.
         21   -1    0    0  501  502  0.00000000000E+00 -0.00000000000E+00 -0.12614035431E+04  0.12614035431E+04  0.00000000000E+00 0. -1.
   -9000010    2    1    2    0  502 -0.11704319938E+03  0.15526337416E+03 -0.10396520457E+04  0.14395098258E+04  0.97647649057E+03 0.  0.
         13    1    3    3    0    0  0.14367682304E+03  0.47374098284E+03 -0.85592738406E+03  0.98877967528E+03  0.10566000000E+00 0. -1.
         -4    1    3    3    0  502 -0.26072002243E+03 -0.31847760867E+03 -0.18372466166E+03  0.45073015056E+03  0.00000000000E+00 0. -1.
        -13    1    1    2    0    0  0.11704319938E+03 -0.15526337416E+03  0.41128142561E+03  0.45492664034E+03  0.10566000000E+00 0.  1.
<mgrwt>
<rscale>  1 0.66187164E+03</rscale>
<asrwt>0</asrwt>
<pdfrwt beam="2">  1       21 0.19406208E+00 0.99564661E+03</pdfrwt>
<pdfrwt beam="1">  1       -4 0.97389681E-01 0.99564661E+03</pdfrwt>
<totfact> 0.43977782E+00</totfact>
</mgrwt>
</event>
<event>
 6    2  0.2379986E-005  0.8527430E+03  0.7818608E-02  0.9818430E-01
         -4   -1    0    0    0  501 -0.00000000000E+00  0.00000000000E+00  0.57436305456E+03  0.57436305456E+03  0.00000000000E+00 0. -1.
         21   -1    0    0  501  502  0.00000000000E+00 -0.00000000000E+00 -0.55621552950E+03  0.55621552950E+03  0.00000000000E+00 0.  1.
   -9000010    2    1    2    0  502 -0.24535831325E+03  0.12876222561E+03  0.29503105700E+02  0.85325319214E+03  0.80646770798E+03 0.  0.
         13    1    3    3    0    0 -0.12709134992E+02 -0.22838423510E+03 -0.25363569557E+03  0.34154349384E+03  0.10566000000E+00 0. -1.
         -4    1    3    3    0  502 -0.23264917826E+03  0.35714646072E+03  0.28313880127E+03  0.51170969830E+03  0.00000000000E+00 0. -1.
        -13    1    1    2    0    0  0.24535831325E+03 -0.12876222561E+03 -0.11355580642E+02  0.27732539192E+03  0.10566000000E+00 0.  1.
<mgrwt>
<rscale>  1 0.64382818E+03</rscale>
<asrwt>0</asrwt>
<pdfrwt beam="2">  1       21 0.85571620E-01 0.85274297E+03</pdfrwt>
<pdfrwt beam="1">  1       -4 0.88363547E-01 0.85274297E+03</pdfrwt>
<totfact> 0.50463389E+01</totfact>
</mgrwt>
</event>
<event>
 6    2  0.2379986E-005  0.9944543E+03  0.7818608E-02  0.9927152E-01
         -4   -1    0    0    0  501 -0.00000000000E+00  0.00000000000E+00  0.74795118911E+03  0.74795118911E+03  0.00000000000E+00 0. -1.
         21   -1    0    0  501  502  0.00000000000E+00 -0.00000000000E+00 -0.10849804475E+04  0.10849804475E+04  0.00000000000E+00 0. -1.
   -9000010    2    1    2    0  502  0.12221412939E+03 -0.13017826136E+02 -0.84828742493E+03  0.13071078247E+04  0.98683005272E+03 0.  0.
         13    1    3    3    0    0  0.49637955855E+03  0.14678511022E+03 -0.70736960673E+03  0.87653311770E+03  0.10566000000E+00 0. -1.
         -4    1    3    3    0  502 -0.37416542916E+03 -0.15980293636E+03 -0.14091781819E+03  0.43057470703E+03  0.00000000000E+00 0. -1.
        -13    1    1    2    0    0 -0.12221412939E+03  0.13017826136E+02  0.51125816650E+03  0.52582381193E+03  0.10566000000E+00 0.  1.
<mgrwt>
<rscale>  1 0.58963257E+03</rscale>
<asrwt>0</asrwt>
<pdfrwt beam="2">  1       21 0.16692007E+00 0.99445428E+03</pdfrwt>
<pdfrwt beam="1">  1       -4 0.11506941E+00 0.99445428E+03</pdfrwt>
<totfact> 0.46040707E+00</totfact>
</mgrwt>
</event>
<event>
 6    2  0.2379986E-005  0.1038331E+04  0.7818608E-02  0.9613776E-01
         -4   -1    0    0    0  501 -0.00000000000E+00  0.00000000000E+00  0.87069498454E+03  0.87069498454E+03  0.00000000000E+00 0. -1.
         21   -1    0    0  501  502  0.00000000000E+00 -0.00000000000E+00 -0.18226066782E+04  0.18226066782E+04  0.00000000000E+00 0. -1.
   -9000010    2    1    2    0  502 -0.21715120447E+02 -0.30342733402E+03 -0.16399455805E+04  0.19410182494E+04  0.99276917958E+03 0.  0.
         13    1    3    3    0    0  0.38902667058E+03 -0.44048902759E+03 -0.11161921429E+04  0.12614504528E+04  0.10566000000E+00 0. -1.
         -4    1    3    3    0  502 -0.41074179103E+03  0.13706169357E+03 -0.52375343764E+03  0.67956779660E+03  0.00000000000E+00 0. -1.
        -13    1    1    2    0    0  0.21715120447E+02  0.30342733402E+03  0.68803388682E+03  0.75228341339E+03  0.10566000000E+00 0.  1.
<mgrwt>
<rscale>  1 0.76391096E+03</rscale>
<asrwt>0</asrwt>
<pdfrwt beam="2">  1       21 0.28040102E+00 0.10383306E+04</pdfrwt>
<pdfrwt beam="1">  1       -4 0.13395308E+00 0.10383306E+04</pdfrwt>
<totfact> 0.54212484E-01</totfact>
</mgrwt>
</event>
<event>
 6    2  0.2379986E-005  0.1049826E+04  0.7818608E-02  0.9603594E-01
         21   -1    0    0  501  502  0.00000000000E+00  0.00000000000E+00  0.50261856899E+03  0.50261856899E+03  0.00000000000E+00 0. -1.
         -4   -1    0    0    0  501 -0.00000000000E+00 -0.00000000000E+00 -0.10164623170E+04  0.10164623170E+04  0.00000000000E+00 0. -1.
   -9000010    2    1    2    0  502 -0.91429772158E+02  0.29070611865E+03 -0.17665310539E+03  0.10645844709E+04  0.10046214837E+04 0.  0.
         13    1    3    3    0    0  0.20308365968E+03  0.34862000364E+03 -0.48728267085E+03  0.63263203542E+03  0.10566000000E+00 0. -1.
         -4    1    3    3    0  502 -0.29451343184E+03 -0.57913884994E+02  0.31062956546E+03  0.43195243551E+03  0.00000000000E+00 0. -1.
        -13    1    1    2    0    0  0.91429772158E+02 -0.29070611865E+03 -0.33719064260E+03  0.45449641504E+03  0.10566000000E+00 0.  1.
<mgrwt>
<rscale>  1 0.77058754E+03</rscale>
<asrwt>0</asrwt>
<pdfrwt beam="1">  1       21 0.77325934E-01 0.10498256E+04</pdfrwt>
<pdfrwt beam="2">  1       -4 0.15637882E+00 0.10498256E+04</pdfrwt>
<totfact> 0.14998497E+01</totfact>
</mgrwt>
</event>
<event>
 6    2  0.2379986E-005  0.1003072E+04  0.7818608E-02  0.1002514E+00
         -4   -1    0    0    0  501 -0.00000000000E+00  0.00000000000E+00  0.10814338753E+04  0.10814338753E+04  0.00000000000E+00 0. -1.
         21   -1    0    0  501  502  0.00000000000E+00 -0.00000000000E+00 -0.27514537840E+03  0.27514537840E+03  0.00000000000E+00 0. -1.
   -9000010    2    1    2    0  502  0.58196012397E+02  0.65758013374E+02  0.73679737128E+03  0.12445974700E+04  0.99922049806E+03 0.  0.
         13    1    3    3    0    0  0.46887699621E+03  0.12318576770E+03  0.66625455766E+03  0.82396329876E+03  0.10566000000E+00 0. -1.
         -4    1    3    3    0  502 -0.41068098382E+03 -0.57427754323E+02  0.70542813623E+02  0.42063417121E+03  0.00000000000E+00 0. -1.
        -13    1    1    2    0    0 -0.58196012397E+02 -0.65758013374E+02  0.69491125607E+02  0.11198178372E+03  0.10566000000E+00 0.  1.
<mgrwt>
<rscale>  1 0.54561599E+03</rscale>
<asrwt>0</asrwt>
<pdfrwt beam="2">  1       21 0.42330059E-01 0.10030715E+04</pdfrwt>
<pdfrwt beam="1">  1       -4 0.16637444E+00 0.10030715E+04</pdfrwt>
<totfact> 0.48231937E+01</totfact>
</mgrwt>
</event>
<event>
 6    2  0.2379986E-005  0.1045177E+04  0.7818608E-02  0.9648854E-01
         -4   -1    0    0    0  501 -0.00000000000E+00  0.00000000000E+00  0.49132414750E+03  0.49132414750E+03  0.00000000000E+00 0. -1.
         21   -1    0    0  501  502  0.00000000000E+00 -0.00000000000E+00 -0.87334107456E+03  0.87334107456E+03  0.00000000000E+00 0. -1.
   -9000010    2    1    2    0  502  0.42067498338E+02 -0.26134349867E+03 -0.29473191204E+03  0.10859381446E+04  0.10111007146E+04 0.  0.
         13    1    3    3    0    0 -0.18056709788E+03  0.12999597627E+03  0.27886155142E+03  0.35674529669E+03  0.10566000000E+00 0. -1.
         -4    1    3    3    0  502  0.22263459622E+03 -0.39133947495E+03 -0.57359346346E+03  0.72919284788E+03  0.00000000000E+00 0. -1.
        -13    1    1    2    0    0 -0.42067498338E+02  0.26134349867E+03 -0.87285015015E+02  0.27872707749E+03  0.10566000000E+00 0.  1.
<mgrwt>
<rscale>  1 0.74145365E+03</rscale>
<asrwt>0</asrwt>
<pdfrwt beam="2">  1       21 0.13436016E+00 0.10451769E+04</pdfrwt>
<pdfrwt beam="1">  1       -4 0.75588332E-01 0.10451769E+04</pdfrwt>
<totfact> 0.22762222E+01</totfact>
</mgrwt>
</event>
<event>
 6    2  0.2379986E-005  0.1018226E+04  0.7818608E-02  0.9866915E-01
         21   -1    0    0  501  502  0.00000000000E+00  0.00000000000E+00  0.52277884764E+03  0.52277884764E+03  0.00000000000E+00 0. -1.
         -4   -1    0    0    0  501 -0.00000000000E+00 -0.00000000000E+00 -0.66581950150E+03  0.66581950150E+03  0.00000000000E+00 0. -1.
   -9000010    2    1    2    0  502 -0.70834346046E+02 -0.11959260008E+03 -0.20121973204E+03  0.10379175246E+04  0.10086939639E+04 0.  0.
         13    1    3    3    0    0 -0.16396096397E+03  0.42449511826E+03 -0.14840274962E+02  0.45530160120E+03  0.10566000000E+00 0. -1.
         -4    1    3    3    0  502  0.93126617925E+02 -0.54408771834E+03 -0.18637945708E+03  0.58261592343E+03  0.00000000000E+00 0. -1.
        -13    1    1    2    0    0  0.70834346046E+02  0.11959260008E+03  0.58179078181E+02  0.15068082451E+03  0.10566000000E+00 0.  1.
<mgrwt>
<rscale>  1 0.61891883E+03</rscale>
<asrwt>0</asrwt>
<pdfrwt beam="1">  1       21 0.80427515E-01 0.10182256E+04</pdfrwt>
<pdfrwt beam="2">  1       -4 0.10243377E+00 0.10182256E+04</pdfrwt>
<totfact> 0.40517907E+01</totfact>
</mgrwt>
</event>
<event>
 6    2  0.2379986E-005  0.1024616E+04  0.7818608E-02  0.9698659E-01
         -4   -1    0    0    0  501 -0.00000000000E+00  0.00000000000E+00  0.70281811071E+03  0.70281811071E+03  0.00000000000E+00 0. -1.
         21   -1    0    0  501  502  0.00000000000E+00 -0.00000000000E+00 -0.65325876842E+03  0.65325876842E+03  0.00000000000E+00 0. -1.
   -9000010    2    1    2    0  502 -0.63963385487E+02  0.22875319576E+03 -0.16279057338E+03  0.10374676559E+04  0.99670408201E+03 0.  0.
         13    1    3    3    0    0  0.16898792177E+03 -0.16908568181E+03 -0.43912011924E+03  0.49997337507E+03  0.10566000000E+00 0. -1.
         -4    1    3    3    0  502 -0.23295130726E+03  0.39783887756E+03  0.27632954586E+03  0.53749428087E+03  0.00000000000E+00 0. -1.
        -13    1    1    2    0    0  0.63963385487E+02 -0.22875319576E+03  0.21234991567E+03  0.31860922319E+03  0.10566000000E+00 0.  1.
<mgrwt>
<rscale>  1 0.71096697E+03</rscale>
<asrwt>0</asrwt>
<pdfrwt beam="2">  1       21 0.10050135E+00 0.10246162E+04</pdfrwt>
<pdfrwt beam="1">  1       -4 0.10812586E+00 0.10246162E+04</pdfrwt>
<totfact> 0.20712025E+01</totfact>
</mgrwt>
</event>
<event>
 6    2  0.2379986E-005  0.1010314E+04  0.7818608E-02  0.9751135E-01
         21   -1    0    0  501  502  0.00000000000E+00  0.00000000000E+00  0.14768070969E+04  0.14768070969E+04  0.00000000000E+00 0. -1.
         -4   -1    0    0    0  501 -0.00000000000E+00 -0.00000000000E+00 -0.25321220678E+03  0.25321220678E+03  0.00000000000E+00 0. -1.
   -9000010    2    1    2    0  502  0.20796798108E+03 -0.61815547213E+00  0.95418889203E+03  0.13896802577E+04  0.98867776025E+03 0.  0.
         13    1    3    3    0    0  0.47140799224E+03 -0.45113166410E+02  0.85993584738E+02  0.48130614032E+03  0.10566000000E+00 0. -1.
         -4    1    3    3    0  502 -0.26344001116E+03  0.44495010938E+02  0.86819530729E+03  0.90837411736E+03  0.00000000000E+00 0. -1.
        -13    1    1    2    0    0 -0.20796798108E+03  0.61815547213E+00  0.26940599812E+03  0.34033904604E+03  0.10566000000E+00 0.  1.
<mgrwt>
<rscale>  1 0.68052175E+03</rscale>
<asrwt>0</asrwt>
<pdfrwt beam="1">  1       21 0.22720109E+00 0.10103142E+04</pdfrwt>
<pdfrwt beam="2">  1       -4 0.38955725E-01 0.10103142E+04</pdfrwt>
<totfact> 0.19630561E+01</totfact>
</mgrwt>
</event>
<event>
 6    2  0.2379986E-005  0.1014673E+04  0.7818608E-02  0.9769673E-01
         21   -1    0    0  501  502  0.00000000000E+00  0.00000000000E+00  0.28779121885E+03  0.28779121885E+03  0.00000000000E+00 0. -1.
         -4   -1    0    0    0  501 -0.00000000000E+00 -0.00000000000E+00 -0.16420169449E+04  0.16420169449E+04  0.00000000000E+00 0. -1.
   -9000010    2    1    2    0  502 -0.18931294026E+03 -0.37936583391E+02 -0.66288845309E+03  0.12120158471E+04  0.99613389593E+03 0.  0.
         13    1    3    3    0    0 -0.54258366294E+03 -0.80168882306E+02 -0.11762899566E+03  0.56094622984E+03  0.10566000000E+00 0. -1.
         -4    1    3    3    0  502  0.35327072269E+03  0.42232298915E+02 -0.54525945744E+03  0.65106961725E+03  0.00000000000E+00 0. -1.
        -13    1    1    2    0    0  0.18931294026E+03  0.37936583391E+02 -0.69133727295E+03  0.71779231665E+03  0.10566000000E+00 0.  1.
<mgrwt>
<rscale>  1 0.67015769E+03</rscale>
<asrwt>0</asrwt>
<pdfrwt beam="1">  1       21 0.44275572E-01 0.10146730E+04</pdfrwt>
<pdfrwt beam="2">  1       -4 0.25261799E+00 0.10146730E+04</pdfrwt>
<totfact> 0.11869876E+01</totfact>
</mgrwt>
</event>
<event>
 6    2  0.2379986E-005  0.1016481E+04  0.7818608E-02  0.9739305E-01
         -4   -1    0    0    0  501 -0.00000000000E+00  0.00000000000E+00  0.26361465173E+03  0.26361465173E+03  0.00000000000E+00 0. -1.
         21   -1    0    0  501  502  0.00000000000E+00 -0.00000000000E+00 -0.14510323985E+04  0.14510323985E+04  0.00000000000E+00 0. -1.
   -9000010    2    1    2    0  502  0.21236285223E+03  0.34867263163E+01 -0.90278453804E+03  0.13595045254E+04  0.99404350720E+03 0.  0.
         13    1    3    3    0    0 -0.33088799142E+03 -0.22772255934E+03 -0.22413237423E+03  0.45997799864E+03  0.10566000000E+00 0. -1.
         -4    1    3    3    0  502  0.54325084364E+03  0.23120928566E+03 -0.67865216381E+03  0.89952652676E+03  0.00000000000E+00 0. -1.
        -13    1    1    2    0    0 -0.21236285223E+03 -0.34867263163E+01 -0.28463320878E+03  0.35514252487E+03  0.10566000000E+00 0.  1.
<mgrwt>
<rscale>  1 0.68724032E+03</rscale>
<asrwt>0</asrwt>
<pdfrwt beam="2">  1       21 0.22323575E+00 0.10164805E+04</pdfrwt>
<pdfrwt beam="1">  1       -4 0.40556101E-01 0.10164805E+04</pdfrwt>
<totfact> 0.19183567E+01</totfact>
</mgrwt>
</event>
<event>
 6    2  0.2379986E-005  0.1045738E+04  0.7818608E-02  0.9612256E-01
         21   -1    0    0  501  502  0.00000000000E+00  0.00000000000E+00  0.72726943256E+03  0.72726943256E+03  0.00000000000E+00 0. -1.
         -4   -1    0    0    0  501 -0.00000000000E+00 -0.00000000000E+00 -0.10930441557E+04  0.10930441557E+04  0.00000000000E+00 0. -1.
   -9000010    2    1    2    0  502 -0.14601994416E+03  0.26130296328E+03  0.30203882813E+03  0.10884829978E+04  0.10019813971E+04 0.  0.
         13    1    3    3    0    0  0.22628278152E+03 -0.27357984215E+03  0.25098140928E+03  0.43478903644E+03  0.10566000000E+00 0. -1.
         -4    1    3    3    0  502 -0.37230272568E+03  0.53488280542E+03  0.51057418858E+02  0.65369396135E+03  0.00000000000E+00 0. -1.
        -13    1    1    2    0    0  0.14601994416E+03 -0.26130296328E+03 -0.66781355127E+03  0.73183059046E+03  0.10566000000E+00 0.  1.
<mgrwt>
<rscale>  1 0.76490287E+03</rscale>
<asrwt>0</asrwt>
<pdfrwt beam="1">  1       21 0.11188761E+00 0.10457379E+04</pdfrwt>
<pdfrwt beam="2">  1       -4 0.16816064E+00 0.10457379E+04</pdfrwt>
<totfact> 0.49818505E+00</totfact>
</mgrwt>
</event>
<event>
 6    2  0.2379986E-005  0.1002738E+04  0.7818608E-02  0.9857620E-01
         -4   -1    0    0    0  501 -0.00000000000E+00  0.00000000000E+00  0.27921739537E+03  0.27921739537E+03  0.00000000000E+00 0. -1.
         21   -1    0    0  501  502  0.00000000000E+00 -0.00000000000E+00 -0.12077402424E+04  0.12077402424E+04  0.00000000000E+00 0. -1.
   -9000010    2    1    2    0  502  0.13799877754E+03 -0.58762523438E+02 -0.86421566071E+03  0.13237641265E+04  0.99145653334E+03 0.  0.
         13    1    3    3    0    0  0.56151015859E+03  0.51809763302E+02 -0.45519791717E+03  0.72469515297E+03  0.10566000000E+00 0. -1.
         -4    1    3    3    0  502 -0.42351138105E+03 -0.11057228674E+03 -0.40901774353E+03  0.59906897349E+03  0.00000000000E+00 0. -1.
        -13    1    1    2    0    0 -0.13799877754E+03  0.58762523438E+02 -0.64307186352E+02  0.16319351134E+03  0.10566000000E+00 0.  1.
<mgrwt>
<rscale>  1 0.62359892E+03</rscale>
<asrwt>0</asrwt>
<pdfrwt beam="2">  1       21 0.18580619E+00 0.10027376E+04</pdfrwt>
<pdfrwt beam="1">  1       -4 0.42956523E-01 0.10027376E+04</pdfrwt>
<totfact> 0.30751534E+01</totfact>
</mgrwt>
</event>
<event>
 6    2  0.2379986E-005  0.1030419E+04  0.7818608E-02  0.9735199E-01
         -4   -1    0    0    0  501 -0.00000000000E+00  0.00000000000E+00  0.20068494931E+03  0.20068494931E+03  0.00000000000E+00 0. -1.
         21   -1    0    0  501  502  0.00000000000E+00 -0.00000000000E+00 -0.20854360421E+04  0.20854360421E+04  0.00000000000E+00 0. -1.
   -9000010    2    1    2    0  502 -0.31321616442E+02 -0.20430626312E+03 -0.17742044539E+04  0.20517224774E+04  0.10094758974E+04 0.  0.
         13    1    3    3    0    0 -0.43706841022E+03 -0.38842892030E+03 -0.10226069904E+04  0.11779774570E+04  0.10566000000E+00 0. -1.
         -4    1    3    3    0  502  0.40574679378E+03  0.18412265718E+03 -0.75159746352E+03  0.87374502042E+03  0.00000000000E+00 0. -1.
        -13    1    1    2    0    0  0.31321616442E+02  0.20430626312E+03 -0.11054663887E+03  0.23439851394E+03  0.10566000000E+00 0.  1.
<mgrwt>
<rscale>  1 0.68959170E+03</rscale>
<asrwt>0</asrwt>
<pdfrwt beam="2">  1       21 0.32083631E+00 0.10304192E+04</pdfrwt>
<pdfrwt beam="1">  1       -4 0.30874608E-01 0.10304192E+04</pdfrwt>
<totfact> 0.80059161E+00</totfact>
</mgrwt>
</event>
<event>
 6    2  0.2379986E-005  0.1008152E+04  0.7818608E-02  0.1010686E+00
         -4   -1    0    0    0  501 -0.00000000000E+00  0.00000000000E+00  0.28363323030E+03  0.28363323030E+03  0.00000000000E+00 0. -1.
         21   -1    0    0  501  502  0.00000000000E+00 -0.00000000000E+00 -0.19764118522E+04  0.19764118522E+04  0.00000000000E+00 0. -1.
   -9000010    2    1    2    0  502  0.66577475790E+02 -0.82000047060E+01 -0.18400974204E+04  0.20981727874E+04  0.10059178540E+04 0.  0.
         13    1    3    3    0    0  0.26401571068E+03 -0.40331604728E+03 -0.53391368127E+03  0.71932743566E+03  0.10566000000E+00 0. -1.
         -4    1    3    3    0  502 -0.19743823489E+03  0.39511604257E+03 -0.13061837391E+04  0.13788453517E+04  0.00000000000E+00 0. -1.
        -13    1    1    2    0    0 -0.66577475790E+02  0.82000047060E+01  0.14731879850E+03  0.16187229508E+03  0.10566000000E+00 0.  1.
<mgrwt>
<rscale>  1 0.51202812E+03</rscale>
<asrwt>0</asrwt>
<pdfrwt beam="2">  1       21 0.30406337E+00 0.10081520E+04</pdfrwt>
<pdfrwt beam="1">  1       -4 0.43635881E-01 0.10081520E+04</pdfrwt>
<totfact> 0.50929215E+00</totfact>
</mgrwt>
</event>
<event>
 6    2  0.2379986E-005  0.9967706E+03  0.7818608E-02  0.1011224E+00
         21   -1    0    0  501  502  0.00000000000E+00  0.00000000000E+00  0.81560691113E+03  0.81560691113E+03  0.00000000000E+00 0. -1.
         -4   -1    0    0    0  501 -0.00000000000E+00 -0.00000000000E+00 -0.64158026415E+03  0.64158026415E+03  0.00000000000E+00 0. -1.
   -9000010    2    1    2    0  502 -0.57102233158E+01 -0.68024329014E+02  0.50629209667E+03  0.11179818448E+04  0.99443039083E+03 0.  0.
         13    1    3    3    0    0 -0.22005617645E+03 -0.45357502863E+03  0.91313184977E+02  0.51234083998E+03  0.10566000000E+00 0. -1.
         -4    1    3    3    0  502  0.21434595313E+03  0.38555069962E+03  0.41497891169E+03  0.60564100484E+03  0.00000000000E+00 0. -1.
        -13    1    1    2    0    0  0.57102233158E+01  0.68024329014E+02 -0.33226544969E+03  0.33920533046E+03  0.10566000000E+00 0.  1.
<mgrwt>
<rscale>  1 0.50991034E+03</rscale>
<asrwt>0</asrwt>
<pdfrwt beam="1">  1       21 0.12547799E+00 0.99677064E+03</pdfrwt>
<pdfrwt beam="2">  1       -4 0.98704656E-01 0.99677064E+03</pdfrwt>
<totfact> 0.14714448E+01</totfact>
</mgrwt>
</event>
<event>
 6    2  0.2379986E-005  0.9926585E+03  0.7818608E-02  0.9857463E-01
         -4   -1    0    0    0  501 -0.00000000000E+00  0.00000000000E+00  0.99868976589E+03  0.99868976589E+03  0.00000000000E+00 0. -1.
         21   -1    0    0  501  502  0.00000000000E+00 -0.00000000000E+00 -0.92448793414E+03  0.92448793414E+03  0.00000000000E+00 0. -1.
   -9000010    2    1    2    0  502 -0.11320592635E+03 -0.10541055894E+03 -0.64744461361E+03  0.11851393738E+04  0.98053242679E+03 0.  0.
         13    1    3    3    0    0 -0.12037299204E+03 -0.51722491908E+03 -0.17676420877E+03  0.55969355079E+03  0.10566000000E+00 0. -1.
         -4    1    3    3    0  502  0.71670656858E+01  0.41181436014E+03 -0.47068040483E+03  0.62544582303E+03  0.00000000000E+00 0. -1.
        -13    1    1    2    0    0  0.11320592635E+03  0.10541055894E+03  0.72164644536E+03  0.73803832622E+03  0.10566000000E+00 0.  1.
<mgrwt>
<rscale>  1 0.62367864E+03</rscale>
<asrwt>0</asrwt>
<pdfrwt beam="2">  1       21 0.14222891E+00 0.99265845E+03</pdfrwt>
<pdfrwt beam="1">  1       -4 0.15364458E+00 0.99265845E+03</pdfrwt>
<totfact> 0.34194773E+00</totfact>
</mgrwt>
</event>
<event>
 6    2  0.2379986E-005  0.1109688E+04  0.7818608E-02  0.9441083E-01
         21   -1    0    0  501  502  0.00000000000E+00  0.00000000000E+00  0.57384997802E+03  0.57384997802E+03  0.00000000000E+00 0. -1.
         -4   -1    0    0    0  501 -0.00000000000E+00 -0.00000000000E+00 -0.12511928755E+04  0.12511928755E+04  0.00000000000E+00 0. -1.
   -9000010    2    1    2    0  502 -0.37334587818E+03 -0.25908244750E+03 -0.13560478386E+03  0.11179423979E+04  0.10123713194E+04 0.  0.
         13    1    3    3    0    0 -0.54210177353E+03 -0.43164406892E+03 -0.36651252679E+03  0.78391477761E+03  0.10566000000E+00 0. -1.
         -4    1    3    3    0  502  0.16875589535E+03  0.17256162141E+03  0.23090774293E+03  0.33402762034E+03  0.00000000000E+00 0. -1.
        -13    1    1    2    0    0  0.37334587818E+03  0.25908244750E+03 -0.54173811362E+03  0.70710045557E+03  0.10566000000E+00 0.  1.
<mgrwt>
<rscale>  1 0.88770448E+03</rscale>
<asrwt>0</asrwt>
<pdfrwt beam="1">  1       21 0.88284614E-01 0.11096876E+04</pdfrwt>
<pdfrwt beam="2">  1       -4 0.19249121E+00 0.11096876E+04</pdfrwt>
<totfact> 0.60144439E+00</totfact>
</mgrwt>
</event>
<event>
 6    2  0.2379986E-005  0.1255759E+04  0.7818608E-02  0.9197043E-01
         21   -1    0    0  501  502  0.00000000000E+00  0.00000000000E+00  0.12177044681E+04  0.12177044681E+04  0.00000000000E+00 0. -1.
         -4   -1    0    0    0  501 -0.00000000000E+00 -0.00000000000E+00 -0.88374171375E+03  0.88374171375E+03  0.00000000000E+00 0. -1.
   -9000010    2    1    2    0  502  0.49349639944E+03 -0.58086776698E+03  0.44274843311E+03  0.13315238519E+04  0.99798974656E+03 0.  0.
         13    1    3    3    0    0 -0.27569670848E+03 -0.10962979189E+03  0.29323699051E+03  0.41715142347E+03  0.10566000000E+00 0. -1.
         -4    1    3    3    0  502  0.76919310793E+03 -0.47123797510E+03  0.14951144260E+03  0.91437242846E+03  0.00000000000E+00 0. -1.
        -13    1    1    2    0    0 -0.49349639944E+03  0.58086776698E+03 -0.10878567880E+03  0.76992232989E+03  0.10566000000E+00 0.  1.
<mgrwt>
<rscale>  1 0.11084002E+04</rscale>
<asrwt>0</asrwt>
<pdfrwt beam="1">  1       21 0.18733915E+00 0.12557586E+04</pdfrwt>
<pdfrwt beam="2">  1       -4 0.13596026E+00 0.12557586E+04</pdfrwt>
<totfact> 0.20578890E+00</totfact>
</mgrwt>
</event>
<event>
 6    2  0.2379986E-005  0.1013193E+04  0.7818608E-02  0.9785170E-01
         21   -1    0    0  501  502  0.00000000000E+00  0.00000000000E+00  0.48779192432E+03  0.48779192432E+03  0.00000000000E+00 0. -1.
         -4   -1    0    0    0  501 -0.00000000000E+00 -0.00000000000E+00 -0.78066921829E+03  0.78066921829E+03  0.00000000000E+00 0. -1.
   -9000010    2    1    2    0  502 -0.12203279722E+03  0.13805289209E+03 -0.12807442653E+03  0.10212555583E+04  0.99629777280E+03 0.  0.
         13    1    3    3    0    0  0.21525424466E+03  0.36421060561E+03 -0.35833539905E+03  0.55442585119E+03  0.10566000000E+00 0. -1.
         -4    1    3    3    0  502 -0.33728704188E+03 -0.22615771352E+03  0.23026097253E+03  0.46682970715E+03  0.00000000000E+00 0. -1.
        -13    1    1    2    0    0  0.12203279722E+03 -0.13805289209E+03 -0.16480286744E+03  0.24720558427E+03  0.10566000000E+00 0.  1.
<mgrwt>
<rscale>  1 0.66164504E+03</rscale>
<asrwt>0</asrwt>
<pdfrwt beam="1">  1       21 0.75044911E-01 0.10131929E+04</pdfrwt>
<pdfrwt beam="2">  1       -4 0.12010296E+00 0.10131929E+04</pdfrwt>
<totfact> 0.32186877E+01</totfact>
</mgrwt>
</event>
<event>
 6    2  0.2379986E-005  0.9255495E+03  0.7818608E-02  0.9995532E-01
         -4   -1    0    0    0  501 -0.00000000000E+00  0.00000000000E+00  0.42974355598E+03  0.42974355598E+03  0.00000000000E+00 0. -1.
         21   -1    0    0  501  502  0.00000000000E+00 -0.00000000000E+00 -0.11893742309E+04  0.11893742309E+04  0.00000000000E+00 0. -1.
   -9000010    2    1    2    0  502  0.39015843959E+02  0.11631447443E+03 -0.99176724297E+03  0.13565560028E+04  0.91738248919E+03 0.  0.
         13    1    3    3    0    0 -0.20441448445E+03  0.43507270796E+03 -0.74187502591E+03  0.88399779858E+03  0.10566000000E+00 0. -1.
         -4    1    3    3    0  502  0.24343032841E+03 -0.31875823352E+03 -0.24989221707E+03  0.47255820423E+03  0.00000000000E+00 0. -1.
        -13    1    1    2    0    0 -0.39015843959E+02 -0.11631447443E+03  0.23213656807E+03  0.26256178405E+03  0.10566000000E+00 0.  1.
<mgrwt>
<rscale>  1 0.55846571E+03</rscale>
<asrwt>0</asrwt>
<pdfrwt beam="2">  1       21 0.18298065E+00 0.92554953E+03</pdfrwt>
<pdfrwt beam="1">  1       -4 0.66114394E-01 0.92554953E+03</pdfrwt>
<totfact> 0.12959631E+01</totfact>
</mgrwt>
</event>
<event>
 6    2  0.2379986E-005  0.1071168E+04  0.7818608E-02  0.9767338E-01
         21   -1    0    0  501  502  0.00000000000E+00  0.00000000000E+00  0.34236812989E+03  0.34236812989E+03  0.00000000000E+00 0.  1.
         -4   -1    0    0    0  501 -0.00000000000E+00 -0.00000000000E+00 -0.11675812038E+04  0.11675812038E+04  0.00000000000E+00 0. -1.
   -9000010    2    1    2    0  502 -0.11587327630E+02  0.16497502648E+03 -0.81178695777E+03  0.13440237561E+04  0.10583245092E+04 0.  0.
         13    1    3    3    0    0  0.18307671537E+03  0.37978814535E+03 -0.93757955680E+03  0.10280134024E+04  0.10566000000E+00 0. -1.
         -4    1    3    3    0  502 -0.19466404300E+03 -0.21481311887E+03  0.12579259903E+03  0.31601035370E+03  0.00000000000E+00 0. -1.
        -13    1    1    2    0    0  0.11587327630E+02 -0.16497502648E+03 -0.13426116121E+02  0.16592557754E+03  0.10566000000E+00 0.  1.
<mgrwt>
<rscale>  1 0.67145220E+03</rscale>
<asrwt>0</asrwt>
<pdfrwt beam="1">  1       21 0.52672020E-01 0.10711684E+04</pdfrwt>
<pdfrwt beam="2">  1       -4 0.17962788E+00 0.10711684E+04</pdfrwt>
<totfact> 0.24125661E+01</totfact>
</mgrwt>
</event>
<event>
 6    2  0.2379986E-005  0.9723560E+03  0.7818608E-02  0.9902889E-01
         21   -1    0    0  501  502  0.00000000000E+00  0.00000000000E+00  0.39531260616E+03  0.39531260616E+03  0.00000000000E+00 0. -1.
         -4   -1    0    0    0  501 -0.00000000000E+00 -0.00000000000E+00 -0.83266046717E+03  0.83266046717E+03  0.00000000000E+00 0. -1.
   -9000010    2    1    2    0  502  0.13269446545E+02 -0.14149480294E+03 -0.27146801205E+03  0.10095400334E+04  0.96191441410E+03 0.  0.
         13    1    3    3    0    0 -0.44659935141E+03 -0.13677611534E+03  0.15725470883E+02  0.46733926435E+03  0.10566000000E+00 0. -1.
         -4    1    3    3    0  502  0.45986879796E+03 -0.47186876002E+01 -0.28719348293E+03  0.54220076907E+03  0.00000000000E+00 0. -1.
        -13    1    1    2    0    0 -0.13269446545E+02  0.14149480294E+03 -0.16587984896E+03  0.21843303991E+03  0.10566000000E+00 0.  1.
<mgrwt>
<rscale>  1 0.60121455E+03</rscale>
<asrwt>0</asrwt>
<pdfrwt beam="1">  1       21 0.60817324E-01 0.97235600E+03</pdfrwt>
<pdfrwt beam="2">  1       -4 0.12810161E+00 0.97235600E+03</pdfrwt>
<totfact> 0.44247646E+01</totfact>
</mgrwt>
</event>
<event>
 6    2  0.2379986E-005  0.1020528E+04  0.7818608E-02  0.9770657E-01
         -4   -1    0    0    0  501 -0.00000000000E+00  0.00000000000E+00  0.76549148774E+03  0.76549148774E+03  0.00000000000E+00 0. -1.
         21   -1    0    0  501  502  0.00000000000E+00 -0.00000000000E+00 -0.48895134163E+03  0.48895134163E+03  0.00000000000E+00 0. -1.
   -9000010    2    1    2    0  502 -0.13813861778E+03  0.12922070380E+03  0.16198793327E+03  0.10333037586E+04  0.10028441050E+04 0.  0.
         13    1    3    3    0    0  0.17086589290E+03 -0.38457248300E+03  0.58097724575E+02  0.42481349414E+03  0.10566000000E+00 0. -1.
         -4    1    3    3    0  502 -0.30900451068E+03  0.51379318680E+03  0.10389020870E+03  0.60849026442E+03  0.00000000000E+00 0. -1.
        -13    1    1    2    0    0  0.13813861778E+03 -0.12922070380E+03  0.11455221284E+03  0.22113907082E+03  0.10566000000E+00 0.  1.
<mgrwt>
<rscale>  1 0.66961324E+03</rscale>
<asrwt>0</asrwt>
<pdfrwt beam="2">  1       21 0.75223283E-01 0.10205276E+04</pdfrwt>
<pdfrwt beam="1">  1       -4 0.11776792E+00 0.10205276E+04</pdfrwt>
<totfact> 0.33607472E+01</totfact>
</mgrwt>
</event>
<event>
 6    2  0.2379986E-005  0.1001085E+04  0.7818608E-02  0.9944971E-01
         21   -1    0    0  501  502  0.00000000000E+00  0.00000000000E+00  0.75903139687E+03  0.75903139687E+03  0.00000000000E+00 0. -1.
         -4   -1    0    0    0  501 -0.00000000000E+00 -0.00000000000E+00 -0.40946050413E+03  0.40946050413E+03  0.00000000000E+00 0. -1.
   -9000010    2    1    2    0  502 -0.77200680039E+02 -0.83630105359E+02  0.30971584518E+03  0.10479001289E+04  0.99459380445E+03 0.  0.
         13    1    3    3    0    0 -0.41617098428E+01  0.21900632928E+03  0.58977827192E+03  0.62914188645E+03  0.10566000000E+00 0. -1.
         -4    1    3    3    0  502 -0.73038970197E+02 -0.30263643464E+03 -0.28006242675E+03  0.41875824244E+03  0.00000000000E+00 0. -1.
        -13    1    1    2    0    0  0.77200680039E+02  0.83630105359E+02  0.39855047562E+02  0.12059177211E+03  0.10566000000E+00 0.  1.
<mgrwt>
<rscale>  1 0.58130423E+03</rscale>
<asrwt>0</asrwt>
<pdfrwt beam="1">  1       21 0.11677406E+00 0.10010848E+04</pdfrwt>
<pdfrwt beam="2">  1       -4 0.62993924E-01 0.10010848E+04</pdfrwt>
<totfact> 0.49678087E+01</totfact>
</mgrwt>
</event>
<event>
 6    2  0.2379986E-005  0.1025315E+04  0.7818608E-02  0.9738944E-01
         21   -1    0    0  501  502  0.00000000000E+00  0.00000000000E+00  0.20080608589E+04  0.20080608589E+04  0.00000000000E+00 0. -1.
         -4   -1    0    0    0  501 -0.00000000000E+00 -0.00000000000E+00 -0.21013754674E+03  0.21013754674E+03  0.00000000000E+00 0. -1.
   -9000010    2    1    2    0  502  0.97673383863E+02  0.18273086882E+03  0.17084586623E+04  0.19925114652E+04  0.10041614800E+04 0.  0.
         13    1    3    3    0    0 -0.16245958853E+03 -0.33187857590E+03  0.10709969870E+04  0.11329479531E+04  0.10566000000E+00 0. -1.
         -4    1    3    3    0  502  0.26013297240E+03  0.51460944472E+03  0.63746167526E+03  0.85956351211E+03  0.00000000000E+00 0. -1.
        -13    1    1    2    0    0 -0.97673383863E+02 -0.18273086882E+03  0.89464649878E+02  0.22568694042E+03  0.10566000000E+00 0.  1.
<mgrwt>
<rscale>  1 0.68744658E+03</rscale>
<asrwt>0</asrwt>
<pdfrwt beam="1">  1       21 0.30893243E+00 0.10253150E+04</pdfrwt>
<pdfrwt beam="2">  1       -4 0.32328855E-01 0.10253150E+04</pdfrwt>
<totfact> 0.86806614E+00</totfact>
</mgrwt>
</event>
<event>
 6    2  0.2379986E-005  0.1003195E+04  0.7818608E-02  0.9882501E-01
         -4   -1    0    0    0  501 -0.00000000000E+00  0.00000000000E+00  0.14364032961E+03  0.14364032961E+03  0.00000000000E+00 0. -1.
         21   -1    0    0  501  502  0.00000000000E+00 -0.00000000000E+00 -0.22727642630E+04  0.22727642630E+04  0.00000000000E+00 0. -1.
   -9000010    2    1    2    0  502 -0.13751734514E+03 -0.13656525302E+02 -0.18311375836E+04  0.20879332899E+04  0.99363124549E+03 0.  0.
         13    1    3    3    0    0 -0.25817785054E+02 -0.44234448697E+01 -0.19349706807E+04  0.19351479714E+04  0.10566000000E+00 0. -1.
         -4    1    3    3    0  502 -0.11169956009E+03 -0.92330804318E+01  0.10383309708E+03  0.15278531849E+03  0.00000000000E+00 0. -1.
        -13    1    1    2    0    0  0.13751734514E+03  0.13656525302E+02 -0.29798634977E+03  0.32847130272E+03  0.10566000000E+00 0.  1.
<mgrwt>
<rscale>  1 0.61116896E+03</rscale>
<asrwt>0</asrwt>
<pdfrwt beam="2">  1       21 0.34965603E+00 0.10031952E+04</pdfrwt>
<pdfrwt beam="1">  1       -4 0.22098513E-01 0.10031952E+04</pdfrwt>
<totfact> 0.10095802E+01</totfact>
</mgrwt>
</event>
<event>
 6    2  0.2379986E-005  0.1006929E+04  0.7818608E-02  0.9806102E-01
         -4   -1    0    0    0  501 -0.00000000000E+00  0.00000000000E+00  0.50283946310E+03  0.50283946310E+03  0.00000000000E+00 0. -1.
         21   -1    0    0  501  502  0.00000000000E+00 -0.00000000000E+00 -0.81302263911E+03  0.81302263911E+03  0.00000000000E+00 0. -1.
   -9000010    2    1    2    0  502 -0.17514504683E+03  0.56163223493E+01 -0.43890741135E+03  0.10984287321E+04  0.99156373132E+03 0.  0.
         13    1    3    3    0    0 -0.54582982194E+03 -0.14548464692E+03 -0.40823125658E+03  0.69695677557E+03  0.10566000000E+00 0. -1.
         -4    1    3    3    0  502  0.37068477510E+03  0.15110096927E+03 -0.30676154773E+02  0.40147195653E+03  0.00000000000E+00 0. -1.
        -13    1    1    2    0    0  0.17514504683E+03 -0.56163223493E+01  0.12872423534E+03  0.21743337010E+03  0.10566000000E+00 0.  1.
<mgrwt>
<rscale>  1 0.65036088E+03</rscale>
<asrwt>0</asrwt>
<pdfrwt beam="2">  1       21 0.12508040E+00 0.10069290E+04</pdfrwt>
<pdfrwt beam="1">  1       -4 0.77359918E-01 0.10069290E+04</pdfrwt>
<totfact> 0.26209937E+01</totfact>
</mgrwt>
</event>
<event>
 6    2  0.2379986E-005  0.9981526E+03  0.7818608E-02  0.1001970E+00
         21   -1    0    0  501  502  0.00000000000E+00  0.00000000000E+00  0.31704302485E+04  0.31704302485E+04  0.00000000000E+00 0. -1.
         -4   -1    0    0    0  501 -0.00000000000E+00 -0.00000000000E+00 -0.93736412866E+02  0.93736412866E+02  0.00000000000E+00 0. -1.
   -9000010    2    1    2    0  502  0.14849458884E+02  0.89424955852E+02  0.28643267636E+04  0.30332616731E+04  0.99402778615E+03 0.  0.
         13    1    3    3    0    0 -0.11795013074E+03  0.50481559346E+03  0.19871273584E+04  0.20536373016E+04  0.10566000000E+00 0. -1.
         -4    1    3    3    0  502  0.13279958962E+03 -0.41539063760E+03  0.87719940527E+03  0.97962437159E+03  0.00000000000E+00 0. -1.
        -13    1    1    2    0    0 -0.14849458884E+02 -0.89424955852E+02  0.21236707197E+03  0.23090498821E+03  0.10566000000E+00 0.  1.
<mgrwt>
<rscale>  1 0.54794770E+03</rscale>
<asrwt>0</asrwt>
<pdfrwt beam="1">  1       21 0.48775842E+00 0.99815258E+03</pdfrwt>
<pdfrwt beam="2">  1       -4 0.14420989E-01 0.99815258E+03</pdfrwt>
<totfact> 0.26465397E+00</totfact>
</mgrwt>
</event>
<event>
 6    2  0.2379986E-005  0.9993514E+03  0.7818608E-02  0.9917989E-01
         21   -1    0    0  501  502  0.00000000000E+00  0.00000000000E+00  0.76427488905E+03  0.76427488905E+03  0.00000000000E+00 0. -1.
         -4   -1    0    0    0  501 -0.00000000000E+00 -0.00000000000E+00 -0.49341692948E+03  0.49341692948E+03  0.00000000000E+00 0. -1.
   -9000010    2    1    2    0  502 -0.64867165185E+02 -0.10651583283E+03  0.40158267173E+03  0.10770199245E+04  0.99153915897E+03 0.  0.
         13    1    3    3    0    0 -0.38080357253E+03 -0.34888100928E+03  0.43798086558E+03  0.67716805098E+03  0.10566000000E+00 0. -1.
         -4    1    3    3    0  502  0.31593640734E+03  0.24236517645E+03 -0.36398193845E+02  0.39985187352E+03  0.00000000000E+00 0. -1.
        -13    1    1    2    0    0  0.64867165185E+02  0.10651583283E+03 -0.13072471216E+03  0.18067189404E+03  0.10566000000E+00 0.  1.
<mgrwt>
<rscale>  1 0.59397311E+03</rscale>
<asrwt>0</asrwt>
<pdfrwt beam="1">  1       21 0.11758075E+00 0.99935143E+03</pdfrwt>
<pdfrwt beam="2">  1       -4 0.75910297E-01 0.99935143E+03</pdfrwt>
<totfact> 0.32177310E+01</totfact>
</mgrwt>
</event>
<event>
 6    2  0.2379986E-005  0.1083417E+04  0.7818608E-02  0.9472614E-01
         21   -1    0    0  501  502  0.00000000000E+00  0.00000000000E+00  0.40992967692E+03  0.40992967692E+03  0.00000000000E+00 0.  1.
         -4   -1    0    0    0  501 -0.00000000000E+00 -0.00000000000E+00 -0.16128330813E+04  0.16128330813E+04  0.00000000000E+00 0. -1.
   -9000010    2    1    2    0  502  0.17912735527E+03  0.39842977288E+03 -0.11545012049E+04  0.15832452075E+04  0.99144312068E+03 0.  0.
         13    1    3    3    0    0  0.21036401215E+03  0.38515827031E+03 -0.13320496065E+04  0.14024821126E+04  0.10566000000E+00 0. -1.
         -4    1    3    3    0  502 -0.31236656876E+02  0.13271502575E+02  0.17754840167E+03  0.18076309482E+03  0.00000000000E+00 0. -1.
        -13    1    1    2    0    0 -0.17912735527E+03 -0.39842977288E+03 -0.48402199477E+02  0.43951755074E+03  0.10566000000E+00 0.  1.
<mgrwt>
<rscale>  1 0.86333320E+03</rscale>
<asrwt>0</asrwt>
<pdfrwt beam="1">  1       21 0.63066103E-01 0.10834170E+04</pdfrwt>
<pdfrwt beam="2">  1       -4 0.24812817E+00 0.10834170E+04</pdfrwt>
<totfact> 0.57946563E+00</totfact>
</mgrwt>
</event>
<event>
 6    2  0.2379986E-005  0.9928755E+03  0.7818608E-02  0.9890865E-01
         -4   -1    0    0    0  501 -0.00000000000E+00  0.00000000000E+00  0.23180046483E+03  0.23180046483E+03  0.00000000000E+00 0. -1.
         21   -1    0    0  501  502  0.00000000000E+00 -0.00000000000E+00 -0.13900833934E+04  0.13900833934E+04  0.00000000000E+00 0. -1.
   -9000010    2    1    2    0  502 -0.13574821627E+03  0.28722441437E+02 -0.10563248188E+04  0.14496978420E+04  0.98313231737E+03 0.  0.
         13    1    3    3    0    0  0.19403353928E+03  0.38035904473E+03 -0.21032137810E+03  0.47598015770E+03  0.10566000000E+00 0. -1.
         -4    1    3    3    0  502 -0.32978175556E+03 -0.35163660329E+03 -0.84600344068E+03  0.97371768430E+03  0.00000000000E+00 0. -1.
        -13    1    1    2    0    0  0.13574821627E+03 -0.28722441437E+02 -0.10195810977E+03  0.17218601620E+03  0.10566000000E+00 0.  1.
<mgrwt>
<rscale>  1 0.60706077E+03</rscale>
<asrwt>0</asrwt>
<pdfrwt beam="2">  1       21 0.21385898E+00 0.99287548E+03</pdfrwt>
<pdfrwt beam="1">  1       -4 0.35661611E-01 0.99287548E+03</pdfrwt>
<totfact> 0.28800798E+01</totfact>
</mgrwt>
</event>
<event>
 6    2  0.2379986E-005  0.1026142E+04  0.7818608E-02  0.9591144E-01
         21   -1    0    0  501  502  0.00000000000E+00  0.00000000000E+00  0.10226289672E+04  0.10226289672E+04  0.00000000000E+00 0. -1.
         -4   -1    0    0    0  501 -0.00000000000E+00 -0.00000000000E+00 -0.63858881053E+03  0.63858881053E+03  0.00000000000E+00 0. -1.
   -9000010    2    1    2    0  502  0.15709694326E+03 -0.30216379251E+03  0.66240083914E+03  0.12213688403E+04  0.96797963060E+03 0.  0.
         13    1    3    3    0    0 -0.40484415221E+03 -0.11414812073E+03  0.18105132306E+03  0.45793905030E+03  0.10566000000E+00 0. -1.
         -4    1    3    3    0  502  0.56194109547E+03 -0.18801567178E+03  0.48134951609E+03  0.76342979000E+03  0.00000000000E+00 0. -1.
        -13    1    1    2    0    0 -0.15709694326E+03  0.30216379251E+03 -0.27836068245E+03  0.43984893746E+03  0.10566000000E+00 0.  1.
<mgrwt>
<rscale>  1 0.77885130E+03</rscale>
<asrwt>0</asrwt>
<pdfrwt beam="1">  1       21 0.15732753E+00 0.10261418E+04</pdfrwt>
<pdfrwt beam="2">  1       -4 0.98244432E-01 0.10261418E+04</pdfrwt>
<totfact> 0.80005455E+00</totfact>
</mgrwt>
</event>
<event>
 6    2  0.2379986E-005  0.1075086E+04  0.7818608E-02  0.9534192E-01
         -4   -1    0    0    0  501 -0.00000000000E+00  0.00000000000E+00  0.30934807424E+03  0.30934807424E+03  0.00000000000E+00 0. -1.
         21   -1    0    0  501  502  0.00000000000E+00 -0.00000000000E+00 -0.16868743947E+04  0.16868743947E+04  0.00000000000E+00 0. -1.
   -9000010    2    1    2    0  502 -0.22133267671E+03 -0.28452877223E+03 -0.11249749325E+04  0.15560781850E+04  0.10128504050E+04 0.  0.
         13    1    3    3    0    0 -0.54090328208E+03 -0.85358425643E+02 -0.10318921108E+04  0.11681882386E+04  0.10566000000E+00 0. -1.
         -4    1    3    3    0  502  0.31957060537E+03 -0.19917034659E+03 -0.93082821735E+02  0.38788994635E+03  0.00000000000E+00 0. -1.
        -13    1    1    2    0    0  0.22133267671E+03  0.28452877223E+03 -0.25255138796E+03  0.44014428399E+03  0.10566000000E+00 0.  1.
<mgrwt>
<rscale>  1 0.81809244E+03</rscale>
<asrwt>0</asrwt>
<pdfrwt beam="2">  1       21 0.25951914E+00 0.10750864E+04</pdfrwt>
<pdfrwt beam="1">  1       -4 0.47592011E-01 0.10750864E+04</pdfrwt>
<totfact> 0.79846560E+00</totfact>
</mgrwt>
</event>
<event>
 6    2  0.2379986E-005  0.1034934E+04  0.7818608E-02  0.9704615E-01
         -4   -1    0    0    0  501 -0.00000000000E+00  0.00000000000E+00  0.12190417013E+04  0.12190417013E+04  0.00000000000E+00 0. -1.
         21   -1    0    0  501  502  0.00000000000E+00 -0.00000000000E+00 -0.32628512918E+03  0.32628512918E+03  0.00000000000E+00 0. -1.
   -9000010    2    1    2    0  502  0.50355195334E+01  0.22588133014E+03  0.71611398343E+03  0.12585336174E+04  0.10099702457E+04 0.  0.
         13    1    3    3    0    0  0.46197123340E+03 -0.45149563447E+02  0.16391986146E+03  0.49226581815E+03  0.10566000000E+00 0. -1.
         -4    1    3    3    0  502 -0.45693571387E+03  0.27103089358E+03  0.55219412197E+03  0.76626779929E+03  0.00000000000E+00 0. -1.
        -13    1    1    2    0    0 -0.50355195334E+01 -0.22588133014E+03  0.17664258873E+03  0.28679321310E+03  0.10566000000E+00 0.  1.
<mgrwt>
<rscale>  1 0.70742670E+03</rscale>
<asrwt>0</asrwt>
<pdfrwt beam="2">  1       21 0.50197713E-01 0.10349336E+04</pdfrwt>
<pdfrwt beam="1">  1       -4 0.18754487E+00 0.10349336E+04</pdfrwt>
<totfact> 0.23694254E+01</totfact>
</mgrwt>
</event>
<event>
 6    2  0.2379986E-005  0.1060656E+04  0.7818608E-02  0.9803600E-01
         21   -1    0    0  501  502  0.00000000000E+00  0.00000000000E+00  0.36023648108E+03  0.36023648108E+03  0.00000000000E+00 0. -1.
         -4   -1    0    0    0  501 -0.00000000000E+00 -0.00000000000E+00 -0.11913543674E+04  0.11913543674E+04  0.00000000000E+00 0. -1.
   -9000010    2    1    2    0  502  0.10704106028E+03  0.10674202475E+03 -0.47003134601E+03  0.11601382342E+04  0.10498283707E+04 0.  0.
         13    1    3    3    0    0  0.48495170929E+03 -0.15043964722E+03 -0.48583945299E+03  0.70274478514E+03  0.10566000000E+00 0. -1.
         -4    1    3    3    0  502 -0.37791064901E+03  0.25718167197E+03  0.15808106977E+02  0.45739344910E+03  0.00000000000E+00 0. -1.
        -13    1    1    2    0    0 -0.10704106028E+03 -0.10674202475E+03 -0.36108654028E+03  0.39145261421E+03  0.10566000000E+00 0.  1.
<mgrwt>
<rscale>  1 0.65169689E+03</rscale>
<asrwt>0</asrwt>
<pdfrwt beam="1">  1       21 0.55420997E-01 0.10606560E+04</pdfrwt>
<pdfrwt beam="2">  1       -4 0.18328529E+00 0.10606560E+04</pdfrwt>
<totfact> 0.20372262E+01</totfact>
</mgrwt>
</event>
<event>
 6    2  0.2379986E-005  0.1082259E+04  0.7818608E-02  0.9437592E-01
         -4   -1    0    0    0  501 -0.00000000000E+00  0.00000000000E+00  0.24558097926E+03  0.24558097926E+03  0.00000000000E+00 0. -1.
         21   -1    0    0  501  502  0.00000000000E+00 -0.00000000000E+00 -0.26094738607E+04  0.26094738607E+04  0.00000000000E+00 0. -1.
   -9000010    2    1    2    0  502  0.31323929274E+03 -0.38453454820E+03 -0.18320663031E+04  0.21278511588E+04  0.96192408322E+03 0.  0.
         13    1    3    3    0    0  0.54554195585E+03 -0.53942626952E+03 -0.15577940723E+04  0.17364674223E+04  0.10566000000E+00 0. -1.
         -4    1    3    3    0  502 -0.23230266311E+03  0.15489172133E+03 -0.27427223077E+03  0.39138373650E+03  0.00000000000E+00 0. -1.
        -13    1    1    2    0    0 -0.31323929274E+03  0.38453454820E+03 -0.53182657840E+03  0.72720368118E+03  0.10566000000E+00 0.  1.
<mgrwt>
<rscale>  1 0.89045506E+03</rscale>
<asrwt>0</asrwt>
<pdfrwt beam="2">  1       21 0.40145751E+00 0.10822586E+04</pdfrwt>
<pdfrwt beam="1">  1       -4 0.37781689E-01 0.10822586E+04</pdfrwt>
<totfact> 0.16200718E+00</totfact>
</mgrwt>
</event>
<event>
 6    2  0.2379986E-005  0.1019805E+04  0.7818608E-02  0.9718098E-01
         21   -1    0    0  501  502  0.00000000000E+00  0.00000000000E+00  0.12538800760E+04  0.12538800760E+04  0.00000000000E+00 0. -1.
         -4   -1    0    0    0  501 -0.00000000000E+00 -0.00000000000E+00 -0.42918252319E+03  0.42918252319E+03  0.00000000000E+00 0. -1.
   -9000010    2    1    2    0  502 -0.21732074645E+03  0.61028494894E+02  0.97578408065E+03  0.14114379793E+04  0.99450983577E+03 0.  0.
         13    1    3    3    0    0 -0.54201721292E+03  0.15416454138E+03  0.26134477005E+03  0.62116862841E+03  0.10566000000E+00 0. -1.
         -4    1    3    3    0  502  0.32469646647E+03 -0.93136046489E+02  0.71443931060E+03  0.79026935094E+03  0.00000000000E+00 0. -1.
        -13    1    1    2    0    0  0.21732074645E+03 -0.61028494894E+02 -0.15108652786E+03  0.27162461982E+03  0.10566000000E+00 0.  1.
<mgrwt>
<rscale>  1 0.69949387E+03</rscale>
<asrwt>0</asrwt>
<pdfrwt beam="1">  1       21 0.19290463E+00 0.10198052E+04</pdfrwt>
<pdfrwt beam="2">  1       -4 0.66028081E-01 0.10198052E+04</pdfrwt>
<totfact> 0.10918835E+01</totfact>
</mgrwt>
</event>
<event>
 6    2  0.2379986E-005  0.9656447E+03  0.7818608E-02  0.1003873E+00
         21   -1    0    0  501  502  0.00000000000E+00  0.00000000000E+00  0.80295373862E+03  0.80295373862E+03  0.00000000000E+00 0. -1.
         -4   -1    0    0    0  501 -0.00000000000E+00 -0.00000000000E+00 -0.41200670175E+03  0.41200670175E+03  0.00000000000E+00 0. -1.
   -9000010    2    1    2    0  502 -0.60730487629E+01  0.94125423076E+02  0.48600278353E+03  0.10810497114E+04  0.96102720865E+03 0.  0.
         13    1    3    3    0    0 -0.28320394809E+03  0.42157316920E+03  0.13167676909E+03  0.52465912351E+03  0.10566000000E+00 0. -1.
         -4    1    3    3    0  502  0.27713089932E+03 -0.32744774613E+03  0.35432601444E+03  0.55639058791E+03  0.00000000000E+00 0. -1.
        -13    1    1    2    0    0  0.60730487629E+01 -0.94125423076E+02 -0.95055746664E+02  0.13391072895E+03  0.10566000000E+00 0.  1.
<mgrwt>
<rscale>  1 0.53984038E+03</rscale>
<asrwt>0</asrwt>
<pdfrwt beam="1">  1       21 0.12353134E+00 0.96564474E+03</pdfrwt>
<pdfrwt beam="2">  1       -4 0.63385647E-01 0.96564474E+03</pdfrwt>
<totfact> 0.42479934E+01</totfact>
</mgrwt>
</event>
<event>
 6    2  0.2379986E-005  0.1021038E+04  0.7818608E-02  0.9977529E-01
         21   -1    0    0  501  502  0.00000000000E+00  0.00000000000E+00  0.35096565710E+03  0.35096565710E+03  0.00000000000E+00 0. -1.
         -4   -1    0    0    0  501 -0.00000000000E+00 -0.00000000000E+00 -0.89466839098E+03  0.89466839098E+03  0.00000000000E+00 0. -1.
   -9000010    2    1    2    0  502 -0.91310206668E+02 -0.31930350985E+02 -0.46997756742E+03  0.11240095748E+04  0.10164455270E+04 0.  0.
         13    1    3    3    0    0 -0.67490618101E+02  0.43950608444E+03  0.18079834515E+02  0.44502525026E+03  0.10566000000E+00 0. -1.
         -4    1    3    3    0  502 -0.23819588567E+02 -0.47143643542E+03 -0.48805740193E+03  0.67898432458E+03  0.00000000000E+00 0. -1.
        -13    1    1    2    0    0  0.91310206668E+02  0.31930350985E+02 -0.73725166471E+02  0.12162447324E+03  0.10566000000E+00 0.  1.
<mgrwt>
<rscale>  1 0.56646641E+03</rscale>
<asrwt>0</asrwt>
<pdfrwt beam="1">  1       21 0.53994717E-01 0.10210380E+04</pdfrwt>
<pdfrwt beam="2">  1       -4 0.13764129E+00 0.10210380E+04</pdfrwt>
<totfact> 0.47630859E+01</totfact>
</mgrwt>
</event>
<event>
 6    2  0.2379986E-005  0.1051089E+04  0.7818608E-02  0.9597744E-01
         21   -1    0    0  501  502  0.00000000000E+00  0.00000000000E+00  0.95525255068E+03  0.95525255068E+03  0.00000000000E+00 0. -1.
         -4   -1    0    0    0  501 -0.00000000000E+00 -0.00000000000E+00 -0.48690201903E+03  0.48690201903E+03  0.00000000000E+00 0. -1.
   -9000010    2    1    2    0  502  0.23584946924E+03  0.20086315773E+03  0.40197373534E+03  0.11253314794E+04  0.10043988622E+04 0.  0.
         13    1    3    3    0    0 -0.21178926011E+03  0.25450276607E+03 -0.18960272212E+03  0.38154364369E+03  0.10566000000E+00 0. -1.
         -4    1    3    3    0  502  0.44763872936E+03 -0.53639608347E+02  0.59157645746E+03  0.74378783576E+03  0.00000000000E+00 0. -1.
        -13    1    1    2    0    0 -0.23584946924E+03 -0.20086315773E+03  0.66376796304E+02  0.31682309027E+03  0.10566000000E+00 0.  1.
<mgrwt>
<rscale>  1 0.77445665E+03</rscale>
<asrwt>0</asrwt>
<pdfrwt beam="1">  1       21 0.14696193E+00 0.10510890E+04</pdfrwt>
<pdfrwt beam="2">  1       -4 0.74908003E-01 0.10510890E+04</pdfrwt>
<totfact> 0.18177995E+01</totfact>
</mgrwt>
</event>
<event>
 6    2  0.2379986E-005  0.9160940E+03  0.7818608E-02  0.9714688E-01
         -4   -1    0    0    0  501 -0.00000000000E+00  0.00000000000E+00  0.54649522278E+03  0.54649522278E+03  0.00000000000E+00 0. -1.
         21   -1    0    0  501  502  0.00000000000E+00 -0.00000000000E+00 -0.91479972129E+03  0.91479972129E+03  0.00000000000E+00 0. -1.
   -9000010    2    1    2    0  502 -0.42646340156E+02 -0.31206623859E+03  0.73136527102E+02  0.91900882231E+03  0.86024660202E+03 0.  0.
         13    1    3    3    0    0  0.39814125548E+03 -0.15107955429E+03  0.13255566525E+03  0.44599608361E+03  0.10566000000E+00 0. -1.
         -4    1    3    3    0  502 -0.44078759564E+03 -0.16098668431E+03 -0.59419138143E+02  0.47301273870E+03  0.00000000000E+00 0. -1.
        -13    1    1    2    0    0  0.42646340156E+02  0.31206623859E+03 -0.44144102561E+03  0.54228612176E+03  0.10566000000E+00 0.  1.
<mgrwt>
<rscale>  1 0.70148966E+03</rscale>
<asrwt>0</asrwt>
<pdfrwt beam="2">  1       21 0.14073842E+00 0.91609403E+03</pdfrwt>
<pdfrwt beam="1">  1       -4 0.84076189E-01 0.91609403E+03</pdfrwt>
<totfact> 0.15951679E+01</totfact>
</mgrwt>
</event>
<event>
 6    2  0.2379986E-005  0.1201435E+04  0.7818608E-02  0.9252290E-01
         21   -1    0    0  501  502  0.00000000000E+00  0.00000000000E+00  0.17400153652E+04  0.17400153652E+04  0.00000000000E+00 0.  1.
         -4   -1    0    0    0  501 -0.00000000000E+00 -0.00000000000E+00 -0.55451757712E+03  0.55451757712E+03  0.00000000000E+00 0. -1.
   -9000010    2    1    2    0  502 -0.34114327568E+03  0.62135768118E+03  0.99651746031E+03  0.15609270004E+04  0.97004224106E+03 0.  0.
         13    1    3    3    0    0 -0.27080101396E+03 -0.11912599217E+03 -0.25444582172E+02  0.29693707936E+03  0.10566000000E+00 0. -1.
         -4    1    3    3    0  502 -0.70342261727E+02  0.74048367335E+03  0.10219620425E+04  0.12639899211E+04  0.00000000000E+00 0. -1.
        -13    1    1    2    0    0  0.34114327568E+03 -0.62135768118E+03  0.18898032775E+03  0.73360594187E+03  0.10566000000E+00 0.  1.
<mgrwt>
<rscale>  1 0.10529636E+04</rscale>
<asrwt>0</asrwt>
<pdfrwt beam="1">  1       21 0.26769467E+00 0.12014350E+04</pdfrwt>
<pdfrwt beam="2">  1       -4 0.85310397E-01 0.12014350E+04</pdfrwt>
<totfact> 0.19170893E+00</totfact>
</mgrwt>
</event>
<event>
 6    2  0.2379986E-005  0.1010992E+04  0.7818608E-02  0.9855301E-01
         21   -1    0    0  501  502  0.00000000000E+00  0.00000000000E+00  0.13378293864E+04  0.13378293864E+04  0.00000000000E+00 0. -1.
         -4   -1    0    0    0  501 -0.00000000000E+00 -0.00000000000E+00 -0.28535306414E+03  0.28535306414E+03  0.00000000000E+00 0. -1.
   -9000010    2    1    2    0  502  0.26922575420E+02 -0.14497239203E+03  0.10730607745E+04  0.14743014566E+04  0.10001817532E+04 0.  0.
         13    1    3    3    0    0 -0.11527178886E+03 -0.23401034908E+03  0.12222590035E+04  0.12497861863E+04  0.10566000000E+00 0. -1.
         -4    1    3    3    0  502  0.14219436428E+03  0.89037957045E+02 -0.14919822898E+03  0.22451527021E+03  0.00000000000E+00 0. -1.
        -13    1    1    2    0    0 -0.26922575420E+02  0.14497239203E+03 -0.20584452283E+02  0.14888099395E+03  0.10566000000E+00 0.  1.
<mgrwt>
<rscale>  1 0.62477391E+03</rscale>
<asrwt>0</asrwt>
<pdfrwt beam="1">  1       21 0.20581990E+00 0.10109923E+04</pdfrwt>
<pdfrwt beam="2">  1       -4 0.43900472E-01 0.10109923E+04</pdfrwt>
<totfact> 0.21320639E+01</totfact>
</mgrwt>
</event>
<event>
 6    2  0.2379986E-005  0.1039028E+04  0.7818608E-02  0.9716633E-01
         -4   -1    0    0    0  501 -0.00000000000E+00  0.00000000000E+00  0.17133087358E+03  0.17133087358E+03  0.00000000000E+00 0. -1.
         21   -1    0    0  501  502  0.00000000000E+00 -0.00000000000E+00 -0.23233415112E+04  0.23233415112E+04  0.00000000000E+00 0. -1.
   -9000010    2    1    2    0  502 -0.37061150716E+02  0.21125071556E+03 -0.16661284588E+04  0.19635585584E+04  0.10166502729E+04 0.  0.
         13    1    3    3    0    0 -0.27382556736E+03 -0.16257190219E+03 -0.14239555818E+04  0.14591297320E+04  0.10566000000E+00 0. -1.
         -4    1    3    3    0  502  0.23676441664E+03  0.37382261774E+03 -0.24217287694E+03  0.50442882635E+03  0.00000000000E+00 0. -1.
        -13    1    1    2    0    0  0.37061150716E+02 -0.21125071556E+03 -0.48588217885E+03  0.53111382641E+03  0.10566000000E+00 0.  1.
<mgrwt>
<rscale>  1 0.70035067E+03</rscale>
<asrwt>0</asrwt>
<pdfrwt beam="2">  1       21 0.35743711E+00 0.10390275E+04</pdfrwt>
<pdfrwt beam="1">  1       -4 0.26358599E-01 0.10390275E+04</pdfrwt>
<totfact> 0.63990324E+00</totfact>
</mgrwt>
</event>
<event>
 6    2  0.2379986E-005  0.1011334E+04  0.7818608E-02  0.9950799E-01
         -4   -1    0    0    0  501 -0.00000000000E+00  0.00000000000E+00  0.29079950278E+03  0.29079950278E+03  0.00000000000E+00 0. -1.
         21   -1    0    0  501  502  0.00000000000E+00 -0.00000000000E+00 -0.12287446038E+04  0.12287446038E+04  0.00000000000E+00 0. -1.
   -9000010    2    1    2    0  502  0.10835807732E+03  0.57392246492E+00 -0.97523444404E+03  0.14049478213E+04  0.10055119878E+04 0.  0.
         13    1    3    3    0    0 -0.26662306527E+02  0.48627696017E+03 -0.61922887831E+03  0.78779475466E+03  0.10566000000E+00 0. -1.
         -4    1    3    3    0  502  0.13502038385E+03 -0.48570303770E+03 -0.35600556573E+03  0.61715306668E+03  0.00000000000E+00 0. -1.
        -13    1    1    2    0    0 -0.10835807732E+03 -0.57392246492E+00  0.37289343074E+02  0.11459628519E+03  0.10566000000E+00 0.  1.
<mgrwt>
<rscale>  1 0.57861249E+03</rscale>
<asrwt>0</asrwt>
<pdfrwt beam="2">  1       21 0.18903763E+00 0.10113339E+04</pdfrwt>
<pdfrwt beam="1">  1       -4 0.44738385E-01 0.10113339E+04</pdfrwt>
<totfact> 0.26792506E+01</totfact>
</mgrwt>
</event>
<event>
 6    2  0.2379986E-005  0.1031095E+04  0.7818608E-02  0.9644548E-01
         21   -1    0    0  501  502  0.00000000000E+00  0.00000000000E+00  0.32226184470E+03  0.32226184470E+03  0.00000000000E+00 0. -1.
         -4   -1    0    0    0  501 -0.00000000000E+00 -0.00000000000E+00 -0.13867960247E+04  0.13867960247E+04  0.00000000000E+00 0. -1.
   -9000010    2    1    2    0  502 -0.19436016232E+03  0.20121757700E+03 -0.68633430095E+03  0.12386330128E+04  0.99241754411E+03 0.  0.
         13    1    3    3    0    0 -0.20999781050E+01  0.42745186783E+03  0.63512031233E+02  0.43214962513E+03  0.10566000000E+00 0. -1.
         -4    1    3    3    0  502 -0.19226018421E+03 -0.22623429083E+03 -0.74984633218E+03  0.80648338772E+03  0.00000000000E+00 0. -1.
        -13    1    1    2    0    0  0.19436016232E+03 -0.20121757700E+03 -0.37819987904E+03  0.47042485655E+03  0.10566000000E+00 0.  1.
<mgrwt>
<rscale>  1 0.74416553E+03</rscale>
<asrwt>0</asrwt>
<pdfrwt beam="1">  1       21 0.49578745E-01 0.10310950E+04</pdfrwt>
<pdfrwt beam="2">  1       -4 0.21335324E+00 0.10310950E+04</pdfrwt>
<totfact> 0.16423131E+01</totfact>
</mgrwt>
</event>
<event>
 6    2  0.2379986E-005  0.1041482E+04  0.7818608E-02  0.9666949E-01
         21   -1    0    0  501  502  0.00000000000E+00  0.00000000000E+00  0.40206414949E+03  0.40206414949E+03  0.00000000000E+00 0. -1.
         -4   -1    0    0    0  501 -0.00000000000E+00 -0.00000000000E+00 -0.10645591628E+04  0.10645591628E+04  0.00000000000E+00 0. -1.
   -9000010    2    1    2    0  502  0.15946460785E+03  0.19467239534E+03 -0.61810870636E+03  0.12110915959E+04  0.10106226686E+04 0.  0.
         13    1    3    3    0    0 -0.22072006788E+03  0.28717773206E+03  0.11507002800E+03  0.38003884099E+03  0.10566000000E+00 0. -1.
         -4    1    3    3    0  502  0.38018467573E+03 -0.92505336717E+02 -0.73317873436E+03  0.83105275494E+03  0.00000000000E+00 0. -1.
        -13    1    1    2    0    0 -0.15946460785E+03 -0.19467239534E+03 -0.44386306973E+02  0.25553171638E+03  0.10566000000E+00 0.  1.
<mgrwt>
<rscale>  1 0.73019166E+03</rscale>
<asrwt>0</asrwt>
<pdfrwt beam="1">  1       21 0.61856024E-01 0.10414819E+04</pdfrwt>
<pdfrwt beam="2">  1       -4 0.16377833E+00 0.10414819E+04</pdfrwt>
<totfact> 0.22026429E+01</totfact>
</mgrwt>
</event>
<event>
 6    2  0.2379986E-005  0.1067350E+04  0.7818608E-02  0.9526979E-01
         -4   -1    0    0    0  501 -0.00000000000E+00  0.00000000000E+00  0.11208008311E+04  0.11208008311E+04  0.00000000000E+00 0. -1.
         21   -1    0    0  501  502  0.00000000000E+00 -0.00000000000E+00 -0.51023077988E+03  0.51023077988E+03  0.00000000000E+00 0. -1.
   -9000010    2    1    2    0  502 -0.33497263188E+03  0.17456080201E+03  0.22409043124E+03  0.10906200590E+04  0.99827724304E+03 0.  0.
         13    1    3    3    0    0 -0.38889694315E+03  0.55656993415E+03  0.17915163053E+03  0.70221523900E+03  0.10566000000E+00 0. -1.
         -4    1    3    3    0  502  0.53924311273E+02 -0.38200913213E+03  0.44938800706E+02  0.38840481999E+03  0.00000000000E+00 0. -1.
        -13    1    1    2    0    0  0.33497263188E+03 -0.17456080201E+03  0.38647962001E+03  0.54041155202E+03  0.10566000000E+00 0.  1.
<mgrwt>
<rscale>  1 0.82323677E+03</rscale>
<asrwt>0</asrwt>
<pdfrwt beam="2">  1       21 0.78497043E-01 0.10673498E+04</pdfrwt>
<pdfrwt beam="1">  1       -4 0.17243090E+00 0.10673498E+04</pdfrwt>
<totfact> 0.11010906E+01</totfact>
</mgrwt>
</event>
<event>
 6    2  0.2379986E-005  0.1020079E+04  0.7818608E-02  0.9655883E-01
         21   -1    0    0  501  502  0.00000000000E+00  0.00000000000E+00  0.36820678065E+03  0.36820678065E+03  0.00000000000E+00 0. -1.
         -4   -1    0    0    0  501 -0.00000000000E+00 -0.00000000000E+00 -0.11849979142E+04  0.11849979142E+04  0.00000000000E+00 0. -1.
   -9000010    2    1    2    0  502 -0.26538658666E+03 -0.82896022904E+02 -0.51446097900E+03  0.11424671576E+04  0.98145775066E+03 0.  0.
         13    1    3    3    0    0 -0.45526797491E+03  0.14454891317E+03  0.74251179801E+02  0.48340104070E+03  0.10566000000E+00 0. -1.
         -4    1    3    3    0  502  0.18988138825E+03 -0.22744493608E+03 -0.58871215880E+03  0.65906611692E+03  0.00000000000E+00 0. -1.
        -13    1    1    2    0    0  0.26538658666E+03  0.82896022904E+02 -0.30233015459E+03  0.41073753728E+03  0.10566000000E+00 0.  1.
<mgrwt>
<rscale>  1 0.73705356E+03</rscale>
<asrwt>0</asrwt>
<pdfrwt beam="1">  1       21 0.56647197E-01 0.10200790E+04</pdfrwt>
<pdfrwt beam="2">  1       -4 0.18230737E+00 0.10200790E+04</pdfrwt>
<totfact> 0.19796013E+01</totfact>
</mgrwt>
</event>
<event>
 6    2  0.2379986E-005  0.1054909E+04  0.7818608E-02  0.9551757E-01
         -4   -1    0    0    0  501 -0.00000000000E+00  0.00000000000E+00  0.12089433814E+04  0.12089433814E+04  0.00000000000E+00 0. -1.
         21   -1    0    0  501  502  0.00000000000E+00 -0.00000000000E+00 -0.46184222995E+03  0.46184222995E+03  0.00000000000E+00 0. -1.
   -9000010    2    1    2    0  502 -0.31561851855E+03  0.17111252636E+03  0.77751382086E+03  0.13104808965E+04  0.99193643574E+03 0.  0.
         13    1    3    3    0    0 -0.36874162076E+03  0.51291356509E+03  0.24936866412E+03  0.67914317337E+03  0.10566000000E+00 0. -1.
         -4    1    3    3    0  502  0.53123102210E+02 -0.34180103873E+03  0.52814515674E+03  0.63133772313E+03  0.00000000000E+00 0. -1.
        -13    1    1    2    0    0  0.31561851855E+03 -0.17111252636E+03 -0.30412669397E+02  0.36030471486E+03  0.10566000000E+00 0.  1.
<mgrwt>
<rscale>  1 0.80573187E+03</rscale>
<asrwt>0</asrwt>
<pdfrwt beam="2">  1       21 0.71052651E-01 0.10549087E+04</pdfrwt>
<pdfrwt beam="1">  1       -4 0.18599129E+00 0.10549087E+04</pdfrwt>
<totfact> 0.11166151E+01</totfact>
</mgrwt>
</event>
<event>
 6    2  0.2379986E-005  0.1006481E+04  0.7818608E-02  0.9951467E-01
         -4   -1    0    0    0  501 -0.00000000000E+00  0.00000000000E+00  0.73966175076E+03  0.73966175076E+03  0.00000000000E+00 0. -1.
         21   -1    0    0  501  502  0.00000000000E+00 -0.00000000000E+00 -0.59740916111E+03  0.59740916111E+03  0.00000000000E+00 0. -1.
   -9000010    2    1    2    0  502 -0.10875871837E+03 -0.14348032899E+02 -0.15671781894E+03  0.10186095465E+04  0.10004851866E+04 0.  0.
         13    1    3    3    0    0 -0.33401648049E+03 -0.28052228518E+03  0.23394242586E+03  0.49496346482E+03  0.10566000000E+00 0. -1.
         -4    1    3    3    0  502  0.22525776213E+03  0.26617425228E+03 -0.39066024480E+03  0.52364608166E+03  0.00000000000E+00 0. -1.
        -13    1    1    2    0    0  0.10875871837E+03  0.14348032899E+02  0.29897040859E+03  0.31846136539E+03  0.10566000000E+00 0.  1.
<mgrwt>
<rscale>  1 0.57830521E+03</rscale>
<asrwt>0</asrwt>
<pdfrwt beam="2">  1       21 0.91909102E-01 0.10064815E+04</pdfrwt>
<pdfrwt beam="1">  1       -4 0.11379412E+00 0.10064815E+04</pdfrwt>
<totfact> 0.22775863E+01</totfact>
</mgrwt>
</event>
<event>
 6    2  0.2379986E-005  0.9150693E+03  0.7818608E-02  0.9902648E-01
         21   -1    0    0  501  502  0.00000000000E+00  0.00000000000E+00  0.19696147901E+04  0.19696147901E+04  0.00000000000E+00 0. -1.
         -4   -1    0    0    0  501 -0.00000000000E+00 -0.00000000000E+00 -0.16662637451E+03  0.16662637451E+03  0.00000000000E+00 0. -1.
   -9000010    2    1    2    0  502  0.11154597043E+03  0.12914033112E+03  0.17159179971E+04  0.19446661204E+04  0.89901725133E+03 0.  0.
         13    1    3    3    0    0 -0.29891497225E+03  0.11999890258E+03  0.13713588921E+04  0.14086785011E+04  0.10566000000E+00 0. -1.
         -4    1    3    3    0  502  0.41046094268E+03  0.91414285404E+01  0.34455910501E+03  0.53598761929E+03  0.00000000000E+00 0. -1.
        -13    1    1    2    0    0 -0.11154597043E+03 -0.12914033112E+03  0.87070418462E+02  0.19157504424E+03  0.10566000000E+00 0.  1.
<mgrwt>
<rscale>  1 0.60133144E+03</rscale>
<asrwt>0</asrwt>
<pdfrwt beam="1">  1       21 0.30301764E+00 0.91506926E+03</pdfrwt>
<pdfrwt beam="2">  1       -4 0.25634828E-01 0.91506926E+03</pdfrwt>
<totfact> 0.15127675E+01</totfact>
</mgrwt>
</event>
<event>
 6    2  0.2379986E-005  0.1035191E+04  0.7818608E-02  0.9613442E-01
         21   -1    0    0  501  502  0.00000000000E+00  0.00000000000E+00  0.27924032514E+03  0.27924032514E+03  0.00000000000E+00 0. -1.
         -4   -1    0    0    0  501 -0.00000000000E+00 -0.00000000000E+00 -0.19129396925E+04  0.19129396925E+04  0.00000000000E+00 0. -1.
   -9000010    2    1    2    0  502  0.25964127082E+03  0.16443208120E+03 -0.81442514588E+03  0.13171590122E+04  0.98851810620E+03 0.  0.
         13    1    3    3    0    0  0.63999607096E+03  0.79014122752E+02 -0.52746190033E+03  0.83309919572E+03  0.10566000000E+00 0. -1.
         -4    1    3    3    0  502 -0.38035480014E+03  0.85417958451E+02 -0.28696324555E+03  0.48405981647E+03  0.00000000000E+00 0. -1.
        -13    1    1    2    0    0 -0.25964127082E+03 -0.16443208120E+03 -0.81927422151E+03  0.87502100548E+03  0.10566000000E+00 0.  1.
<mgrwt>
<rscale>  1 0.76412841E+03</rscale>
<asrwt>0</asrwt>
<pdfrwt beam="1">  1       21 0.42960051E-01 0.10351906E+04</pdfrwt>
<pdfrwt beam="2">  1       -4 0.29429840E+00 0.10351906E+04</pdfrwt>
<totfact> 0.69851201E+00</totfact>
</mgrwt>
</event>
<event>
 6    2  0.2379986E-005  0.1038972E+04  0.7818608E-02  0.9630611E-01
         -4   -1    0    0    0  501 -0.00000000000E+00  0.00000000000E+00  0.29226249326E+03  0.29226249326E+03  0.00000000000E+00 0. -1.
         21   -1    0    0  501  502  0.00000000000E+00 -0.00000000000E+00 -0.15498342268E+04  0.15498342268E+04  0.00000000000E+00 0. -1.
   -9000010    2    1    2    0  502 -0.72329310440E+02 -0.27743087184E+03 -0.84251475472E+03  0.13376448149E+04  0.99863062296E+03 0.  0.
         13    1    3    3    0    0 -0.45600200248E+03  0.78003628267E+02 -0.60921402748E+03  0.76496021774E+03  0.10566000000E+00 0. -1.
         -4    1    3    3    0  502  0.38367269204E+03 -0.35543450011E+03 -0.23330072724E+03  0.57268459715E+03  0.00000000000E+00 0. -1.
        -13    1    1    2    0    0  0.72329310440E+02  0.27743087184E+03 -0.41505697887E+03  0.50445190521E+03  0.10566000000E+00 0.  1.
<mgrwt>
<rscale>  1 0.75302864E+03</rscale>
<asrwt>0</asrwt>
<pdfrwt beam="2">  1       21 0.23843604E+00 0.10389719E+04</pdfrwt>
<pdfrwt beam="1">  1       -4 0.44963460E-01 0.10389719E+04</pdfrwt>
<totfact> 0.12314060E+01</totfact>
</mgrwt>
</event>
<event>
 6    2  0.2379986E-005  0.1032113E+04  0.7818608E-02  0.9607407E-01
         21   -1    0    0  501  502  0.00000000000E+00  0.00000000000E+00  0.44430501320E+03  0.44430501320E+03  0.00000000000E+00 0. -1.
         -4   -1    0    0    0  501 -0.00000000000E+00 -0.00000000000E+00 -0.11773921580E+04  0.11773921580E+04  0.00000000000E+00 0. -1.
   -9000010    2    1    2    0  502  0.69957912566E+02 -0.30872259334E+03 -0.28078023728E+03  0.10696235358E+04  0.98237122183E+03 0.  0.
         13    1    3    3    0    0 -0.45619275937E+03 -0.12887988292E+03 -0.16265358112E+03  0.50117667198E+03  0.10566000000E+00 0. -1.
         -4    1    3    3    0  502  0.52615067194E+03 -0.17984271042E+03 -0.11812665616E+03  0.56844686380E+03  0.00000000000E+00 0. -1.
        -13    1    1    2    0    0 -0.69957912566E+02  0.30872259334E+03 -0.45230690752E+03  0.55207363542E+03  0.10566000000E+00 0.  1.
<mgrwt>
<rscale>  1 0.76807901E+03</rscale>
<asrwt>0</asrwt>
<pdfrwt beam="1">  1       21 0.68354618E-01 0.10321129E+04</pdfrwt>
<pdfrwt beam="2">  1       -4 0.18113725E+00 0.10321129E+04</pdfrwt>
<totfact> 0.13213546E+01</totfact>
</mgrwt>
</event>
<event>
 6    2  0.2379986E-005  0.7229867E+03  0.7818608E-02  0.1012887E+00
         -4   -1    0    0    0  501 -0.00000000000E+00  0.00000000000E+00  0.86351138036E+02  0.86351138036E+02  0.00000000000E+00 0. -1.
         21   -1    0    0  501  502  0.00000000000E+00 -0.00000000000E+00 -0.28333674154E+04  0.28333674154E+04  0.00000000000E+00 0. -1.
   -9000010    2    1    2    0  502 -0.36010130185E+02  0.16611099220E+03 -0.25875398618E+04  0.26866470419E+04  0.70272341648E+03 0.  0.
         13    1    3    3    0    0  0.26590696591E+03 -0.86131887343E+02 -0.15890497819E+04  0.16134448975E+04  0.10566000000E+00 0. -1.
         -4    1    3    3    0  502 -0.30191709610E+03  0.25224287954E+03 -0.99849007989E+03  0.10732021444E+04  0.00000000000E+00 0. -1.
        -13    1    1    2    0    0  0.36010130185E+02 -0.16611099220E+03 -0.15947641552E+03  0.23307151151E+03  0.10566000000E+00 0.  1.
<mgrwt>
<rscale>  1 0.50343156E+03</rscale>
<asrwt>0</asrwt>
<pdfrwt beam="2">  1       21 0.43590270E+00 0.72298672E+03</pdfrwt>
<pdfrwt beam="1">  1       -4 0.13284790E-01 0.72298672E+03</pdfrwt>
<totfact> 0.75074719E+00</totfact>
</mgrwt>
</event>
<event>
 6    2  0.2379986E-005  0.1090501E+04  0.7818608E-02  0.9494590E-01
         -4   -1    0    0    0  501 -0.00000000000E+00  0.00000000000E+00  0.12196427803E+04  0.12196427803E+04  0.00000000000E+00 0. -1.
         21   -1    0    0  501  502  0.00000000000E+00 -0.00000000000E+00 -0.45358948868E+03  0.45358948868E+03  0.00000000000E+00 0.  1.
   -9000010    2    1    2    0  502  0.76012711526E+02  0.38922123165E+03  0.54252739545E+03  0.12180016275E+04  0.10158350705E+04 0.  0.
         13    1    3    3    0    0  0.82505951543E+02  0.68092050362E+03  0.10762536133E+03  0.69429330535E+03  0.10566000000E+00 0. -1.
         -4    1    3    3    0  502 -0.64932400172E+01 -0.29169927197E+03  0.43490203412E+03  0.52370832218E+03  0.00000000000E+00 0. -1.
        -13    1    1    2    0    0 -0.76012711526E+02 -0.38922123165E+03  0.22352589614E+03  0.45523064142E+03  0.10566000000E+00 0.  1.
<mgrwt>
<rscale>  1 0.84683853E+03</rscale>
<asrwt>0</asrwt>
<pdfrwt beam="2">  1       21 0.69782999E-01 0.10905008E+04</pdfrwt>
<pdfrwt beam="1">  1       -4 0.18763735E+00 0.10905008E+04</pdfrwt>
<totfact> 0.11298255E+01</totfact>
</mgrwt>
</event>
<event>
 6    2  0.2379986E-005  0.1012348E+04  0.7818608E-02  0.9752799E-01
         21   -1    0    0  501  502  0.00000000000E+00  0.00000000000E+00  0.27288060559E+03  0.27288060559E+03  0.00000000000E+00 0. -1.
         -4   -1    0    0    0  501 -0.00000000000E+00 -0.00000000000E+00 -0.13643144677E+04  0.13643144677E+04  0.00000000000E+00 0. -1.
   -9000010    2    1    2    0  502 -0.84085665089E+02 -0.18759735332E+03 -0.94422432842E+03  0.13843436861E+04  0.99125410100E+03 0.  0.
         13    1    3    3    0    0 -0.10378293806E+03 -0.30864241216E+03  0.93985005372E+02  0.33891625694E+03  0.10566000000E+00 0. -1.
         -4    1    3    3    0  502  0.19697272972E+02  0.12104505884E+03 -0.10382093338E+04  0.10454274291E+04  0.00000000000E+00 0. -1.
        -13    1    1    2    0    0  0.84085665089E+02  0.18759735332E+03 -0.14720953370E+03  0.25285138723E+03  0.10566000000E+00 0.  1.
<mgrwt>
<rscale>  1 0.67958314E+03</rscale>
<asrwt>0</asrwt>
<pdfrwt beam="1">  1       21 0.41981631E-01 0.10123477E+04</pdfrwt>
<pdfrwt beam="2">  1       -4 0.20989453E+00 0.10123477E+04</pdfrwt>
<totfact> 0.24709370E+01</totfact>
</mgrwt>
</event>
<event>
 6    2  0.2379986E-005  0.1006543E+04  0.7818608E-02  0.9846050E-01
         21   -1    0    0  501  502  0.00000000000E+00  0.00000000000E+00  0.35677909552E+03  0.35677909552E+03  0.00000000000E+00 0. -1.
         -4   -1    0    0    0  501 -0.00000000000E+00 -0.00000000000E+00 -0.95177421908E+03  0.95177421908E+03  0.00000000000E+00 0. -1.
   -9000010    2    1    2    0  502  0.20826607967E+02 -0.15256002694E+03 -0.55523125056E+03  0.11495266307E+04  0.99469664911E+03 0.  0.
         13    1    3    3    0    0  0.11641623718E+02 -0.53436924404E+03 -0.80954024136E+02  0.54059188078E+03  0.10566000000E+00 0. -1.
         -4    1    3    3    0  502  0.91849842490E+01  0.38180921710E+03 -0.47427722642E+03  0.60893474995E+03  0.00000000000E+00 0. -1.
        -13    1    1    2    0    0 -0.20826607967E+02  0.15256002694E+03 -0.39763873006E+02  0.15902668386E+03  0.10566000000E+00 0.  1.
<mgrwt>
<rscale>  1 0.62948741E+03</rscale>
<asrwt>0</asrwt>
<pdfrwt beam="1">  1       21 0.54889092E-01 0.10065435E+04</pdfrwt>
<pdfrwt beam="2">  1       -4 0.14642680E+00 0.10065435E+04</pdfrwt>
<totfact> 0.39059200E+01</totfact>
</mgrwt>
</event>
<event>
 6    2  0.2379986E-005  0.1007747E+04  0.7818608E-02  0.9844258E-01
         -4   -1    0    0    0  501 -0.00000000000E+00  0.00000000000E+00  0.40804869868E+03  0.40804869868E+03  0.00000000000E+00 0. -1.
         21   -1    0    0  501  502  0.00000000000E+00 -0.00000000000E+00 -0.87182851666E+03  0.87182851666E+03  0.00000000000E+00 0. -1.
   -9000010    2    1    2    0  502  0.14456271239E+03  0.54005165786E+02 -0.29251659142E+03  0.10493429669E+04  0.99586132081E+03 0.  0.
         13    1    3    3    0    0 -0.30158953171E+03  0.39130398271E+01 -0.47667585446E+03  0.56408460261E+03  0.10566000000E+00 0. -1.
         -4    1    3    3    0  502  0.44615224410E+03  0.50092125958E+02  0.18415926304E+03  0.48525836434E+03  0.00000000000E+00 0. -1.
        -13    1    1    2    0    0 -0.14456271239E+03 -0.54005165786E+02 -0.17126322657E+03  0.23053424839E+03  0.10566000000E+00 0.  1.
<mgrwt>
<rscale>  1 0.63040551E+03</rscale>
<asrwt>0</asrwt>
<pdfrwt beam="2">  1       21 0.13412746E+00 0.10077473E+04</pdfrwt>
<pdfrwt beam="1">  1       -4 0.62776723E-01 0.10077473E+04</pdfrwt>
<totfact> 0.34754958E+01</totfact>
</mgrwt>
</event>
<event>
 6    2  0.2379986E-005  0.1025279E+04  0.7818608E-02  0.9692763E-01
         21   -1    0    0  501  502  0.00000000000E+00  0.00000000000E+00  0.32069447889E+03  0.32069447889E+03  0.00000000000E+00 0.  1.
         -4   -1    0    0    0  501 -0.00000000000E+00 -0.00000000000E+00 -0.20790192459E+04  0.20790192459E+04  0.00000000000E+00 0. -1.
   -9000010    2    1    2    0  502 -0.19030448935E+03 -0.14917774247E+03 -0.18705697575E+04  0.21331265034E+04  0.99635719729E+03 0.  0.
         13    1    3    3    0    0  0.33235417799E+03 -0.32786636005E+03 -0.74234292509E+03  0.87694280274E+03  0.10566000000E+00 0. -1.
         -4    1    3    3    0  502 -0.52265866734E+03  0.17868861758E+03 -0.11282268324E+04  0.12561837007E+04  0.00000000000E+00 0. -1.
        -13    1    1    2    0    0  0.19030448935E+03  0.14917774247E+03  0.11224499049E+03  0.26658722132E+03  0.10566000000E+00 0.  1.
<mgrwt>
<rscale>  1 0.71449325E+03</rscale>
<asrwt>0</asrwt>
<pdfrwt beam="1">  1       21 0.49337611E-01 0.10252792E+04</pdfrwt>
<pdfrwt beam="2">  1       -4 0.31984912E+00 0.10252792E+04</pdfrwt>
<totfact> 0.36075364E+00</totfact>
</mgrwt>
</event>
<event>
 6    2  0.2379986E-005  0.1002140E+04  0.7818608E-02  0.9661734E-01
         21   -1    0    0  501  502  0.00000000000E+00  0.00000000000E+00  0.11285198454E+04  0.11285198454E+04  0.00000000000E+00 0. -1.
         -4   -1    0    0    0  501 -0.00000000000E+00 -0.00000000000E+00 -0.36942708744E+03  0.36942708744E+03  0.00000000000E+00 0. -1.
   -9000010    2    1    2    0  502  0.25311076504E+03  0.13631663417E+03  0.62168310849E+03  0.11793112364E+04  0.96001969809E+03 0.  0.
         13    1    3    3    0    0  0.34166850694E+03 -0.24547391391E+03 -0.26835658570E+02  0.42156253959E+03  0.10566000000E+00 0. -1.
         -4    1    3    3    0  502 -0.88557741901E+02  0.38179054808E+03  0.64851876706E+03  0.75774869679E+03  0.00000000000E+00 0. -1.
        -13    1    1    2    0    0 -0.25311076504E+03 -0.13631663417E+03  0.13740964949E+03  0.31863569648E+03  0.10566000000E+00 0.  1.
<mgrwt>
<rscale>  1 0.73341530E+03</rscale>
<asrwt>0</asrwt>
<pdfrwt beam="1">  1       21 0.17361844E+00 0.10021403E+04</pdfrwt>
<pdfrwt beam="2">  1       -4 0.56834937E-01 0.10021403E+04</pdfrwt>
<totfact> 0.20901659E+01</totfact>
</mgrwt>
</event>
<event>
 6    2  0.2379986E-005  0.7600680E+03  0.7818608E-02  0.1015207E+00
         21   -1    0    0  501  502  0.00000000000E+00  0.00000000000E+00  0.34400255226E+03  0.34400255226E+03  0.00000000000E+00 0. -1.
         -4   -1    0    0    0  501 -0.00000000000E+00 -0.00000000000E+00 -0.60553155906E+03  0.60553155906E+03  0.00000000000E+00 0. -1.
   -9000010    2    1    2    0  502 -0.10647575590E+03 -0.85012612294E+02 -0.28409638352E+03  0.81142716544E+03  0.74775601558E+03 0.  0.
         13    1    3    3    0    0  0.30915489485E+02 -0.74377887868E+02  0.24853347429E+03  0.26125990259E+03  0.10566000000E+00 0. -1.
         -4    1    3    3    0  502 -0.13739124539E+03 -0.10634724426E+02 -0.53262985781E+03  0.55016726285E+03  0.00000000000E+00 0. -1.
        -13    1    1    2    0    0  0.10647575590E+03  0.85012612294E+02  0.22567376720E+02  0.13810694588E+03  0.10566000000E+00 0.  1.
<mgrwt>
<rscale>  1 0.49456573E+03</rscale>
<asrwt>0</asrwt>
<pdfrwt beam="1">  1       21 0.52923470E-01 0.76006795E+03</pdfrwt>
<pdfrwt beam="2">  1       -4 0.93158701E-01 0.76006795E+03</pdfrwt>
<totfact> 0.13359643E+02</totfact>
</mgrwt>
</event>
<event>
 6    2  0.2379986E-005  0.8045051E+03  0.7818608E-02  0.9931885E-01
         21   -1    0    0  501  502  0.00000000000E+00  0.00000000000E+00  0.71191543102E+03  0.71191543102E+03  0.00000000000E+00 0. -1.
         -4   -1    0    0    0  501 -0.00000000000E+00 -0.00000000000E+00 -0.94011253495E+03  0.94011253495E+03  0.00000000000E+00 0. -1.
   -9000010    2    1    2    0  502  0.17034028319E+03 -0.15252530954E+03  0.46007735736E+03  0.92676833841E+03  0.77132911017E+03 0.  0.
         13    1    3    3    0    0 -0.17833991995E+03  0.22647554752E+03  0.19004372588E+03  0.34527225429E+03  0.10566000000E+00 0. -1.
         -4    1    3    3    0  502  0.34868020314E+03 -0.37900085706E+03  0.27003363148E+03  0.58149608412E+03  0.00000000000E+00 0. -1.
        -13    1    1    2    0    0 -0.17034028319E+03  0.15252530954E+03 -0.68827446130E+03  0.72525962756E+03  0.10566000000E+00 0.  1.
<mgrwt>
<rscale>  1 0.58740591E+03</rscale>
<asrwt>0</asrwt>
<pdfrwt beam="1">  1       21 0.10952545E+00 0.80450505E+03</pdfrwt>
<pdfrwt beam="2">  1       -4 0.14463270E+00 0.80450505E+03</pdfrwt>
<totfact> 0.81876917E+00</totfact>
</mgrwt>
</event>
<event>
 6    2  0.2379986E-005  0.1006236E+04  0.7818608E-02  0.1007159E+00
         -4   -1    0    0    0  501 -0.00000000000E+00  0.00000000000E+00  0.15788669069E+04  0.15788669069E+04  0.00000000000E+00 0. -1.
         21   -1    0    0  501  502  0.00000000000E+00 -0.00000000000E+00 -0.18537448623E+03  0.18537448623E+03  0.00000000000E+00 0. -1.
   -9000010    2    1    2    0  502 -0.65682681019E+02 -0.36715178983E+02  0.12820695098E+04  0.16297895609E+04  0.10034189384E+04 0.  0.
         13    1    3    3    0    0  0.22620909966E+02  0.58580505556E+02 -0.16518334303E+03  0.17671708796E+03  0.10566000000E+00 0. -1.
         -4    1    3    3    0  502 -0.88303590985E+02 -0.95295684538E+02  0.14472528528E+04  0.14530724729E+04  0.00000000000E+00 0. -1.
        -13    1    1    2    0    0  0.65682681019E+02  0.36715178983E+02  0.11142291091E+03  0.13445183224E+03  0.10566000000E+00 0.  1.
<mgrwt>
<rscale>  1 0.52619713E+03</rscale>
<asrwt>0</asrwt>
<pdfrwt beam="2">  1       21 0.28519153E-01 0.10062364E+04</pdfrwt>
<pdfrwt beam="1">  1       -4 0.24290259E+00 0.10062364E+04</pdfrwt>
<totfact> 0.33811196E+01</totfact>
</mgrwt>
</event>
<event>
 6    2  0.2379986E-005  0.1070051E+04  0.7818608E-02  0.9506505E-01
         21   -1    0    0  501  502  0.00000000000E+00  0.00000000000E+00  0.12963356943E+04  0.12963356943E+04  0.00000000000E+00 0.  1.
         -4   -1    0    0    0  501 -0.00000000000E+00 -0.00000000000E+00 -0.53236785274E+03  0.53236785274E+03  0.00000000000E+00 0. -1.
   -9000010    2    1    2    0  502  0.36201731566E+03 -0.17617716084E+03  0.90568194364E+03  0.14018806017E+04  0.99142045039E+03 0.  0.
         13    1    3    3    0    0 -0.19186456570E+03 -0.23557119451E+03  0.77110264488E+03  0.82879738137E+03  0.10566000000E+00 0. -1.
         -4    1    3    3    0  502  0.55388188136E+03  0.59394033675E+02  0.13457929876E+03  0.57308322030E+03  0.00000000000E+00 0. -1.
        -13    1    1    2    0    0 -0.36201731566E+03  0.17617716084E+03 -0.14171410205E+03  0.42682294541E+03  0.10566000000E+00 0.  1.
<mgrwt>
<rscale>  1 0.83805898E+03</rscale>
<asrwt>0</asrwt>
<pdfrwt beam="1">  1       21 0.19943626E+00 0.10700511E+04</pdfrwt>
<pdfrwt beam="2">  1       -4 0.81902747E-01 0.10700511E+04</pdfrwt>
<totfact> 0.60002926E+00</totfact>
</mgrwt>
</event>
<event>
 6    2  0.2379986E-005  0.1047188E+04  0.7818608E-02  0.9662263E-01
         21   -1    0    0  501  502  0.00000000000E+00  0.00000000000E+00  0.12093394562E+04  0.12093394562E+04  0.00000000000E+00 0. -1.
         -4   -1    0    0    0  501 -0.00000000000E+00 -0.00000000000E+00 -0.57604345476E+03  0.57604345476E+03  0.00000000000E+00 0. -1.
   -9000010    2    1    2    0  502  0.18488316873E+03  0.17051005426E+03  0.92711351256E+03  0.13986217369E+04  0.10165371774E+04 0.  0.
         13    1    3    3    0    0 -0.19065605506E+03  0.19058105439E+03 -0.11323050111E+03  0.29239019677E+03  0.10566000000E+00 0. -1.
         -4    1    3    3    0  502  0.37553922378E+03 -0.20071000128E+02  0.10403440137E+04  0.11062315402E+04  0.00000000000E+00 0. -1.
        -13    1    1    2    0    0 -0.18488316873E+03 -0.17051005426E+03 -0.29381751116E+03  0.38676117399E+03  0.10566000000E+00 0.  1.
<mgrwt>
<rscale>  1 0.73308755E+03</rscale>
<asrwt>0</asrwt>
<pdfrwt beam="1">  1       21 0.18605222E+00 0.10471883E+04</pdfrwt>
<pdfrwt beam="2">  1       -4 0.88622070E-01 0.10471883E+04</pdfrwt>
<totfact> 0.62179426E+00</totfact>
</mgrwt>
</event>
<event>
 6    2  0.2379986E-005  0.8371053E+03  0.7818608E-02  0.1006789E+00
         21   -1    0    0  501  502  0.00000000000E+00  0.00000000000E+00  0.57983486296E+03  0.57983486296E+03  0.00000000000E+00 0. -1.
         -4   -1    0    0    0  501 -0.00000000000E+00 -0.00000000000E+00 -0.66725435827E+03  0.66725435827E+03  0.00000000000E+00 0. -1.
   -9000010    2    1    2    0  502  0.85168016139E+02 -0.10111164662E+03  0.25903607930E+03  0.87626765713E+03  0.82660036324E+03 0.  0.
         13    1    3    3    0    0  0.34339697134E+02 -0.10983462572E+03  0.55960078369E+03  0.57131069312E+03  0.10566000000E+00 0. -1.
         -4    1    3    3    0  502  0.50828319005E+02  0.87229791033E+01 -0.30056470439E+03  0.30495696401E+03  0.00000000000E+00 0. -1.
        -13    1    1    2    0    0 -0.85168016139E+02  0.10111164662E+03 -0.34645557461E+03  0.37082156409E+03  0.10566000000E+00 0.  1.
<mgrwt>
<rscale>  1 0.52770834E+03</rscale>
<asrwt>0</asrwt>
<pdfrwt beam="1">  1       21 0.89205364E-01 0.83710532E+03</pdfrwt>
<pdfrwt beam="2">  1       -4 0.10265452E+00 0.83710532E+03</pdfrwt>
<totfact> 0.32046985E+01</totfact>
</mgrwt>
</event>
<event>
 6    2  0.2379986E-005  0.1081419E+04  0.7818608E-02  0.9500190E-01
         21   -1    0    0  501  502  0.00000000000E+00  0.00000000000E+00  0.69107263964E+03  0.69107263964E+03  0.00000000000E+00 0.  1.
         -4   -1    0    0    0  501 -0.00000000000E+00 -0.00000000000E+00 -0.11728686277E+04  0.11728686277E+04  0.00000000000E+00 0. -1.
   -9000010    2    1    2    0  502  0.12202810298E+03 -0.37962390974E+03 -0.80704157781E+03  0.13493638916E+04  0.10052172069E+04 0.  0.
         13    1    3    3    0    0 -0.13033061248E+03 -0.37437839101E+03 -0.97070880725E+03  0.10485327119E+04  0.10566000000E+00 0. -1.
         -4    1    3    3    0  502  0.25235871546E+03 -0.52455187330E+01  0.16366722944E+03  0.30083117978E+03  0.00000000000E+00 0. -1.
        -13    1    1    2    0    0 -0.12202810298E+03  0.37962390974E+03  0.32524558975E+03  0.51457737570E+03  0.10566000000E+00 0.  1.
<mgrwt>
<rscale>  1 0.84269793E+03</rscale>
<asrwt>0</asrwt>
<pdfrwt beam="1">  1       21 0.10631887E+00 0.10814189E+04</pdfrwt>
<pdfrwt beam="2">  1       -4 0.18044133E+00 0.10814189E+04</pdfrwt>
<totfact> 0.46166873E+00</totfact>
</mgrwt>
</event>
<event>
 6    2  0.2379986E-005  0.1027544E+04  0.7818608E-02  0.9735786E-01
         -4   -1    0    0    0  501 -0.00000000000E+00  0.00000000000E+00  0.87838279035E+03  0.87838279035E+03  0.00000000000E+00 0. -1.
         21   -1    0    0  501  502  0.00000000000E+00 -0.00000000000E+00 -0.43452157695E+03  0.43452157695E+03  0.00000000000E+00 0. -1.
   -9000010    2    1    2    0  502 -0.20344064727E+03 -0.43437310715E+02  0.37248448825E+03  0.10929735941E+04  0.10062662106E+04 0.  0.
         13    1    3    3    0    0  0.32743910787E+03  0.22555608839E+03  0.29003420372E+03  0.49215014870E+03  0.10566000000E+00 0. -1.
         -4    1    3    3    0  502 -0.53087975514E+03 -0.26899339911E+03  0.82450284524E+02  0.60082344544E+03  0.00000000000E+00 0. -1.
        -13    1    1    2    0    0  0.20344064727E+03  0.43437310715E+02  0.71376725149E+02  0.21993077315E+03  0.10566000000E+00 0.  1.
<mgrwt>
<rscale>  1 0.68925493E+03</rscale>
<asrwt>0</asrwt>
<pdfrwt beam="2">  1       21 0.66849473E-01 0.10275440E+04</pdfrwt>
<pdfrwt beam="1">  1       -4 0.13513581E+00 0.10275440E+04</pdfrwt>
<totfact> 0.31012746E+01</totfact>
</mgrwt>
</event>
<event>
 6    2  0.2379986E-005  0.1066365E+04  0.7818608E-02  0.9528826E-01
         -4   -1    0    0    0  501 -0.00000000000E+00  0.00000000000E+00  0.12106971604E+04  0.12106971604E+04  0.00000000000E+00 0. -1.
         21   -1    0    0  501  502  0.00000000000E+00 -0.00000000000E+00 -0.44401315304E+03  0.44401315304E+03  0.00000000000E+00 0. -1.
   -9000010    2    1    2    0  502 -0.31496398709E+03 -0.20600168581E+03  0.43019580492E+03  0.11498704089E+04  0.99774471628E+03 0.  0.
         13    1    3    3    0    0  0.12896795570E+03 -0.13769523744E+03  0.63046617369E+03  0.65808838262E+03  0.10566000000E+00 0. -1.
         -4    1    3    3    0  502 -0.44393194279E+03 -0.68306448371E+02 -0.20027036877E+03  0.49178202623E+03  0.00000000000E+00 0. -1.
        -13    1    1    2    0    0  0.31496398709E+03  0.20600168581E+03  0.33648820244E+03  0.50483990459E+03  0.10566000000E+00 0.  1.
<mgrwt>
<rscale>  1 0.82191549E+03</rscale>
<asrwt>0</asrwt>
<pdfrwt beam="2">  1       21 0.68309716E-01 0.10663646E+04</pdfrwt>
<pdfrwt beam="1">  1       -4 0.18626110E+00 0.10663646E+04</pdfrwt>
<totfact> 0.12154163E+01</totfact>
</mgrwt>
</event>
<event>
 6    2  0.2379986E-005  0.9963065E+03  0.7818608E-02  0.9684179E-01
         21   -1    0    0  501  502  0.00000000000E+00  0.00000000000E+00  0.43444578820E+03  0.43444578820E+03  0.00000000000E+00 0. -1.
         -4   -1    0    0    0  501 -0.00000000000E+00 -0.00000000000E+00 -0.97381403999E+03  0.97381403999E+03  0.00000000000E+00 0. -1.
   -9000010    2    1    2    0  502 -0.26381534020E+03  0.63004588623E+02 -0.54764328618E+03  0.11368991839E+04  0.95867537443E+03 0.  0.
         13    1    3    3    0    0 -0.29892340745E+03 -0.31973743542E+03 -0.60662446638E+03  0.74805112492E+03  0.10566000000E+00 0. -1.
         -4    1    3    3    0  502  0.35108067258E+02  0.38274202404E+03  0.58981180194E+02  0.38884805898E+03  0.00000000000E+00 0. -1.
        -13    1    1    2    0    0  0.26381534020E+03 -0.63004588623E+02  0.82750343862E+01  0.27136064429E+03  0.10566000000E+00 0.  1.
<mgrwt>
<rscale>  1 0.71966599E+03</rscale>
<asrwt>0</asrwt>
<pdfrwt beam="1">  1       21 0.66837815E-01 0.99630647E+03</pdfrwt>
<pdfrwt beam="2">  1       -4 0.14981754E+00 0.99630647E+03</pdfrwt>
<totfact> 0.23688995E+01</totfact>
</mgrwt>
</event>
<event>
 6    2  0.2379986E-005  0.1001434E+04  0.7818608E-02  0.1004102E+00
         -4   -1    0    0    0  501 -0.00000000000E+00  0.00000000000E+00  0.49928919223E+03  0.49928919223E+03  0.00000000000E+00 0. -1.
         21   -1    0    0  501  502  0.00000000000E+00 -0.00000000000E+00 -0.66724396741E+03  0.66724396741E+03  0.00000000000E+00 0. -1.
   -9000010    2    1    2    0  502 -0.77474978560E+02  0.32361471530E+02 -0.26726654149E+03  0.10364851868E+04  0.99790806249E+03 0.  0.
         13    1    3    3    0    0 -0.43355920084E+03 -0.27654412425E+03 -0.47689732275E+02  0.51645382661E+03  0.10566000000E+00 0. -1.
         -4    1    3    3    0  502  0.35608422228E+03  0.30890559578E+03 -0.21957680921E+03  0.52003136022E+03  0.00000000000E+00 0. -1.
        -13    1    1    2    0    0  0.77474978560E+02 -0.32361471530E+02  0.99311766303E+02  0.13004797281E+03  0.10566000000E+00 0.  1.
<mgrwt>
<rscale>  1 0.53887458E+03</rscale>
<asrwt>0</asrwt>
<pdfrwt beam="2">  1       21 0.10265292E+00 0.10014340E+04</pdfrwt>
<pdfrwt beam="1">  1       -4 0.76813722E-01 0.10014340E+04</pdfrwt>
<totfact> 0.44170102E+01</totfact>
</mgrwt>
</event>
<event>
 6    2  0.2379986E-005  0.1331768E+04  0.7818608E-02  0.9114442E-01
         -4   -1    0    0    0  501 -0.00000000000E+00  0.00000000000E+00  0.60623990515E+03  0.60623990515E+03  0.00000000000E+00 0. -1.
         21   -1    0    0  501  502  0.00000000000E+00 -0.00000000000E+00 -0.20470162813E+04  0.20470162813E+04  0.00000000000E+00 0.  1.
   -9000010    2    1    2    0  502  0.18939599468E+03  0.85180137567E+03 -0.67876447892E+03  0.14947664070E+04  0.10060660849E+04 0.  0.
         13    1    3    3    0    0 -0.28326081250E+03  0.80901625064E+03 -0.43908965475E+03  0.96309071108E+03  0.10566000000E+00 0. -1.
         -4    1    3    3    0  502  0.47265680718E+03  0.42785125030E+02 -0.23967482418E+03  0.53167569593E+03  0.00000000000E+00 0. -1.
        -13    1    1    2    0    0 -0.18939599468E+03 -0.85180137567E+03 -0.76201189721E+03  0.11584897794E+04  0.10566000000E+00 0.  1.
<mgrwt>
<rscale>  1 0.11981899E+04</rscale>
<asrwt>0</asrwt>
<pdfrwt beam="2">  1       21 0.31492557E+00 0.13317678E+04</pdfrwt>
<pdfrwt beam="1">  1       -4 0.93267681E-01 0.13317678E+04</pdfrwt>
<totfact> 0.76887683E-01</totfact>
</mgrwt>
</event>
<event>
 6    2  0.2379986E-005  0.1044888E+04  0.7818608E-02  0.9604794E-01
         21   -1    0    0  501  502  0.00000000000E+00  0.00000000000E+00  0.53946053340E+03  0.53946053340E+03  0.00000000000E+00 0. -1.
         -4   -1    0    0    0  501 -0.00000000000E+00 -0.00000000000E+00 -0.85979171757E+03  0.85979171757E+03  0.00000000000E+00 0. -1.
   -9000010    2    1    2    0  502  0.11930330759E+03 -0.28375956725E+03 -0.17729200060E+03  0.10598218599E+04  0.99851747603E+03 0.  0.
         13    1    3    3    0    0  0.42131932451E+03  0.53816670002E+02  0.20078590552E+03  0.46980974681E+03  0.10566000000E+00 0. -1.
         -4    1    3    3    0  502 -0.30201601693E+03 -0.33757623726E+03 -0.37807790612E+03  0.59001211304E+03  0.00000000000E+00 0. -1.
        -13    1    1    2    0    0 -0.11930330759E+03  0.28375956725E+03 -0.14303918357E+03  0.33943039111E+03  0.10566000000E+00 0.  1.
<mgrwt>
<rscale>  1 0.76979689E+03</rscale>
<asrwt>0</asrwt>
<pdfrwt beam="1">  1       21 0.82993929E-01 0.10448875E+04</pdfrwt>
<pdfrwt beam="2">  1       -4 0.13227565E+00 0.10448875E+04</pdfrwt>
<totfact> 0.19805374E+01</totfact>
</mgrwt>
</event>
<event>
 6    2  0.2379986E-005  0.8728823E+03  0.7818608E-02  0.9840424E-01
         -4   -1    0    0    0  501 -0.00000000000E+00  0.00000000000E+00  0.59565852540E+03  0.59565852540E+03  0.00000000000E+00 0. -1.
         21   -1    0    0  501  502  0.00000000000E+00 -0.00000000000E+00 -0.55816699117E+03  0.55816699117E+03  0.00000000000E+00 0. -1.
   -9000010    2    1    2    0  502 -0.21674187109E+03 -0.10412235331E+03 -0.97098216097E+02  0.87826623946E+03  0.83910965950E+03 0.  0.
         13    1    3    3    0    0 -0.28936792940E+03 -0.35503464460E+03 -0.29998599686E+03  0.54751712933E+03  0.10566000000E+00 0. -1.
         -4    1    3    3    0  502  0.72626058310E+02  0.25091229130E+03  0.20288778077E+03  0.33074911013E+03  0.00000000000E+00 0. -1.
        -13    1    1    2    0    0  0.21674187109E+03  0.10412235331E+03  0.13458975033E+03  0.27555927711E+03  0.10566000000E+00 0.  1.
<mgrwt>
<rscale>  1 0.63237564E+03</rscale>
<asrwt>0</asrwt>
<pdfrwt beam="2">  1       21 0.85871844E-01 0.87288231E+03</pdfrwt>
<pdfrwt beam="1">  1       -4 0.91639774E-01 0.87288231E+03</pdfrwt>
<totfact> 0.45859411E+01</totfact>
</mgrwt>
</event>
<event>
 6    2  0.2379986E-005  0.1045108E+04  0.7818608E-02  0.9728249E-01
         21   -1    0    0  501  502  0.00000000000E+00  0.00000000000E+00  0.83274910537E+03  0.83274910537E+03  0.00000000000E+00 0. -1.
         -4   -1    0    0    0  501 -0.00000000000E+00 -0.00000000000E+00 -0.49707358519E+03  0.49707358519E+03  0.00000000000E+00 0. -1.
   -9000010    2    1    2    0  502 -0.19211681482E+03 -0.64766798962E+02  0.15171668658E+03  0.10560628096E+04  0.10252546494E+04 0.  0.
         13    1    3    3    0    0 -0.52124793552E+03  0.15972956774E+03  0.31025579942E+03  0.62727316006E+03  0.10566000000E+00 0. -1.
         -4    1    3    3    0  502  0.32913112070E+03 -0.22449636670E+03 -0.15853911285E+03  0.42878964957E+03  0.00000000000E+00 0. -1.
        -13    1    1    2    0    0  0.19211681482E+03  0.64766798962E+02  0.18395883360E+03  0.27375988093E+03  0.10566000000E+00 0.  1.
<mgrwt>
<rscale>  1 0.69359498E+03</rscale>
<asrwt>0</asrwt>
<pdfrwt beam="1">  1       21 0.12811525E+00 0.10451080E+04</pdfrwt>
<pdfrwt beam="2">  1       -4 0.76472860E-01 0.10451080E+04</pdfrwt>
<totfact> 0.25164006E+01</totfact>
</mgrwt>
</event>
<event>
 6    2  0.2379986E-005  0.9867359E+03  0.7818608E-02  0.9477367E-01
         -4   -1    0    0    0  501 -0.00000000000E+00  0.00000000000E+00  0.79632148558E+03  0.79632148558E+03  0.00000000000E+00 0. -1.
         21   -1    0    0  501  502  0.00000000000E+00 -0.00000000000E+00 -0.86741035877E+03  0.86741035877E+03  0.00000000000E+00 0. -1.
   -9000010    2    1    2    0  502  0.33975111583E+03  0.45600452553E+03 -0.32787656839E+03  0.10397840264E+04  0.80639743884E+03 0.  0.
         13    1    3    3    0    0 -0.10138268138E+03  0.52535067339E+03 -0.23135187798E+03  0.58291978927E+03  0.10566000000E+00 0. -1.
         -4    1    3    3    0  502  0.44113379721E+03 -0.69346147868E+02 -0.96524690415E+02  0.45686423708E+03  0.00000000000E+00 0. -1.
        -13    1    1    2    0    0 -0.33975111583E+03 -0.45600452553E+03  0.25678769520E+03  0.62394781799E+03  0.10566000000E+00 0.  1.
<mgrwt>
<rscale>  1 0.85973247E+03</rscale>
<asrwt>0</asrwt>
<pdfrwt beam="2">  1       21 0.13344775E+00 0.98673592E+03</pdfrwt>
<pdfrwt beam="1">  1       -4 0.12251100E+00 0.98673592E+03</pdfrwt>
<totfact> 0.73480156E+00</totfact>
</mgrwt>
</event>
<event>
 6    2  0.2379986E-005  0.1098733E+04  0.7818608E-02  0.9454909E-01
         21   -1    0    0  501  502  0.00000000000E+00  0.00000000000E+00  0.31549170464E+03  0.31549170464E+03  0.00000000000E+00 0. -1.
         -4   -1    0    0    0  501 -0.00000000000E+00 -0.00000000000E+00 -0.20446958598E+04  0.20446958598E+04  0.00000000000E+00 0. -1.
   -9000010    2    1    2    0  502  0.37201477759E+03 -0.24566813520E+03 -0.90632207607E+03  0.14243014845E+04  0.10042246690E+04 0.  0.
         13    1    3    3    0    0  0.13933880251E+03 -0.14723746628E+02 -0.10550481645E+04  0.10643113883E+04  0.10566000000E+00 0. -1.
         -4    1    3    3    0  502  0.23267597508E+03 -0.23094438857E+03  0.14872608844E+03  0.35999009622E+03  0.00000000000E+00 0. -1.
        -13    1    1    2    0    0 -0.37201477759E+03  0.24566813520E+03 -0.82288207910E+03  0.93588607997E+03  0.10566000000E+00 0.  1.
<mgrwt>
<rscale>  1 0.87691407E+03</rscale>
<asrwt>0</asrwt>
<pdfrwt beam="1">  1       21 0.48537185E-01 0.10987334E+04</pdfrwt>
<pdfrwt beam="2">  1       -4 0.31456860E+00 0.10987334E+04</pdfrwt>
<totfact> 0.39919689E+00</totfact>
</mgrwt>
</event>
<event>
 6    2  0.2379986E-005  0.1047384E+04  0.7818608E-02  0.9598277E-01
         21   -1    0    0  501  502  0.00000000000E+00  0.00000000000E+00  0.48788454157E+03  0.48788454157E+03  0.00000000000E+00 0. -1.
         -4   -1    0    0    0  501 -0.00000000000E+00 -0.00000000000E+00 -0.11703426643E+04  0.11703426643E+04  0.00000000000E+00 0. -1.
   -9000010    2    1    2    0  502  0.15463795121E+03  0.27158045469E+03 -0.17448705686E+03  0.10618184079E+04  0.99967182570E+03 0.  0.
         13    1    3    3    0    0  0.55853572049E+03  0.14613198826E+01 -0.13298065022E+03  0.57414993775E+03  0.10566000000E+00 0. -1.
         -4    1    3    3    0  502 -0.40389776929E+03  0.27011913481E+03 -0.41506406637E+02  0.48766847019E+03  0.00000000000E+00 0. -1.
        -13    1    1    2    0    0 -0.15463795121E+03 -0.27158045469E+03 -0.50797106585E+03  0.59640879791E+03  0.10566000000E+00 0.  1.
<mgrwt>
<rscale>  1 0.77410320E+03</rscale>
<asrwt>0</asrwt>
<pdfrwt beam="1">  1       21 0.75059160E-01 0.10473837E+04</pdfrwt>
<pdfrwt beam="2">  1       -4 0.18005272E+00 0.10473837E+04</pdfrwt>
<totfact> 0.10821017E+01</totfact>
</mgrwt>
</event>
<event>
 6    2  0.2379986E-005  0.1079885E+04  0.7818608E-02  0.9653464E-01
         -4   -1    0    0    0  501 -0.00000000000E+00  0.00000000000E+00  0.41420295819E+03  0.41420295819E+03  0.00000000000E+00 0. -1.
         21   -1    0    0  501  502  0.00000000000E+00 -0.00000000000E+00 -0.15441759176E+04  0.15441759176E+04  0.00000000000E+00 0. -1.
   -9000010    2    1    2    0  502 -0.21575442780E+03 -0.96314735636E+02 -0.12829256097E+04  0.16769165766E+04  0.10537194045E+04 0.  0.
         13    1    3    3    0    0  0.12378381767E+03  0.43324525106E+03 -0.55290838932E+03  0.71325421781E+03  0.10566000000E+00 0. -1.
         -4    1    3    3    0  502 -0.33953824548E+03 -0.52955998669E+03 -0.73001722041E+03  0.96366235879E+03  0.00000000000E+00 0. -1.
        -13    1    1    2    0    0  0.21575442780E+03  0.96314735636E+02  0.15295265037E+03  0.28146229914E+03  0.10566000000E+00 0.  1.
<mgrwt>
<rscale>  1 0.73856397E+03</rscale>
<asrwt>0</asrwt>
<pdfrwt beam="2">  1       21 0.23756553E+00 0.10798848E+04</pdfrwt>
<pdfrwt beam="1">  1       -4 0.63723531E-01 0.10798848E+04</pdfrwt>
<totfact> 0.58848675E+00</totfact>
</mgrwt>
</event>
<event>
 6    2  0.2379986E-005  0.1048262E+04  0.7818608E-02  0.9602010E-01
         -4   -1    0    0    0  501 -0.00000000000E+00  0.00000000000E+00  0.52187199417E+03  0.52187199417E+03  0.00000000000E+00 0. -1.
         21   -1    0    0  501  502  0.00000000000E+00 -0.00000000000E+00 -0.11653192491E+04  0.11653192491E+04  0.00000000000E+00 0. -1.
   -9000010    2    1    2    0  502  0.15937847185E+03 -0.26329476097E+03 -0.82133374056E+03  0.13317067268E+04  0.10020619065E+04 0.  0.
         13    1    3    3    0    0 -0.13632857678E+03  0.32260124321E+03 -0.47347189721E+03  0.58892503053E+03  0.10566000000E+00 0. -1.
         -4    1    3    3    0  502  0.29570704863E+03 -0.58589600418E+03 -0.34786184334E+03  0.74278169631E+03  0.00000000000E+00 0. -1.
        -13    1    1    2    0    0 -0.15937847185E+03  0.26329476097E+03  0.17788648568E+03  0.35548451639E+03  0.10566000000E+00 0.  1.
<mgrwt>
<rscale>  1 0.77163318E+03</rscale>
<asrwt>0</asrwt>
<pdfrwt beam="2">  1       21 0.17927988E+00 0.10482622E+04</pdfrwt>
<pdfrwt beam="1">  1       -4 0.80287999E-01 0.10482622E+04</pdfrwt>
<totfact> 0.87511165E+00</totfact>
</mgrwt>
</event>
<event>
 6    2  0.2379986E-005  0.1196886E+04  0.7818608E-02  0.9279427E-01
         -4   -1    0    0    0  501 -0.00000000000E+00  0.00000000000E+00  0.24070999506E+04  0.24070999506E+04  0.00000000000E+00 0. -1.
         21   -1    0    0  501  502  0.00000000000E+00 -0.00000000000E+00 -0.67248538271E+03  0.67248538271E+03  0.00000000000E+00 0. -1.
   -9000010    2    1    2    0  502  0.54938722527E+03 -0.34512191521E+03 -0.32298229748E+02  0.11973217213E+04  0.10057836094E+04 0.  0.
         13    1    3    3    0    0  0.76008557508E+03 -0.29206599334E+03 -0.28623941919E+03  0.86311392189E+03  0.10566000000E+00 0. -1.
         -4    1    3    3    0  502 -0.21069834981E+03 -0.53055921869E+02  0.25394118944E+03  0.33420779936E+03  0.00000000000E+00 0. -1.
        -13    1    1    2    0    0 -0.54938722527E+03  0.34512191521E+03  0.17669127977E+04  0.18822636121E+04  0.10566000000E+00 0.  1.
<mgrwt>
<rscale>  1 0.10269908E+04</rscale>
<asrwt>0</asrwt>
<pdfrwt beam="2">  1       21 0.10345929E+00 0.11968860E+04</pdfrwt>
<pdfrwt beam="1">  1       -4 0.37032306E+00 0.11968860E+04</pdfrwt>
<totfact> 0.29852431E-01</totfact>
</mgrwt>
</event>
<event>
 6    2  0.2379986E-005  0.1158283E+04  0.7818608E-02  0.9350448E-01
         -4   -1    0    0    0  501 -0.00000000000E+00  0.00000000000E+00  0.19615230230E+04  0.19615230230E+04  0.00000000000E+00 0. -1.
         21   -1    0    0  501  502  0.00000000000E+00 -0.00000000000E+00 -0.38831985956E+03  0.38831985956E+03  0.00000000000E+00 0.  1.
   -9000010    2    1    2    0  502 -0.53417236899E+03  0.14190426729E+03  0.12721870481E+04  0.17204879321E+04  0.10179105551E+04 0.  0.
         13    1    3    3    0    0 -0.41420287437E+03 -0.32938257844E+03  0.24329062701E+03  0.58244934928E+03  0.10566000000E+00 0. -1.
         -4    1    3    3    0  502 -0.11996949462E+03  0.47128684573E+03  0.10288964211E+04  0.11380385828E+04  0.00000000000E+00 0. -1.
        -13    1    1    2    0    0  0.53417236899E+03 -0.14190426729E+03  0.30101611538E+03  0.62935495052E+03  0.10566000000E+00 0.  1.
<mgrwt>
<rscale>  1 0.96268297E+03</rscale>
<asrwt>0</asrwt>
<pdfrwt beam="2">  1       21 0.59741518E-01 0.11582827E+04</pdfrwt>
<pdfrwt beam="1">  1       -4 0.30177277E+00 0.11582827E+04</pdfrwt>
<totfact> 0.30187539E+00</totfact>
</mgrwt>
</event>
<event>
 6    2  0.2379986E-005  0.1274710E+04  0.7818608E-02  0.9174416E-01
         21   -1    0    0  501  502  0.00000000000E+00  0.00000000000E+00  0.16198166133E+04  0.16198166133E+04  0.00000000000E+00 0. -1.
         -4   -1    0    0    0  501 -0.00000000000E+00 -0.00000000000E+00 -0.16714647131E+04  0.16714647131E+04  0.00000000000E+00 0. -1.
   -9000010    2    1    2    0  502  0.46121020320E+03 -0.64530704158E+03  0.12381895991E+04  0.17770761454E+04  0.99787279437E+03 0.  0.
         13    1    3    3    0    0  0.64591723742E+03 -0.62118435341E+03  0.13016324470E+04  0.15802930477E+04  0.10566000000E+00 0. -1.
         -4    1    3    3    0  502 -0.18470703422E+03 -0.24122688176E+02 -0.63442847879E+02  0.19678309766E+03  0.00000000000E+00 0. -1.
        -13    1    1    2    0    0 -0.46121020320E+03  0.64530704158E+03 -0.12898376989E+04  0.15142051810E+04  0.10566000000E+00 0.  1.
<mgrwt>
<rscale>  1 0.11321440E+04</rscale>
<asrwt>0</asrwt>
<pdfrwt beam="1">  1       21 0.24920256E+00 0.12747102E+04</pdfrwt>
<pdfrwt beam="2">  1       -4 0.25714841E+00 0.12747102E+04</pdfrwt>
<totfact> 0.11493021E-01</totfact>
</mgrwt>
</event>
<event>
 6    2  0.2379986E-005  0.1038314E+04  0.7818608E-02  0.9692590E-01
         21   -1    0    0  501  502  0.00000000000E+00  0.00000000000E+00  0.57332948401E+03  0.57332948401E+03  0.00000000000E+00 0. -1.
         -4   -1    0    0    0  501 -0.00000000000E+00 -0.00000000000E+00 -0.70608289159E+03  0.70608289159E+03  0.00000000000E+00 0. -1.
   -9000010    2    1    2    0  502 -0.18106128094E+03 -0.14656539223E+03 -0.86447008077E+02  0.10419068063E+04  0.10118458905E+04 0.  0.
         13    1    3    3    0    0 -0.46683143382E+03 -0.38391233762E+03 -0.22570078039E+03  0.64518301590E+03  0.10566000000E+00 0. -1.
         -4    1    3    3    0  502  0.28577015288E+03  0.23734694539E+03  0.13925377231E+03  0.39672379039E+03  0.00000000000E+00 0. -1.
        -13    1    1    2    0    0  0.18106128094E+03  0.14656539223E+03 -0.46306399508E+02  0.23750556931E+03  0.10566000000E+00 0.  1.
<mgrwt>
<rscale>  1 0.71459707E+03</rscale>
<asrwt>0</asrwt>
<pdfrwt beam="1">  1       21 0.88204537E-01 0.10383144E+04</pdfrwt>
<pdfrwt beam="2">  1       -4 0.10862814E+00 0.10383144E+04</pdfrwt>
<totfact> 0.28127100E+01</totfact>
</mgrwt>
</event>
<event>
 6    2  0.2379986E-005  0.1039551E+04  0.7818608E-02  0.9623694E-01
         21   -1    0    0  501  502  0.00000000000E+00  0.00000000000E+00  0.40523931392E+03  0.40523931392E+03  0.00000000000E+00 0. -1.
         -4   -1    0    0    0  501 -0.00000000000E+00 -0.00000000000E+00 -0.12953289209E+04  0.12953289209E+04  0.00000000000E+00 0. -1.
   -9000010    2    1    2    0  502 -0.29200057999E+03  0.24758634304E+02 -0.36968893660E+03  0.11033294236E+04  0.99739088552E+03 0.  0.
         13    1    3    3    0    0  0.99781792976E+02  0.44902635415E+03 -0.19864640097E+03  0.50104039429E+03  0.10566000000E+00 0. -1.
         -4    1    3    3    0  502 -0.39178237296E+03 -0.42426771985E+03 -0.17104253563E+03  0.60228902934E+03  0.00000000000E+00 0. -1.
        -13    1    1    2    0    0  0.29200057999E+03 -0.24758634304E+02 -0.52040067039E+03  0.59723881119E+03  0.10566000000E+00 0.  1.
<mgrwt>
<rscale>  1 0.75747642E+03</rscale>
<asrwt>0</asrwt>
<pdfrwt beam="1">  1       21 0.62344510E-01 0.10395508E+04</pdfrwt>
<pdfrwt beam="2">  1       -4 0.19928137E+00 0.10395508E+04</pdfrwt>
<totfact> 0.12246513E+01</totfact>
</mgrwt>
</event>
<event>
 6    2  0.2379986E-005  0.9188303E+03  0.7818608E-02  0.9760321E-01
         21   -1    0    0  501  502  0.00000000000E+00  0.00000000000E+00  0.21426629747E+03  0.21426629747E+03  0.00000000000E+00 0. -1.
         -4   -1    0    0    0  501 -0.00000000000E+00 -0.00000000000E+00 -0.16489132246E+04  0.16489132246E+04  0.00000000000E+00 0. -1.
   -9000010    2    1    2    0  502 -0.18665776910E+03  0.19257044628E+03 -0.10667587905E+04  0.14079145533E+04  0.87881998883E+03 0.  0.
         13    1    3    3    0    0 -0.37427114720E+03  0.35371475355E+03 -0.28629260428E+03  0.58919986842E+03  0.10566000000E+00 0. -1.
         -4    1    3    3    0  502  0.18761337811E+03 -0.16114430728E+03 -0.78046618626E+03  0.81871468493E+03  0.00000000000E+00 0. -1.
        -13    1    1    2    0    0  0.18665776910E+03 -0.19257044628E+03 -0.36788813659E+03  0.45526496873E+03  0.10566000000E+00 0.  1.
<mgrwt>
<rscale>  1 0.67536117E+03</rscale>
<asrwt>0</asrwt>
<pdfrwt beam="1">  1       21 0.32964046E-01 0.91883027E+03</pdfrwt>
<pdfrwt beam="2">  1       -4 0.25367895E+00 0.91883027E+03</pdfrwt>
<totfact> 0.21838372E+01</totfact>
</mgrwt>
</event>
<event>
 6    2  0.2379986E-005  0.1072093E+04  0.7818608E-02  0.1000990E+00
         -4   -1    0    0    0  501 -0.00000000000E+00  0.00000000000E+00  0.27626816093E+03  0.27626816093E+03  0.00000000000E+00 0. -1.
         21   -1    0    0  501  502  0.00000000000E+00 -0.00000000000E+00 -0.12648102210E+04  0.12648102210E+04  0.00000000000E+00 0. -1.
   -9000010    2    1    2    0  502  0.98984364793E+01 -0.74793244681E+02 -0.99840595302E+03  0.14649908269E+04  0.10694352095E+04 0.  0.
         13    1    3    3    0    0 -0.21050837206E+03 -0.40074356683E+03 -0.71833197470E+02  0.45833306720E+03  0.10566000000E+00 0. -1.
         -4    1    3    3    0  502  0.22040680854E+03  0.32595032215E+03 -0.92657275555E+03  0.10066577597E+04  0.00000000000E+00 0. -1.
        -13    1    1    2    0    0 -0.98984364793E+01  0.74793244681E+02  0.98638929092E+01  0.76087555106E+02  0.10566000000E+00 0.  1.
<mgrwt>
<rscale>  1 0.55218256E+03</rscale>
<asrwt>0</asrwt>
<pdfrwt beam="2">  1       21 0.19458619E+00 0.10720931E+04</pdfrwt>
<pdfrwt beam="1">  1       -4 0.42502794E-01 0.10720931E+04</pdfrwt>
<totfact> 0.27044482E+01</totfact>
</mgrwt>
</event>
<event>
 6    2  0.2379986E-005  0.1053237E+04  0.7818608E-02  0.9550318E-01
         21   -1    0    0  501  502  0.00000000000E+00  0.00000000000E+00  0.43947457721E+03  0.43947457721E+03  0.00000000000E+00 0.  1.
         -4   -1    0    0    0  501 -0.00000000000E+00 -0.00000000000E+00 -0.11422866978E+04  0.11422866978E+04  0.00000000000E+00 0. -1.
   -9000010    2    1    2    0  502  0.30083180743E+03  0.20231209643E+03 -0.55186088354E+03  0.11890575090E+04  0.98887681954E+03 0.  0.
         13    1    3    3    0    0  0.36969931922E+03 -0.30973587735E+03 -0.79099635689E+02  0.48874396557E+03  0.10566000000E+00 0. -1.
         -4    1    3    3    0  502 -0.68867511798E+02  0.51204797379E+03 -0.47276124785E+03  0.70031354343E+03  0.00000000000E+00 0. -1.
        -13    1    1    2    0    0 -0.30083180743E+03 -0.20231209643E+03 -0.15095123708E+03  0.39270376604E+03  0.10566000000E+00 0.  1.
<mgrwt>
<rscale>  1 0.80673577E+03</rscale>
<asrwt>0</asrwt>
<pdfrwt beam="1">  1       21 0.67611475E-01 0.10532366E+04</pdfrwt>
<pdfrwt beam="2">  1       -4 0.17573641E+00 0.10532366E+04</pdfrwt>
<totfact> 0.14751088E+01</totfact>
</mgrwt>
</event>
<event>
 6    2  0.2379986E-005  0.1062188E+04  0.7818608E-02  0.9574350E-01
         -4   -1    0    0    0  501 -0.00000000000E+00  0.00000000000E+00  0.98599114888E+03  0.98599114888E+03  0.00000000000E+00 0. -1.
         21   -1    0    0  501  502  0.00000000000E+00 -0.00000000000E+00 -0.64110680062E+03  0.64110680062E+03  0.00000000000E+00 0.  1.
   -9000010    2    1    2    0  502  0.24063863585E+02 -0.32441002351E+03  0.59433841052E+03  0.12171610358E+04  0.10111488060E+04 0.  0.
         13    1    3    3    0    0 -0.23907347277E+03 -0.59527516682E+03  0.53414576463E+03  0.83475766463E+03  0.10566000000E+00 0. -1.
         -4    1    3    3    0  502  0.26313733636E+03  0.27086514331E+03  0.60192645890E+02  0.38240337115E+03  0.00000000000E+00 0. -1.
        -13    1    1    2    0    0 -0.24063863585E+02  0.32441002351E+03 -0.24945406227E+03  0.40993691372E+03  0.10566000000E+00 0.  1.
<mgrwt>
<rscale>  1 0.79017353E+03</rscale>
<asrwt>0</asrwt>
<pdfrwt beam="2">  1       21 0.98631815E-01 0.10621878E+04</pdfrwt>
<pdfrwt beam="1">  1       -4 0.15169095E+00 0.10621878E+04</pdfrwt>
<totfact> 0.90675180E+00</totfact>
</mgrwt>
</event>
<event>
 6    2  0.2379986E-005  0.1160848E+04  0.7818608E-02  0.9313407E-01
         21   -1    0    0  501  502  0.00000000000E+00  0.00000000000E+00  0.17684086269E+04  0.17684086269E+04  0.00000000000E+00 0. -1.
         -4   -1    0    0    0  501 -0.00000000000E+00 -0.00000000000E+00 -0.76050904491E+03  0.76050904491E+03  0.00000000000E+00 0. -1.
   -9000010    2    1    2    0  502  0.38260591151E+03  0.49802404330E+03  0.13765542310E+04  0.18006859144E+04  0.97629553926E+03 0.  0.
         13    1    3    3    0    0  0.41343123441E+03  0.76521875597E+03  0.88803308056E+03  0.12430156449E+04  0.10566000000E+00 0. -1.
         -4    1    3    3    0  502 -0.30825322899E+02 -0.26719471267E+03  0.48852115048E+03  0.55767026949E+03  0.00000000000E+00 0. -1.
        -13    1    1    2    0    0 -0.38260591151E+03 -0.49802404330E+03 -0.36865464900E+03  0.72823175749E+03  0.10566000000E+00 0.  1.
<mgrwt>
<rscale>  1 0.99557904E+03</rscale>
<asrwt>0</asrwt>
<pdfrwt beam="1">  1       21 0.27206286E+00 0.11608481E+04</pdfrwt>
<pdfrwt beam="2">  1       -4 0.11700139E+00 0.11608481E+04</pdfrwt>
<totfact> 0.84408847E-01</totfact>
</mgrwt>
</event>
<event>
 6    2  0.2379986E-005  0.1045716E+04  0.7818608E-02  0.9618942E-01
         21   -1    0    0  501  502  0.00000000000E+00  0.00000000000E+00  0.18624996376E+04  0.18624996376E+04  0.00000000000E+00 0. -1.
         -4   -1    0    0    0  501 -0.00000000000E+00 -0.00000000000E+00 -0.24354366596E+03  0.24354366596E+03  0.00000000000E+00 0. -1.
   -9000010    2    1    2    0  502 -0.18223890363E+03 -0.22891662842E+03  0.13581144091E+04  0.17140583897E+04  0.10039460018E+04 0.  0.
         13    1    3    3    0    0  0.14368828099E+03 -0.56047293613E+03  0.69761929216E+03  0.90633819416E+03  0.10566000000E+00 0. -1.
         -4    1    3    3    0  502 -0.32592718462E+03  0.33155630771E+03  0.66049511689E+03  0.80772019555E+03  0.00000000000E+00 0. -1.
        -13    1    1    2    0    0  0.18223890363E+03  0.22891662842E+03  0.26084156261E+03  0.39198491389E+03  0.10566000000E+00 0.  1.
<mgrwt>
<rscale>  1 0.76055082E+03</rscale>
<asrwt>0</asrwt>
<pdfrwt beam="1">  1       21 0.28653840E+00 0.10457157E+04</pdfrwt>
<pdfrwt beam="2">  1       -4 0.37468257E-01 0.10457157E+04</pdfrwt>
<totfact> 0.88806896E+00</totfact>
</mgrwt>
</event>
<event>
 6    2  0.2379986E-005  0.1075175E+04  0.7818608E-02  0.9677627E-01
         21   -1    0    0  501  502  0.00000000000E+00  0.00000000000E+00  0.31616784378E+03  0.31616784378E+03  0.00000000000E+00 0. -1.
         -4   -1    0    0    0  501 -0.00000000000E+00 -0.00000000000E+00 -0.15344557175E+04  0.15344557175E+04  0.00000000000E+00 0. -1.
   -9000010    2    1    2    0  502  0.10651408177E+03  0.19321791662E+03 -0.68849356229E+03  0.12767242352E+04  0.10522941482E+04 0.  0.
         13    1    3    3    0    0  0.14748872936E+03  0.59513601852E+03 -0.20465316519E+03  0.64639209077E+03  0.10566000000E+00 0. -1.
         -4    1    3    3    0  502 -0.40974647590E+02 -0.40191810190E+03 -0.48384039711E+03  0.63033214439E+03  0.00000000000E+00 0. -1.
        -13    1    1    2    0    0 -0.10651408177E+03 -0.19321791662E+03 -0.52979431142E+03  0.57389932609E+03  0.10566000000E+00 0.  1.
<mgrwt>
<rscale>  1 0.72364647E+03</rscale>
<asrwt>0</asrwt>
<pdfrwt beam="1">  1       21 0.48641206E-01 0.10751750E+04</pdfrwt>
<pdfrwt beam="2">  1       -4 0.23607011E+00 0.10751750E+04</pdfrwt>
<totfact> 0.12218898E+01</totfact>
</mgrwt>
</event>
<event>
 6    2  0.2379986E-005  0.1073708E+04  0.7818608E-02  0.1012361E+00
         -4   -1    0    0    0  501 -0.00000000000E+00  0.00000000000E+00  0.70393462780E+03  0.70393462780E+03  0.00000000000E+00 0. -1.
         21   -1    0    0  501  502  0.00000000000E+00 -0.00000000000E+00 -0.45149240966E+03  0.45149240966E+03  0.00000000000E+00 0. -1.
   -9000010    2    1    2    0  502  0.99009464270E+01  0.51800292898E+02  0.25106515182E+03  0.11026709330E+04  0.10724123166E+04 0.  0.
         13    1    3    3    0    0 -0.45840921551E+03  0.28001025610E+03  0.33800644173E+02  0.53822601860E+03  0.10566000000E+00 0. -1.
         -4    1    3    3    0  502  0.46831016194E+03 -0.22820996320E+03  0.21726450765E+03  0.56444491438E+03  0.00000000000E+00 0. -1.
        -13    1    1    2    0    0 -0.99009464270E+01 -0.51800292898E+02  0.13770663149E+01  0.52756104482E+02  0.10566000000E+00 0.  1.
<mgrwt>
<rscale>  1 0.50547067E+03</rscale>
<asrwt>0</asrwt>
<pdfrwt beam="2">  1       21 0.69460371E-01 0.10737083E+04</pdfrwt>
<pdfrwt beam="1">  1       -4 0.10829763E+00 0.10737083E+04</pdfrwt>
<totfact> 0.49492810E+01</totfact>
</mgrwt>
</event>
<event>
 6    2  0.2379986E-005  0.9955875E+03  0.7818608E-02  0.1008855E+00
         -4   -1    0    0    0  501 -0.00000000000E+00  0.00000000000E+00  0.18358176939E+04  0.18358176939E+04  0.00000000000E+00 0. -1.
         21   -1    0    0  501  502  0.00000000000E+00 -0.00000000000E+00 -0.15571310405E+03  0.15571310405E+03  0.00000000000E+00 0. -1.
   -9000010    2    1    2    0  502  0.63752309379E+02 -0.36993013930E+02  0.15676244189E+04  0.18570516544E+04  0.99285532096E+03 0.  0.
         13    1    3    3    0    0  0.12579810180E+03  0.11889445320E+03 -0.87149259435E+02  0.19379385440E+03  0.10566000000E+00 0. -1.
         -4    1    3    3    0  502 -0.62045792425E+02 -0.15588746713E+03  0.16547736783E+04  0.16632578000E+04  0.00000000000E+00 0. -1.
        -13    1    1    2    0    0 -0.63752309379E+02  0.36993013930E+02  0.11248017097E+03  0.13447914358E+03  0.10566000000E+00 0.  1.
<mgrwt>
<rscale>  1 0.51932367E+03</rscale>
<asrwt>0</asrwt>
<pdfrwt beam="2">  1       21 0.23955863E-01 0.99558753E+03</pdfrwt>
<pdfrwt beam="1">  1       -4 0.28243348E+00 0.99558753E+03</pdfrwt>
<totfact> 0.27296827E+01</totfact>
</mgrwt>
</event>
<event>
 6    2  0.2379986E-005  0.1011722E+04  0.7818608E-02  0.9952513E-01
         -4   -1    0    0    0  501 -0.00000000000E+00  0.00000000000E+00  0.34869479626E+03  0.34869479626E+03  0.00000000000E+00 0. -1.
         21   -1    0    0  501  502  0.00000000000E+00 -0.00000000000E+00 -0.16049857736E+04  0.16049857736E+04  0.00000000000E+00 0. -1.
   -9000010    2    1    2    0  502  0.70554839051E+02 -0.81300334490E+02 -0.14285668330E+04  0.17505384735E+04  0.10059791356E+04 0.  0.
         13    1    3    3    0    0  0.36249192286E+03 -0.27507109587E+03 -0.12999409002E+04  0.13772838695E+04  0.10566000000E+00 0. -1.
         -4    1    3    3    0  502 -0.29193708381E+03  0.19377076138E+03 -0.12862593278E+03  0.37325460406E+03  0.00000000000E+00 0. -1.
        -13    1    1    2    0    0 -0.70554839051E+02  0.81300334490E+02  0.17227585564E+03  0.20314209633E+03  0.10566000000E+00 0.  1.
<mgrwt>
<rscale>  1 0.57782429E+03</rscale>
<asrwt>0</asrwt>
<pdfrwt beam="2">  1       21 0.24692088E+00 0.10117222E+04</pdfrwt>
<pdfrwt beam="1">  1       -4 0.53645354E-01 0.10117222E+04</pdfrwt>
<totfact> 0.75220219E+00</totfact>
</mgrwt>
</event>
<event>
 6    2  0.2379986E-005  0.1014020E+04  0.7818608E-02  0.9872968E-01
         21   -1    0    0  501  502  0.00000000000E+00  0.00000000000E+00  0.17773256628E+04  0.17773256628E+04  0.00000000000E+00 0. -1.
         -4   -1    0    0    0  501 -0.00000000000E+00 -0.00000000000E+00 -0.22539869286E+03  0.22539869286E+03  0.00000000000E+00 0. -1.
   -9000010    2    1    2    0  502  0.10465130087E+03 -0.89959429988E+02  0.15642576749E+04  0.18641723753E+04  0.10045854754E+04 0.  0.
         13    1    3    3    0    0  0.10940295310E+03 -0.32363000752E+03  0.66180254758E+02  0.34797302367E+03  0.10566000000E+00 0. -1.
         -4    1    3    3    0  502 -0.47516522286E+01  0.23367057753E+03  0.14980774202E+04  0.15161993516E+04  0.00000000000E+00 0. -1.
        -13    1    1    2    0    0 -0.10465130087E+03  0.89959429988E+02 -0.12330704996E+02  0.13855198038E+03  0.10566000000E+00 0.  1.
<mgrwt>
<rscale>  1 0.61589459E+03</rscale>
<asrwt>0</asrwt>
<pdfrwt beam="1">  1       21 0.27343471E+00 0.10140200E+04</pdfrwt>
<pdfrwt beam="2">  1       -4 0.34676723E-01 0.10140200E+04</pdfrwt>
<totfact> 0.12588947E+01</totfact>
</mgrwt>
</event>
<event>
 6    2  0.2379986E-005  0.1004773E+04  0.7818608E-02  0.1042502E+00
         21   -1    0    0  501  502  0.00000000000E+00  0.00000000000E+00  0.94438270349E+03  0.94438270349E+03  0.00000000000E+00 0. -1.
         -4   -1    0    0    0  501 -0.00000000000E+00 -0.00000000000E+00 -0.32036620845E+03  0.32036620845E+03  0.00000000000E+00 0. -1.
   -9000010    2    1    2    0  502  0.26185559334E+02 -0.23707273810E+00  0.67290742656E+03  0.12092865457E+04  0.10044320809E+04 0.  0.
         13    1    3    3    0    0  0.35043820705E+03  0.22470920767E+03  0.69922836614E+03  0.81376992089E+03  0.10566000000E+00 0. -1.
         -4    1    3    3    0  502 -0.32425264772E+03 -0.22494628041E+03 -0.26320939573E+02  0.39551662479E+03  0.00000000000E+00 0. -1.
        -13    1    1    2    0    0 -0.26185559334E+02  0.23707273810E+00 -0.48890931527E+02  0.55462366256E+02  0.10566000000E+00 0.  1.
<mgrwt>
<rscale>  1 0.40371221E+03</rscale>
<asrwt>0</asrwt>
<pdfrwt beam="1">  1       21 0.14528965E+00 0.10047734E+04</pdfrwt>
<pdfrwt beam="2">  1       -4 0.49287110E-01 0.10047734E+04</pdfrwt>
<totfact> 0.47047185E+01</totfact>
</mgrwt>
</event>
<event>
 6    2  0.2379986E-005  0.1026085E+04  0.7818608E-02  0.9612556E-01
         -4   -1    0    0    0  501 -0.00000000000E+00  0.00000000000E+00  0.10093301229E+04  0.10093301229E+04  0.00000000000E+00 0. -1.
         21   -1    0    0  501  502  0.00000000000E+00 -0.00000000000E+00 -0.49483782125E+03  0.49483782125E+03  0.00000000000E+00 0. -1.
   -9000010    2    1    2    0  502  0.22051824549E+03 -0.22709090985E+03  0.17660713041E+03  0.10411722876E+04  0.97603846027E+03 0.  0.
         13    1    3    3    0    0  0.14906516546E+03  0.20588681139E+03 -0.30006827336E+03  0.39325663694E+03  0.10566000000E+00 0. -1.
         -4    1    3    3    0  502  0.71453080030E+02 -0.43297772124E+03  0.47667540378E+03  0.64791565061E+03  0.00000000000E+00 0. -1.
        -13    1    1    2    0    0 -0.22051824549E+03  0.22709090985E+03  0.33788517126E+03  0.46299565662E+03  0.10566000000E+00 0.  1.
<mgrwt>
<rscale>  1 0.76470703E+03</rscale>
<asrwt>0</asrwt>
<pdfrwt beam="2">  1       21 0.76128896E-01 0.10260846E+04</pdfrwt>
<pdfrwt beam="1">  1       -4 0.15528156E+00 0.10260846E+04</pdfrwt>
<totfact> 0.15894814E+01</totfact>
</mgrwt>
</event>
<event>
 6    2  0.2379986E-005  0.1132385E+04  0.7818608E-02  0.9389402E-01
         -4   -1    0    0    0  501 -0.00000000000E+00  0.00000000000E+00  0.15885397271E+04  0.15885397271E+04  0.00000000000E+00 0. -1.
         21   -1    0    0  501  502  0.00000000000E+00 -0.00000000000E+00 -0.91367398651E+03  0.91367398651E+03  0.00000000000E+00 0.  1.
   -9000010    2    1    2    0  502 -0.41298645332E+03 -0.30622054407E+03 -0.48624581485E+03  0.12323677042E+04  0.10089431767E+04 0.  0.
         13    1    3    3    0    0  0.83198141465E+02  0.26257542511E+03 -0.38118628682E+03  0.47028797671E+03  0.10566000000E+00 0. -1.
         -4    1    3    3    0  502 -0.49618459479E+03 -0.56879596917E+03 -0.10505952802E+03  0.76207972751E+03  0.00000000000E+00 0. -1.
        -13    1    1    2    0    0  0.41298645332E+03  0.30622054407E+03  0.11611115554E+04  0.12698460093E+04  0.10566000000E+00 0.  1.
<mgrwt>
<rscale>  1 0.92953034E+03</rscale>
<asrwt>0</asrwt>
<pdfrwt beam="2">  1       21 0.14056523E+00 0.11323847E+04</pdfrwt>
<pdfrwt beam="1">  1       -4 0.24439073E+00 0.11323847E+04</pdfrwt>
<totfact> 0.84503202E-01</totfact>
</mgrwt>
</event>
<event>
 6    2  0.2379986E-005  0.1045580E+04  0.7818608E-02  0.9590541E-01
         -4   -1    0    0    0  501 -0.00000000000E+00  0.00000000000E+00  0.55442447971E+03  0.55442447971E+03  0.00000000000E+00 0. -1.
         21   -1    0    0  501  502  0.00000000000E+00 -0.00000000000E+00 -0.86830692651E+03  0.86830692651E+03  0.00000000000E+00 0. -1.
   -9000010    2    1    2    0  502  0.29628139281E+03  0.12758971688E+03 -0.33901734056E+03  0.10991675429E+04  0.99457263720E+03 0.  0.
         13    1    3    3    0    0  0.57258942892E+03  0.31983054642E+03 -0.38331875827E+03  0.75966013068E+03  0.10566000000E+00 0. -1.
         -4    1    3    3    0  502 -0.27630803611E+03 -0.19224082955E+03  0.44301417716E+02  0.33950741226E+03  0.00000000000E+00 0. -1.
        -13    1    1    2    0    0 -0.29628139281E+03 -0.12758971688E+03  0.25134893758E+02  0.32356386329E+03  0.10566000000E+00 0.  1.
<mgrwt>
<rscale>  1 0.77925433E+03</rscale>
<asrwt>0</asrwt>
<pdfrwt beam="2">  1       21 0.13358568E+00 0.10455795E+04</pdfrwt>
<pdfrwt beam="1">  1       -4 0.85296074E-01 0.10455795E+04</pdfrwt>
<totfact> 0.17505748E+01</totfact>
</mgrwt>
</event>
<event>
 6    2  0.2379986E-005  0.1026164E+04  0.7818608E-02  0.9729477E-01
         -4   -1    0    0    0  501 -0.00000000000E+00  0.00000000000E+00  0.68490605306E+03  0.68490605306E+03  0.00000000000E+00 0. -1.
         21   -1    0    0  501  502  0.00000000000E+00 -0.00000000000E+00 -0.56346968500E+03  0.56346968500E+03  0.00000000000E+00 0. -1.
   -9000010    2    1    2    0  502 -0.31732819953E+02 -0.21092873592E+03  0.67619816582E+02  0.10283890660E+04  0.10037498334E+04 0.  0.
         13    1    3    3    0    0 -0.74401660414E+02 -0.31674641021E+03  0.49149136750E+03  0.58942995423E+03  0.10566000000E+00 0. -1.
         -4    1    3    3    0  502  0.42668840462E+02  0.10581767428E+03 -0.42387155092E+03  0.43895911178E+03  0.00000000000E+00 0. -1.
        -13    1    1    2    0    0  0.31732819953E+02  0.21092873592E+03  0.53816551483E+02  0.21998667205E+03  0.10566000000E+00 0.  1.
<mgrwt>
<rscale>  1 0.69288534E+03</rscale>
<asrwt>0</asrwt>
<pdfrwt beam="2">  1       21 0.86687644E-01 0.10261636E+04</pdfrwt>
<pdfrwt beam="1">  1       -4 0.10537016E+00 0.10261636E+04</pdfrwt>
<totfact> 0.31629462E+01</totfact>
</mgrwt>
</event>
<event>
 6    2  0.2379986E-005  0.1008506E+04  0.7818608E-02  0.9904563E-01
         21   -1    0    0  501  502  0.00000000000E+00  0.00000000000E+00  0.54082735367E+03  0.54082735367E+03  0.00000000000E+00 0. -1.
         -4   -1    0    0    0  501 -0.00000000000E+00 -0.00000000000E+00 -0.71474171921E+03  0.71474171921E+03  0.00000000000E+00 0. -1.
   -9000010    2    1    2    0  502  0.57079462050E+02  0.11310429443E+03  0.37385387247E+02  0.10091989385E+04  0.10005169584E+04 0.  0.
         13    1    3    3    0    0  0.30858590249E+03  0.40678208037E+02 -0.39553230643E+03  0.50331480449E+03  0.10566000000E+00 0. -1.
         -4    1    3    3    0  502 -0.25150644044E+03  0.72426086394E+02  0.43291769368E+03  0.50588413404E+03  0.00000000000E+00 0. -1.
        -13    1    1    2    0    0 -0.57079462050E+02 -0.11310429443E+03 -0.21129975278E+03  0.24637013434E+03  0.10566000000E+00 0.  1.
<mgrwt>
<rscale>  1 0.60040672E+03</rscale>
<asrwt>0</asrwt>
<pdfrwt beam="1">  1       21 0.83204209E-01 0.10085062E+04</pdfrwt>
<pdfrwt beam="2">  1       -4 0.10996026E+00 0.10085062E+04</pdfrwt>
<totfact> 0.31464521E+01</totfact>
</mgrwt>
</event>
<event>
 6    2  0.2379986E-005  0.1044979E+04  0.7818608E-02  0.9590801E-01
         -4   -1    0    0    0  501 -0.00000000000E+00  0.00000000000E+00  0.13297094599E+04  0.13297094599E+04  0.00000000000E+00 0. -1.
         21   -1    0    0  501  502  0.00000000000E+00 -0.00000000000E+00 -0.37590996578E+03  0.37590996578E+03  0.00000000000E+00 0. -1.
   -9000010    2    1    2    0  502 -0.25382567551E+03 -0.19951756037E+03  0.52666501031E+03  0.11701956600E+04  0.99385467705E+03 0.  0.
         13    1    3    3    0    0 -0.15918233275E+03  0.32067464197E+03 -0.78577217689E+02  0.36653189679E+03  0.10566000000E+00 0. -1.
         -4    1    3    3    0  502 -0.94643342763E+02 -0.52019220234E+03  0.60524222799E+03  0.80366376318E+03  0.00000000000E+00 0. -1.
        -13    1    1    2    0    0  0.25382567551E+03  0.19951756037E+03  0.42713448378E+03  0.53542376567E+03  0.10566000000E+00 0.  1.
<mgrwt>
<rscale>  1 0.77908052E+03</rscale>
<asrwt>0</asrwt>
<pdfrwt beam="2">  1       21 0.57832303E-01 0.10449794E+04</pdfrwt>
<pdfrwt beam="1">  1       -4 0.20457068E+00 0.10449794E+04</pdfrwt>
<totfact> 0.13355607E+01</totfact>
</mgrwt>
</event>
<event>
 6    2  0.2379986E-005  0.1014525E+04  0.7818608E-02  0.9845144E-01
         21   -1    0    0  501  502  0.00000000000E+00  0.00000000000E+00  0.95713006825E+03  0.95713006825E+03  0.00000000000E+00 0.  1.
         -4   -1    0    0    0  501 -0.00000000000E+00 -0.00000000000E+00 -0.35599060284E+03  0.35599060284E+03  0.00000000000E+00 0. -1.
   -9000010    2    1    2    0  502 -0.10837189961E+03  0.10488152914E+03  0.54903679349E+03  0.11535609539E+04  0.10032531435E+04 0.  0.
         13    1    3    3    0    0  0.13067968071E+03  0.26912422499E+03  0.74547164686E+03  0.80326397583E+03  0.10566000000E+00 0. -1.
         -4    1    3    3    0  502 -0.23905158032E+03 -0.16424269585E+03 -0.19643485337E+03  0.35029697802E+03  0.00000000000E+00 0. -1.
        -13    1    1    2    0    0  0.10837189961E+03 -0.10488152914E+03  0.52102671926E+02  0.15955971724E+03  0.10566000000E+00 0.  1.
<mgrwt>
<rscale>  1 0.62995129E+03</rscale>
<asrwt>0</asrwt>
<pdfrwt beam="1">  1       21 0.14725078E+00 0.10145252E+04</pdfrwt>
<pdfrwt beam="2">  1       -4 0.54767785E-01 0.10145252E+04</pdfrwt>
<totfact> 0.36201412E+01</totfact>
</mgrwt>
</event>
<event>
 6    2  0.2379986E-005  0.9588857E+03  0.7818608E-02  0.1015514E+00
         21   -1    0    0  501  502  0.00000000000E+00  0.00000000000E+00  0.58017499255E+03  0.58017499255E+03  0.00000000000E+00 0. -1.
         -4   -1    0    0    0  501 -0.00000000000E+00 -0.00000000000E+00 -0.76129038225E+03  0.76129038225E+03  0.00000000000E+00 0. -1.
   -9000010    2    1    2    0  502 -0.36624211850E+02 -0.56371607161E+02  0.17872495686E+03  0.97539956493E+03  0.95652632482E+03 0.  0.
         13    1    3    3    0    0 -0.46841713627E+03 -0.46975104075E+02  0.25718173582E+03  0.53643613819E+03  0.10566000000E+00 0. -1.
         -4    1    3    3    0  502  0.43179292442E+03 -0.93965030857E+01 -0.78456778967E+02  0.43896342674E+03  0.00000000000E+00 0. -1.
        -13    1    1    2    0    0  0.36624211850E+02  0.56371607161E+02 -0.35984034655E+03  0.36606580988E+03  0.10566000000E+00 0.  1.
<mgrwt>
<rscale>  1 0.49340851E+03</rscale>
<asrwt>0</asrwt>
<pdfrwt beam="1">  1       21 0.89257691E-01 0.95888566E+03</pdfrwt>
<pdfrwt beam="2">  1       -4 0.11712160E+00 0.95888566E+03</pdfrwt>
<totfact> 0.22865396E+01</totfact>
</mgrwt>
</event>
<event>
 6    2  0.2379986E-005  0.1006814E+04  0.7818608E-02  0.9863387E-01
         21   -1    0    0  501  502  0.00000000000E+00  0.00000000000E+00  0.21950168557E+03  0.21950168557E+03  0.00000000000E+00 0. -1.
         -4   -1    0    0    0  501 -0.00000000000E+00 -0.00000000000E+00 -0.15908689597E+04  0.15908689597E+04  0.00000000000E+00 0. -1.
   -9000010    2    1    2    0  502 -0.94490701514E+02 -0.11054924353E+03 -0.13107901053E+04  0.16528294365E+04  0.99625539801E+03 0.  0.
         13    1    3    3    0    0 -0.36041092615E+03  0.32741984851E+03 -0.53824943588E+03  0.72581833766E+03  0.10566000000E+00 0. -1.
         -4    1    3    3    0  502  0.26592022464E+03 -0.43796909204E+03 -0.77254066943E+03  0.92701109884E+03  0.00000000000E+00 0. -1.
        -13    1    1    2    0    0  0.94490701514E+02  0.11054924353E+03 -0.60577168830E+02  0.15754120878E+03  0.10566000000E+00 0.  1.
<mgrwt>
<rscale>  1 0.62069016E+03</rscale>
<asrwt>0</asrwt>
<pdfrwt beam="1">  1       21 0.33769491E-01 0.10068140E+04</pdfrwt>
<pdfrwt beam="2">  1       -4 0.24474907E+00 0.10068140E+04</pdfrwt>
<totfact> 0.23378749E+01</totfact>
</mgrwt>
</event>
<event>
 6    2  0.2379986E-005  0.1046084E+04  0.7818608E-02  0.9572443E-01
         -4   -1    0    0    0  501 -0.00000000000E+00  0.00000000000E+00  0.95822639823E+03  0.95822639823E+03  0.00000000000E+00 0. -1.
         21   -1    0    0  501  502  0.00000000000E+00 -0.00000000000E+00 -0.51696093172E+03  0.51696093172E+03  0.00000000000E+00 0. -1.
   -9000010    2    1    2    0  502 -0.13984417991E+03  0.31298071038E+03  0.22543430733E+03  0.10700991665E+04  0.98832093953E+03 0.  0.
         13    1    3    3    0    0  0.29052738544E+03  0.45845153672E+03  0.28311704548E+03  0.61215949378E+03  0.10566000000E+00 0. -1.
         -4    1    3    3    0  502 -0.43037156535E+03 -0.14547082633E+03 -0.57682738154E+02  0.45793967273E+03  0.00000000000E+00 0. -1.
        -13    1    1    2    0    0  0.13984417991E+03 -0.31298071038E+03  0.21583115917E+03  0.40508816344E+03  0.10566000000E+00 0.  1.
<mgrwt>
<rscale>  1 0.79147243E+03</rscale>
<asrwt>0</asrwt>
<pdfrwt beam="2">  1       21 0.79532451E-01 0.10460839E+04</pdfrwt>
<pdfrwt beam="1">  1       -4 0.14741945E+00 0.10460839E+04</pdfrwt>
<totfact> 0.16470381E+01</totfact>
</mgrwt>
</event>
<event>
 6    2  0.2379986E-005  0.1001530E+04  0.7818608E-02  0.9969487E-01
         -4   -1    0    0    0  501 -0.00000000000E+00  0.00000000000E+00  0.11997342574E+03  0.11997342574E+03  0.00000000000E+00 0. -1.
         21   -1    0    0  501  502  0.00000000000E+00 -0.00000000000E+00 -0.26014710803E+04  0.26014710803E+04  0.00000000000E+00 0. -1.
   -9000010    2    1    2    0  502  0.88905371610E+02 -0.56128112134E+02 -0.23385983679E+04  0.25440332680E+04  0.99599619102E+03 0.  0.
         13    1    3    3    0    0 -0.36713209934E+03  0.11752753549E+03 -0.44584243826E+03  0.58938458656E+03  0.10566000000E+00 0. -1.
         -4    1    3    3    0  502  0.45603747094E+03 -0.17365564763E+03 -0.18927559296E+04  0.19546486815E+04  0.00000000000E+00 0. -1.
        -13    1    1    2    0    0 -0.88905371610E+02  0.56128112134E+02 -0.14289928665E+03  0.17741123798E+03  0.10566000000E+00 0.  1.
<mgrwt>
<rscale>  1 0.57008637E+03</rscale>
<asrwt>0</asrwt>
<pdfrwt beam="2">  1       21 0.40022629E+00 0.10015303E+04</pdfrwt>
<pdfrwt beam="1">  1       -4 0.18457451E-01 0.10015303E+04</pdfrwt>
<totfact> 0.66828113E+00</totfact>
</mgrwt>
</event>
<event>
 6    2  0.2379986E-005  0.1043512E+04  0.7818608E-02  0.9590538E-01
         -4   -1    0    0    0  501 -0.00000000000E+00  0.00000000000E+00  0.67745596550E+03  0.67745596550E+03  0.00000000000E+00 0. -1.
         21   -1    0    0  501  502  0.00000000000E+00 -0.00000000000E+00 -0.12186485682E+04  0.12186485682E+04  0.00000000000E+00 0.  1.
   -9000010    2    1    2    0  502 -0.30116386319E+03 -0.12086008345E+03  0.22192945597E+03  0.10668505799E+04  0.99177146773E+03 0.  0.
         13    1    3    3    0    0 -0.36687826637E+03  0.36708017662E+03 -0.17695328478E+02  0.51928860397E+03  0.10566000000E+00 0. -1.
         -4    1    3    3    0  502  0.65714403176E+02 -0.48794026008E+03  0.23962478445E+03  0.54756197595E+03  0.00000000000E+00 0. -1.
        -13    1    1    2    0    0  0.30116386319E+03  0.12086008345E+03 -0.76312205867E+03  0.82925395378E+03  0.10566000000E+00 0.  1.
<mgrwt>
<rscale>  1 0.77925616E+03</rscale>
<asrwt>0</asrwt>
<pdfrwt beam="2">  1       21 0.18748439E+00 0.10435121E+04</pdfrwt>
<pdfrwt beam="1">  1       -4 0.10422400E+00 0.10435121E+04</pdfrwt>
<totfact> 0.41236575E+00</totfact>
</mgrwt>
</event>
<event>
 6    2  0.2379986E-005  0.1095337E+04  0.7818608E-02  0.9457195E-01
         21   -1    0    0  501  502  0.00000000000E+00  0.00000000000E+00  0.10789933127E+04  0.10789933127E+04  0.00000000000E+00 0. -1.
         -4   -1    0    0    0  501 -0.00000000000E+00 -0.00000000000E+00 -0.58029080776E+03  0.58029080776E+03  0.00000000000E+00 0. -1.
   -9000010    2    1    2    0  502  0.44591963555E+03  0.19673761805E+02  0.51983165392E+03  0.12124308668E+04  0.10002661046E+04 0.  0.
         13    1    3    3    0    0  0.64067962393E+03  0.31990638559E+02 -0.16509389415E+02  0.64169023101E+03  0.10566000000E+00 0. -1.
         -4    1    3    3    0  502 -0.19475998838E+03 -0.12316876754E+02  0.53634104333E+03  0.57074063575E+03  0.00000000000E+00 0. -1.
        -13    1    1    2    0    0 -0.44591963555E+03 -0.19673761805E+02 -0.21129148949E+02  0.44685325373E+03  0.10566000000E+00 0.  1.
<mgrwt>
<rscale>  1 0.87514620E+03</rscale>
<asrwt>0</asrwt>
<pdfrwt beam="1">  1       21 0.16599897E+00 0.10953372E+04</pdfrwt>
<pdfrwt beam="2">  1       -4 0.89275509E-01 0.10953372E+04</pdfrwt>
<totfact> 0.85357610E+00</totfact>
</mgrwt>
</event>
<event>
 6    2  0.2379986E-005  0.1086080E+04  0.7818608E-02  0.9481664E-01
         21   -1    0    0  501  502  0.00000000000E+00  0.00000000000E+00  0.84703781936E+03  0.84703781936E+03  0.00000000000E+00 0. -1.
         -4   -1    0    0    0  501 -0.00000000000E+00 -0.00000000000E+00 -0.72539448310E+03  0.72539448310E+03  0.00000000000E+00 0. -1.
   -9000010    2    1    2    0  502 -0.29859201612E+03  0.29545097689E+03  0.28317153109E+03  0.11223880372E+04  0.10015589439E+04 0.  0.
         13    1    3    3    0    0  0.72178126633E+02 -0.32269107319E+03 -0.38803422422E+02  0.33293381840E+03  0.10566000000E+00 0. -1.
         -4    1    3    3    0  502 -0.37077014275E+03  0.61814205008E+03  0.32197495351E+03  0.78945421876E+03  0.00000000000E+00 0. -1.
        -13    1    1    2    0    0  0.29859201612E+03 -0.29545097689E+03 -0.16152819483E+03  0.45004426530E+03  0.10566000000E+00 0.  1.
<mgrwt>
<rscale>  1 0.85649231E+03</rscale>
<asrwt>0</asrwt>
<pdfrwt beam="1">  1       21 0.13031351E+00 0.10860796E+04</pdfrwt>
<pdfrwt beam="2">  1       -4 0.11159915E+00 0.10860796E+04</pdfrwt>
<totfact> 0.97695503E+00</totfact>
</mgrwt>
</event>
<event>
 6    2  0.2379986E-005  0.1005771E+04  0.7818608E-02  0.9907155E-01
         -4   -1    0    0    0  501 -0.00000000000E+00  0.00000000000E+00  0.57710605607E+03  0.57710605607E+03  0.00000000000E+00 0. -1.
         21   -1    0    0  501  502  0.00000000000E+00 -0.00000000000E+00 -0.59747599305E+03  0.59747599305E+03  0.00000000000E+00 0. -1.
   -9000010    2    1    2    0  502 -0.92048562158E+02  0.87016712920E+02 -0.12070807406E+03  0.10129881166E+04  0.99776231590E+03 0.  0.
         13    1    3    3    0    0  0.23119163587E+03 -0.37485401777E+03 -0.81400749349E+02  0.44787408978E+03  0.10566000000E+00 0. -1.
         -4    1    3    3    0  502 -0.32324019803E+03  0.46187073069E+03 -0.39307324710E+02  0.56511402678E+03  0.00000000000E+00 0. -1.
        -13    1    1    2    0    0  0.92048562158E+02 -0.87016712920E+02  0.10033813708E+03  0.16159393256E+03  0.10566000000E+00 0.  1.
<mgrwt>
<rscale>  1 0.59915775E+03</rscale>
<asrwt>0</asrwt>
<pdfrwt beam="2">  1       21 0.91919383E-01 0.10057706E+04</pdfrwt>
<pdfrwt beam="1">  1       -4 0.88785548E-01 0.10057706E+04</pdfrwt>
<totfact> 0.41450087E+01</totfact>
</mgrwt>
</event>
<event>
 6    2  0.2379986E-005  0.1013633E+04  0.7818608E-02  0.9622097E-01
         -4   -1    0    0    0  501 -0.00000000000E+00  0.00000000000E+00  0.43509925747E+03  0.43509925747E+03  0.00000000000E+00 0. -1.
         21   -1    0    0  501  502  0.00000000000E+00 -0.00000000000E+00 -0.12283195409E+04  0.12283195409E+04  0.00000000000E+00 0. -1.
   -9000010    2    1    2    0  502 -0.27762965955E+03  0.15472361731E+03 -0.87072989086E+03  0.13362714676E+04  0.96251403448E+03 0.  0.
         13    1    3    3    0    0  0.19729506993E+03  0.32961260232E+03 -0.70650964541E+03  0.80419257796E+03  0.10566000000E+00 0. -1.
         -4    1    3    3    0  502 -0.47492472947E+03 -0.17488898501E+03 -0.16422024545E+03  0.53207888960E+03  0.00000000000E+00 0. -1.
        -13    1    1    2    0    0  0.27762965955E+03 -0.15472361731E+03  0.77509607481E+02  0.32714733077E+03  0.10566000000E+00 0.  1.
<mgrwt>
<rscale>  1 0.75850780E+03</rscale>
<asrwt>0</asrwt>
<pdfrwt beam="2">  1       21 0.18897224E+00 0.10136325E+04</pdfrwt>
<pdfrwt beam="1">  1       -4 0.66938348E-01 0.10136325E+04</pdfrwt>
<totfact> 0.11297537E+01</totfact>
</mgrwt>
</event>
<event>
 6    2  0.2379986E-005  0.1262066E+04  0.7818608E-02  0.9205346E-01
         -4   -1    0    0    0  501 -0.00000000000E+00  0.00000000000E+00  0.13062907462E+04  0.13062907462E+04  0.00000000000E+00 0. -1.
         21   -1    0    0  501  502  0.00000000000E+00 -0.00000000000E+00 -0.77156769817E+03  0.77156769817E+03  0.00000000000E+00 0.  1.
   -9000010    2    1    2    0  502  0.52804284373E+03  0.50101398291E+03  0.47130548486E+03  0.13471970629E+04  0.10310028178E+04 0.  0.
         13    1    3    3    0    0  0.75173371310E+03  0.44557111049E+03  0.60240706268E+02  0.87593729443E+03  0.10566000000E+00 0. -1.
         -4    1    3    3    0  502 -0.22369086937E+03  0.55442872419E+02  0.41106477860E+03  0.47125976843E+03  0.00000000000E+00 0. -1.
        -13    1    1    2    0    0 -0.52804284373E+03 -0.50101398291E+03  0.63417563119E+02  0.73066138146E+03  0.10566000000E+00 0.  1.
<mgrwt>
<rscale>  1 0.10998417E+04</rscale>
<asrwt>0</asrwt>
<pdfrwt beam="2">  1       21 0.11870272E+00 0.12620662E+04</pdfrwt>
<pdfrwt beam="1">  1       -4 0.20096781E+00 0.12620662E+04</pdfrwt>
<totfact> 0.24727778E+00</totfact>
</mgrwt>
</event>
<event>
 6    2  0.2379986E-005  0.9991099E+03  0.7818608E-02  0.9774439E-01
         -4   -1    0    0    0  501 -0.00000000000E+00  0.00000000000E+00  0.21911146776E+03  0.21911146776E+03  0.00000000000E+00 0. -1.
         21   -1    0    0  501  502  0.00000000000E+00 -0.00000000000E+00 -0.17623027788E+04  0.17623027788E+04  0.00000000000E+00 0. -1.
   -9000010    2    1    2    0  502  0.13877737110E+03 -0.14273878568E+03 -0.14517719314E+04  0.17623456869E+04  0.97907459365E+03 0.  0.
         13    1    3    3    0    0  0.10230640783E+02  0.34817264836E+03 -0.10757907177E+04  0.11307760780E+04  0.10566000000E+00 0. -1.
         -4    1    3    3    0  502  0.12854673032E+03 -0.49091143404E+03 -0.37598121368E+03  0.63156960898E+03  0.00000000000E+00 0. -1.
        -13    1    1    2    0    0 -0.13877737110E+03  0.14273878568E+03 -0.91419379677E+02  0.21906855961E+03  0.10566000000E+00 0.  1.
<mgrwt>
<rscale>  1 0.66752539E+03</rscale>
<asrwt>0</asrwt>
<pdfrwt beam="2">  1       21 0.27112350E+00 0.99910989E+03</pdfrwt>
<pdfrwt beam="1">  1       -4 0.33709458E-01 0.99910989E+03</pdfrwt>
<totfact> 0.13802293E+01</totfact>
</mgrwt>
</event>
<event>
 6    2  0.2379986E-005  0.9939097E+03  0.7818608E-02  0.9899841E-01
         21   -1    0    0  501  502  0.00000000000E+00  0.00000000000E+00  0.32570721968E+03  0.32570721968E+03  0.00000000000E+00 0. -1.
         -4   -1    0    0    0  501 -0.00000000000E+00 -0.00000000000E+00 -0.11479467594E+04  0.11479467594E+04  0.00000000000E+00 0. -1.
   -9000010    2    1    2    0  502 -0.77356802449E+02 -0.10988114340E+03 -0.47552335031E+03  0.11018071454E+04  0.98478352361E+03 0.  0.
         13    1    3    3    0    0  0.29439647627E+03 -0.35759448601E+03 -0.46299078608E+03  0.65490730704E+03  0.10566000000E+00 0. -1.
         -4    1    3    3    0  502 -0.37175327872E+03  0.24771334261E+03 -0.12532564235E+02  0.44689983835E+03  0.00000000000E+00 0. -1.
        -13    1    1    2    0    0  0.77356802449E+02  0.10988114340E+03 -0.34671618942E+03  0.37184683369E+03  0.10566000000E+00 0.  1.
<mgrwt>
<rscale>  1 0.60268969E+03</rscale>
<asrwt>0</asrwt>
<pdfrwt beam="1">  1       21 0.50108802E-01 0.99390972E+03</pdfrwt>
<pdfrwt beam="2">  1       -4 0.17660720E+00 0.99390972E+03</pdfrwt>
<totfact> 0.28435702E+01</totfact>
</mgrwt>
</event>
<event>
 6    2  0.2379986E-005  0.1072947E+04  0.7818608E-02  0.9520652E-01
         21   -1    0    0  501  502  0.00000000000E+00  0.00000000000E+00  0.50097556546E+03  0.50097556546E+03  0.00000000000E+00 0. -1.
         -4   -1    0    0    0  501 -0.00000000000E+00 -0.00000000000E+00 -0.10739247208E+04  0.10739247208E+04  0.00000000000E+00 0. -1.
   -9000010    2    1    2    0  502  0.24141961422E+03  0.29362032965E+03 -0.51584289091E+03  0.11905079545E+04  0.10033538626E+04 0.  0.
         13    1    3    3    0    0  0.29793480917E+03 -0.42075213746E+02  0.22465674899E+03  0.37550784300E+03  0.10566000000E+00 0. -1.
         -4    1    3    3    0  502 -0.56515194947E+02  0.33569554340E+03 -0.74049963990E+03  0.81500011154E+03  0.00000000000E+00 0. -1.
        -13    1    1    2    0    0 -0.24141961422E+03 -0.29362032965E+03 -0.57106264473E+02  0.38439233177E+03  0.10566000000E+00 0.  1.
<mgrwt>
<rscale>  1 0.82778179E+03</rscale>
<asrwt>0</asrwt>
<pdfrwt beam="1">  1       21 0.77073165E-01 0.10729470E+04</pdfrwt>
<pdfrwt beam="2">  1       -4 0.16521919E+00 0.10729470E+04</pdfrwt>
<totfact> 0.12953246E+01</totfact>
</mgrwt>
</event>
<event>
 6    2  0.2379986E-005  0.9943112E+03  0.7818608E-02  0.1011261E+00
         21   -1    0    0  501  502  0.00000000000E+00  0.00000000000E+00  0.58527901103E+03  0.58527901103E+03  0.00000000000E+00 0. -1.
         -4   -1    0    0    0  501 -0.00000000000E+00 -0.00000000000E+00 -0.48294157272E+03  0.48294157272E+03  0.00000000000E+00 0. -1.
   -9000010    2    1    2    0  502 -0.24415359340E+01 -0.68649344383E+02  0.89421426992E+02  0.99832403094E+03  0.99193547450E+03 0.  0.
         13    1    3    3    0    0  0.43730134295E+03  0.16422834791E+03  0.16418974709E+03  0.49513806056E+03  0.10566000000E+00 0. -1.
         -4    1    3    3    0  502 -0.43974287888E+03 -0.23287769230E+03 -0.74768320098E+02  0.50318597038E+03  0.00000000000E+00 0. -1.
        -13    1    1    2    0    0  0.24415359340E+01  0.68649344383E+02  0.12916011326E+02  0.69896552809E+02  0.10566000000E+00 0.  1.
<mgrwt>
<rscale>  1 0.50976456E+03</rscale>
<asrwt>0</asrwt>
<pdfrwt beam="1">  1       21 0.90042925E-01 0.99431116E+03</pdfrwt>
<pdfrwt beam="2">  1       -4 0.74298703E-01 0.99431116E+03</pdfrwt>
<totfact> 0.65749656E+01</totfact>
</mgrwt>
</event>
<event>
 6    2  0.2379986E-005  0.9390436E+03  0.7818608E-02  0.9878767E-01
         21   -1    0    0  501  502  0.00000000000E+00  0.00000000000E+00  0.31749508585E+03  0.31749508585E+03  0.00000000000E+00 0. -1.
         -4   -1    0    0    0  501 -0.00000000000E+00 -0.00000000000E+00 -0.99032171586E+03  0.99032171586E+03  0.00000000000E+00 0. -1.
   -9000010    2    1    2    0  502  0.17038503997E+03  0.72650345146E+01 -0.49535668544E+03  0.10616879026E+04  0.92342791502E+03 0.  0.
         13    1    3    3    0    0  0.45481247395E+03  0.18208684914E+03 -0.53507384888E+03  0.72547504575E+03  0.10566000000E+00 0. -1.
         -4    1    3    3    0  502 -0.28442743398E+03 -0.17482181463E+03  0.39717163438E+02  0.33621285689E+03  0.00000000000E+00 0. -1.
        -13    1    1    2    0    0 -0.17038503997E+03 -0.72650345146E+01 -0.17746994457E+03  0.24612889908E+03  0.10566000000E+00 0.  1.
<mgrwt>
<rscale>  1 0.61301461E+03</rscale>
<asrwt>0</asrwt>
<pdfrwt beam="1">  1       21 0.48845397E-01 0.93904364E+03</pdfrwt>
<pdfrwt beam="2">  1       -4 0.15235719E+00 0.93904364E+03</pdfrwt>
<totfact> 0.45512506E+01</totfact>
</mgrwt>
</event>
<event>
 6    2  0.2379986E-005  0.1070943E+04  0.7818608E-02  0.9514477E-01
         -4   -1    0    0    0  501 -0.00000000000E+00  0.00000000000E+00  0.40924890944E+03  0.40924890944E+03  0.00000000000E+00 0. -1.
         21   -1    0    0  501  502  0.00000000000E+00 -0.00000000000E+00 -0.13139278488E+04  0.13139278488E+04  0.00000000000E+00 0. -1.
   -9000010    2    1    2    0  502 -0.28448143007E+03  0.26762795841E+03 -0.72485261785E+03  0.12931861476E+04  0.99717836243E+03 0.  0.
         13    1    3    3    0    0  0.29599203446E+03  0.79929325559E+02  0.46114673892E+02  0.31004282907E+03  0.10566000000E+00 0. -1.
         -4    1    3    3    0  502 -0.58047346453E+03  0.18769863285E+03 -0.77096729174E+03  0.98314331851E+03  0.00000000000E+00 0. -1.
        -13    1    1    2    0    0  0.28448143007E+03 -0.26762795841E+03 -0.17982632149E+03  0.42999061065E+03  0.10566000000E+00 0.  1.
<mgrwt>
<rscale>  1 0.83224825E+03</rscale>
<asrwt>0</asrwt>
<pdfrwt beam="2">  1       21 0.20214274E+00 0.10709431E+04</pdfrwt>
<pdfrwt beam="1">  1       -4 0.62961372E-01 0.10709431E+04</pdfrwt>
<totfact> 0.10396458E+01</totfact>
</mgrwt>
</event>
<event>
 6    2  0.2379986E-005  0.1040089E+04  0.7818608E-02  0.9702491E-01
         -4   -1    0    0    0  501 -0.00000000000E+00  0.00000000000E+00  0.12321640147E+04  0.12321640147E+04  0.00000000000E+00 0. -1.
         21   -1    0    0  501  502  0.00000000000E+00 -0.00000000000E+00 -0.32723729118E+03  0.32723729118E+03  0.00000000000E+00 0. -1.
   -9000010    2    1    2    0  502  0.20275796998E+03 -0.95644343217E+02  0.68528415964E+03  0.12455518168E+04  0.10156408391E+04 0.  0.
         13    1    3    3    0    0  0.42970341834E+02 -0.39081275228E+03 -0.87709588226E+02  0.40283252184E+03  0.10566000000E+00 0. -1.
         -4    1    3    3    0  502  0.15978762815E+03  0.29516840906E+03  0.77299374786E+03  0.84271929493E+03  0.00000000000E+00 0. -1.
        -13    1    1    2    0    0 -0.20275796998E+03  0.95644343217E+02  0.21964256387E+03  0.31384948910E+03  0.10566000000E+00 0.  1.
<mgrwt>
<rscale>  1 0.70868656E+03</rscale>
<asrwt>0</asrwt>
<pdfrwt beam="2">  1       21 0.50344199E-01 0.10400889E+04</pdfrwt>
<pdfrwt beam="1">  1       -4 0.18956369E+00 0.10400889E+04</pdfrwt>
<totfact> 0.22800728E+01</totfact>
</mgrwt>
</event>
<event>
 6    2  0.2379986E-005  0.9873163E+03  0.7818608E-02  0.9706430E-01
         21   -1    0    0  501  502  0.00000000000E+00  0.00000000000E+00  0.37714310995E+03  0.37714310995E+03  0.00000000000E+00 0. -1.
         -4   -1    0    0    0  501 -0.00000000000E+00 -0.00000000000E+00 -0.15951916203E+04  0.15951916203E+04  0.00000000000E+00 0. -1.
   -9000010    2    1    2    0  502  0.11994828425E+03 -0.22915876473E+03 -0.32015216104E+03  0.10379262566E+04  0.95283376177E+03 0.  0.
         13    1    3    3    0    0  0.44252054177E+03 -0.25595470513E+03 -0.45775852925E+03  0.68620705566E+03  0.10566000000E+00 0. -1.
         -4    1    3    3    0  502 -0.32257225752E+03  0.26795940401E+02  0.13760636821E+03  0.35171920094E+03  0.00000000000E+00 0. -1.
        -13    1    1    2    0    0 -0.11994828425E+03  0.22915876473E+03 -0.89789634934E+03  0.93440847367E+03  0.10566000000E+00 0.  1.
<mgrwt>
<rscale>  1 0.70635267E+03</rscale>
<asrwt>0</asrwt>
<pdfrwt beam="1">  1       21 0.58022017E-01 0.98731632E+03</pdfrwt>
<pdfrwt beam="2">  1       -4 0.24541409E+00 0.98731632E+03</pdfrwt>
<totfact> 0.73450926E+00</totfact>
</mgrwt>
</event>
<event>
 6    2  0.2379986E-005  0.1027857E+04  0.7818608E-02  0.9806039E-01
         -4   -1    0    0    0  501 -0.00000000000E+00  0.00000000000E+00  0.33119021036E+03  0.33119021036E+03  0.00000000000E+00 0. -1.
         21   -1    0    0  501  502  0.00000000000E+00 -0.00000000000E+00 -0.13302230424E+04  0.13302230424E+04  0.00000000000E+00 0. -1.
   -9000010    2    1    2    0  502 -0.12313190457E+03  0.10950636849E+03 -0.10684641313E+04  0.14826009849E+04  0.10145624524E+04 0.  0.
         13    1    3    3    0    0  0.39980130671E+03  0.25580411895E+03 -0.39504258286E+03  0.61752367206E+03  0.10566000000E+00 0. -1.
         -4    1    3    3    0  502 -0.52293321128E+03 -0.14629775045E+03 -0.67342154845E+03  0.86507731282E+03  0.00000000000E+00 0. -1.
        -13    1    1    2    0    0  0.12313190457E+03 -0.10950636849E+03  0.69431299269E+02  0.17881226788E+03  0.10566000000E+00 0.  1.
<mgrwt>
<rscale>  1 0.65039472E+03</rscale>
<asrwt>0</asrwt>
<pdfrwt beam="2">  1       21 0.20464970E+00 0.10278570E+04</pdfrwt>
<pdfrwt beam="1">  1       -4 0.50952340E-01 0.10278570E+04</pdfrwt>
<totfact> 0.15864335E+01</totfact>
</mgrwt>
</event>
<event>
 6    2  0.2379986E-005  0.1058344E+04  0.7818608E-02  0.9625302E-01
         21   -1    0    0  501  502  0.00000000000E+00  0.00000000000E+00  0.16606264929E+04  0.16606264929E+04  0.00000000000E+00 0. -1.
         -4   -1    0    0    0  501 -0.00000000000E+00 -0.00000000000E+00 -0.26972239642E+03  0.26972239642E+03  0.00000000000E+00 0. -1.
   -9000010    2    1    2    0  502 -0.27594196189E+03 -0.11806120233E+02  0.11609802227E+04  0.15709767289E+04  0.10216699342E+04 0.  0.
         13    1    3    3    0    0 -0.18644579307E+03 -0.49951719483E+03  0.41692709752E+03  0.67683652198E+03  0.10566000000E+00 0. -1.
         -4    1    3    3    0  502 -0.89496168813E+02  0.48771107459E+03  0.74405312514E+03  0.89414020687E+03  0.00000000000E+00 0. -1.
        -13    1    1    2    0    0  0.27594196189E+03  0.11806120233E+02  0.22992387386E+03  0.35937216049E+03  0.10566000000E+00 0.  1.
<mgrwt>
<rscale>  1 0.75643912E+03</rscale>
<asrwt>0</asrwt>
<pdfrwt beam="1">  1       21 0.25548099E+00 0.10583444E+04</pdfrwt>
<pdfrwt beam="2">  1       -4 0.41495754E-01 0.10583444E+04</pdfrwt>
<totfact> 0.11280056E+01</totfact>
</mgrwt>
</event>
<event>
 6    2  0.2379986E-005  0.9918604E+03  0.7818608E-02  0.1000231E+00
         21   -1    0    0  501  502  0.00000000000E+00  0.00000000000E+00  0.72824774746E+03  0.72824774746E+03  0.00000000000E+00 0. -1.
         -4   -1    0    0    0  501 -0.00000000000E+00 -0.00000000000E+00 -0.46087593396E+03  0.46087593396E+03  0.00000000000E+00 0. -1.
   -9000010    2    1    2    0  502  0.93565522711E+02  0.27693060748E+02  0.35942684704E+03  0.10549761767E+04  0.98704896657E+03 0.  0.
         13    1    3    3    0    0 -0.44152529802E+03 -0.36188022426E+02  0.23674629391E+03  0.50229770117E+03  0.10566000000E+00 0. -1.
         -4    1    3    3    0  502  0.53509082073E+03  0.63881083174E+02  0.12268055313E+03  0.55267847555E+03  0.00000000000E+00 0. -1.
        -13    1    1    2    0    0 -0.93565522711E+02 -0.27693060748E+02 -0.92055033545E+02  0.13414750471E+03  0.10566000000E+00 0.  1.
<mgrwt>
<rscale>  1 0.55548924E+03</rscale>
<asrwt>0</asrwt>
<pdfrwt beam="1">  1       21 0.11203812E+00 0.99186041E+03</pdfrwt>
<pdfrwt beam="2">  1       -4 0.70903990E-01 0.99186041E+03</pdfrwt>
<totfact> 0.42493993E+01</totfact>
</mgrwt>
</event>
<event>
 6    2  0.2379986E-005  0.1075088E+04  0.7818608E-02  0.9467060E-01
         21   -1    0    0  501  502  0.00000000000E+00  0.00000000000E+00  0.68968430798E+03  0.68968430798E+03  0.00000000000E+00 0. -1.
         -4   -1    0    0    0  501 -0.00000000000E+00 -0.00000000000E+00 -0.97239846112E+03  0.97239846112E+03  0.00000000000E+00 0. -1.
   -9000010    2    1    2    0  502 -0.56841816031E+02 -0.45234957624E+03  0.82047811012E+02  0.10782142626E+04  0.97363392592E+03 0.  0.
         13    1    3    3    0    0 -0.35980972245E+03 -0.63995526936E+02  0.35971304263E+03  0.51278840474E+03  0.10566000000E+00 0. -1.
         -4    1    3    3    0  502  0.30296790642E+03 -0.38835404931E+03 -0.27766523162E+03  0.56542585790E+03  0.00000000000E+00 0. -1.
        -13    1    1    2    0    0  0.56841816031E+02  0.45234957624E+03 -0.36476196415E+03  0.58386850646E+03  0.10566000000E+00 0.  1.
<mgrwt>
<rscale>  1 0.86756506E+03</rscale>
<asrwt>0</asrwt>
<pdfrwt beam="1">  1       21 0.10610528E+00 0.10750880E+04</pdfrwt>
<pdfrwt beam="2">  1       -4 0.14959976E+00 0.10750880E+04</pdfrwt>
<totfact> 0.78306498E+00</totfact>
</mgrwt>
</event>
<event>
 6    2  0.2379986E-005  0.1089421E+04  0.7818608E-02  0.9476904E-01
         21   -1    0    0  501  502  0.00000000000E+00  0.00000000000E+00  0.20238658177E+04  0.20238658177E+04  0.00000000000E+00 0. -1.
         -4   -1    0    0    0  501 -0.00000000000E+00 -0.00000000000E+00 -0.43232540435E+03  0.43232540435E+03  0.00000000000E+00 0. -1.
   -9000010    2    1    2    0  502 -0.96238935721E+02  0.41213857268E+03  0.17001563943E+04  0.20192500609E+04  0.10038520347E+04 0.  0.
         13    1    3    3    0    0 -0.12572652282E+03  0.74222410317E+03  0.12683871524E+04  0.14749609342E+04  0.10566000000E+00 0. -1.
         -4    1    3    3    0  502  0.29487587102E+02 -0.33008553049E+03  0.43176924191E+03  0.54428912675E+03  0.00000000000E+00 0. -1.
        -13    1    1    2    0    0  0.96238935721E+02 -0.41213857268E+03 -0.10861598091E+03  0.43694116116E+03  0.10566000000E+00 0.  1.
<mgrwt>
<rscale>  1 0.86008226E+03</rscale>
<asrwt>0</asrwt>
<pdfrwt beam="1">  1       21 0.31136397E+00 0.10894214E+04</pdfrwt>
<pdfrwt beam="2">  1       -4 0.66511602E-01 0.10894214E+04</pdfrwt>
<totfact> 0.18335794E+00</totfact>
</mgrwt>
</event>
<event>
 6    2  0.2379986E-005  0.1005343E+04  0.7818608E-02  0.9825002E-01
         -4   -1    0    0    0  501 -0.00000000000E+00  0.00000000000E+00  0.65957517279E+03  0.65957517279E+03  0.00000000000E+00 0. -1.
         21   -1    0    0  501  502  0.00000000000E+00 -0.00000000000E+00 -0.61659457703E+03  0.61659457703E+03  0.00000000000E+00 0. -1.
   -9000010    2    1    2    0  502  0.43116727533E+01  0.16544661300E+03 -0.15598017906E+03  0.10173714242E+04  0.99162675751E+03 0.  0.
         13    1    3    3    0    0  0.11865869501E+03 -0.32440034927E+03  0.20184166757E+03  0.40006942202E+03  0.10566000000E+00 0. -1.
         -4    1    3    3    0  502 -0.11434702226E+03  0.48984696227E+03 -0.35782184663E+03  0.61730200216E+03  0.00000000000E+00 0. -1.
        -13    1    1    2    0    0 -0.43116727533E+01 -0.16544661300E+03  0.19896077482E+03  0.25879832564E+03  0.10566000000E+00 0.  1.
<mgrwt>
<rscale>  1 0.64037900E+03</rscale>
<asrwt>0</asrwt>
<pdfrwt beam="2">  1       21 0.94860705E-01 0.10053431E+04</pdfrwt>
<pdfrwt beam="1">  1       -4 0.10147310E+00 0.10053431E+04</pdfrwt>
<totfact> 0.27931728E+01</totfact>
</mgrwt>
</event>
<event>
 6    2  0.2379986E-005  0.1012746E+04  0.7818608E-02  0.9938642E-01
         21   -1    0    0  501  502  0.00000000000E+00  0.00000000000E+00  0.64172084765E+03  0.64172084765E+03  0.00000000000E+00 0. -1.
         -4   -1    0    0    0  501 -0.00000000000E+00 -0.00000000000E+00 -0.53180436566E+03  0.53180436566E+03  0.00000000000E+00 0. -1.
   -9000010    2    1    2    0  502  0.91107742123E+02  0.65433953673E+02 -0.52496040038E+01  0.10127599761E+04  0.10065152696E+04 0.  0.
         13    1    3    3    0    0  0.19499871471E+03 -0.43419117800E+03  0.11240215087E+03  0.48906107234E+03  0.10566000000E+00 0. -1.
         -4    1    3    3    0  502 -0.10389097259E+03  0.49962513167E+03 -0.11765175487E+03  0.52369890377E+03  0.00000000000E+00 0. -1.
        -13    1    1    2    0    0 -0.91107742123E+02 -0.65433953673E+02  0.11516608600E+03  0.16076523721E+03  0.10566000000E+00 0.  1.
<mgrwt>
<rscale>  1 0.58424539E+03</rscale>
<asrwt>0</asrwt>
<pdfrwt beam="1">  1       21 0.98726285E-01 0.10127464E+04</pdfrwt>
<pdfrwt beam="2">  1       -4 0.81816056E-01 0.10127464E+04</pdfrwt>
<totfact> 0.42070241E+01</totfact>
</mgrwt>
</event>
<event>
 6    2  0.2379986E-005  0.9852376E+03  0.7818608E-02  0.9863256E-01
         21   -1    0    0  501  502  0.00000000000E+00  0.00000000000E+00  0.10111608547E+04  0.10111608547E+04  0.00000000000E+00 0. -1.
         -4   -1    0    0    0  501 -0.00000000000E+00 -0.00000000000E+00 -0.36466723102E+03  0.36466723102E+03  0.00000000000E+00 0. -1.
   -9000010    2    1    2    0  502 -0.85115702391E+02 -0.12984993302E+03  0.70329618247E+03  0.12105034665E+04  0.97292725018E+03 0.  0.
         13    1    3    3    0    0 -0.43725340733E+03  0.21938576162E+03  0.35711304398E+03  0.60568175800E+03  0.10566000000E+00 0. -1.
         -4    1    3    3    0  502  0.35213770494E+03 -0.34923569465E+03  0.34618313849E+03  0.60482170846E+03  0.00000000000E+00 0. -1.
        -13    1    1    2    0    0  0.85115702391E+02  0.12984993302E+03 -0.56802558755E+02  0.16532461929E+03  0.10566000000E+00 0.  1.
<mgrwt>
<rscale>  1 0.62075567E+03</rscale>
<asrwt>0</asrwt>
<pdfrwt beam="1">  1       21 0.15556321E+00 0.98523760E+03</pdfrwt>
<pdfrwt beam="2">  1       -4 0.56102651E-01 0.98523760E+03</pdfrwt>
<totfact> 0.29576272E+01</totfact>
</mgrwt>
</event>
<event>
 6    2  0.2379986E-005  0.1026984E+04  0.7818608E-02  0.9671284E-01
         -4   -1    0    0    0  501 -0.00000000000E+00  0.00000000000E+00  0.10323176557E+04  0.10323176557E+04  0.00000000000E+00 0. -1.
         21   -1    0    0  501  502  0.00000000000E+00 -0.00000000000E+00 -0.60540905642E+03  0.60540905642E+03  0.00000000000E+00 0. -1.
   -9000010    2    1    2    0  502  0.25856838159E+03  0.62515099386E+01 -0.11879441816E+03  0.10338322812E+04  0.99388147304E+03 0.  0.
         13    1    3    3    0    0  0.51484931242E+03  0.10495787077E+03  0.24357634596E+03  0.57915059925E+03  0.10566000000E+00 0. -1.
         -4    1    3    3    0  502 -0.25628093083E+03 -0.98706360831E+02 -0.36237076412E+03  0.45468168191E+03  0.00000000000E+00 0. -1.
        -13    1    1    2    0    0 -0.25856838159E+03 -0.62515099386E+01  0.54570301746E+03  0.60389443098E+03  0.10566000000E+00 0.  1.
<mgrwt>
<rscale>  1 0.72752595E+03</rscale>
<asrwt>0</asrwt>
<pdfrwt beam="2">  1       21 0.93139855E-01 0.10269845E+04</pdfrwt>
<pdfrwt beam="1">  1       -4 0.15881810E+00 0.10269845E+04</pdfrwt>
<totfact> 0.92447674E+00</totfact>
</mgrwt>
</event>
<event>
 6    2  0.2379986E-005  0.1043230E+04  0.7818608E-02  0.9553680E-01
         21   -1    0    0  501  502  0.00000000000E+00  0.00000000000E+00  0.93411944843E+03  0.93411944843E+03  0.00000000000E+00 0. -1.
         -4   -1    0    0    0  501 -0.00000000000E+00 -0.00000000000E+00 -0.66092690212E+03  0.66092690212E+03  0.00000000000E+00 0. -1.
   -9000010    2    1    2    0  502  0.17825295971E+03  0.32280537839E+03  0.50547064930E+03  0.11592361186E+04  0.97588440475E+03 0.  0.
         13    1    3    3    0    0  0.26752688339E+03 -0.27767367424E+03  0.27469675857E+02  0.38655904719E+03  0.10566000000E+00 0. -1.
         -4    1    3    3    0  502 -0.89273923687E+02  0.60047905263E+03  0.47800097345E+03  0.77267707143E+03  0.00000000000E+00 0. -1.
        -13    1    1    2    0    0 -0.17825295971E+03 -0.32280537839E+03 -0.23227810299E+03  0.43581023193E+03  0.10566000000E+00 0.  1.
<mgrwt>
<rscale>  1 0.80439295E+03</rscale>
<asrwt>0</asrwt>
<pdfrwt beam="1">  1       21 0.14371068E+00 0.10432295E+04</pdfrwt>
<pdfrwt beam="2">  1       -4 0.10168106E+00 0.10432295E+04</pdfrwt>
<totfact> 0.94620878E+00</totfact>
</mgrwt>
</event>
<event>
 6    2  0.2379986E-005  0.9868715E+03  0.7818608E-02  0.9734965E-01
         21   -1    0    0  501  502  0.00000000000E+00  0.00000000000E+00  0.12470514771E+04  0.12470514771E+04  0.00000000000E+00 0. -1.
         -4   -1    0    0    0  501 -0.00000000000E+00 -0.00000000000E+00 -0.38913568578E+03  0.38913568578E+03  0.00000000000E+00 0. -1.
   -9000010    2    1    2    0  502  0.21742346659E+03  0.90390161548E+02  0.96251819433E+03  0.13785342588E+04  0.95836949195E+03 0.  0.
         13    1    3    3    0    0 -0.10303161174E+02  0.27819957827E+03 -0.84316443902E+02  0.29087872792E+03  0.10566000000E+00 0. -1.
         -4    1    3    3    0  502  0.22772662777E+03 -0.18780941673E+03  0.10468346382E+04  0.10876555309E+04  0.00000000000E+00 0. -1.
        -13    1    1    2    0    0 -0.21742346659E+03 -0.90390161548E+02 -0.10460240298E+03  0.25765290412E+03  0.10566000000E+00 0.  1.
<mgrwt>
<rscale>  1 0.68972609E+03</rscale>
<asrwt>0</asrwt>
<pdfrwt beam="1">  1       21 0.19185407E+00 0.98687154E+03</pdfrwt>
<pdfrwt beam="2">  1       -4 0.59867029E-01 0.98687154E+03</pdfrwt>
<totfact> 0.13830227E+01</totfact>
</mgrwt>
</event>
<event>
 6    2  0.2379986E-005  0.1174967E+04  0.7818608E-02  0.9284007E-01
         21   -1    0    0  501  502  0.00000000000E+00  0.00000000000E+00  0.17834632589E+04  0.17834632589E+04  0.00000000000E+00 0. -1.
         -4   -1    0    0    0  501 -0.00000000000E+00 -0.00000000000E+00 -0.63186110910E+03  0.63186110910E+03  0.00000000000E+00 0. -1.
   -9000010    2    1    2    0  502  0.28709284171E+03 -0.61019769523E+03  0.12705397731E+04  0.17305545552E+04  0.96217681668E+03 0.  0.
         13    1    3    3    0    0  0.53946942191E+03 -0.71972662149E+03  0.99148732560E+03  0.13386862197E+04  0.10566000000E+00 0. -1.
         -4    1    3    3    0  502 -0.25237658020E+03  0.10952892626E+03  0.27905244749E+03  0.39186833551E+03  0.00000000000E+00 0. -1.
        -13    1    1    2    0    0 -0.28709284171E+03  0.61019769523E+03 -0.11893762333E+03  0.68476981274E+03  0.10566000000E+00 0.  1.
<mgrwt>
<rscale>  1 0.10226864E+04</rscale>
<asrwt>0</asrwt>
<pdfrwt beam="1">  1       21 0.27437896E+00 0.11749671E+04</pdfrwt>
<pdfrwt beam="2">  1       -4 0.97209402E-01 0.11749671E+04</pdfrwt>
<totfact> 0.12828270E+00</totfact>
</mgrwt>
</event>
<event>
 6    2  0.2379986E-005  0.1071457E+04  0.7818608E-02  0.9507237E-01
         21   -1    0    0  501  502  0.00000000000E+00  0.00000000000E+00  0.49079497426E+03  0.49079497426E+03  0.00000000000E+00 0. -1.
         -4   -1    0    0    0  501 -0.00000000000E+00 -0.00000000000E+00 -0.17277628154E+04  0.17277628154E+04  0.00000000000E+00 0. -1.
   -9000010    2    1    2    0  502  0.17352618951E+03  0.36040424896E+03 -0.17745609859E+03  0.10860527323E+04  0.99399059823E+03 0.  0.
         13    1    3    3    0    0 -0.37157646538E+03  0.31567737059E+03 -0.22515177949E+03  0.53704246285E+03  0.10566000000E+00 0. -1.
         -4    1    3    3    0  502  0.54510265490E+03  0.44726878367E+02  0.47695680901E+02  0.54901026949E+03  0.00000000000E+00 0. -1.
        -13    1    1    2    0    0 -0.17352618951E+03 -0.36040424896E+03 -0.10595117425E+04  0.11325050573E+04  0.10566000000E+00 0.  1.
<mgrwt>
<rscale>  1 0.83752330E+03</rscale>
<asrwt>0</asrwt>
<pdfrwt beam="1">  1       21 0.75506920E-01 0.10714569E+04</pdfrwt>
<pdfrwt beam="2">  1       -4 0.26580966E+00 0.10714569E+04</pdfrwt>
<totfact> 0.29876194E+00</totfact>
</mgrwt>
</event>
<event>
 6    2  0.2379986E-005  0.1041433E+04  0.7818608E-02  0.9642013E-01
         21   -1    0    0  501  502  0.00000000000E+00  0.00000000000E+00  0.10640183392E+04  0.10640183392E+04  0.00000000000E+00 0. -1.
         -4   -1    0    0    0  501 -0.00000000000E+00 -0.00000000000E+00 -0.58026148466E+03  0.58026148466E+03  0.00000000000E+00 0. -1.
   -9000010    2    1    2    0  502 -0.12046709500E+03  0.24593615183E+03  0.73336584543E+03  0.12737375575E+04  0.10047810658E+04 0.  0.
         13    1    3    3    0    0 -0.40601868475E+03  0.17893130491E+03  0.84940579309E+03  0.95830986468E+03  0.10566000000E+00 0. -1.
         -4    1    3    3    0  502  0.28555158975E+03  0.67004846919E+02 -0.11603994766E+03  0.31542769278E+03  0.00000000000E+00 0. -1.
        -13    1    1    2    0    0  0.12046709500E+03 -0.24593615183E+03 -0.24960899084E+03  0.37054226645E+03  0.10566000000E+00 0.  1.
<mgrwt>
<rscale>  1 0.74576812E+03</rscale>
<asrwt>0</asrwt>
<pdfrwt beam="1">  1       21 0.16369513E+00 0.10414326E+04</pdfrwt>
<pdfrwt beam="2">  1       -4 0.89270998E-01 0.10414326E+04</pdfrwt>
<totfact> 0.89462410E+00</totfact>
</mgrwt>
</event>
<event>
 6    2  0.2379986E-005  0.1046458E+04  0.7818608E-02  0.9713594E-01
         21   -1    0    0  501  502  0.00000000000E+00  0.00000000000E+00  0.30547907820E+03  0.30547907820E+03  0.00000000000E+00 0. -1.
         -4   -1    0    0    0  501 -0.00000000000E+00 -0.00000000000E+00 -0.13494200550E+04  0.13494200550E+04  0.00000000000E+00 0. -1.
   -9000010    2    1    2    0  502 -0.21208424517E+03 -0.96700628071E-01 -0.72955792421E+03  0.12756677377E+04  0.10247407847E+04 0.  0.
         13    1    3    3    0    0 -0.50041210764E+03 -0.33548566310E+03 -0.45649438453E+03  0.75587700183E+03  0.10566000000E+00 0. -1.
         -4    1    3    3    0  502  0.28832786247E+03  0.33538896247E+03 -0.27306353967E+03  0.51979073589E+03  0.00000000000E+00 0. -1.
        -13    1    1    2    0    0  0.21208424517E+03  0.96700628071E-01 -0.31438305264E+03  0.37923139553E+03  0.10566000000E+00 0.  1.
<mgrwt>
<rscale>  1 0.70213131E+03</rscale>
<asrwt>0</asrwt>
<pdfrwt beam="1">  1       21 0.46996781E-01 0.10464576E+04</pdfrwt>
<pdfrwt beam="2">  1       -4 0.20760309E+00 0.10464576E+04</pdfrwt>
<totfact> 0.20048382E+01</totfact>
</mgrwt>
</event>
<event>
 6    2  0.2379986E-005  0.9919005E+03  0.7818608E-02  0.1026721E+00
         -4   -1    0    0    0  501 -0.00000000000E+00  0.00000000000E+00  0.19224546196E+04  0.19224546196E+04  0.00000000000E+00 0. -1.
         21   -1    0    0  501  502  0.00000000000E+00 -0.00000000000E+00 -0.14185230461E+03  0.14185230461E+03  0.00000000000E+00 0. -1.
   -9000010    2    1    2    0  502 -0.40346449851E+02  0.15699211002E+02  0.16344973159E+04  0.19119225970E+04  0.99095521603E+03 0.  0.
         13    1    3    3    0    0  0.71845001986E+02  0.16395011829E+03  0.17040465798E+04  0.17134223364E+04  0.10566000000E+00 0. -1.
         -4    1    3    3    0  502 -0.11219145184E+03 -0.14825090728E+03 -0.69549263885E+02  0.19850026066E+03  0.00000000000E+00 0. -1.
        -13    1    1    2    0    0  0.40346449851E+02 -0.15699211002E+02  0.14610499909E+03  0.15238432717E+03  0.10566000000E+00 0.  1.
<mgrwt>
<rscale>  1 0.45337370E+03</rscale>
<asrwt>0</asrwt>
<pdfrwt beam="2">  1       21 0.21823433E-01 0.99190047E+03</pdfrwt>
<pdfrwt beam="1">  1       -4 0.29576223E+00 0.99190047E+03</pdfrwt>
<totfact> 0.27125859E+01</totfact>
</mgrwt>
</event>
<event>
 6    2  0.2379986E-005  0.1053935E+04  0.7818608E-02  0.9565568E-01
         -4   -1    0    0    0  501 -0.00000000000E+00  0.00000000000E+00  0.75532528349E+03  0.75532528349E+03  0.00000000000E+00 0. -1.
         21   -1    0    0  501  502  0.00000000000E+00 -0.00000000000E+00 -0.68858101076E+03  0.68858101076E+03  0.00000000000E+00 0. -1.
   -9000010    2    1    2    0  502 -0.59549708026E+01  0.34318720472E+03 -0.10672134605E+03  0.10593243768E+04  0.99647667831E+03 0.  0.
         13    1    3    3    0    0 -0.24215114227E+02 -0.35376327771E+03 -0.68059195197E+02  0.36106355898E+03  0.10566000000E+00 0. -1.
         -4    1    3    3    0  502  0.18260143425E+02  0.69695048243E+03 -0.38662150857E+02  0.69826081782E+03  0.00000000000E+00 0. -1.
        -13    1    1    2    0    0  0.59549708026E+01 -0.34318720472E+03  0.17346561878E+03  0.38458191745E+03  0.10566000000E+00 0.  1.
<mgrwt>
<rscale>  1 0.79617667E+03</rscale>
<asrwt>0</asrwt>
<pdfrwt beam="2">  1       21 0.10593554E+00 0.10539349E+04</pdfrwt>
<pdfrwt beam="1">  1       -4 0.11620389E+00 0.10539349E+04</pdfrwt>
<totfact> 0.15148252E+01</totfact>
</mgrwt>
</event>
<event>
 6    2  0.2379986E-005  0.1006347E+04  0.7818608E-02  0.1002843E+00
         21   -1    0    0  501  502  0.00000000000E+00  0.00000000000E+00  0.12178471723E+04  0.12178471723E+04  0.00000000000E+00 0.  1.
         -4   -1    0    0    0  501 -0.00000000000E+00 -0.00000000000E+00 -0.24550165940E+03  0.24550165940E+03  0.00000000000E+00 0. -1.
   -9000010    2    1    2    0  502  0.64643971846E+00 -0.86061677213E+02  0.87652868074E+03  0.13345547843E+04  0.10026599193E+04 0.  0.
         13    1    3    3    0    0 -0.71275912369E+02 -0.27204879314E+03 -0.12902754097E+03  0.30941706325E+03  0.10566000000E+00 0. -1.
         -4    1    3    3    0  502  0.71922352088E+02  0.18598711593E+03  0.10055562217E+04  0.10251377210E+04  0.00000000000E+00 0. -1.
        -13    1    1    2    0    0 -0.64643971846E+00  0.86061677213E+02  0.95816832182E+02  0.12879404747E+03  0.10566000000E+00 0.  1.
<mgrwt>
<rscale>  1 0.54420987E+03</rscale>
<asrwt>0</asrwt>
<pdfrwt beam="1">  1       21 0.18736110E+00 0.10063468E+04</pdfrwt>
<pdfrwt beam="2">  1       -4 0.37769487E-01 0.10063468E+04</pdfrwt>
<totfact> 0.38967211E+01</totfact>
</mgrwt>
</event>
<event>
 6    2  0.2379986E-005  0.1332082E+04  0.7818608E-02  0.9167054E-01
         -4   -1    0    0    0  501 -0.00000000000E+00  0.00000000000E+00  0.18232190079E+04  0.18232190079E+04  0.00000000000E+00 0. -1.
         21   -1    0    0  501  502  0.00000000000E+00 -0.00000000000E+00 -0.77311573562E+03  0.77311573562E+03  0.00000000000E+00 0. -1.
   -9000010    2    1    2    0  502  0.68558326126E+03  0.20140415327E+03  0.71754478127E+01  0.13321011815E+04  0.11242126265E+04 0.  0.
         13    1    3    3    0    0  0.89032749552E+03 -0.13346603182E+03 -0.14355949667E+03  0.91164991701E+03  0.10566000000E+00 0. -1.
         -4    1    3    3    0  502 -0.20474423426E+03  0.33487018509E+03  0.15073494448E+03  0.42045126449E+03  0.00000000000E+00 0. -1.
        -13    1    1    2    0    0 -0.68558326126E+03 -0.20140415327E+03  0.10429278244E+04  0.12642335620E+04  0.10566000000E+00 0.  1.
<mgrwt>
<rscale>  1 0.11400057E+04</rscale>
<asrwt>0</asrwt>
<pdfrwt beam="2">  1       21 0.11894088E+00 0.13320819E+04</pdfrwt>
<pdfrwt beam="1">  1       -4 0.28049523E+00 0.13320819E+04</pdfrwt>
<totfact> 0.76590190E-01</totfact>
</mgrwt>
</event>
<event>
 6    2  0.2379986E-005  0.1007283E+04  0.7818608E-02  0.9754270E-01
         -4   -1    0    0    0  501 -0.00000000000E+00  0.00000000000E+00  0.27743083774E+03  0.27743083774E+03  0.00000000000E+00 0. -1.
         21   -1    0    0  501  502  0.00000000000E+00 -0.00000000000E+00 -0.13390395841E+04  0.13390395841E+04  0.00000000000E+00 0. -1.
   -9000010    2    1    2    0  502  0.23455088839E+02 -0.20635239167E+03 -0.82822187237E+03  0.13040590026E+04  0.98564038154E+03 0.  0.
         13    1    3    3    0    0 -0.37075832865E+03 -0.34380609014E+03 -0.70723114354E+03  0.86939074497E+03  0.10566000000E+00 0. -1.
         -4    1    3    3    0  502  0.39421341749E+03  0.13745369848E+03 -0.12099072883E+03  0.43466825766E+03  0.00000000000E+00 0. -1.
        -13    1    1    2    0    0 -0.23455088839E+02  0.20635239167E+03 -0.23338687397E+03  0.31241141919E+03  0.10566000000E+00 0.  1.
<mgrwt>
<rscale>  1 0.67875471E+03</rscale>
<asrwt>0</asrwt>
<pdfrwt beam="2">  1       21 0.20600609E+00 0.10072827E+04</pdfrwt>
<pdfrwt beam="1">  1       -4 0.42681667E-01 0.10072827E+04</pdfrwt>
<totfact> 0.22540976E+01</totfact>
</mgrwt>
</event>
<event>
 6    2  0.2379986E-005  0.9613394E+03  0.7818608E-02  0.9755536E-01
         21   -1    0    0  501  502  0.00000000000E+00  0.00000000000E+00  0.21185164975E+03  0.21185164975E+03  0.00000000000E+00 0. -1.
         -4   -1    0    0    0  501 -0.00000000000E+00 -0.00000000000E+00 -0.21419438714E+04  0.21419438714E+04  0.00000000000E+00 0. -1.
   -9000010    2    1    2    0  502 -0.20954916252E+03  0.11263484330E+03 -0.97388962601E+03  0.13684423487E+04  0.93143759778E+03 0.  0.
         13    1    3    3    0    0 -0.24435971676E+03  0.31410866890E+03 -0.26066394732E+02  0.39881749604E+03  0.10566000000E+00 0. -1.
         -4    1    3    3    0  502  0.34810554247E+02 -0.20147382560E+03 -0.94782323128E+03  0.96962485263E+03  0.00000000000E+00 0. -1.
        -13    1    1    2    0    0  0.20954916252E+03 -0.11263484330E+03 -0.95620259561E+03  0.98535317245E+03  0.10566000000E+00 0.  1.
<mgrwt>
<rscale>  1 0.67804292E+03</rscale>
<asrwt>0</asrwt>
<pdfrwt beam="1">  1       21 0.32592561E-01 0.96133941E+03</pdfrwt>
<pdfrwt beam="2">  1       -4 0.32952983E+00 0.96133941E+03</pdfrwt>
<totfact> 0.75421518E+00</totfact>
</mgrwt>
</event>
<event>
 6    2  0.2379986E-005  0.1239364E+04  0.7818608E-02  0.9216221E-01
         -4   -1    0    0    0  501 -0.00000000000E+00  0.00000000000E+00  0.10066008030E+04  0.10066008030E+04  0.00000000000E+00 0. -1.
         21   -1    0    0  501  502  0.00000000000E+00 -0.00000000000E+00 -0.10063573539E+04  0.10063573539E+04  0.00000000000E+00 0.  1.
   -9000010    2    1    2    0  502  0.10023107257E+03 -0.73128038728E+03  0.18235373549E+03  0.12527072508E+04  0.99559293826E+03 0.  0.
         13    1    3    3    0    0  0.47798281704E+03 -0.57635558717E+03 -0.10125552197E+03  0.75558323707E+03  0.10566000000E+00 0. -1.
         -4    1    3    3    0  502 -0.37775174447E+03 -0.15492480011E+03  0.28360925746E+03  0.49712401376E+03  0.00000000000E+00 0. -1.
        -13    1    1    2    0    0 -0.10023107257E+03  0.73128038728E+03 -0.18211028637E+03  0.76025090614E+03  0.10566000000E+00 0.  1.
<mgrwt>
<rscale>  1 0.10887559E+04</rscale>
<asrwt>0</asrwt>
<pdfrwt beam="2">  1       21 0.15482421E+00 0.12393638E+04</pdfrwt>
<pdfrwt beam="1">  1       -4 0.15486166E+00 0.12393638E+04</pdfrwt>
<totfact> 0.25593664E+00</totfact>
</mgrwt>
</event>
<event>
 6    2  0.2379986E-005  0.1241180E+04  0.7818608E-02  0.9197711E-01
         21   -1    0    0  501  502  0.00000000000E+00  0.00000000000E+00  0.13884226697E+04  0.13884226697E+04  0.00000000000E+00 0. -1.
         -4   -1    0    0    0  501 -0.00000000000E+00 -0.00000000000E+00 -0.74310147898E+03  0.74310147898E+03  0.00000000000E+00 0. -1.
   -9000010    2    1    2    0  502  0.78608043250E+03 -0.45644307819E+02  0.33907775685E+03  0.12866626801E+04  0.95943800110E+03 0.  0.
         13    1    3    3    0    0  0.89953796670E+03  0.24168364315E+03  0.27477834891E+03  0.97112444574E+03  0.10566000000E+00 0. -1.
         -4    1    3    3    0  502 -0.11345753421E+03 -0.28732795097E+03  0.64299407939E+02  0.31553823435E+03  0.00000000000E+00 0. -1.
        -13    1    1    2    0    0 -0.78608043250E+03  0.45644307819E+02  0.30624343391E+03  0.84486146862E+03  0.10566000000E+00 0.  1.
<mgrwt>
<rscale>  1 0.11077086E+04</rscale>
<asrwt>0</asrwt>
<pdfrwt beam="1">  1       21 0.21360349E+00 0.12411797E+04</pdfrwt>
<pdfrwt beam="2">  1       -4 0.11432331E+00 0.12411797E+04</pdfrwt>
<totfact> 0.21099480E+00</totfact>
</mgrwt>
</event>
<event>
 6    2  0.2379986E-005  0.9994491E+03  0.7818608E-02  0.1017409E+00
         21   -1    0    0  501  502  0.00000000000E+00  0.00000000000E+00  0.35499205836E+03  0.35499205836E+03  0.00000000000E+00 0. -1.
         -4   -1    0    0    0  501 -0.00000000000E+00 -0.00000000000E+00 -0.90425216582E+03  0.90425216582E+03  0.00000000000E+00 0. -1.
   -9000010    2    1    2    0  502  0.54551796104E+02  0.12801416392E+02 -0.36071779937E+03  0.10625516015E+04  0.99787714690E+03 0.  0.
         13    1    3    3    0    0 -0.23549375831E+03 -0.68560135528E+00  0.27596374305E+03  0.36278613382E+03  0.10566000000E+00 0. -1.
         -4    1    3    3    0  502  0.29004555441E+03  0.13487017747E+02 -0.63668154241E+03  0.69976546766E+03  0.00000000000E+00 0. -1.
        -13    1    1    2    0    0 -0.54551796104E+02 -0.12801416392E+02 -0.18854230809E+03  0.19669262270E+03  0.10566000000E+00 0.  1.
<mgrwt>
<rscale>  1 0.48633220E+03</rscale>
<asrwt>0</asrwt>
<pdfrwt beam="1">  1       21 0.54614164E-01 0.99944914E+03</pdfrwt>
<pdfrwt beam="2">  1       -4 0.13911572E+00 0.99944914E+03</pdfrwt>
<totfact> 0.45252557E+01</totfact>
</mgrwt>
</event>
<event>
 6    2  0.2379986E-005  0.1228609E+04  0.7818608E-02  0.9221974E-01
         -4   -1    0    0    0  501 -0.00000000000E+00  0.00000000000E+00  0.18128935260E+04  0.18128935260E+04  0.00000000000E+00 0. -1.
         21   -1    0    0  501  502  0.00000000000E+00 -0.00000000000E+00 -0.75876245864E+03  0.75876245864E+03  0.00000000000E+00 0. -1.
   -9000010    2    1    2    0  502 -0.49601272832E+02 -0.73997073156E+03 -0.63608206813E+02  0.12302544541E+04  0.97952184668E+03 0.  0.
         13    1    3    3    0    0  0.35496935088E+03 -0.55343420203E+03  0.23016294019E+03  0.69661154616E+03  0.10566000000E+00 0. -1.
         -4    1    3    3    0  502 -0.40457062371E+03 -0.18653652952E+03 -0.29377114701E+03  0.53364290798E+03  0.00000000000E+00 0. -1.
        -13    1    1    2    0    0  0.49601272832E+02  0.73997073156E+03  0.11177392742E+04  0.13414015305E+04  0.10566000000E+00 0.  1.
<mgrwt>
<rscale>  1 0.10829472E+04</rscale>
<asrwt>0</asrwt>
<pdfrwt beam="2">  1       21 0.11673269E+00 0.12286090E+04</pdfrwt>
<pdfrwt beam="1">  1       -4 0.27890670E+00 0.12286090E+04</pdfrwt>
<totfact> 0.83421304E-01</totfact>
</mgrwt>
</event>
<event>
 6    2  0.2379986E-005  0.1147868E+04  0.7818608E-02  0.9350385E-01
         21   -1    0    0  501  502  0.00000000000E+00  0.00000000000E+00  0.12243889379E+04  0.12243889379E+04  0.00000000000E+00 0.  1.
         -4   -1    0    0    0  501 -0.00000000000E+00 -0.00000000000E+00 -0.80919213252E+03  0.80919213252E+03  0.00000000000E+00 0. -1.
   -9000010    2    1    2    0  502  0.48174507140E+03  0.30092424682E+03 -0.23347247050E+03  0.11713713762E+04  0.99748072182E+03 0.  0.
         13    1    3    3    0    0  0.10360054046E+03 -0.78921085876E+02  0.35336713673E+03  0.37660317878E+03  0.10566000000E+00 0. -1.
         -4    1    3    3    0  502  0.37814453095E+03  0.37984533269E+03 -0.58683960723E+03  0.79476819744E+03  0.00000000000E+00 0. -1.
        -13    1    1    2    0    0 -0.48174507140E+03 -0.30092424682E+03  0.64866927589E+03  0.86220969421E+03  0.10566000000E+00 0.  1.
<mgrwt>
<rscale>  1 0.96273732E+03</rscale>
<asrwt>0</asrwt>
<pdfrwt beam="1">  1       21 0.18836753E+00 0.11478682E+04</pdfrwt>
<pdfrwt beam="2">  1       -4 0.12449110E+00 0.11478682E+04</pdfrwt>
<totfact> 0.25755635E+00</totfact>
</mgrwt>
</event>
<event>
 6    2  0.2379986E-005  0.1028417E+04  0.7818608E-02  0.9655321E-01
         21   -1    0    0  501  502  0.00000000000E+00  0.00000000000E+00  0.48338931642E+03  0.48338931642E+03  0.00000000000E+00 0. -1.
         -4   -1    0    0    0  501 -0.00000000000E+00 -0.00000000000E+00 -0.87999042337E+03  0.87999042337E+03  0.00000000000E+00 0. -1.
   -9000010    2    1    2    0  502 -0.14999983006E+03 -0.22671061035E+03 -0.35727614331E+03  0.10887088207E+04  0.99183819437E+03 0.  0.
         13    1    3    3    0    0 -0.79364258444E+02  0.39184205751E+03 -0.19770599043E+03  0.44601183097E+03  0.10566000000E+00 0. -1.
         -4    1    3    3    0  502 -0.70635571618E+02 -0.61855266787E+03 -0.15957015288E+03  0.64269698972E+03  0.00000000000E+00 0. -1.
        -13    1    1    2    0    0  0.14999983006E+03  0.22671061035E+03 -0.39324963636E+02  0.27467091909E+03  0.10566000000E+00 0.  1.
<mgrwt>
<rscale>  1 0.73740434E+03</rscale>
<asrwt>0</asrwt>
<pdfrwt beam="1">  1       21 0.74367587E-01 0.10284166E+04</pdfrwt>
<pdfrwt beam="2">  1       -4 0.13538314E+00 0.10284166E+04</pdfrwt>
<totfact> 0.24164101E+01</totfact>
</mgrwt>
</event>
<event>
 6    2  0.2379986E-005  0.1000477E+04  0.7818608E-02  0.9860953E-01
         21   -1    0    0  501  502  0.00000000000E+00  0.00000000000E+00  0.34263811078E+03  0.34263811078E+03  0.00000000000E+00 0. -1.
         -4   -1    0    0    0  501 -0.00000000000E+00 -0.00000000000E+00 -0.10368620994E+04  0.10368620994E+04  0.00000000000E+00 0. -1.
   -9000010    2    1    2    0  502 -0.65845289543E+02 -0.13408966632E+03 -0.45874967110E+03  0.11006385847E+04  0.98926153908E+03 0.  0.
         13    1    3    3    0    0 -0.65365452548E+02 -0.74178757747E+02 -0.77372469026E+03  0.78001604981E+03  0.10566000000E+00 0. -1.
         -4    1    3    3    0  502 -0.47983699492E+00 -0.59910908573E+02  0.31497501916E+03  0.32062253493E+03  0.00000000000E+00 0. -1.
        -13    1    1    2    0    0  0.65845289543E+02  0.13408966632E+03 -0.23547431752E+03  0.27886162544E+03  0.10566000000E+00 0.  1.
<mgrwt>
<rscale>  1 0.62191567E+03</rscale>
<asrwt>0</asrwt>
<pdfrwt beam="1">  1       21 0.52713555E-01 0.10004769E+04</pdfrwt>
<pdfrwt beam="2">  1       -4 0.15951725E+00 0.10004769E+04</pdfrwt>
<totfact> 0.33867510E+01</totfact>
</mgrwt>
</event>
<event>
 6    2  0.2379986E-005  0.1022505E+04  0.7818608E-02  0.9730885E-01
         21   -1    0    0  501  502  0.00000000000E+00  0.00000000000E+00  0.73937720055E+03  0.73937720055E+03  0.00000000000E+00 0. -1.
         -4   -1    0    0    0  501 -0.00000000000E+00 -0.00000000000E+00 -0.56846708202E+03  0.56846708202E+03  0.00000000000E+00 0. -1.
   -9000010    2    1    2    0  502 -0.15318995728E+03 -0.15027339311E+03 -0.16944014124E+02  0.10226453310E+04  0.99973352331E+03 0.  0.
         13    1    3    3    0    0  0.12987626623E+03 -0.44493295163E+03  0.25770117480E+03  0.53032356410E+03  0.10566000000E+00 0. -1.
         -4    1    3    3    0  502 -0.28306622351E+03  0.29465955853E+03 -0.27464518893E+03  0.49232176686E+03  0.00000000000E+00 0. -1.
        -13    1    1    2    0    0  0.15318995728E+03  0.15027339311E+03  0.18785413265E+03  0.28519895162E+03  0.10566000000E+00 0.  1.
<mgrwt>
<rscale>  1 0.69207308E+03</rscale>
<asrwt>0</asrwt>
<pdfrwt beam="1">  1       21 0.11375034E+00 0.10225050E+04</pdfrwt>
<pdfrwt beam="2">  1       -4 0.87456474E-01 0.10225050E+04</pdfrwt>
<totfact> 0.25209414E+01</totfact>
</mgrwt>
</event>
<event>
 6    2  0.2379986E-005  0.1007561E+04  0.7818608E-02  0.9733112E-01
         21   -1    0    0  501  502  0.00000000000E+00  0.00000000000E+00  0.25651445623E+03  0.25651445623E+03  0.00000000000E+00 0. -1.
         -4   -1    0    0    0  501 -0.00000000000E+00 -0.00000000000E+00 -0.15736501285E+04  0.15736501285E+04  0.00000000000E+00 0. -1.
   -9000010    2    1    2    0  502  0.21948778660E+03  0.37237137689E+02 -0.87216791615E+03  0.13326127703E+04  0.98265885674E+03 0.  0.
         13    1    3    3    0    0 -0.30580802325E+03  0.26846519874E+03 -0.21546252498E+03  0.46045219171E+03  0.10566000000E+00 0. -1.
         -4    1    3    3    0  502  0.52529580985E+03 -0.23122806105E+03 -0.65670539116E+03  0.87216057859E+03  0.00000000000E+00 0. -1.
        -13    1    1    2    0    0 -0.21948778660E+03 -0.37237137689E+02 -0.44496775614E+03  0.49755181444E+03  0.10566000000E+00 0.  1.
<mgrwt>
<rscale>  1 0.69079103E+03</rscale>
<asrwt>0</asrwt>
<pdfrwt beam="1">  1       21 0.39463763E-01 0.10075614E+04</pdfrwt>
<pdfrwt beam="2">  1       -4 0.24210002E+00 0.10075614E+04</pdfrwt>
<totfact> 0.17593163E+01</totfact>
</mgrwt>
</event>
<event>
 6    2  0.2379986E-005  0.1053279E+04  0.7818608E-02  0.9565540E-01
         -4   -1    0    0    0  501 -0.00000000000E+00  0.00000000000E+00  0.87490227622E+03  0.87490227622E+03  0.00000000000E+00 0. -1.
         21   -1    0    0  501  502  0.00000000000E+00 -0.00000000000E+00 -0.66476371582E+03  0.66476371582E+03  0.00000000000E+00 0. -1.
   -9000010    2    1    2    0  502 -0.18284476242E+02  0.34342666841E+03 -0.12351817879E+03  0.10604968889E+04  0.99555045688E+03 0.  0.
         13    1    3    3    0    0 -0.78559413628E+02 -0.31465266319E+03  0.13447667902E+03  0.35108669625E+03  0.10566000000E+00 0. -1.
         -4    1    3    3    0  502  0.60274937386E+02  0.65807933160E+03 -0.25799485781E+03  0.70941019264E+03  0.00000000000E+00 0. -1.
        -13    1    1    2    0    0  0.18284476242E+02 -0.34342666841E+03  0.33365673919E+03  0.47916910316E+03  0.10566000000E+00 0.  1.
<mgrwt>
<rscale>  1 0.79619562E+03</rscale>
<asrwt>0</asrwt>
<pdfrwt beam="2">  1       21 0.10227134E+00 0.10532791E+04</pdfrwt>
<pdfrwt beam="1">  1       -4 0.13460035E+00 0.10532791E+04</pdfrwt>
<totfact> 0.11383256E+01</totfact>
</mgrwt>
</event>
<event>
 6    2  0.2379986E-005  0.1038082E+04  0.7818608E-02  0.9605639E-01
         21   -1    0    0  501  502  0.00000000000E+00  0.00000000000E+00  0.26921657381E+03  0.26921657381E+03  0.00000000000E+00 0. -1.
         -4   -1    0    0    0  501 -0.00000000000E+00 -0.00000000000E+00 -0.18092179587E+04  0.18092179587E+04  0.00000000000E+00 0. -1.
   -9000010    2    1    2    0  502 -0.29400333973E+03  0.10740516542E+03 -0.93419417691E+03  0.13965428859E+04  0.98976736592E+03 0.  0.
         13    1    3    3    0    0 -0.64918929384E+03 -0.12447613399E+01 -0.46709982783E+03  0.79976905979E+03  0.10566000000E+00 0. -1.
         -4    1    3    3    0  502  0.35518595412E+03  0.10864992676E+03 -0.46709434908E+03  0.59677382611E+03  0.00000000000E+00 0. -1.
        -13    1    1    2    0    0  0.29400333973E+03 -0.10740516542E+03 -0.60580720801E+03  0.68189164665E+03  0.10566000000E+00 0.  1.
<mgrwt>
<rscale>  1 0.76924090E+03</rscale>
<asrwt>0</asrwt>
<pdfrwt beam="1">  1       21 0.41417937E-01 0.10380815E+04</pdfrwt>
<pdfrwt beam="2">  1       -4 0.27834121E+00 0.10380815E+04</pdfrwt>
<totfact> 0.94615518E+00</totfact>
</mgrwt>
</event>
<event>
 6    2  0.2379986E-005  0.1035057E+04  0.7818608E-02  0.9665743E-01
         21   -1    0    0  501  502  0.00000000000E+00  0.00000000000E+00  0.10033933407E+04  0.10033933407E+04  0.00000000000E+00 0. -1.
         -4   -1    0    0    0  501 -0.00000000000E+00 -0.00000000000E+00 -0.44756990411E+03  0.44756990411E+03  0.00000000000E+00 0. -1.
   -9000010    2    1    2    0  502 -0.20098142446E+03  0.16082979323E+03  0.58982596362E+03  0.11913174507E+04  0.10025382016E+04 0.  0.
         13    1    3    3    0    0 -0.59724487101E+03 -0.13040612593E+02  0.39898526090E+03  0.71837367930E+03  0.10566000000E+00 0. -1.
         -4    1    3    3    0  502  0.39626344655E+03  0.17387040582E+03  0.19084070272E+03  0.47294377140E+03  0.00000000000E+00 0. -1.
        -13    1    1    2    0    0  0.20098142446E+03 -0.16082979323E+03 -0.34002527064E+02  0.25964579407E+03  0.10566000000E+00 0.  1.
<mgrwt>
<rscale>  1 0.73093604E+03</rscale>
<asrwt>0</asrwt>
<pdfrwt beam="1">  1       21 0.15436821E+00 0.10350568E+04</pdfrwt>
<pdfrwt beam="2">  1       -4 0.68856909E-01 0.10350568E+04</pdfrwt>
<totfact> 0.19188632E+01</totfact>
</mgrwt>
</event>
<event>
 6    2  0.2379986E-005  0.1020210E+04  0.7818608E-02  0.9764576E-01
         -4   -1    0    0    0  501 -0.00000000000E+00  0.00000000000E+00  0.16192152760E+03  0.16192152760E+03  0.00000000000E+00 0. -1.
         21   -1    0    0  501  502  0.00000000000E+00 -0.00000000000E+00 -0.24326519886E+04  0.24326519886E+04  0.00000000000E+00 0. -1.
   -9000010    2    1    2    0  502 -0.10337826164E+03  0.16319027484E+03 -0.21083473297E+04  0.23422118248E+04  0.10017532824E+04 0.  0.
         13    1    3    3    0    0 -0.66277381785E+02  0.25003024643E+03 -0.28510163701E+02  0.26023192745E+03  0.10566000000E+00 0. -1.
         -4    1    3    3    0  502 -0.37100879852E+02 -0.86839971590E+02 -0.20798371660E+04  0.20819798973E+04  0.00000000000E+00 0. -1.
        -13    1    1    2    0    0  0.10337826164E+03 -0.16319027484E+03 -0.16238313130E+03  0.25236169138E+03  0.10566000000E+00 0.  1.
<mgrwt>
<rscale>  1 0.67298762E+03</rscale>
<asrwt>0</asrwt>
<pdfrwt beam="2">  1       21 0.37425415E+00 0.10202097E+04</pdfrwt>
<pdfrwt beam="1">  1       -4 0.24911004E-01 0.10202097E+04</pdfrwt>
<totfact> 0.55887075E+00</totfact>
</mgrwt>
</event>
<event>
 6    2  0.2379986E-005  0.9787370E+03  0.7818608E-02  0.1001095E+00
         21   -1    0    0  501  502  0.00000000000E+00  0.00000000000E+00  0.97228879431E+03  0.97228879431E+03  0.00000000000E+00 0. -1.
         -4   -1    0    0    0  501 -0.00000000000E+00 -0.00000000000E+00 -0.62657864137E+03  0.62657864137E+03  0.00000000000E+00 0. -1.
   -9000010    2    1    2    0  502  0.24372944954E+02  0.95780392472E+02  0.71788745936E+03  0.12137909724E+04  0.97373415070E+03 0.  0.
         13    1    3    3    0    0  0.21118837588E+03  0.13535902333E+03  0.90938735048E+03  0.94334933067E+03  0.10566000000E+00 0. -1.
         -4    1    3    3    0  502 -0.18681543093E+03 -0.39578630857E+02 -0.19149989113E+03  0.27044164168E+03  0.00000000000E+00 0. -1.
        -13    1    1    2    0    0 -0.24372944954E+02 -0.95780392472E+02 -0.37217730642E+03  0.38507646332E+03  0.10566000000E+00 0.  1.
<mgrwt>
<rscale>  1 0.55172778E+03</rscale>
<asrwt>0</asrwt>
<pdfrwt beam="1">  1       21 0.14958289E+00 0.97873700E+03</pdfrwt>
<pdfrwt beam="2">  1       -4 0.96396715E-01 0.97873700E+03</pdfrwt>
<totfact> 0.97051366E+00</totfact>
</mgrwt>
</event>
<event>
 6    2  0.2379986E-005  0.1005116E+04  0.7818608E-02  0.9886736E-01
         -4   -1    0    0    0  501 -0.00000000000E+00  0.00000000000E+00  0.64191670986E+03  0.64191670986E+03  0.00000000000E+00 0. -1.
         21   -1    0    0  501  502  0.00000000000E+00 -0.00000000000E+00 -0.65758791082E+03  0.65758791082E+03  0.00000000000E+00 0. -1.
   -9000010    2    1    2    0  502  0.61077778557E+01 -0.13540049338E+03 -0.24369801674E+03  0.10342371360E+04  0.99593530490E+03 0.  0.
         13    1    3    3    0    0  0.49933897644E+03 -0.10742987404E+03 -0.13707384692E+03  0.52883820011E+03  0.10566000000E+00 0. -1.
         -4    1    3    3    0  502 -0.49323119858E+03 -0.27970619339E+02 -0.10662416981E+03  0.50539893588E+03  0.00000000000E+00 0. -1.
        -13    1    1    2    0    0 -0.61077778557E+01  0.13540049338E+03  0.22802681578E+03  0.26526748469E+03  0.10566000000E+00 0.  1.
<mgrwt>
<rscale>  1 0.60908445E+03</rscale>
<asrwt>0</asrwt>
<pdfrwt beam="2">  1       21 0.10116737E+00 0.10051158E+04</pdfrwt>
<pdfrwt beam="1">  1       -4 0.98756417E-01 0.10051158E+04</pdfrwt>
<totfact> 0.25448680E+01</totfact>
</mgrwt>
</event>
<event>
 6    2  0.2379986E-005  0.1032788E+04  0.7818608E-02  0.9694426E-01
         21   -1    0    0  501  502  0.00000000000E+00  0.00000000000E+00  0.86999540519E+03  0.86999540519E+03  0.00000000000E+00 0. -1.
         -4   -1    0    0    0  501 -0.00000000000E+00 -0.00000000000E+00 -0.46587598887E+03  0.46587598887E+03  0.00000000000E+00 0. -1.
   -9000010    2    1    2    0  502 -0.52344177909E+02 -0.22935443571E+03  0.28091512182E+03  0.10703103286E+04  0.10056378691E+04 0.  0.
         13    1    3    3    0    0 -0.11793600733E+03 -0.62059195856E+03  0.22028652391E+03  0.66900631135E+03  0.10566000000E+00 0. -1.
         -4    1    3    3    0  502  0.65591829425E+02  0.39123752285E+03  0.60628597915E+02  0.40130401724E+03  0.00000000000E+00 0. -1.
        -13    1    1    2    0    0  0.52344177909E+02  0.22935443571E+03  0.12320429450E+03  0.26556106546E+03  0.10566000000E+00 0.  1.
<mgrwt>
<rscale>  1 0.71349614E+03</rscale>
<asrwt>0</asrwt>
<pdfrwt beam="1">  1       21 0.13384545E+00 0.10327879E+04</pdfrwt>
<pdfrwt beam="2">  1       -4 0.71673229E-01 0.10327879E+04</pdfrwt>
<totfact> 0.25969547E+01</totfact>
</mgrwt>
</event>
<event>
 6    2  0.2379986E-005  0.1235008E+04  0.7818608E-02  0.9225059E-01
         -4   -1    0    0    0  501 -0.00000000000E+00  0.00000000000E+00  0.98197523736E+03  0.98197523736E+03  0.00000000000E+00 0. -1.
         21   -1    0    0  501  502  0.00000000000E+00 -0.00000000000E+00 -0.97546559667E+03  0.97546559667E+03  0.00000000000E+00 0.  1.
   -9000010    2    1    2    0  502 -0.13179793855E+03  0.70970660588E+03 -0.18914954237E+02  0.12351523984E+04  0.10020925650E+04 0.  0.
         13    1    3    3    0    0 -0.15180046710E+03  0.41364143630E+02  0.41109488989E+03  0.44017427668E+03  0.10566000000E+00 0. -1.
         -4    1    3    3    0  502  0.20002528554E+02  0.66834246225E+03 -0.43000984413E+03  0.79497812173E+03  0.00000000000E+00 0. -1.
        -13    1    1    2    0    0  0.13179793855E+03 -0.70970660588E+03  0.25424594935E+02  0.72228843562E+03  0.10566000000E+00 0.  1.
<mgrwt>
<rscale>  1 0.10798479E+04</rscale>
<asrwt>0</asrwt>
<pdfrwt beam="2">  1       21 0.15007163E+00 0.12350076E+04</pdfrwt>
<pdfrwt beam="1">  1       -4 0.15107311E+00 0.12350076E+04</pdfrwt>
<totfact> 0.29900149E+00</totfact>
</mgrwt>
</event>
<event>
 6    2  0.2379986E-005  0.1051925E+04  0.7818608E-02  0.9557302E-01
         -4   -1    0    0    0  501 -0.00000000000E+00  0.00000000000E+00  0.17531058338E+04  0.17531058338E+04  0.00000000000E+00 0. -1.
         21   -1    0    0  501  502  0.00000000000E+00 -0.00000000000E+00 -0.28661267138E+03  0.28661267138E+03  0.00000000000E+00 0.  1.
   -9000010    2    1    2    0  502 -0.35145749887E+03 -0.51471964306E+02  0.11991228857E+04  0.15951303669E+04  0.99013809940E+03 0.  0.
         13    1    3    3    0    0 -0.29168087330E+03  0.35871404518E+03  0.18214958804E+03  0.49692251070E+03  0.10566000000E+00 0. -1.
         -4    1    3    3    0  502 -0.59776625573E+02 -0.41018600948E+03  0.10169732977E+04  0.10982078562E+04  0.00000000000E+00 0. -1.
        -13    1    1    2    0    0  0.35145749887E+03  0.51471964306E+02  0.26737027666E+03  0.44458813820E+03  0.10566000000E+00 0.  1.
<mgrwt>
<rscale>  1 0.80187884E+03</rscale>
<asrwt>0</asrwt>
<pdfrwt beam="2">  1       21 0.44094258E-01 0.10519245E+04</pdfrwt>
<pdfrwt beam="1">  1       -4 0.26970858E+00 0.10519245E+04</pdfrwt>
<totfact> 0.93513979E+00</totfact>
</mgrwt>
</event>
<event>
 6    2  0.2379986E-005  0.1022976E+04  0.7818608E-02  0.9774589E-01
         -4   -1    0    0    0  501 -0.00000000000E+00  0.00000000000E+00  0.25125628447E+03  0.25125628447E+03  0.00000000000E+00 0. -1.
         21   -1    0    0  501  502  0.00000000000E+00 -0.00000000000E+00 -0.18525620375E+04  0.18525620375E+04  0.00000000000E+00 0. -1.
   -9000010    2    1    2    0  502 -0.17529692097E+03  0.60300226789E+02 -0.16216265980E+04  0.19173295133E+04  0.10060390209E+04 0.  0.
         13    1    3    3    0    0  0.38698506092E+03  0.24703590164E+02 -0.33380374893E+03  0.51165677822E+03  0.10566000000E+00 0. -1.
         -4    1    3    3    0  502 -0.56228198189E+03  0.35596636625E+02 -0.12878228491E+04  0.14056727351E+04  0.00000000000E+00 0. -1.
        -13    1    1    2    0    0  0.17529692097E+03 -0.60300226789E+02  0.20320844921E+02  0.18648880866E+03  0.10566000000E+00 0.  1.
<mgrwt>
<rscale>  1 0.66744242E+03</rscale>
<asrwt>0</asrwt>
<pdfrwt beam="2">  1       21 0.28500954E+00 0.10229759E+04</pdfrwt>
<pdfrwt beam="1">  1       -4 0.38654813E-01 0.10229759E+04</pdfrwt>
<totfact> 0.85544684E+00</totfact>
</mgrwt>
</event>
<event>
 6    2  0.2379986E-005  0.1047125E+04  0.7818608E-02  0.9592290E-01
         21   -1    0    0  501  502  0.00000000000E+00  0.00000000000E+00  0.40658480052E+03  0.40658480052E+03  0.00000000000E+00 0.  1.
         -4   -1    0    0    0  501 -0.00000000000E+00 -0.00000000000E+00 -0.12362783292E+04  0.12362783292E+04  0.00000000000E+00 0. -1.
   -9000010    2    1    2    0  502  0.29498641604E+03  0.12204805765E+03 -0.43161850568E+03  0.11325921731E+04  0.99727517877E+03 0.  0.
         13    1    3    3    0    0  0.97540095892E+02 -0.34756977144E+03 -0.50199353644E+03  0.61831734419E+03  0.10566000000E+00 0. -1.
         -4    1    3    3    0  502  0.19744632015E+03  0.46961782910E+03  0.70375030762E+02  0.51427482896E+03  0.00000000000E+00 0. -1.
        -13    1    1    2    0    0 -0.29498641604E+03 -0.12204805765E+03 -0.39807502297E+03  0.51027095655E+03  0.10566000000E+00 0.  1.
<mgrwt>
<rscale>  1 0.77808565E+03</rscale>
<asrwt>0</asrwt>
<pdfrwt beam="1">  1       21 0.62551509E-01 0.10471249E+04</pdfrwt>
<pdfrwt beam="2">  1       -4 0.19019666E+00 0.10471249E+04</pdfrwt>
<totfact> 0.13976847E+01</totfact>
</mgrwt>
</event>
<event>
 6    2  0.2379986E-005  0.1125287E+04  0.7818608E-02  0.9387697E-01
         21   -1    0    0  501  502  0.00000000000E+00  0.00000000000E+00  0.79353203893E+03  0.79353203893E+03  0.00000000000E+00 0. -1.
         -4   -1    0    0    0  501 -0.00000000000E+00 -0.00000000000E+00 -0.10464946901E+04  0.10464946901E+04  0.00000000000E+00 0. -1.
   -9000010    2    1    2    0  502  0.45735619935E+02  0.52514317829E+03  0.20252452142E+03  0.11433663525E+04  0.99418475633E+03 0.  0.
         13    1    3    3    0    0  0.28102072584E+03  0.74373182624E+03  0.77829003423E+02  0.79885358023E+03  0.10566000000E+00 0. -1.
         -4    1    3    3    0  502 -0.23528510590E+03 -0.21858864795E+03  0.12469551800E+03  0.34451277230E+03  0.00000000000E+00 0. -1.
        -13    1    1    2    0    0 -0.45735619935E+02 -0.52514317829E+03 -0.45548717261E+03  0.69666037652E+03  0.10566000000E+00 0.  1.
<mgrwt>
<rscale>  1 0.93095153E+03</rscale>
<asrwt>0</asrwt>
<pdfrwt beam="1">  1       21 0.12208185E+00 0.11252868E+04</pdfrwt>
<pdfrwt beam="2">  1       -4 0.16099918E+00 0.11252868E+04</pdfrwt>
<totfact> 0.44493631E+00</totfact>
</mgrwt>
</event>
<event>
 6    2  0.2379986E-005  0.1158845E+04  0.7818608E-02  0.9333810E-01
         -4   -1    0    0    0  501 -0.00000000000E+00  0.00000000000E+00  0.12094845414E+04  0.12094845414E+04  0.00000000000E+00 0. -1.
         21   -1    0    0  501  502  0.00000000000E+00 -0.00000000000E+00 -0.66134313729E+03  0.66134313729E+03  0.00000000000E+00 0. -1.
   -9000010    2    1    2    0  502  0.53524231622E+03  0.23895666755E+03  0.16494443440E+03  0.11705244909E+04  0.99966809062E+03 0.  0.
         13    1    3    3    0    0 -0.17466636651E+03  0.39192910720E+03  0.10565792597E+03  0.44190538935E+03  0.10566000000E+00 0. -1.
         -4    1    3    3    0  502  0.70990868273E+03 -0.15297243965E+03  0.59286508431E+02  0.72861910158E+03  0.00000000000E+00 0. -1.
        -13    1    1    2    0    0 -0.53524231622E+03 -0.23895666755E+03  0.38319696973E+03  0.70030318778E+03  0.10566000000E+00 0.  1.
<mgrwt>
<rscale>  1 0.97728927E+03</rscale>
<asrwt>0</asrwt>
<pdfrwt beam="2">  1       21 0.10174510E+00 0.11588446E+04</pdfrwt>
<pdfrwt beam="1">  1       -4 0.18607454E+00 0.11588446E+04</pdfrwt>
<totfact> 0.46706982E+00</totfact>
</mgrwt>
</event>
<event>
 6    2  0.2379986E-005  0.1312343E+04  0.7818608E-02  0.9122804E-01
         21   -1    0    0  501  502  0.00000000000E+00  0.00000000000E+00  0.20128994762E+04  0.20128994762E+04  0.00000000000E+00 0. -1.
         -4   -1    0    0    0  501 -0.00000000000E+00 -0.00000000000E+00 -0.62379178742E+03  0.62379178742E+03  0.00000000000E+00 0. -1.
   -9000010    2    1    2    0  502 -0.87749658809E+03 -0.10181489665E+03  0.56574893369E+03  0.14290960557E+04  0.97050355243E+03 0.  0.
         13    1    3    3    0    0 -0.10926084992E+04 -0.88987706889E+02  0.45631161859E+03  0.11874057642E+04  0.10566000000E+00 0. -1.
         -4    1    3    3    0  502  0.21511191108E+03 -0.12827189762E+02  0.10943731510E+03  0.24169029154E+03  0.00000000000E+00 0. -1.
        -13    1    1    2    0    0  0.87749658809E+03  0.10181489665E+03  0.82335875504E+03  0.12075952078E+04  0.10566000000E+00 0.  1.
<mgrwt>
<rscale>  1 0.11887016E+04</rscale>
<asrwt>0</asrwt>
<pdfrwt beam="1">  1       21 0.30967684E+00 0.13123428E+04</pdfrwt>
<pdfrwt beam="2">  1       -4 0.95967968E-01 0.13123428E+04</pdfrwt>
<totfact> 0.77718465E-01</totfact>
</mgrwt>
</event>
<event>
 6    2  0.2379986E-005  0.1045422E+04  0.7818608E-02  0.9689438E-01
         -4   -1    0    0    0  501 -0.00000000000E+00  0.00000000000E+00  0.11898348804E+04  0.11898348804E+04  0.00000000000E+00 0. -1.
         21   -1    0    0  501  502  0.00000000000E+00 -0.00000000000E+00 -0.35939110520E+03  0.35939110520E+03  0.00000000000E+00 0. -1.
   -9000010    2    1    2    0  502  0.21430546426E+03  0.85301600758E+02  0.53487610944E+03  0.11743080595E+04  0.10196586542E+04 0.  0.
         13    1    3    3    0    0 -0.17192094604E+03 -0.18782045670E+03 -0.18372386019E+03  0.31398694815E+03  0.10566000000E+00 0. -1.
         -4    1    3    3    0  502  0.38622641030E+03  0.27312205746E+03  0.71859996964E+03  0.86032111135E+03  0.00000000000E+00 0. -1.
        -13    1    1    2    0    0 -0.21430546426E+03 -0.85301600758E+02  0.29556766575E+03  0.37491792609E+03  0.10566000000E+00 0.  1.
<mgrwt>
<rscale>  1 0.71649130E+03</rscale>
<asrwt>0</asrwt>
<pdfrwt beam="2">  1       21 0.55290940E-01 0.10454219E+04</pdfrwt>
<pdfrwt beam="1">  1       -4 0.18305152E+00 0.10454219E+04</pdfrwt>
<totfact> 0.20583936E+01</totfact>
</mgrwt>
</event>
<event>
 6    2  0.2379986E-005  0.1000933E+04  0.7818608E-02  0.9965791E-01
         21   -1    0    0  501  502  0.00000000000E+00  0.00000000000E+00  0.96738122853E+03  0.96738122853E+03  0.00000000000E+00 0. -1.
         -4   -1    0    0    0  501 -0.00000000000E+00 -0.00000000000E+00 -0.31698649309E+03  0.31698649309E+03  0.00000000000E+00 0. -1.
   -9000010    2    1    2    0  502  0.91001178752E+02 -0.55464011249E+02  0.58622545063E+03  0.11599684477E+04  0.99524321128E+03 0.  0.
         13    1    3    3    0    0  0.50617335049E+03  0.11602891737E+03  0.16688819881E+03  0.54545930414E+03  0.10566000000E+00 0. -1.
         -4    1    3    3    0  502 -0.41517217173E+03 -0.17149292862E+03  0.41933725182E+03  0.61450914355E+03  0.00000000000E+00 0. -1.
        -13    1    1    2    0    0 -0.91001178752E+02  0.55464011249E+02  0.64169284805E+02  0.12439927393E+03  0.10566000000E+00 0.  1.
<mgrwt>
<rscale>  1 0.57176032E+03</rscale>
<asrwt>0</asrwt>
<pdfrwt beam="1">  1       21 0.14882788E+00 0.10009328E+04</pdfrwt>
<pdfrwt beam="2">  1       -4 0.48767153E-01 0.10009328E+04</pdfrwt>
<totfact> 0.45025552E+01</totfact>
</mgrwt>
</event>
<event>
 6    2  0.2379986E-005  0.1001529E+04  0.7818608E-02  0.9997799E-01
         21   -1    0    0  501  502  0.00000000000E+00  0.00000000000E+00  0.15489185655E+04  0.15489185655E+04  0.00000000000E+00 0. -1.
         -4   -1    0    0    0  501 -0.00000000000E+00 -0.00000000000E+00 -0.19667171929E+03  0.19667171929E+03  0.00000000000E+00 0. -1.
   -9000010    2    1    2    0  502  0.52506257088E+02  0.80532074145E+02  0.12804022928E+04  0.16255737317E+04  0.99690400926E+03 0.  0.
         13    1    3    3    0    0  0.84769312796E+02  0.47563644763E+03  0.10761575721E+04  0.11796317213E+04  0.10566000000E+00 0. -1.
         -4    1    3    3    0  502 -0.32263055708E+02 -0.39510437349E+03  0.20424472076E+03  0.44594201044E+03  0.00000000000E+00 0. -1.
        -13    1    1    2    0    0 -0.52506257088E+02 -0.80532074145E+02  0.71844553353E+02  0.12001655307E+03  0.10566000000E+00 0.  1.
<mgrwt>
<rscale>  1 0.55746844E+03</rscale>
<asrwt>0</asrwt>
<pdfrwt beam="1">  1       21 0.23829516E+00 0.10015288E+04</pdfrwt>
<pdfrwt beam="2">  1       -4 0.30257189E-01 0.10015288E+04</pdfrwt>
<totfact> 0.27565313E+01</totfact>
</mgrwt>
</event>
<event>
 6    2  0.2379986E-005  0.1002572E+04  0.7818608E-02  0.9932522E-01
         -4   -1    0    0    0  501 -0.00000000000E+00  0.00000000000E+00  0.89267105202E+03  0.89267105202E+03  0.00000000000E+00 0. -1.
         21   -1    0    0  501  502  0.00000000000E+00 -0.00000000000E+00 -0.73508052142E+03  0.73508052142E+03  0.00000000000E+00 0. -1.
   -9000010    2    1    2    0  502 -0.20281531698E+02 -0.11614458180E+03 -0.38391084828E+03  0.10735632851E+04  0.99561522855E+03 0.  0.
         13    1    3    3    0    0 -0.26469385241E+01  0.29665873117E+02  0.33676192278E+03  0.33807643235E+03  0.10566000000E+00 0. -1.
         -4    1    3    3    0  502 -0.17634593174E+02 -0.14581045492E+03 -0.72067277106E+03  0.73548685277E+03  0.00000000000E+00 0. -1.
        -13    1    1    2    0    0  0.20281531698E+02  0.11614458180E+03  0.54150137888E+03  0.55418828831E+03  0.10566000000E+00 0.  1.
<mgrwt>
<rscale>  1 0.58710679E+03</rscale>
<asrwt>0</asrwt>
<pdfrwt beam="2">  1       21 0.11308931E+00 0.10025720E+04</pdfrwt>
<pdfrwt beam="1">  1       -4 0.13733401E+00 0.10025720E+04</pdfrwt>
<totfact> 0.84291617E+00</totfact>
</mgrwt>
</event>
<event>
 6    2  0.2379986E-005  0.1309251E+04  0.7818608E-02  0.9144043E-01
         -4   -1    0    0    0  501 -0.00000000000E+00  0.00000000000E+00  0.11545606875E+04  0.11545606875E+04  0.00000000000E+00 0. -1.
         21   -1    0    0  501  502  0.00000000000E+00 -0.00000000000E+00 -0.99636233571E+03  0.99636233571E+03  0.00000000000E+00 0.  1.
   -9000010    2    1    2    0  502 -0.36784166658E+03 -0.73379993892E+03  0.22065589208E+03  0.13277153960E+04  0.10199849548E+04 0.  0.
         13    1    3    3    0    0 -0.69536364037E+03 -0.28521340930E+03  0.16520721944E+03  0.76952629436E+03  0.10566000000E+00 0. -1.
         -4    1    3    3    0  502  0.32752197379E+03 -0.44858652962E+03  0.55448672641E+02  0.55818910162E+03  0.00000000000E+00 0. -1.
        -13    1    1    2    0    0  0.36784166658E+03  0.73379993892E+03 -0.62457540296E+02  0.82320762723E+03  0.10566000000E+00 0.  1.
<mgrwt>
<rscale>  1 0.11650144E+04</rscale>
<asrwt>0</asrwt>
<pdfrwt beam="2">  1       21 0.15328651E+00 0.13092514E+04</pdfrwt>
<pdfrwt beam="1">  1       -4 0.17762472E+00 0.13092514E+04</pdfrwt>
<totfact> 0.17761981E+00</totfact>
</mgrwt>
</event>
<event>
 6    2  0.2379986E-005  0.1008874E+04  0.7818608E-02  0.1038781E+00
         21   -1    0    0  501  502  0.00000000000E+00  0.00000000000E+00  0.31865356914E+03  0.31865356914E+03  0.00000000000E+00 0. -1.
         -4   -1    0    0    0  501 -0.00000000000E+00 -0.00000000000E+00 -0.92836860355E+03  0.92836860355E+03  0.00000000000E+00 0. -1.
   -9000010    2    1    2    0  502 -0.26377981444E+02  0.11616230277E+02 -0.48569966474E+03  0.11197014839E+04  0.10084624505E+04 0.  0.
         13    1    3    3    0    0 -0.47853799095E+03 -0.76970749440E+02 -0.44357256082E+03  0.65702338842E+03  0.10566000000E+00 0. -1.
         -4    1    3    3    0  502  0.45216000951E+03  0.88586979717E+02 -0.42127103918E+02  0.46267809550E+03  0.00000000000E+00 0. -1.
        -13    1    1    2    0    0  0.26377981444E+02 -0.11616230277E+02 -0.12401536967E+03  0.12732068877E+03  0.10566000000E+00 0.  1.
<mgrwt>
<rscale>  1 0.41477379E+03</rscale>
<asrwt>0</asrwt>
<pdfrwt beam="1">  1       21 0.49023626E-01 0.10088742E+04</pdfrwt>
<pdfrwt beam="2">  1       -4 0.14282594E+00 0.10088742E+04</pdfrwt>
<totfact> 0.53348456E+01</totfact>
</mgrwt>
</event>
<event>
 6    2  0.2379986E-005  0.1108988E+04  0.7818608E-02  0.9425349E-01
         -4   -1    0    0    0  501 -0.00000000000E+00  0.00000000000E+00  0.65927439640E+03  0.65927439640E+03  0.00000000000E+00 0. -1.
         21   -1    0    0  501  502  0.00000000000E+00 -0.00000000000E+00 -0.13383599932E+04  0.13383599932E+04  0.00000000000E+00 0. -1.
   -9000010    2    1    2    0  502  0.46497191973E+03 -0.12486936455E+03 -0.93666101729E+03  0.14516157518E+04  0.99903112332E+03 0.  0.
         13    1    3    3    0    0  0.57473659627E+03 -0.24692889225E+02 -0.78400200933E+02  0.58058461617E+03  0.10566000000E+00 0. -1.
         -4    1    3    3    0  502 -0.10976467653E+03 -0.10017647533E+03 -0.85826081635E+03  0.87103113567E+03  0.00000000000E+00 0. -1.
        -13    1    1    2    0    0 -0.46497191973E+03  0.12486936455E+03  0.25757542050E+03  0.54601863773E+03  0.10566000000E+00 0.  1.
<mgrwt>
<rscale>  1 0.90018604E+03</rscale>
<asrwt>0</asrwt>
<pdfrwt beam="2">  1       21 0.20590154E+00 0.11089880E+04</pdfrwt>
<pdfrwt beam="1">  1       -4 0.10142683E+00 0.11089880E+04</pdfrwt>
<totfact> 0.32513399E+00</totfact>
</mgrwt>
</event>
<event>
 6    2  0.2379986E-005  0.1074267E+04  0.7818608E-02  0.9637165E-01
         21   -1    0    0  501  502  0.00000000000E+00  0.00000000000E+00  0.14898841761E+03  0.14898841761E+03  0.00000000000E+00 0. -1.
         -4   -1    0    0    0  501 -0.00000000000E+00 -0.00000000000E+00 -0.29854464677E+04  0.29854464677E+04  0.00000000000E+00 0. -1.
   -9000010    2    1    2    0  502  0.16636985795E+03  0.19146238083E+03 -0.24034108235E+04  0.26325716723E+04  0.10438933138E+04 0.  0.
         13    1    3    3    0    0 -0.27969925649E+03 -0.21137033386E+03 -0.35960071199E+03  0.50221686087E+03  0.10566000000E+00 0. -1.
         -4    1    3    3    0  502  0.44606911444E+03  0.40283271469E+03 -0.20438101115E+04  0.21303548115E+04  0.00000000000E+00 0. -1.
        -13    1    1    2    0    0 -0.16636985795E+03 -0.19146238083E+03 -0.43304722659E+03  0.50186321297E+03  0.10566000000E+00 0.  1.
<mgrwt>
<rscale>  1 0.74884461E+03</rscale>
<asrwt>0</asrwt>
<pdfrwt beam="1">  1       21 0.22921295E-01 0.10742672E+04</pdfrwt>
<pdfrwt beam="2">  1       -4 0.45929946E+00 0.10742672E+04</pdfrwt>
<totfact> 0.19094653E+00</totfact>
</mgrwt>
</event>
<event>
 6    2  0.2379986E-005  0.1028599E+04  0.7818608E-02  0.9645745E-01
         21   -1    0    0  501  502  0.00000000000E+00  0.00000000000E+00  0.47245078760E+03  0.47245078760E+03  0.00000000000E+00 0. -1.
         -4   -1    0    0    0  501 -0.00000000000E+00 -0.00000000000E+00 -0.12437544180E+04  0.12437544180E+04  0.00000000000E+00 0. -1.
   -9000010    2    1    2    0  502  0.55094197922E+02 -0.27519630388E+03 -0.15658661433E+03  0.10404497784E+04  0.98956960208E+03 0.  0.
         13    1    3    3    0    0  0.27375212798E+03 -0.29302407776E+03 -0.49506243304E+03  0.63709509612E+03  0.10566000000E+00 0. -1.
         -4    1    3    3    0  502 -0.21865793006E+03  0.17827773877E+02  0.33847581871E+03  0.40335468233E+03  0.00000000000E+00 0. -1.
        -13    1    1    2    0    0 -0.55094197922E+02  0.27519630388E+03 -0.61471701606E+03  0.67575542714E+03  0.10566000000E+00 0.  1.
<mgrwt>
<rscale>  1 0.74341041E+03</rscale>
<asrwt>0</asrwt>
<pdfrwt beam="1">  1       21 0.72684736E-01 0.10285992E+04</pdfrwt>
<pdfrwt beam="2">  1       -4 0.19134683E+00 0.10285992E+04</pdfrwt>
<totfact> 0.97718762E+00</totfact>
</mgrwt>
</event>
<event>
 6    2  0.2379986E-005  0.9984288E+03  0.7818608E-02  0.1007794E+00
         -4   -1    0    0    0  501 -0.00000000000E+00  0.00000000000E+00  0.35534513570E+03  0.35534513570E+03  0.00000000000E+00 0. -1.
         21   -1    0    0  501  502  0.00000000000E+00 -0.00000000000E+00 -0.95929983039E+03  0.95929983039E+03  0.00000000000E+00 0. -1.
   -9000010    2    1    2    0  502  0.64370851260E+02 -0.39498393740E+02 -0.67958382642E+03  0.12077641618E+04  0.99556836216E+03 0.  0.
         13    1    3    3    0    0 -0.27393035469E+02  0.41455537979E+03 -0.61189762326E+03  0.73961155604E+03  0.10566000000E+00 0. -1.
         -4    1    3    3    0  502  0.91763886730E+02 -0.45405377353E+03 -0.67686203159E+02  0.46815260574E+03  0.00000000000E+00 0. -1.
        -13    1    1    2    0    0 -0.64370851260E+02  0.39498393740E+02  0.75629131739E+02  0.10688080432E+03  0.10566000000E+00 0.  1.
<mgrwt>
<rscale>  1 0.52360984E+03</rscale>
<asrwt>0</asrwt>
<pdfrwt beam="2">  1       21 0.14758459E+00 0.99842881E+03</pdfrwt>
<pdfrwt beam="1">  1       -4 0.54668483E-01 0.99842881E+03</pdfrwt>
<totfact> 0.36172989E+01</totfact>
</mgrwt>
</event>
<event>
 6    2  0.2379986E-005  0.9761954E+03  0.7818608E-02  0.9715484E-01
         -4   -1    0    0    0  501 -0.00000000000E+00  0.00000000000E+00  0.89694638522E+03  0.89694638522E+03  0.00000000000E+00 0. -1.
         21   -1    0    0  501  502  0.00000000000E+00 -0.00000000000E+00 -0.58103537364E+03  0.58103537364E+03  0.00000000000E+00 0.  1.
   -9000010    2    1    2    0  502  0.25536536884E+03  0.46746365423E+02  0.55680294321E+03  0.11238269507E+04  0.94104240244E+03 0.  0.
         13    1    3    3    0    0 -0.34491807024E+03  0.12164364845E+03  0.15272929810E+03  0.39634820808E+03  0.10566000000E+00 0. -1.
         -4    1    3    3    0  502  0.60028343908E+03 -0.74897283029E+02  0.40407364511E+03  0.72747874259E+03  0.00000000000E+00 0. -1.
        -13    1    1    2    0    0 -0.25536536884E+03 -0.46746365423E+02 -0.24089193163E+03  0.35415480820E+03  0.10566000000E+00 0.  1.
<mgrwt>
<rscale>  1 0.70102331E+03</rscale>
<asrwt>0</asrwt>
<pdfrwt beam="2">  1       21 0.89390057E-01 0.97619542E+03</pdfrwt>
<pdfrwt beam="1">  1       -4 0.13799175E+00 0.97619542E+03</pdfrwt>
<totfact> 0.14962457E+01</totfact>
</mgrwt>
</event>
<event>
 6    2  0.2379986E-005  0.1128351E+04  0.7818608E-02  0.9369558E-01
         21   -1    0    0  501  502  0.00000000000E+00  0.00000000000E+00  0.12374744732E+04  0.12374744732E+04  0.00000000000E+00 0. -1.
         -4   -1    0    0    0  501 -0.00000000000E+00 -0.00000000000E+00 -0.12221422535E+04  0.12221422535E+04  0.00000000000E+00 0. -1.
   -9000010    2    1    2    0  502  0.32628474125E+03  0.45271804495E+03  0.87970598332E+03  0.14307545517E+04  0.98069394286E+03 0.  0.
         13    1    3    3    0    0  0.33825907067E+03  0.49784129907E+03  0.10738786111E+04  0.12310485127E+04  0.10566000000E+00 0. -1.
         -4    1    3    3    0  502 -0.11974329424E+02 -0.45123254125E+02 -0.19417262782E+03  0.19970603903E+03  0.00000000000E+00 0. -1.
        -13    1    1    2    0    0 -0.32628474125E+03 -0.45271804495E+03 -0.86437376362E+03  0.10288621749E+04  0.10566000000E+00 0.  1.
<mgrwt>
<rscale>  1 0.94623862E+03</rscale>
<asrwt>0</asrwt>
<pdfrwt beam="1">  1       21 0.19038069E+00 0.11283510E+04</pdfrwt>
<pdfrwt beam="2">  1       -4 0.18802188E+00 0.11283510E+04</pdfrwt>
<totfact> 0.81197295E-01</totfact>
</mgrwt>
</event>
<event>
 6    2  0.2379986E-005  0.1036150E+04  0.7818608E-02  0.9494302E-01
         -4   -1    0    0    0  501 -0.00000000000E+00  0.00000000000E+00  0.18311149671E+04  0.18311149671E+04  0.00000000000E+00 0. -1.
         21   -1    0    0  501  502  0.00000000000E+00 -0.00000000000E+00 -0.43530554007E+03  0.43530554007E+03  0.00000000000E+00 0. -1.
   -9000010    2    1    2    0  502  0.33003495355E+03 -0.32440788199E+03  0.30281608044E+03  0.10794925349E+04  0.92706149198E+03 0.  0.
         13    1    3    3    0    0  0.33126930546E+03 -0.61369814319E+03  0.56748544641E+02  0.69970363168E+03  0.10566000000E+00 0. -1.
         -4    1    3    3    0  502 -0.12343519043E+01  0.28929026121E+03  0.24606753580E+03  0.37978890324E+03  0.00000000000E+00 0. -1.
        -13    1    1    2    0    0 -0.33003495355E+03  0.32440788199E+03  0.10929933466E+04  0.11869279723E+04  0.10566000000E+00 0.  1.
<mgrwt>
<rscale>  1 0.84705211E+03</rscale>
<asrwt>0</asrwt>
<pdfrwt beam="2">  1       21 0.66970084E-01 0.10361499E+04</pdfrwt>
<pdfrwt beam="1">  1       -4 0.28170999E+00 0.10361499E+04</pdfrwt>
<totfact> 0.31579439E+00</totfact>
</mgrwt>
</event>
<event>
 6    2  0.2379986E-005  0.1071914E+04  0.7818608E-02  0.9520402E-01
         21   -1    0    0  501  502  0.00000000000E+00  0.00000000000E+00  0.10465062416E+04  0.10465062416E+04  0.00000000000E+00 0. -1.
         -4   -1    0    0    0  501 -0.00000000000E+00 -0.00000000000E+00 -0.68633342957E+03  0.68633342957E+03  0.00000000000E+00 0. -1.
   -9000010    2    1    2    0  502 -0.31343701181E+03 -0.21758815904E+03  0.65008212705E+03  0.12536374284E+04  0.10017048781E+04 0.  0.
         13    1    3    3    0    0 -0.66909469196E+03 -0.24416150833E+03  0.38826084089E+03  0.81120221936E+03  0.10566000000E+00 0. -1.
         -4    1    3    3    0  502  0.35565768015E+03  0.26573349290E+02  0.26182128616E+03  0.44243520908E+03  0.00000000000E+00 0. -1.
        -13    1    1    2    0    0  0.31343701181E+03  0.21758815904E+03 -0.28990931503E+03  0.47920224272E+03  0.10566000000E+00 0.  1.
<mgrwt>
<rscale>  1 0.82796214E+03</rscale>
<asrwt>0</asrwt>
<pdfrwt beam="1">  1       21 0.16100096E+00 0.10719142E+04</pdfrwt>
<pdfrwt beam="2">  1       -4 0.10558976E+00 0.10719142E+04</pdfrwt>
<totfact> 0.62519283E+00</totfact>
</mgrwt>
</event>
<event>
 6    2  0.2379986E-005  0.1119593E+04  0.7818608E-02  0.9405644E-01
         21   -1    0    0  501  502  0.00000000000E+00  0.00000000000E+00  0.10214869161E+04  0.10214869161E+04  0.00000000000E+00 0. -1.
         -4   -1    0    0    0  501 -0.00000000000E+00 -0.00000000000E+00 -0.71274562682E+03  0.71274562682E+03  0.00000000000E+00 0. -1.
   -9000010    2    1    2    0  502  0.26999329353E+03 -0.42312649978E+03  0.45940054020E+03  0.12101804134E+04  0.10007773795E+04 0.  0.
         13    1    3    3    0    0  0.11253021356E+03  0.32351020268E+03  0.56064782988E+02  0.34708092898E+03  0.10566000000E+00 0. -1.
         -4    1    3    3    0  502  0.15746307997E+03 -0.74663670246E+03  0.40333575722E+03  0.86309948446E+03  0.00000000000E+00 0. -1.
        -13    1    1    2    0    0 -0.26999329353E+03  0.42312649978E+03 -0.15065925091E+03  0.52405212949E+03  0.10566000000E+00 0.  1.
<mgrwt>
<rscale>  1 0.91612671E+03</rscale>
<asrwt>0</asrwt>
<pdfrwt beam="1">  1       21 0.15715183E+00 0.11195927E+04</pdfrwt>
<pdfrwt beam="2">  1       -4 0.10965317E+00 0.11195927E+04</pdfrwt>
<totfact> 0.60725170E+00</totfact>
</mgrwt>
</event>
<event>
 6    2  0.2379986E-005  0.1049169E+04  0.7818608E-02  0.9527085E-01
         -4   -1    0    0    0  501 -0.00000000000E+00  0.00000000000E+00  0.11779154291E+04  0.11779154291E+04  0.00000000000E+00 0. -1.
         21   -1    0    0  501  502  0.00000000000E+00 -0.00000000000E+00 -0.54338835519E+03  0.54338835519E+03  0.00000000000E+00 0. -1.
   -9000010    2    1    2    0  502  0.28688050974E+03 -0.27523280882E+03  0.98282566520E+02  0.10537622434E+04  0.97092835825E+03 0.  0.
         13    1    3    3    0    0  0.36904506951E+01  0.58206293764E+02 -0.39221112038E+03  0.39652385322E+03  0.10566000000E+00 0. -1.
         -4    1    3    3    0  502  0.28319005904E+03 -0.33343910259E+03  0.49049368690E+03  0.65723839021E+03  0.00000000000E+00 0. -1.
        -13    1    1    2    0    0 -0.28688050974E+03  0.27523280882E+03  0.53624450744E+03  0.66754154091E+03  0.10566000000E+00 0.  1.
<mgrwt>
<rscale>  1 0.82316062E+03</rscale>
<asrwt>0</asrwt>
<pdfrwt beam="2">  1       21 0.83598209E-01 0.10491689E+04</pdfrwt>
<pdfrwt beam="1">  1       -4 0.18121776E+00 0.10491689E+04</pdfrwt>
<totfact> 0.82429218E+00</totfact>
</mgrwt>
</event>
<event>
 6    2  0.2379986E-005  0.1037914E+04  0.7818608E-02  0.9647069E-01
         -4   -1    0    0    0  501 -0.00000000000E+00  0.00000000000E+00  0.61675315955E+03  0.61675315955E+03  0.00000000000E+00 0. -1.
         21   -1    0    0  501  502  0.00000000000E+00 -0.00000000000E+00 -0.72268550374E+03  0.72268550374E+03  0.00000000000E+00 0. -1.
   -9000010    2    1    2    0  502  0.57083795062E+02  0.26588623287E+03 -0.18922925340E+03  0.10550227096E+04  0.10016542112E+04 0.  0.
         13    1    3    3    0    0 -0.12778837342E+03 -0.33165773198E+03 -0.23781764135E+03  0.42764934381E+03  0.10566000000E+00 0. -1.
         -4    1    3    3    0  502  0.18487216848E+03  0.59754396485E+03  0.48588387945E+02  0.62737336575E+03  0.00000000000E+00 0. -1.
        -13    1    1    2    0    0 -0.57083795062E+02 -0.26588623287E+03  0.83296909207E+02  0.28441595373E+03  0.10566000000E+00 0.  1.
<mgrwt>
<rscale>  1 0.74257657E+03</rscale>
<asrwt>0</asrwt>
<pdfrwt beam="2">  1       21 0.11118238E+00 0.10379139E+04</pdfrwt>
<pdfrwt beam="1">  1       -4 0.94885102E-01 0.10379139E+04</pdfrwt>
<totfact> 0.22009258E+01</totfact>
</mgrwt>
</event>
<event>
 6    2  0.2379986E-005  0.1098183E+04  0.7818608E-02  0.9458347E-01
         -4   -1    0    0    0  501 -0.00000000000E+00  0.00000000000E+00  0.29357114537E+04  0.29357114537E+04  0.00000000000E+00 0. -1.
         21   -1    0    0  501  502  0.00000000000E+00 -0.00000000000E+00 -0.20385015910E+03  0.20385015910E+03  0.00000000000E+00 0. -1.
   -9000010    2    1    2    0  502 -0.23549373100E+03 -0.37296958185E+03  0.17995653894E+04  0.21081842462E+04  0.10057045386E+04 0.  0.
         13    1    3    3    0    0 -0.22649976912E+03 -0.20256757239E+03  0.18905426776E+04  0.19148074038E+04  0.10566000000E+00 0. -1.
         -4    1    3    3    0  502 -0.89939618768E+01 -0.17040200946E+03 -0.90977288232E+02  0.19337684234E+03  0.00000000000E+00 0. -1.
        -13    1    1    2    0    0  0.23549373100E+03  0.37296958185E+03  0.93229590527E+03  0.10313773667E+04  0.10566000000E+00 0.  1.
<mgrwt>
<rscale>  1 0.87425606E+03</rscale>
<asrwt>0</asrwt>
<pdfrwt beam="2">  1       21 0.31361565E-01 0.10981827E+04</pdfrwt>
<pdfrwt beam="1">  1       -4 0.45164789E+00 0.10981827E+04</pdfrwt>
<totfact> 0.11619063E+00</totfact>
</mgrwt>
</event>
<event>
 6    2  0.2379986E-005  0.1013582E+04  0.7818608E-02  0.9718051E-01
         21   -1    0    0  501  502  0.00000000000E+00  0.00000000000E+00  0.46473731449E+03  0.46473731449E+03  0.00000000000E+00 0. -1.
         -4   -1    0    0    0  501 -0.00000000000E+00 -0.00000000000E+00 -0.87442629025E+03  0.87442629025E+03  0.00000000000E+00 0. -1.
   -9000010    2    1    2    0  502 -0.18357194364E+03 -0.13847953685E+03 -0.21109738065E+03  0.10353316225E+04  0.98715460989E+03 0.  0.
         13    1    3    3    0    0  0.32292154345E+03  0.65663119330E+02  0.16865695995E+03  0.37018258977E+03  0.10566000000E+00 0. -1.
         -4    1    3    3    0  502 -0.50649348709E+03 -0.20414265618E+03 -0.37975434061E+03  0.66514903274E+03  0.00000000000E+00 0. -1.
        -13    1    1    2    0    0  0.18357194364E+03  0.13847953685E+03 -0.19859159510E+03  0.30383198223E+03  0.10566000000E+00 0.  1.
<mgrwt>
<rscale>  1 0.69952120E+03</rscale>
<asrwt>0</asrwt>
<pdfrwt beam="1">  1       21 0.71498050E-01 0.10135825E+04</pdfrwt>
<pdfrwt beam="2">  1       -4 0.13452712E+00 0.10135825E+04</pdfrwt>
<totfact> 0.26938782E+01</totfact>
</mgrwt>
</event>
<event>
 6    2  0.2379986E-005  0.9992057E+03  0.7818608E-02  0.9993981E-01
         21   -1    0    0  501  502  0.00000000000E+00  0.00000000000E+00  0.82328815975E+03  0.82328815975E+03  0.00000000000E+00 0. -1.
         -4   -1    0    0    0  501 -0.00000000000E+00 -0.00000000000E+00 -0.36565518518E+03  0.36565518518E+03  0.00000000000E+00 0. -1.
   -9000010    2    1    2    0  502  0.94045340724E+02  0.27494218511E+02  0.42238976337E+03  0.10848157633E+04  0.99439009944E+03 0.  0.
         13    1    3    3    0    0  0.74240278727E+01 -0.36392369448E+03  0.55399610195E+03  0.66287801572E+03  0.10566000000E+00 0. -1.
         -4    1    3    3    0  502  0.86621312852E+02  0.39141791299E+03 -0.13160633858E+03  0.42193774754E+03  0.00000000000E+00 0. -1.
        -13    1    1    2    0    0 -0.94045340724E+02 -0.27494218511E+02  0.35243211201E+02  0.10412758166E+03  0.10566000000E+00 0.  1.
<mgrwt>
<rscale>  1 0.55914926E+03</rscale>
<asrwt>0</asrwt>
<pdfrwt beam="1">  1       21 0.12665972E+00 0.99920575E+03</pdfrwt>
<pdfrwt beam="2">  1       -4 0.56254644E-01 0.99920575E+03</pdfrwt>
<totfact> 0.51409595E+01</totfact>
</mgrwt>
</event>
<event>
 6    2  0.2379986E-005  0.1024041E+04  0.7818608E-02  0.9704605E-01
         -4   -1    0    0    0  501 -0.00000000000E+00  0.00000000000E+00  0.25767242881E+03  0.25767242881E+03  0.00000000000E+00 0. -1.
         21   -1    0    0  501  502  0.00000000000E+00 -0.00000000000E+00 -0.16772608926E+04  0.16772608926E+04  0.00000000000E+00 0. -1.
   -9000010    2    1    2    0  502  0.22203966849E+03 -0.71385009824E+02 -0.13441737456E+04  0.16898112602E+04  0.99712667335E+03 0.  0.
         13    1    3    3    0    0  0.49148412476E+03 -0.15957817749E+00 -0.13217979176E+04  0.14102150249E+04  0.10566000000E+00 0. -1.
         -4    1    3    3    0  502 -0.26944445627E+03 -0.71225431647E+02 -0.22375828060E+02  0.27959623533E+03  0.00000000000E+00 0. -1.
        -13    1    1    2    0    0 -0.22203966849E+03  0.71385009824E+02 -0.75414718176E+02  0.24512206121E+03  0.10566000000E+00 0.  1.
<mgrwt>
<rscale>  1 0.70743278E+03</rscale>
<asrwt>0</asrwt>
<pdfrwt beam="2">  1       21 0.25804013E+00 0.10240405E+04</pdfrwt>
<pdfrwt beam="1">  1       -4 0.39641913E-01 0.10240405E+04</pdfrwt>
<totfact> 0.11991669E+01</totfact>
</mgrwt>
</event>
<event>
 6    2  0.2379986E-005  0.1026099E+04  0.7818608E-02  0.9854745E-01
         -4   -1    0    0    0  501 -0.00000000000E+00  0.00000000000E+00  0.13167970743E+04  0.13167970743E+04  0.00000000000E+00 0. -1.
         21   -1    0    0  501  502  0.00000000000E+00 -0.00000000000E+00 -0.28564476060E+03  0.28564476060E+03  0.00000000000E+00 0. -1.
   -9000010    2    1    2    0  502  0.13380764408E+03  0.45364129344E+02  0.69921170179E+03  0.12416829530E+04  0.10163253230E+04 0.  0.
         13    1    3    3    0    0  0.21642814206E+03  0.32955266985E+03 -0.85138731673E+02  0.40335433266E+03  0.10566000000E+00 0. -1.
         -4    1    3    3    0  502 -0.82620497977E+02 -0.28418854051E+03  0.78435043347E+03  0.83832862037E+03  0.00000000000E+00 0. -1.
        -13    1    1    2    0    0 -0.13380764408E+03 -0.45364129344E+02  0.33194061189E+03  0.36075888185E+03  0.10566000000E+00 0.  1.
<mgrwt>
<rscale>  1 0.62505554E+03</rscale>
<asrwt>0</asrwt>
<pdfrwt beam="2">  1       21 0.43945348E-01 0.10260992E+04</pdfrwt>
<pdfrwt beam="1">  1       -4 0.20258416E+00 0.10260992E+04</pdfrwt>
<totfact> 0.25004964E+01</totfact>
</mgrwt>
</event>
<event>
 6    2  0.2379986E-005  0.1003964E+04  0.7818608E-02  0.1036785E+00
         21   -1    0    0  501  502  0.00000000000E+00  0.00000000000E+00  0.26220071498E+03  0.26220071498E+03  0.00000000000E+00 0. -1.
         -4   -1    0    0    0  501 -0.00000000000E+00 -0.00000000000E+00 -0.10481465570E+04  0.10481465570E+04  0.00000000000E+00 0. -1.
   -9000010    2    1    2    0  502  0.17451058313E+02 -0.25625948870E+02 -0.71388295423E+03  0.12318979275E+04  0.10034851283E+04 0.  0.
         13    1    3    3    0    0  0.36307196467E+03  0.28552035462E+03 -0.11929707367E+03  0.47704813948E+03  0.10566000000E+00 0. -1.
         -4    1    3    3    0  502 -0.34562090636E+03 -0.31114630349E+03 -0.59458588057E+03  0.75484978801E+03  0.00000000000E+00 0. -1.
        -13    1    1    2    0    0 -0.17451058313E+02  0.25625948870E+02 -0.72062887811E+02  0.78449344519E+02  0.10566000000E+00 0.  1.
<mgrwt>
<rscale>  1 0.42086476E+03</rscale>
<asrwt>0</asrwt>
<pdfrwt beam="1">  1       21 0.40338571E-01 0.10039640E+04</pdfrwt>
<pdfrwt beam="2">  1       -4 0.16125332E+00 0.10039640E+04</pdfrwt>
<totfact> 0.58216943E+01</totfact>
</mgrwt>
</event>
<event>
 6    2  0.2379986E-005  0.9277216E+03  0.7818608E-02  0.9916598E-01
         21   -1    0    0  501  502  0.00000000000E+00  0.00000000000E+00  0.12877036024E+04  0.12877036024E+04  0.00000000000E+00 0. -1.
         -4   -1    0    0    0  501 -0.00000000000E+00 -0.00000000000E+00 -0.33303796217E+03  0.33303796217E+03  0.00000000000E+00 0. -1.
   -9000010    2    1    2    0  502  0.62525910984E+02  0.14356018784E+03  0.10774054459E+04  0.14217840612E+04  0.91441150731E+03 0.  0.
         13    1    3    3    0    0  0.31252672263E+03 -0.58182659097E+02  0.10526256951E+04  0.10995813018E+04  0.10566000000E+00 0. -1.
         -4    1    3    3    0  502 -0.25000081164E+03  0.20174284694E+03  0.24779750844E+02  0.32220275940E+03  0.00000000000E+00 0. -1.
        -13    1    1    2    0    0 -0.62525910984E+02 -0.14356018784E+03 -0.12273980570E+03  0.19895750336E+03  0.10566000000E+00 0.  1.
<mgrwt>
<rscale>  1 0.59463596E+03</rscale>
<asrwt>0</asrwt>
<pdfrwt beam="1">  1       21 0.19810824E+00 0.92772163E+03</pdfrwt>
<pdfrwt beam="2">  1       -4 0.51236610E-01 0.92772163E+03</pdfrwt>
<totfact> 0.17611961E+01</totfact>
</mgrwt>
</event>
<event>
 6    2  0.2379986E-005  0.9912729E+03  0.7818608E-02  0.9821937E-01
         -4   -1    0    0    0  501 -0.00000000000E+00  0.00000000000E+00  0.73968564131E+03  0.73968564131E+03  0.00000000000E+00 0. -1.
         21   -1    0    0  501  502  0.00000000000E+00 -0.00000000000E+00 -0.52678162971E+03  0.52678162971E+03  0.00000000000E+00 0. -1.
   -9000010    2    1    2    0  502 -0.37175443644E+02 -0.17038009518E+03  0.17805644141E-01  0.99127290645E+03  0.97581278138E+03 0.  0.
         13    1    3    3    0    0  0.13577810405E+03  0.20263486061E+03  0.36666085058E+03  0.44038252779E+03  0.10566000000E+00 0. -1.
         -4    1    3    3    0  502 -0.17295354770E+03 -0.37301495578E+03 -0.36664304493E+03  0.55089037866E+03  0.00000000000E+00 0. -1.
        -13    1    1    2    0    0  0.37175443644E+02  0.17038009518E+03  0.21288620595E+03  0.27519436457E+03  0.10566000000E+00 0.  1.
<mgrwt>
<rscale>  1 0.64198441E+03</rscale>
<asrwt>0</asrwt>
<pdfrwt beam="2">  1       21 0.81043327E-01 0.99127291E+03</pdfrwt>
<pdfrwt beam="1">  1       -4 0.11379779E+00 0.99127291E+03</pdfrwt>
<totfact> 0.30814758E+01</totfact>
</mgrwt>
</event>
<event>
 6    2  0.2379986E-005  0.7790731E+03  0.7818608E-02  0.1015906E+00
         21   -1    0    0  501  502  0.00000000000E+00  0.00000000000E+00  0.98484141382E+03  0.98484141382E+03  0.00000000000E+00 0. -1.
         -4   -1    0    0    0  501 -0.00000000000E+00 -0.00000000000E+00 -0.22313271964E+03  0.22313271964E+03  0.00000000000E+00 0. -1.
   -9000010    2    1    2    0  502  0.76774673610E+02 -0.97180517188E+02  0.75351639897E+03  0.10838551249E+04  0.76916614900E+03 0.  0.
         13    1    3    3    0    0  0.30483673449E+02  0.44062725732E+02 -0.15461751735E+03  0.16363791120E+03  0.10566000000E+00 0. -1.
         -4    1    3    3    0  502  0.46291000161E+02 -0.14124324292E+03  0.90813391632E+03  0.92021721367E+03  0.00000000000E+00 0. -1.
        -13    1    1    2    0    0 -0.76774673610E+02  0.97180517188E+02  0.81922952133E+01  0.12411900859E+03  0.10566000000E+00 0.  1.
<mgrwt>
<rscale>  1 0.49193332E+03</rscale>
<asrwt>0</asrwt>
<pdfrwt beam="1">  1       21 0.15151406E+00 0.77907315E+03</pdfrwt>
<pdfrwt beam="2">  1       -4 0.34328111E-01 0.77907315E+03</pdfrwt>
<totfact> 0.89798908E+01</totfact>
</mgrwt>
</event>
<event>
 6    2  0.2379986E-005  0.1008228E+04  0.7818608E-02  0.9891183E-01
         21   -1    0    0  501  502  0.00000000000E+00  0.00000000000E+00  0.28963870420E+03  0.28963870420E+03  0.00000000000E+00 0. -1.
         -4   -1    0    0    0  501 -0.00000000000E+00 -0.00000000000E+00 -0.13111866947E+04  0.13111866947E+04  0.00000000000E+00 0. -1.
   -9000010    2    1    2    0  502 -0.11072727520E+03  0.72544226889E+02 -0.63329189600E+03  0.11906230093E+04  0.99950054052E+03 0.  0.
         13    1    3    3    0    0 -0.19794407142E+03 -0.23319889723E+03  0.15334255896E+03  0.34216594312E+03  0.10566000000E+00 0. -1.
         -4    1    3    3    0  502  0.87216796215E+02  0.30574312412E+03 -0.78663445495E+03  0.84845706622E+03  0.00000000000E+00 0. -1.
        -13    1    1    2    0    0  0.11072727520E+03 -0.72544226889E+02 -0.38825609451E+03  0.41020238958E+03  0.10566000000E+00 0.  1.
<mgrwt>
<rscale>  1 0.60690525E+03</rscale>
<asrwt>0</asrwt>
<pdfrwt beam="1">  1       21 0.44559801E-01 0.10082284E+04</pdfrwt>
<pdfrwt beam="2">  1       -4 0.20172103E+00 0.10082284E+04</pdfrwt>
<totfact> 0.24640830E+01</totfact>
</mgrwt>
</event>
<event>
 6    2  0.2379986E-005  0.1005422E+04  0.7818608E-02  0.9864541E-01
         21   -1    0    0  501  502  0.00000000000E+00  0.00000000000E+00  0.12026355399E+04  0.12026355399E+04  0.00000000000E+00 0. -1.
         -4   -1    0    0    0  501 -0.00000000000E+00 -0.00000000000E+00 -0.40216064982E+03  0.40216064982E+03  0.00000000000E+00 0. -1.
   -9000010    2    1    2    0  502  0.11998307096E+03  0.82286400131E+02  0.95912904867E+03  0.13895332292E+04  0.99484022533E+03 0.  0.
         13    1    3    3    0    0  0.50957007834E+03  0.24300745050E+02  0.22741540538E+03  0.55854271879E+03  0.10566000000E+00 0. -1.
         -4    1    3    3    0  502 -0.38958700738E+03  0.57985655081E+02  0.73171364330E+03  0.83099051036E+03  0.00000000000E+00 0. -1.
        -13    1    1    2    0    0 -0.11998307096E+03 -0.82286400131E+02 -0.15865415863E+03  0.21526296054E+03  0.10566000000E+00 0.  1.
<mgrwt>
<rscale>  1 0.62011011E+03</rscale>
<asrwt>0</asrwt>
<pdfrwt beam="1">  1       21 0.18502085E+00 0.10054223E+04</pdfrwt>
<pdfrwt beam="2">  1       -4 0.61870870E-01 0.10054223E+04</pdfrwt>
<totfact> 0.14352079E+01</totfact>
</mgrwt>
</event>
<event>
 6    2  0.2379986E-005  0.1015355E+04  0.7818608E-02  0.9739249E-01
         21   -1    0    0  501  502  0.00000000000E+00  0.00000000000E+00  0.65998120179E+03  0.65998120179E+03  0.00000000000E+00 0. -1.
         -4   -1    0    0    0  501 -0.00000000000E+00 -0.00000000000E+00 -0.57388782857E+03  0.57388782857E+03  0.00000000000E+00 0. -1.
   -9000010    2    1    2    0  502  0.20906819202E+03  0.41457517960E+02  0.10005885996E+03  0.10202729613E+04  0.99273204113E+03 0.  0.
         13    1    3    3    0    0 -0.39003012052E+02 -0.38883028007E+03 -0.20103411022E+03  0.43945983467E+03  0.10566000000E+00 0. -1.
         -4    1    3    3    0  502  0.24807120408E+03  0.43028779803E+03  0.30109297019E+03  0.58081312668E+03  0.00000000000E+00 0. -1.
        -13    1    1    2    0    0 -0.20906819202E+03 -0.41457517960E+02 -0.13965486749E+02  0.21359606901E+03  0.10566000000E+00 0.  1.
<mgrwt>
<rscale>  1 0.68727268E+03</rscale>
<asrwt>0</asrwt>
<pdfrwt beam="1">  1       21 0.10153557E+00 0.10153547E+04</pdfrwt>
<pdfrwt beam="2">  1       -4 0.88290435E-01 0.10153547E+04</pdfrwt>
<totfact> 0.32863170E+01</totfact>
</mgrwt>
</event>
<event>
 6    2  0.2379986E-005  0.1012631E+04  0.7818608E-02  0.9902110E-01
         -4   -1    0    0    0  501 -0.00000000000E+00  0.00000000000E+00  0.58997643525E+03  0.58997643525E+03  0.00000000000E+00 0. -1.
         21   -1    0    0  501  502  0.00000000000E+00 -0.00000000000E+00 -0.61748093949E+03  0.61748093949E+03  0.00000000000E+00 0. -1.
   -9000010    2    1    2    0  502  0.20016154546E+02 -0.12454160983E+03 -0.15923255741E+03  0.10250743981E+04  0.10047443731E+04 0.  0.
         13    1    3    3    0    0 -0.33828742093E+03  0.30202483058E+03 -0.39024848392E+02  0.45517065745E+03  0.10566000000E+00 0. -1.
         -4    1    3    3    0  502  0.35830357548E+03 -0.42656644040E+03 -0.12020770902E+03  0.56990374063E+03  0.00000000000E+00 0. -1.
        -13    1    1    2    0    0 -0.20016154546E+02  0.12454160983E+03  0.13172805317E+03  0.18238297666E+03  0.10566000000E+00 0.  1.
<mgrwt>
<rscale>  1 0.60159148E+03</rscale>
<asrwt>0</asrwt>
<pdfrwt beam="2">  1       21 0.94997068E-01 0.10126315E+04</pdfrwt>
<pdfrwt beam="1">  1       -4 0.90765605E-01 0.10126315E+04</pdfrwt>
<totfact> 0.36300089E+01</totfact>
</mgrwt>
</event>
<event>
 6    2  0.2379986E-005  0.1036659E+04  0.7818608E-02  0.9942919E-01
         -4   -1    0    0    0  501 -0.00000000000E+00  0.00000000000E+00  0.13727478375E+04  0.13727478375E+04  0.00000000000E+00 0. -1.
         21   -1    0    0  501  502  0.00000000000E+00 -0.00000000000E+00 -0.24129562559E+03  0.24129562559E+03  0.00000000000E+00 0. -1.
   -9000010    2    1    2    0  502  0.98568638035E+02 -0.30463022002E+02  0.95422166808E+03  0.14089716490E+04  0.10315126483E+04 0.  0.
         13    1    3    3    0    0 -0.11173148150E+02  0.10171266320E+03 -0.20922669354E+03  0.23290797656E+03  0.10566000000E+00 0. -1.
         -4    1    3    3    0  502  0.10974178619E+03 -0.13217568520E+03  0.11634483616E+04  0.11760636724E+04  0.00000000000E+00 0. -1.
        -13    1    1    2    0    0 -0.98568638035E+02  0.30463022002E+02  0.17723054384E+03  0.20507181412E+03  0.10566000000E+00 0.  1.
<mgrwt>
<rscale>  1 0.58225601E+03</rscale>
<asrwt>0</asrwt>
<pdfrwt beam="2">  1       21 0.37122405E-01 0.10366591E+04</pdfrwt>
<pdfrwt beam="1">  1       -4 0.21119197E+00 0.10366591E+04</pdfrwt>
<totfact> 0.31269317E+01</totfact>
</mgrwt>
</event>
<event>
 6    2  0.2379986E-005  0.1045621E+04  0.7818608E-02  0.9625811E-01
         -4   -1    0    0    0  501 -0.00000000000E+00  0.00000000000E+00  0.22976638332E+03  0.22976638332E+03  0.00000000000E+00 0. -1.
         21   -1    0    0  501  502  0.00000000000E+00 -0.00000000000E+00 -0.23569318556E+04  0.23569318556E+04  0.00000000000E+00 0. -1.
   -9000010    2    1    2    0  502 -0.25362814800E+03  0.13196098504E+03 -0.20322207258E+04  0.22854417782E+04  0.10057743805E+04 0.  0.
         13    1    3    3    0    0 -0.50057689387E+02 -0.26130365819E+03 -0.17275730725E+04  0.17479399607E+04  0.10566000000E+00 0. -1.
         -4    1    3    3    0  502 -0.20357045862E+03  0.39326464323E+03 -0.30464765325E+03  0.53750181755E+03  0.00000000000E+00 0. -1.
        -13    1    1    2    0    0  0.25362814800E+03 -0.13196098504E+03 -0.94944746437E+02  0.30125646063E+03  0.10566000000E+00 0.  1.
<mgrwt>
<rscale>  1 0.75611116E+03</rscale>
<asrwt>0</asrwt>
<pdfrwt beam="2">  1       21 0.36260490E+00 0.10456209E+04</pdfrwt>
<pdfrwt beam="1">  1       -4 0.35348674E-01 0.10456209E+04</pdfrwt>
<totfact> 0.33294680E+00</totfact>
</mgrwt>
</event>
<event>
 6    2  0.2379986E-005  0.1074583E+04  0.7818608E-02  0.9825228E-01
         -4   -1    0    0    0  501 -0.00000000000E+00  0.00000000000E+00  0.11952893921E+04  0.11952893921E+04  0.00000000000E+00 0. -1.
         21   -1    0    0  501  502  0.00000000000E+00 -0.00000000000E+00 -0.31002244678E+03  0.31002244678E+03  0.00000000000E+00 0. -1.
   -9000010    2    1    2    0  502 -0.59945262751E+02  0.12143840445E+03  0.72899457395E+03  0.12985226084E+04  0.10660146130E+04 0.  0.
         13    1    3    3    0    0 -0.17684969907E+03 -0.57152665625E+02  0.96359182527E+03  0.98135185338E+03  0.10566000000E+00 0. -1.
         -4    1    3    3    0  502  0.11690443632E+03  0.17859107007E+03 -0.23459725132E+03  0.31717075507E+03  0.00000000000E+00 0. -1.
        -13    1    1    2    0    0  0.59945262751E+02 -0.12143840445E+03  0.15627237134E+03  0.20678923040E+03  0.10566000000E+00 0.  1.
<mgrwt>
<rscale>  1 0.64026086E+03</rscale>
<asrwt>0</asrwt>
<pdfrwt beam="2">  1       21 0.47695762E-01 0.10745827E+04</pdfrwt>
<pdfrwt beam="1">  1       -4 0.18389067E+00 0.10745827E+04</pdfrwt>
<totfact> 0.27930115E+01</totfact>
</mgrwt>
</event>
<event>
 6    2  0.2379986E-005  0.1010763E+04  0.7818608E-02  0.9766283E-01
         21   -1    0    0  501  502  0.00000000000E+00  0.00000000000E+00  0.66948373270E+03  0.66948373270E+03  0.00000000000E+00 0. -1.
         -4   -1    0    0    0  501 -0.00000000000E+00 -0.00000000000E+00 -0.58711405633E+03  0.58711405633E+03  0.00000000000E+00 0. -1.
   -9000010    2    1    2    0  502 -0.12661707568E+03  0.15160890497E+03  0.19472901719E+03  0.10293495183E+04  0.99127387576E+03 0.  0.
         13    1    3    3    0    0  0.38396347560E+02  0.11501251273E+02  0.58323269324E+03  0.58460836798E+03  0.10566000000E+00 0. -1.
         -4    1    3    3    0  502 -0.16501342324E+03  0.14010765370E+03 -0.38850367605E+03  0.44474115031E+03  0.00000000000E+00 0. -1.
        -13    1    1    2    0    0  0.12661707568E+03 -0.15160890497E+03 -0.11235934082E+03  0.22724827074E+03  0.10566000000E+00 0.  1.
<mgrwt>
<rscale>  1 0.67203799E+03</rscale>
<asrwt>0</asrwt>
<pdfrwt beam="1">  1       21 0.10299750E+00 0.10107626E+04</pdfrwt>
<pdfrwt beam="2">  1       -4 0.90325240E-01 0.10107626E+04</pdfrwt>
<totfact> 0.30069480E+01</totfact>
</mgrwt>
</event>
<event>
 6    2  0.2379986E-005  0.1018763E+04  0.7818608E-02  0.9778555E-01
         21   -1    0    0  501  502  0.00000000000E+00  0.00000000000E+00  0.18104654212E+04  0.18104654212E+04  0.00000000000E+00 0. -1.
         -4   -1    0    0    0  501 -0.00000000000E+00 -0.00000000000E+00 -0.20410959642E+03  0.20410959642E+03  0.00000000000E+00 0. -1.
   -9000010    2    1    2    0  502 -0.16273791513E+03  0.88502998811E+02  0.14502978789E+04  0.17723550691E+04  0.10017794885E+04 0.  0.
         13    1    3    3    0    0 -0.11321879085E+03  0.36768481776E+03  0.10681010965E+03  0.39927312770E+03  0.10566000000E+00 0. -1.
         -4    1    3    3    0  502 -0.49519124281E+02 -0.27918181895E+03  0.13434877692E+04  0.13730819414E+04  0.00000000000E+00 0. -1.
        -13    1    1    2    0    0  0.16273791513E+03 -0.88502998811E+02  0.15605794587E+03  0.24221994850E+03  0.10566000000E+00 0.  1.
<mgrwt>
<rscale>  1 0.66526197E+03</rscale>
<asrwt>0</asrwt>
<pdfrwt beam="1">  1       21 0.27853313E+00 0.10187632E+04</pdfrwt>
<pdfrwt beam="2">  1       -4 0.31401478E-01 0.10187632E+04</pdfrwt>
<totfact> 0.14231997E+01</totfact>
</mgrwt>
</event>
<event>
 6    2  0.2379986E-005  0.9822082E+03  0.7818608E-02  0.1023073E+00
         21   -1    0    0  501  502  0.00000000000E+00  0.00000000000E+00  0.16714104436E+04  0.16714104436E+04  0.00000000000E+00 0. -1.
         -4   -1    0    0    0  501 -0.00000000000E+00 -0.00000000000E+00 -0.16217971356E+03  0.16217971356E+03  0.00000000000E+00 0. -1.
   -9000010    2    1    2    0  502  0.14527955905E+02  0.47570224384E+02  0.14788343984E+04  0.17752983405E+04  0.98094802717E+03 0.  0.
         13    1    3    3    0    0 -0.14482626675E+03 -0.31321811017E+03  0.12949228397E+04  0.13401139519E+04  0.10566000000E+00 0. -1.
         -4    1    3    3    0  502  0.15935422266E+03  0.36078833456E+03  0.18391155868E+03  0.43518438856E+03  0.00000000000E+00 0. -1.
        -13    1    1    2    0    0 -0.14527955905E+02 -0.47570224384E+02  0.30396331613E+02  0.58291816666E+02  0.10566000000E+00 0.  1.
<mgrwt>
<rscale>  1 0.46593745E+03</rscale>
<asrwt>0</asrwt>
<pdfrwt beam="1">  1       21 0.25714006E+00 0.98220824E+03</pdfrwt>
<pdfrwt beam="2">  1       -4 0.24950726E-01 0.98220824E+03</pdfrwt>
<totfact> 0.30447879E+01</totfact>
</mgrwt>
</event>
<event>
 6    2  0.2379986E-005  0.1028923E+04  0.7818608E-02  0.9689571E-01
         -4   -1    0    0    0  501 -0.00000000000E+00  0.00000000000E+00  0.78040783877E+03  0.78040783877E+03  0.00000000000E+00 0. -1.
         21   -1    0    0  501  502  0.00000000000E+00 -0.00000000000E+00 -0.59880794448E+03  0.59880794448E+03  0.00000000000E+00 0. -1.
   -9000010    2    1    2    0  502  0.69169754303E+02  0.23172141535E+03 -0.68656232729E+02  0.10312108846E+04  0.10001014653E+04 0.  0.
         13    1    3    3    0    0 -0.80112653040E+02  0.60084770213E+03  0.68629529290E+02  0.61003772161E+03  0.10566000000E+00 0. -1.
         -4    1    3    3    0  502  0.14928240734E+03 -0.36912628678E+03 -0.13728576202E+03  0.42117316295E+03  0.00000000000E+00 0. -1.
        -13    1    1    2    0    0 -0.69169754303E+02 -0.23172141535E+03  0.25025612702E+03  0.34800489870E+03  0.10566000000E+00 0.  1.
<mgrwt>
<rscale>  1 0.71641119E+03</rscale>
<asrwt>0</asrwt>
<pdfrwt beam="2">  1       21 0.92124299E-01 0.10289228E+04</pdfrwt>
<pdfrwt beam="1">  1       -4 0.12006274E+00 0.10289228E+04</pdfrwt>
<totfact> 0.19769471E+01</totfact>
</mgrwt>
</event>
<event>
 6    2  0.2379986E-005  0.9893913E+03  0.7818608E-02  0.1020805E+00
         21   -1    0    0  501  502  0.00000000000E+00  0.00000000000E+00  0.11194699893E+04  0.11194699893E+04  0.00000000000E+00 0. -1.
         -4   -1    0    0    0  501 -0.00000000000E+00 -0.00000000000E+00 -0.33106808342E+03  0.33106808342E+03  0.00000000000E+00 0. -1.
   -9000010    2    1    2    0  502 -0.38055460757E+02 -0.35594915433E+02  0.89356437398E+03  0.13331738023E+04  0.98801815797E+03 0.  0.
         13    1    3    3    0    0 -0.47758183004E+03 -0.95676189989E+02  0.23926146693E+03  0.54266416726E+03  0.10566000000E+00 0. -1.
         -4    1    3    3    0  502  0.43952636928E+03  0.60081274557E+02  0.65430290705E+03  0.79050963499E+03  0.00000000000E+00 0. -1.
        -13    1    1    2    0    0  0.38055460757E+02  0.35594915433E+02 -0.10516246815E+03  0.11736427041E+03  0.10566000000E+00 0.  1.
<mgrwt>
<rscale>  1 0.47397107E+03</rscale>
<asrwt>0</asrwt>
<pdfrwt beam="1">  1       21 0.17222615E+00 0.98939128E+03</pdfrwt>
<pdfrwt beam="2">  1       -4 0.50933552E-01 0.98939128E+03</pdfrwt>
<totfact> 0.27092813E+01</totfact>
</mgrwt>
</event>
<event>
 6    2  0.2379986E-005  0.1153965E+04  0.7818608E-02  0.9386990E-01
         21   -1    0    0  501  502  0.00000000000E+00  0.00000000000E+00  0.57013690616E+03  0.57013690616E+03  0.00000000000E+00 0. -1.
         -4   -1    0    0    0  501 -0.00000000000E+00 -0.00000000000E+00 -0.12027050307E+04  0.12027050307E+04  0.00000000000E+00 0. -1.
   -9000010    2    1    2    0  502  0.21031640453E+03  0.44261174004E+03 -0.34398458867E+03  0.12041428857E+04  0.10447471223E+04 0.  0.
         13    1    3    3    0    0  0.60647469504E+03  0.19387231735E+03 -0.23555727247E+02  0.63714434362E+03  0.10566000000E+00 0. -1.
         -4    1    3    3    0  502 -0.39615829050E+03  0.24873942269E+03 -0.32042886142E+03  0.56699854212E+03  0.00000000000E+00 0. -1.
        -13    1    1    2    0    0 -0.21031640453E+03 -0.44261174004E+03 -0.28858353591E+03  0.56869905116E+03  0.10566000000E+00 0.  1.
<mgrwt>
<rscale>  1 0.93154118E+03</rscale>
<asrwt>0</asrwt>
<pdfrwt beam="1">  1       21 0.87713371E-01 0.11539648E+04</pdfrwt>
<pdfrwt beam="2">  1       -4 0.18503154E+00 0.11539648E+04</pdfrwt>
<totfact> 0.68352750E+00</totfact>
</mgrwt>
</event>
<event>
 6    2  0.2379986E-005  0.1050336E+04  0.7818608E-02  0.9600398E-01
         21   -1    0    0  501  502  0.00000000000E+00  0.00000000000E+00  0.15091720554E+04  0.15091720554E+04  0.00000000000E+00 0. -1.
         -4   -1    0    0    0  501 -0.00000000000E+00 -0.00000000000E+00 -0.36874032704E+03  0.36874032704E+03  0.00000000000E+00 0. -1.
   -9000010    2    1    2    0  502  0.22569778256E+02  0.30682016164E+03  0.11658594786E+04  0.15692141671E+04  0.10042692726E+04 0.  0.
         13    1    3    3    0    0  0.39652536714E+03  0.19763104395E+02  0.98898231212E+03  0.10656964727E+04  0.10566000000E+00 0. -1.
         -4    1    3    3    0  502 -0.37395558888E+03  0.28705705724E+03  0.17687716647E+03  0.50351769441E+03  0.00000000000E+00 0. -1.
        -13    1    1    2    0    0 -0.22569778256E+02 -0.30682016164E+03 -0.25427750264E+02  0.30869821529E+03  0.10566000000E+00 0.  1.
<mgrwt>
<rscale>  1 0.77269836E+03</rscale>
<asrwt>0</asrwt>
<pdfrwt beam="1">  1       21 0.23218031E+00 0.10503356E+04</pdfrwt>
<pdfrwt beam="2">  1       -4 0.56729282E-01 0.10503356E+04</pdfrwt>
<totfact> 0.82516586E+00</totfact>
</mgrwt>
</event>
<event>
 6    2  0.2379986E-005  0.1090308E+04  0.7818608E-02  0.9474993E-01
         -4   -1    0    0    0  501 -0.00000000000E+00  0.00000000000E+00  0.24522847342E+04  0.24522847342E+04  0.00000000000E+00 0. -1.
         21   -1    0    0  501  502  0.00000000000E+00 -0.00000000000E+00 -0.51718367619E+03  0.51718367619E+03  0.00000000000E+00 0. -1.
   -9000010    2    1    2    0  502 -0.36586511286E+03 -0.21633915020E+03  0.11036116282E+03  0.10958794467E+04  0.10040479404E+04 0.  0.
         13    1    3    3    0    0 -0.28472804332E+01  0.19289643320E+03  0.42362982621E+03  0.46548832613E+03  0.10566000000E+00 0. -1.
         -4    1    3    3    0  502 -0.36301783243E+03 -0.40923558340E+03 -0.31326866339E+03  0.63039112053E+03  0.00000000000E+00 0. -1.
        -13    1    1    2    0    0  0.36586511286E+03  0.21633915020E+03  0.18247398952E+04  0.18735889638E+04  0.10566000000E+00 0.  1.
<mgrwt>
<rscale>  1 0.86152863E+03</rscale>
<asrwt>0</asrwt>
<pdfrwt beam="2">  1       21 0.79566721E-01 0.10903083E+04</pdfrwt>
<pdfrwt beam="1">  1       -4 0.37727457E+00 0.10903083E+04</pdfrwt>
<totfact> 0.51693935E-01</totfact>
</mgrwt>
</event>
<event>
 6    2  0.2379986E-005  0.1056977E+04  0.7818608E-02  0.9839464E-01
         21   -1    0    0  501  502  0.00000000000E+00  0.00000000000E+00  0.81333512128E+03  0.81333512128E+03  0.00000000000E+00 0. -1.
         -4   -1    0    0    0  501 -0.00000000000E+00 -0.00000000000E+00 -0.46926891243E+03  0.46926891243E+03  0.00000000000E+00 0. -1.
   -9000010    2    1    2    0  502 -0.52480262328E+02 -0.12530447405E+03  0.40732638116E+03  0.11327466024E+04  0.10482102343E+04 0.  0.
         13    1    3    3    0    0 -0.34047003624E+03 -0.46573505061E+03  0.36981249025E+03  0.68526657007E+03  0.10566000000E+00 0. -1.
         -4    1    3    3    0  502  0.28798977392E+03  0.34043057655E+03  0.37513890907E+02  0.44748003234E+03  0.00000000000E+00 0. -1.
        -13    1    1    2    0    0  0.52480262328E+02  0.12530447405E+03 -0.63260172302E+02  0.14985743130E+03  0.10566000000E+00 0.  1.
<mgrwt>
<rscale>  1 0.63287005E+03</rscale>
<asrwt>0</asrwt>
<pdfrwt beam="1">  1       21 0.12512848E+00 0.10569769E+04</pdfrwt>
<pdfrwt beam="2">  1       -4 0.72195217E-01 0.10569769E+04</pdfrwt>
<totfact> 0.30481057E+01</totfact>
</mgrwt>
</event>
<event>
 6    2  0.2379986E-005  0.9006519E+03  0.7818608E-02  0.1061101E+00
         21   -1    0    0  501  502  0.00000000000E+00  0.00000000000E+00  0.60931378937E+03  0.60931378937E+03  0.00000000000E+00 0. -1.
         -4   -1    0    0    0  501 -0.00000000000E+00 -0.00000000000E+00 -0.38935913405E+03  0.38935913405E+03  0.00000000000E+00 0. -1.
   -9000010    2    1    2    0  502  0.21424907627E+02 -0.19557610260E+00  0.27328406109E+03  0.94120030733E+03  0.90039700996E+03 0.  0.
         13    1    3    3    0    0 -0.17004814984E+03  0.27649939426E+03  0.45489280206E+03  0.55883428745E+03  0.10566000000E+00 0. -1.
         -4    1    3    3    0  502  0.19147305747E+03 -0.27669497037E+03 -0.18160874098E+03  0.38236601988E+03  0.00000000000E+00 0. -1.
        -13    1    1    2    0    0 -0.21424907627E+02  0.19557610260E+00 -0.53329405773E+02  0.57472616096E+02  0.10566000000E+00 0.  1.
<mgrwt>
<rscale>  1 0.35371486E+03</rscale>
<asrwt>0</asrwt>
<pdfrwt beam="1">  1       21 0.93740583E-01 0.90065190E+03</pdfrwt>
<pdfrwt beam="2">  1       -4 0.59901405E-01 0.90065190E+03</pdfrwt>
<totfact> 0.96882454E+01</totfact>
</mgrwt>
</event>
<event>
 6    2  0.2379986E-005  0.1303314E+04  0.7818608E-02  0.9142369E-01
         21   -1    0    0  501  502  0.00000000000E+00  0.00000000000E+00  0.11864684610E+04  0.11864684610E+04  0.00000000000E+00 0. -1.
         -4   -1    0    0    0  501 -0.00000000000E+00 -0.00000000000E+00 -0.96560169692E+03  0.96560169692E+03  0.00000000000E+00 0. -1.
   -9000010    2    1    2    0  502  0.27311413561E+03  0.79160046016E+03  0.13578393707E+03  0.13103684779E+04  0.99870198294E+03 0.  0.
         13    1    3    3    0    0  0.55486240137E+03  0.35152936282E+03  0.35158740910E+03  0.74502274783E+03  0.10566000000E+00 0. -1.
         -4    1    3    3    0  502 -0.28174826576E+03  0.44007109733E+03 -0.21580347203E+03  0.56534573007E+03  0.00000000000E+00 0. -1.
        -13    1    1    2    0    0 -0.27311413561E+03 -0.79160046016E+03  0.85082827063E+02  0.84170168006E+03  0.10566000000E+00 0.  1.
<mgrwt>
<rscale>  1 0.11668603E+04</rscale>
<asrwt>0</asrwt>
<pdfrwt beam="1">  1       21 0.18253361E+00 0.13033143E+04</pdfrwt>
<pdfrwt beam="2">  1       -4 0.14855411E+00 0.13033143E+04</pdfrwt>
<totfact> 0.17510544E+00</totfact>
</mgrwt>
</event>
<event>
 6    2  0.2379986E-005  0.1080404E+04  0.7818608E-02  0.9475675E-01
         21   -1    0    0  501  502  0.00000000000E+00  0.00000000000E+00  0.74118787586E+03  0.74118787586E+03  0.00000000000E+00 0. -1.
         -4   -1    0    0    0  501 -0.00000000000E+00 -0.00000000000E+00 -0.10017378675E+04  0.10017378675E+04  0.00000000000E+00 0. -1.
   -9000010    2    1    2    0  502 -0.24302625841E+03  0.36173503897E+03  0.21102772576E+03  0.11008201793E+04  0.98861436639E+03 0.  0.
         13    1    3    3    0    0  0.66049400516E+02  0.46523212391E+03  0.48480002801E+03  0.67515519012E+03  0.10566000000E+00 0. -1.
         -4    1    3    3    0  502 -0.30907565893E+03 -0.10349708494E+03 -0.27377230226E+03  0.42566498918E+03  0.00000000000E+00 0. -1.
        -13    1    1    2    0    0  0.24302625841E+03 -0.36173503897E+03 -0.47157771743E+03  0.64210556409E+03  0.10566000000E+00 0.  1.
<mgrwt>
<rscale>  1 0.86101200E+03</rscale>
<asrwt>0</asrwt>
<pdfrwt beam="1">  1       21 0.11402890E+00 0.10804038E+04</pdfrwt>
<pdfrwt beam="2">  1       -4 0.15411352E+00 0.10804038E+04</pdfrwt>
<totfact> 0.60160961E+00</totfact>
</mgrwt>
</event>
<event>
 6    2  0.2379986E-005  0.1026448E+04  0.7818608E-02  0.9698582E-01
         -4   -1    0    0    0  501 -0.00000000000E+00  0.00000000000E+00  0.12004443212E+04  0.12004443212E+04  0.00000000000E+00 0. -1.
         21   -1    0    0  501  502  0.00000000000E+00 -0.00000000000E+00 -0.44090589196E+03  0.44090589196E+03  0.00000000000E+00 0. -1.
   -9000010    2    1    2    0  502 -0.12031606400E+03  0.20339808675E+03  0.21637685868E+03  0.10490063604E+04  0.99887369687E+03 0.  0.
         13    1    3    3    0    0 -0.11385234604E+03  0.60583697475E+03  0.19253524062E+03  0.64581005468E+03  0.10566000000E+00 0. -1.
         -4    1    3    3    0  502 -0.64637179593E+01 -0.40243888800E+03  0.23841618052E+02  0.40319630575E+03  0.00000000000E+00 0. -1.
        -13    1    1    2    0    0  0.12031606400E+03 -0.20339808675E+03  0.54316157054E+03  0.59234385269E+03  0.10566000000E+00 0.  1.
<mgrwt>
<rscale>  1 0.71101283E+03</rscale>
<asrwt>0</asrwt>
<pdfrwt beam="2">  1       21 0.67831676E-01 0.10264480E+04</pdfrwt>
<pdfrwt beam="1">  1       -4 0.18468374E+00 0.10264480E+04</pdfrwt>
<totfact> 0.12715892E+01</totfact>
</mgrwt>
</event>
<event>
 6    2  0.2379986E-005  0.1036370E+04  0.7818608E-02  0.9724060E-01
         21   -1    0    0  501  502  0.00000000000E+00  0.00000000000E+00  0.70051537564E+03  0.70051537564E+03  0.00000000000E+00 0. -1.
         -4   -1    0    0    0  501 -0.00000000000E+00 -0.00000000000E+00 -0.60416457034E+03  0.60416457034E+03  0.00000000000E+00 0. -1.
   -9000010    2    1    2    0  502  0.13561323639E+03  0.16143485302E+03  0.22111229895E+03  0.10596950421E+04  0.10146973795E+04 0.  0.
         13    1    3    3    0    0 -0.91608614805E+02  0.26608012974E+02 -0.38598366897E+03  0.39759719383E+03  0.10566000000E+00 0. -1.
         -4    1    3    3    0  502  0.22722185120E+03  0.13482684005E+03  0.60709596792E+03  0.66209784830E+03  0.00000000000E+00 0. -1.
        -13    1    1    2    0    0 -0.13561323639E+03 -0.16143485302E+03 -0.12476149365E+03  0.24498490385E+03  0.10566000000E+00 0.  1.
<mgrwt>
<rscale>  1 0.69602169E+03</rscale>
<asrwt>0</asrwt>
<pdfrwt beam="1">  1       21 0.10777160E+00 0.10363701E+04</pdfrwt>
<pdfrwt beam="2">  1       -4 0.92948395E-01 0.10363701E+04</pdfrwt>
<totfact> 0.25016699E+01</totfact>
</mgrwt>
</event>
<event>
 6    2  0.2379986E-005  0.1165388E+04  0.7818608E-02  0.9358670E-01
         21   -1    0    0  501  502  0.00000000000E+00  0.00000000000E+00  0.75489177536E+03  0.75489177536E+03  0.00000000000E+00 0. -1.
         -4   -1    0    0    0  501 -0.00000000000E+00 -0.00000000000E+00 -0.11429422297E+04  0.11429422297E+04  0.00000000000E+00 0. -1.
   -9000010    2    1    2    0  502 -0.24792770648E+03  0.46478667111E+03  0.11295934416E+03  0.11708500805E+04  0.10395360986E+04 0.  0.
         13    1    3    3    0    0 -0.63259196060E+03  0.12572291746E+03  0.12940777121E+03  0.65781853349E+03  0.10566000000E+00 0. -1.
         -4    1    3    3    0  502  0.38466425412E+03  0.33906375365E+03 -0.16448427051E+02  0.51303154697E+03  0.00000000000E+00 0. -1.
        -13    1    1    2    0    0  0.24792770648E+03 -0.46478667111E+03 -0.50100979852E+03  0.72698392462E+03  0.10566000000E+00 0.  1.
<mgrwt>
<rscale>  1 0.95556421E+03</rscale>
<asrwt>0</asrwt>
<pdfrwt beam="1">  1       21 0.11613720E+00 0.11653884E+04</pdfrwt>
<pdfrwt beam="2">  1       -4 0.17583727E+00 0.11653884E+04</pdfrwt>
<totfact> 0.39335657E+00</totfact>
</mgrwt>
</event>
<event>
 6    2  0.2379986E-005  0.1131003E+04  0.7818608E-02  0.9647035E-01
         -4   -1    0    0    0  501 -0.00000000000E+00  0.00000000000E+00  0.16460666670E+04  0.16460666670E+04  0.00000000000E+00 0. -1.
         21   -1    0    0  501  502  0.00000000000E+00 -0.00000000000E+00 -0.31517353974E+03  0.31517353974E+03  0.00000000000E+00 0. -1.
   -9000010    2    1    2    0  502  0.17102119796E+03  0.12220421504E+03  0.78625531889E+03  0.13774487424E+04  0.11112990107E+04 0.  0.
         13    1    3    3    0    0  0.61836999339E+03  0.24383834484E+03  0.50970034335E+03  0.83763538506E+03  0.10566000000E+00 0. -1.
         -4    1    3    3    0  502 -0.44734879543E+03 -0.12163412980E+03  0.27655497554E+03  0.53981335737E+03  0.00000000000E+00 0. -1.
        -13    1    1    2    0    0 -0.17102119796E+03 -0.12220421504E+03  0.54463780837E+03  0.58379146431E+03  0.10566000000E+00 0.  1.
<mgrwt>
<rscale>  1 0.74259775E+03</rscale>
<asrwt>0</asrwt>
<pdfrwt beam="2">  1       21 0.48488238E-01 0.11310029E+04</pdfrwt>
<pdfrwt beam="1">  1       -4 0.25324102E+00 0.11310029E+04</pdfrwt>
<totfact> 0.95581520E+00</totfact>
</mgrwt>
</event>
<event>
 6    2  0.2379986E-005  0.1013519E+04  0.7818608E-02  0.9794903E-01
         21   -1    0    0  501  502  0.00000000000E+00  0.00000000000E+00  0.41977370535E+03  0.41977370535E+03  0.00000000000E+00 0. -1.
         -4   -1    0    0    0  501 -0.00000000000E+00 -0.00000000000E+00 -0.84977244098E+03  0.84977244098E+03  0.00000000000E+00 0. -1.
   -9000010    2    1    2    0  502  0.15280515563E+03 -0.91831310852E+02 -0.39555495911E+03  0.10879730477E+04  0.99771700477E+03 0.  0.
         13    1    3    3    0    0  0.12473957722E+03 -0.54350723827E+03 -0.17436498965E+03  0.58426298955E+03  0.10566000000E+00 0. -1.
         -4    1    3    3    0  502  0.28065578409E+02  0.45167592741E+03 -0.22118996946E+03  0.50371005815E+03  0.00000000000E+00 0. -1.
        -13    1    1    2    0    0 -0.15280515563E+03  0.91831310852E+02 -0.34443776525E+02  0.18157309862E+03  0.10566000000E+00 0.  1.
<mgrwt>
<rscale>  1 0.65636812E+03</rscale>
<asrwt>0</asrwt>
<pdfrwt beam="1">  1       21 0.64580572E-01 0.10135194E+04</pdfrwt>
<pdfrwt beam="2">  1       -4 0.13073422E+00 0.10135194E+04</pdfrwt>
<totfact> 0.36573387E+01</totfact>
</mgrwt>
</event>
<event>
 6    2  0.2379986E-005  0.1022074E+04  0.7818608E-02  0.9684445E-01
         -4   -1    0    0    0  501 -0.00000000000E+00  0.00000000000E+00  0.78547947447E+03  0.78547947447E+03  0.00000000000E+00 0. -1.
         21   -1    0    0  501  502  0.00000000000E+00 -0.00000000000E+00 -0.53434101572E+03  0.53434101572E+03  0.00000000000E+00 0. -1.
   -9000010    2    1    2    0  502 -0.24445988916E+03  0.56963077417E+02  0.10031682801E+03  0.10269850329E+04  0.99077210405E+03 0.  0.
         13    1    3    3    0    0 -0.44299575812E+02 -0.45046944370E+03  0.15575788763E+03  0.47869165738E+03  0.10566000000E+00 0. -1.
         -4    1    3    3    0  502 -0.20016031334E+03  0.50743252111E+03 -0.55441059613E+02  0.54829337550E+03  0.00000000000E+00 0. -1.
        -13    1    1    2    0    0  0.24445988916E+03 -0.56963077417E+02  0.15082163074E+03  0.29283545731E+03  0.10566000000E+00 0.  1.
<mgrwt>
<rscale>  1 0.71950520E+03</rscale>
<asrwt>0</asrwt>
<pdfrwt beam="2">  1       21 0.82206310E-01 0.10220738E+04</pdfrwt>
<pdfrwt beam="1">  1       -4 0.12084300E+00 0.10220738E+04</pdfrwt>
<totfact> 0.25573354E+01</totfact>
</mgrwt>
</event>
<event>
 6    2  0.2379986E-005  0.7459612E+03  0.7818608E-02  0.1008165E+00
         21   -1    0    0  501  502  0.00000000000E+00  0.00000000000E+00  0.12129424133E+04  0.12129424133E+04  0.00000000000E+00 0. -1.
         -4   -1    0    0    0  501 -0.00000000000E+00 -0.00000000000E+00 -0.25072244798E+03  0.25072244798E+03  0.00000000000E+00 0. -1.
   -9000010    2    1    2    0  502 -0.17883961179E+03  0.78203646147E+01  0.10304274198E+04  0.12721001650E+04  0.72416392991E+03 0.  0.
         13    1    3    3    0    0 -0.17327219354E+03  0.32279799384E+03  0.28935713001E+03  0.46685046614E+03  0.10566000000E+00 0. -1.
         -4    1    3    3    0  502 -0.55674182463E+01 -0.31497762922E+03  0.74107028980E+03  0.80524969884E+03  0.00000000000E+00 0. -1.
        -13    1    1    2    0    0  0.17883961179E+03 -0.78203646147E+01 -0.68207454508E+02  0.19156469628E+03  0.10566000000E+00 0.  1.
<mgrwt>
<rscale>  1 0.52210379E+03</rscale>
<asrwt>0</asrwt>
<pdfrwt beam="1">  1       21 0.18660652E+00 0.74596123E+03</pdfrwt>
<pdfrwt beam="2">  1       -4 0.38572685E-01 0.74596123E+03</pdfrwt>
<totfact> 0.39070423E+01</totfact>
</mgrwt>
</event>
<event>
 6    2  0.2379986E-005  0.1039514E+04  0.7818608E-02  0.9515386E-01
         21   -1    0    0  501  502  0.00000000000E+00  0.00000000000E+00  0.15346332748E+04  0.15346332748E+04  0.00000000000E+00 0. -1.
         -4   -1    0    0    0  501 -0.00000000000E+00 -0.00000000000E+00 -0.35239965029E+03  0.35239965029E+03  0.00000000000E+00 0. -1.
   -9000010    2    1    2    0  502 -0.20771646720E+03  0.37162879858E+03  0.76255515831E+03  0.12892167988E+04  0.94833300596E+03 0.  0.
         13    1    3    3    0    0 -0.20320334123E+03 -0.12675561833E+03  0.75358969000E+03  0.79073131764E+03  0.10566000000E+00 0. -1.
         -4    1    3    3    0  502 -0.45131259769E+01  0.49838441691E+03  0.89654683148E+01  0.49848548118E+03  0.00000000000E+00 0. -1.
        -13    1    1    2    0    0  0.20771646720E+03 -0.37162879858E+03  0.41967846621E+03  0.59781612628E+03  0.10566000000E+00 0.  1.
<mgrwt>
<rscale>  1 0.83158918E+03</rscale>
<asrwt>0</asrwt>
<pdfrwt beam="1">  1       21 0.23609742E+00 0.10395141E+04</pdfrwt>
<pdfrwt beam="2">  1       -4 0.54215331E-01 0.10395141E+04</pdfrwt>
<totfact> 0.85927643E+00</totfact>
</mgrwt>
</event>
<event>
 6    2  0.2379986E-005  0.1014181E+04  0.7818608E-02  0.1010667E+00
         21   -1    0    0  501  502  0.00000000000E+00  0.00000000000E+00  0.19827265961E+04  0.19827265961E+04  0.00000000000E+00 0. -1.
         -4   -1    0    0    0  501 -0.00000000000E+00 -0.00000000000E+00 -0.22309863936E+03  0.22309863936E+03  0.00000000000E+00 0. -1.
   -9000010    2    1    2    0  502 -0.40773106452E+01  0.65803922356E+02  0.18405333890E+04  0.21014581870E+04  0.10120358566E+04 0.  0.
         13    1    3    3    0    0  0.19726963098E+03 -0.42893664364E+03  0.99518591791E+03  0.11014976051E+04  0.10566000000E+00 0. -1.
         -4    1    3    3    0  502 -0.20134694162E+03  0.49474056599E+03  0.84534747113E+03  0.99996058197E+03  0.00000000000E+00 0. -1.
        -13    1    1    2    0    0  0.40773106452E+01 -0.65803922356E+02 -0.80905432301E+02  0.10436704844E+03  0.10566000000E+00 0.  1.
<mgrwt>
<rscale>  1 0.51210350E+03</rscale>
<asrwt>0</asrwt>
<pdfrwt beam="1">  1       21 0.30503485E+00 0.10141811E+04</pdfrwt>
<pdfrwt beam="2">  1       -4 0.34322869E-01 0.10141811E+04</pdfrwt>
<totfact> 0.81663313E+00</totfact>
</mgrwt>
</event>
<event>
 6    2  0.2379986E-005  0.1027981E+04  0.7818608E-02  0.9691954E-01
         -4   -1    0    0    0  501 -0.00000000000E+00  0.00000000000E+00  0.11034574466E+04  0.11034574466E+04  0.00000000000E+00 0. -1.
         21   -1    0    0  501  502  0.00000000000E+00 -0.00000000000E+00 -0.40242199497E+03  0.40242199497E+03  0.00000000000E+00 0. -1.
   -9000010    2    1    2    0  502 -0.20641322903E+03  0.12353588504E+03  0.36134982780E+03  0.10896416847E+04  0.99943872600E+03 0.  0.
         13    1    3    3    0    0 -0.49175328030E+03  0.38955484982E+03  0.14631024588E+03  0.64419016518E+03  0.10566000000E+00 0. -1.
         -4    1    3    3    0  502  0.28534005127E+03 -0.26601896478E+03  0.21503958192E+03  0.44545151955E+03  0.00000000000E+00 0. -1.
        -13    1    1    2    0    0  0.20641322903E+03 -0.12353588504E+03  0.33968562380E+03  0.41623775681E+03  0.10566000000E+00 0.  1.
<mgrwt>
<rscale>  1 0.71497895E+03</rscale>
<asrwt>0</asrwt>
<pdfrwt beam="2">  1       21 0.61911077E-01 0.10279812E+04</pdfrwt>
<pdfrwt beam="1">  1       -4 0.16976268E+00 0.10279812E+04</pdfrwt>
<totfact> 0.19908315E+01</totfact>
</mgrwt>
</event>
<event>
 6    2  0.2379986E-005  0.9857517E+03  0.7818608E-02  0.1004022E+00
         -4   -1    0    0    0  501 -0.00000000000E+00  0.00000000000E+00  0.16448085909E+03  0.16448085909E+03  0.00000000000E+00 0. -1.
         21   -1    0    0  501  502  0.00000000000E+00 -0.00000000000E+00 -0.17559857079E+04  0.17559857079E+04  0.00000000000E+00 0. -1.
   -9000010    2    1    2    0  502 -0.68901935526E+02  0.55147392187E+02 -0.14806328415E+04  0.17787579760E+04  0.98179306084E+03 0.  0.
         13    1    3    3    0    0  0.14251358056E+03  0.39129891002E+03 -0.25018335708E+03  0.48581548035E+03  0.10566000000E+00 0. -1.
         -4    1    3    3    0  502 -0.21141551609E+03 -0.33615151783E+03 -0.12304494844E+04  0.12929424956E+04  0.00000000000E+00 0. -1.
        -13    1    1    2    0    0  0.68901935526E+02 -0.55147392187E+02 -0.11087200730E+03  0.14170859096E+03  0.10566000000E+00 0.  1.
<mgrwt>
<rscale>  1 0.53921122E+03</rscale>
<asrwt>0</asrwt>
<pdfrwt beam="2">  1       21 0.27015165E+00 0.98575166E+03</pdfrwt>
<pdfrwt beam="1">  1       -4 0.25304748E-01 0.98575166E+03</pdfrwt>
<totfact> 0.24540599E+01</totfact>
</mgrwt>
</event>
<event>
 6    2  0.2379986E-005  0.1170051E+04  0.7818608E-02  0.9319654E-01
         21   -1    0    0  501  502  0.00000000000E+00  0.00000000000E+00  0.44035713082E+03  0.44035713082E+03  0.00000000000E+00 0.  1.
         -4   -1    0    0    0  501 -0.00000000000E+00 -0.00000000000E+00 -0.18456859133E+04  0.18456859133E+04  0.00000000000E+00 0. -1.
   -9000010    2    1    2    0  502 -0.59771875604E+03 -0.46571749635E+02 -0.11288631862E+04  0.16258386241E+04  0.10047798262E+04 0.  0.
         13    1    3    3    0    0  0.14779191256E+03  0.12550101356E+03  0.67873073687E+02  0.20542570219E+03  0.10566000000E+00 0. -1.
         -4    1    3    3    0  502 -0.74551066860E+03 -0.17207276320E+03 -0.11967362599E+04  0.14204129219E+04  0.00000000000E+00 0. -1.
        -13    1    1    2    0    0  0.59771875604E+03  0.46571749635E+02 -0.27646559624E+03  0.66020442005E+03  0.10566000000E+00 0.  1.
<mgrwt>
<rscale>  1 0.98993441E+03</rscale>
<asrwt>0</asrwt>
<pdfrwt beam="1">  1       21 0.67747251E-01 0.11700509E+04</pdfrwt>
<pdfrwt beam="2">  1       -4 0.28395168E+00 0.11700509E+04</pdfrwt>
<totfact> 0.29261923E+00</totfact>
</mgrwt>
</event>
<event>
 6    2  0.2379986E-005  0.1048681E+04  0.7818608E-02  0.9589091E-01
         21   -1    0    0  501  502  0.00000000000E+00  0.00000000000E+00  0.13293342826E+04  0.13293342826E+04  0.00000000000E+00 0.  1.
         -4   -1    0    0    0  501 -0.00000000000E+00 -0.00000000000E+00 -0.35312717824E+03  0.35312717824E+03  0.00000000000E+00 0. -1.
   -9000010    2    1    2    0  502  0.63499001644E+02  0.31499114937E+03  0.73267776237E+03  0.12792765170E+04  0.99823852661E+03 0.  0.
         13    1    3    3    0    0 -0.12327877964E+03 -0.33457957227E+03  0.14976621778E+03  0.38674420337E+03  0.10566000000E+00 0. -1.
         -4    1    3    3    0  502  0.18677778129E+03  0.64957072164E+03  0.58291154459E+03  0.89253231359E+03  0.00000000000E+00 0. -1.
        -13    1    1    2    0    0 -0.63499001644E+02 -0.31499114937E+03  0.24352934201E+03  0.40318494388E+03  0.10566000000E+00 0.  1.
<mgrwt>
<rscale>  1 0.78022464E+03</rscale>
<asrwt>0</asrwt>
<pdfrwt beam="1">  1       21 0.20451296E+00 0.10486809E+04</pdfrwt>
<pdfrwt beam="2">  1       -4 0.54327259E-01 0.10486809E+04</pdfrwt>
<totfact> 0.13831581E+01</totfact>
</mgrwt>
</event>
<event>
 6    2  0.2379986E-005  0.9859982E+03  0.7818608E-02  0.9630915E-01
         21   -1    0    0  501  502  0.00000000000E+00  0.00000000000E+00  0.36914983611E+03  0.36914983611E+03  0.00000000000E+00 0. -1.
         -4   -1    0    0    0  501 -0.00000000000E+00 -0.00000000000E+00 -0.15673012261E+04  0.15673012261E+04  0.00000000000E+00 0. -1.
   -9000010    2    1    2    0  502  0.33254040691E+03  0.41303924423E+02 -0.38774817014E+03  0.10595003645E+04  0.92730967990E+03 0.  0.
         13    1    3    3    0    0  0.42902453902E+03 -0.57652508256E+02  0.18467549071E+03  0.47062821295E+03  0.10566000000E+00 0. -1.
         -4    1    3    3    0  502 -0.96484132118E+02  0.98956432679E+02 -0.57242366085E+03  0.58887215150E+03  0.00000000000E+00 0. -1.
        -13    1    1    2    0    0 -0.33254040691E+03 -0.41303924423E+02 -0.81040321987E+03  0.87695069778E+03  0.10566000000E+00 0.  1.
<mgrwt>
<rscale>  1 0.75283414E+03</rscale>
<asrwt>0</asrwt>
<pdfrwt beam="1">  1       21 0.56792283E-01 0.98599816E+03</pdfrwt>
<pdfrwt beam="2">  1       -4 0.24112327E+00 0.98599816E+03</pdfrwt>
<totfact> 0.81902212E+00</totfact>
</mgrwt>
</event>
<event>
 6    2  0.2379986E-005  0.1013940E+04  0.7818608E-02  0.9949641E-01
         -4   -1    0    0    0  501 -0.00000000000E+00  0.00000000000E+00  0.35305140093E+03  0.35305140093E+03  0.00000000000E+00 0. -1.
         21   -1    0    0  501  502  0.00000000000E+00 -0.00000000000E+00 -0.12847570043E+04  0.12847570043E+04  0.00000000000E+00 0. -1.
   -9000010    2    1    2    0  502  0.10052691939E+03  0.39266522599E+02 -0.10622123033E+04  0.14684580842E+04  0.10081798682E+04 0.  0.
         13    1    3    3    0    0  0.32320298755E+03 -0.22027499606E+03 -0.10563480289E+04  0.11264334931E+04  0.10566000000E+00 0. -1.
         -4    1    3    3    0  502 -0.22267606816E+03  0.25954151866E+03 -0.58642744162E+01  0.34202459115E+03  0.00000000000E+00 0. -1.
        -13    1    1    2    0    0 -0.10052691939E+03 -0.39266522599E+02  0.13050669995E+03  0.16935032098E+03  0.10566000000E+00 0.  1.
<mgrwt>
<rscale>  1 0.57914646E+03</rscale>
<asrwt>0</asrwt>
<pdfrwt beam="2">  1       21 0.19765493E+00 0.10139399E+04</pdfrwt>
<pdfrwt beam="1">  1       -4 0.54315599E-01 0.10139399E+04</pdfrwt>
<totfact> 0.15491637E+01</totfact>
</mgrwt>
</event>
<event>
 6    2  0.2379986E-005  0.1084047E+04  0.7818608E-02  0.9558698E-01
         21   -1    0    0  501  502  0.00000000000E+00  0.00000000000E+00  0.13931408416E+04  0.13931408416E+04  0.00000000000E+00 0. -1.
         -4   -1    0    0    0  501 -0.00000000000E+00 -0.00000000000E+00 -0.59043970781E+03  0.59043970781E+03  0.00000000000E+00 0. -1.
   -9000010    2    1    2    0  502  0.32221542721E+02 -0.32138333907E+03  0.11001403499E+04  0.15444956181E+04  0.10348103433E+04 0.  0.
         13    1    3    3    0    0  0.30006683431E+03 -0.84993726540E+01  0.10920376926E+04  0.11325452210E+04  0.10566000000E+00 0. -1.
         -4    1    3    3    0  502 -0.26784529159E+03 -0.31288396641E+03  0.81026573120E+01  0.41195039716E+03  0.00000000000E+00 0. -1.
        -13    1    1    2    0    0 -0.32221542721E+02  0.32138333907E+03 -0.29743921609E+03  0.43908493128E+03  0.10566000000E+00 0.  1.
<mgrwt>
<rscale>  1 0.80091217E+03</rscale>
<asrwt>0</asrwt>
<pdfrwt beam="1">  1       21 0.21432936E+00 0.10840470E+04</pdfrwt>
<pdfrwt beam="2">  1       -4 0.90836878E-01 0.10840470E+04</pdfrwt>
<totfact> 0.37254068E+00</totfact>
</mgrwt>
</event>
<event>
 6    2  0.2379986E-005  0.1028813E+04  0.7818608E-02  0.9749218E-01
         -4   -1    0    0    0  501 -0.00000000000E+00  0.00000000000E+00  0.88584020301E+03  0.88584020301E+03  0.00000000000E+00 0. -1.
         21   -1    0    0  501  502  0.00000000000E+00 -0.00000000000E+00 -0.21957275913E+04  0.21957275913E+04  0.00000000000E+00 0. -1.
   -9000010    2    1    2    0  502 -0.81375266334E+02 -0.18073293988E+03 -0.20616601001E+04  0.23041049007E+04  0.10095398435E+04 0.  0.
         13    1    3    3    0    0  0.18566351722E+03 -0.50142971214E+03 -0.70577006682E+03  0.88544570484E+03  0.10566000000E+00 0. -1.
         -4    1    3    3    0  502 -0.26703878356E+03  0.32069677226E+03 -0.13558900332E+04  0.14186591958E+04  0.00000000000E+00 0. -1.
        -13    1    1    2    0    0  0.81375266334E+02  0.18073293988E+03  0.75177271181E+03  0.77746289360E+03  0.10566000000E+00 0.  1.
<mgrwt>
<rscale>  1 0.68160483E+03</rscale>
<asrwt>0</asrwt>
<pdfrwt beam="2">  1       21 0.33780424E+00 0.10288134E+04</pdfrwt>
<pdfrwt beam="1">  1       -4 0.13628311E+00 0.10288134E+04</pdfrwt>
<totfact> 0.22776231E-01</totfact>
</mgrwt>
</event>
<event>
 6    2  0.2379986E-005  0.1009814E+04  0.7818608E-02  0.9804102E-01
         -4   -1    0    0    0  501 -0.00000000000E+00  0.00000000000E+00  0.83329943687E+03  0.83329943687E+03  0.00000000000E+00 0. -1.
         21   -1    0    0  501  502  0.00000000000E+00 -0.00000000000E+00 -0.47917437179E+03  0.47917437179E+03  0.00000000000E+00 0. -1.
   -9000010    2    1    2    0  502 -0.10990549537E+03  0.13603026092E+03  0.11517005288E+03  0.10163607242E+04  0.99455594650E+03 0.  0.
         13    1    3    3    0    0 -0.26097182262E+03 -0.81564485245E+02 -0.37209311593E+03  0.46174923448E+03  0.10566000000E+00 0. -1.
         -4    1    3    3    0  502  0.15106632725E+03  0.21759474617E+03  0.48726316882E+03  0.55461148967E+03  0.00000000000E+00 0. -1.
        -13    1    1    2    0    0  0.10990549537E+03 -0.13603026092E+03  0.23895501220E+03  0.29611308451E+03  0.10566000000E+00 0.  1.
<mgrwt>
<rscale>  1 0.65142883E+03</rscale>
<asrwt>0</asrwt>
<pdfrwt beam="2">  1       21 0.73719134E-01 0.10098143E+04</pdfrwt>
<pdfrwt beam="1">  1       -4 0.12819991E+00 0.10098143E+04</pdfrwt>
<totfact> 0.28425857E+01</totfact>
</mgrwt>
</event>
<event>
 6    2  0.3012807E-005  0.7975379E+03  0.7818608E-02  0.9901481E-01
         -4   -1    0    0    0  501 -0.00000000000E+00  0.00000000000E+00  0.37381371945E+03  0.37381371945E+03  0.00000000000E+00 0. -1.
         21   -1    0    0  501  502  0.00000000000E+00 -0.00000000000E+00 -0.80308016442E+03  0.80308016442E+03  0.00000000000E+00 0. -1.
   -9000010    2    1    2    0  502  0.12145750144E+03 -0.22843926958E+03 -0.45278785172E+03  0.91710610070E+03  0.75440727511E+03 0.  0.
         13    1    3    3    0    0 -0.40281306023E+02 -0.35608577005E+03  0.61029555077E+02  0.36351654295E+03  0.10566000000E+00 0. -1.
         -4    1    3    3    0  502  0.16173880747E+03  0.12764650046E+03 -0.51381740679E+03  0.55358955775E+03  0.00000000000E+00 0. -1.
        -13    1    1    2    0    0 -0.12145750144E+03  0.22843926958E+03  0.23521406756E+02  0.25978778317E+03  0.10566000000E+00 0.  1.
<mgrwt>
<rscale>  1 0.60189583E+03</rscale>
<asrwt>0</asrwt>
<pdfrwt beam="2">  1       21 0.12355079E+00 0.79753794E+03</pdfrwt>
<pdfrwt beam="1">  1       -4 0.57509803E-01 0.79753794E+03</pdfrwt>
<totfact> 0.53371651E+01</totfact>
</mgrwt>
</event>
<event>
 6    2  0.2379986E-005  0.1020691E+04  0.7818608E-02  0.9780640E-01
         21   -1    0    0  501  502  0.00000000000E+00  0.00000000000E+00  0.13578631012E+04  0.13578631012E+04  0.00000000000E+00 0. -1.
         -4   -1    0    0    0  501 -0.00000000000E+00 -0.00000000000E+00 -0.31765489663E+03  0.31765489663E+03  0.00000000000E+00 0. -1.
   -9000010    2    1    2    0  502 -0.10603813148E+03 -0.14906999815E+03  0.10824303275E+04  0.14877717103E+04  0.10041629839E+04 0.  0.
         13    1    3    3    0    0  0.18510040125E+02 -0.51893138569E+03  0.93704796713E+03  0.10713035557E+04  0.10566000000E+00 0. -1.
         -4    1    3    3    0  502 -0.12454817160E+03  0.36986138754E+03  0.14538236036E+03  0.41646815454E+03  0.00000000000E+00 0. -1.
        -13    1    1    2    0    0  0.10603813148E+03  0.14906999815E+03 -0.42222122900E+02  0.18774628758E+03  0.10566000000E+00 0.  1.
<mgrwt>
<rscale>  1 0.66411913E+03</rscale>
<asrwt>0</asrwt>
<pdfrwt beam="1">  1       21 0.20890201E+00 0.10206906E+04</pdfrwt>
<pdfrwt beam="2">  1       -4 0.48869985E-01 0.10206906E+04</pdfrwt>
<totfact> 0.16228098E+01</totfact>
</mgrwt>
</event>
<event>
 6    2  0.2379986E-005  0.1066121E+04  0.7818608E-02  0.9536583E-01
         -4   -1    0    0    0  501 -0.00000000000E+00  0.00000000000E+00  0.14076115538E+04  0.14076115538E+04  0.00000000000E+00 0. -1.
         21   -1    0    0  501  502  0.00000000000E+00 -0.00000000000E+00 -0.37103633148E+03  0.37103633148E+03  0.00000000000E+00 0.  1.
   -9000010    2    1    2    0  502  0.16686613980E+03 -0.32641511544E+03  0.66416324874E+03  0.12560755693E+04  0.10011103229E+04 0.  0.
         13    1    3    3    0    0 -0.20085244068E+03 -0.50559422975E+03  0.90490823101E+02  0.55150324415E+03  0.10566000000E+00 0. -1.
         -4    1    3    3    0  502  0.36771858047E+03  0.17917911431E+03  0.57367242564E+03  0.70457232515E+03  0.00000000000E+00 0. -1.
        -13    1    1    2    0    0 -0.16686613980E+03  0.32641511544E+03  0.37241197359E+03  0.52257231599E+03  0.10566000000E+00 0.  1.
<mgrwt>
<rscale>  1 0.81639637E+03</rscale>
<asrwt>0</asrwt>
<pdfrwt beam="2">  1       21 0.57082513E-01 0.10661205E+04</pdfrwt>
<pdfrwt beam="1">  1       -4 0.21655562E+00 0.10661205E+04</pdfrwt>
<totfact> 0.11467029E+01</totfact>
</mgrwt>
</event>
<event>
 6    2  0.2379986E-005  0.1036977E+04  0.7818608E-02  0.9557158E-01
         -4   -1    0    0    0  501 -0.00000000000E+00  0.00000000000E+00  0.18820802891E+04  0.18820802891E+04  0.00000000000E+00 0. -1.
         21   -1    0    0  501  502  0.00000000000E+00 -0.00000000000E+00 -0.31764929420E+03  0.31764929420E+03  0.00000000000E+00 0. -1.
   -9000010    2    1    2    0  502  0.36877352933E+03 -0.40337891261E+02  0.67840230575E+03  0.12391735409E+04  0.96834927307E+03 0.  0.
         13    1    3    3    0    0  0.38561908715E+03 -0.46472090278E+03  0.47477138931E+03  0.76816370724E+03  0.10566000000E+00 0. -1.
         -4    1    3    3    0  502 -0.16845557821E+02  0.42438301152E+03  0.20363091645E+03  0.47100983367E+03  0.00000000000E+00 0. -1.
        -13    1    1    2    0    0 -0.36877352933E+03  0.40337891261E+02  0.88602868917E+03  0.96055604241E+03  0.10566000000E+00 0.  1.
<mgrwt>
<rscale>  1 0.80197803E+03</rscale>
<asrwt>0</asrwt>
<pdfrwt beam="2">  1       21 0.48869123E-01 0.10369770E+04</pdfrwt>
<pdfrwt beam="1">  1       -4 0.28955081E+00 0.10369770E+04</pdfrwt>
<totfact> 0.56733522E+00</totfact>
</mgrwt>
</event>
<event>
 6    2  0.2379986E-005  0.1039640E+04  0.7818608E-02  0.9491273E-01
         -4   -1    0    0    0  501 -0.00000000000E+00  0.00000000000E+00  0.63358459373E+03  0.63358459373E+03  0.00000000000E+00 0. -1.
         21   -1    0    0  501  502  0.00000000000E+00 -0.00000000000E+00 -0.12512550657E+04  0.12512550657E+04  0.00000000000E+00 0.  1.
   -9000010    2    1    2    0  502  0.11412409953E+03  0.44873613133E+03  0.85243580390E+02  0.10431291380E+04  0.93084021452E+03 0.  0.
         13    1    3    3    0    0 -0.19159589733E+03  0.42385156064E+03 -0.29787655307E+03  0.55234915168E+03  0.10566000000E+00 0. -1.
         -4    1    3    3    0  502  0.30571999686E+03  0.24884570692E+02  0.38312013346E+03  0.49077998635E+03  0.00000000000E+00 0. -1.
        -13    1    1    2    0    0 -0.11412409953E+03 -0.44873613133E+03 -0.70291405232E+03  0.84171052136E+03  0.10566000000E+00 0.  1.
<mgrwt>
<rscale>  1 0.84930279E+03</rscale>
<asrwt>0</asrwt>
<pdfrwt beam="2">  1       21 0.19250078E+00 0.10396403E+04</pdfrwt>
<pdfrwt beam="1">  1       -4 0.97474552E-01 0.10396403E+04</pdfrwt>
<totfact> 0.44718759E+00</totfact>
</mgrwt>
</event>
<event>
 6    2  0.2379986E-005  0.1035042E+04  0.7818608E-02  0.1001702E+00
         21   -1    0    0  501  502  0.00000000000E+00  0.00000000000E+00  0.85583191513E+03  0.85583191513E+03  0.00000000000E+00 0. -1.
         -4   -1    0    0    0  501 -0.00000000000E+00 -0.00000000000E+00 -0.40357813600E+03  0.40357813600E+03  0.00000000000E+00 0. -1.
   -9000010    2    1    2    0  502 -0.21012904666E+02 -0.79248095178E+02  0.51507689519E+03  0.11561213401E+04  0.10317899701E+04 0.  0.
         13    1    3    3    0    0 -0.10993977081E+03 -0.32507009132E+03 -0.19831580786E+03  0.39634137847E+03  0.10566000000E+00 0. -1.
         -4    1    3    3    0  502  0.88926866144E+02  0.24582199614E+03  0.71339270305E+03  0.75977996162E+03  0.00000000000E+00 0. -1.
        -13    1    1    2    0    0  0.21012904666E+02  0.79248095178E+02 -0.62823116058E+02  0.10328871103E+03  0.10566000000E+00 0.  1.
<mgrwt>
<rscale>  1 0.54910368E+03</rscale>
<asrwt>0</asrwt>
<pdfrwt beam="1">  1       21 0.13166645E+00 0.10350422E+04</pdfrwt>
<pdfrwt beam="2">  1       -4 0.62088944E-01 0.10350422E+04</pdfrwt>
<totfact> 0.37314033E+01</totfact>
</mgrwt>
</event>
<event>
 6    2  0.2379986E-005  0.9901800E+03  0.7818608E-02  0.9992984E-01
         -4   -1    0    0    0  501 -0.00000000000E+00  0.00000000000E+00  0.26113828952E+03  0.26113828952E+03  0.00000000000E+00 0. -1.
         21   -1    0    0  501  502  0.00000000000E+00 -0.00000000000E+00 -0.21061569045E+04  0.21061569045E+04  0.00000000000E+00 0. -1.
   -9000010    2    1    2    0  502 -0.55584106621E+02  0.84332992127E+02 -0.19710489946E+04  0.22057857075E+04  0.98501512759E+03 0.  0.
         13    1    3    3    0    0  0.24151494762E+03 -0.15736014851E+03 -0.11453346010E+03  0.31017674141E+03  0.10566000000E+00 0. -1.
         -4    1    3    3    0  502 -0.29709905424E+03  0.24169314064E+03 -0.18565155345E+04  0.18956089661E+04  0.00000000000E+00 0. -1.
        -13    1    1    2    0    0  0.55584106621E+02 -0.84332992127E+02  0.12603037968E+03  0.16150948652E+03  0.10566000000E+00 0.  1.
<mgrwt>
<rscale>  1 0.55958937E+03</rscale>
<asrwt>0</asrwt>
<pdfrwt beam="2">  1       21 0.32402415E+00 0.99018001E+03</pdfrwt>
<pdfrwt beam="1">  1       -4 0.40175120E-01 0.99018001E+03</pdfrwt>
<totfact> 0.45481678E+00</totfact>
</mgrwt>
</event>
<event>
 6    2  0.2379986E-005  0.1101791E+04  0.7818608E-02  0.9485498E-01
         21   -1    0    0  501  502  0.00000000000E+00  0.00000000000E+00  0.66920382926E+03  0.66920382926E+03  0.00000000000E+00 0. -1.
         -4   -1    0    0    0  501 -0.00000000000E+00 -0.00000000000E+00 -0.86160295617E+03  0.86160295617E+03  0.00000000000E+00 0. -1.
   -9000010    2    1    2    0  502  0.39480110034E+03  0.41384731988E+02 -0.30830588068E+02  0.11022218944E+04  0.10277947142E+04 0.  0.
         13    1    3    3    0    0  0.56481439899E+03 -0.25434757848E+03  0.24238573944E+03  0.66517580671E+03  0.10566000000E+00 0. -1.
         -4    1    3    3    0  502 -0.17001329865E+03  0.29573231047E+03 -0.27321632751E+03  0.43704608772E+03  0.00000000000E+00 0. -1.
        -13    1    1    2    0    0 -0.39480110034E+03 -0.41384731988E+02 -0.16156853884E+03  0.42858489099E+03  0.10566000000E+00 0.  1.
<mgrwt>
<rscale>  1 0.85361523E+03</rscale>
<asrwt>0</asrwt>
<pdfrwt beam="1">  1       21 0.10295444E+00 0.11017906E+04</pdfrwt>
<pdfrwt beam="2">  1       -4 0.13255430E+00 0.11017906E+04</pdfrwt>
<totfact> 0.11589941E+01</totfact>
</mgrwt>
</event>
<event>
 6    2  0.2379986E-005  0.1040607E+04  0.7818608E-02  0.9589212E-01
         -4   -1    0    0    0  501 -0.00000000000E+00  0.00000000000E+00  0.13796740015E+04  0.13796740015E+04  0.00000000000E+00 0. -1.
         21   -1    0    0  501  502  0.00000000000E+00 -0.00000000000E+00 -0.33976919391E+03  0.33976919391E+03  0.00000000000E+00 0. -1.
   -9000010    2    1    2    0  502 -0.28400424748E+03 -0.16554073150E+03  0.78913971952E+03  0.13059878932E+04  0.98731997538E+03 0.  0.
         13    1    3    3    0    0 -0.47794344485E+03 -0.28204203004E+03  0.78842102820E+02  0.56052986676E+03  0.10566000000E+00 0. -1.
         -4    1    3    3    0  502  0.19393919737E+03  0.11650129854E+03  0.71029761670E+03  0.74545802640E+03  0.00000000000E+00 0. -1.
        -13    1    1    2    0    0  0.28400424748E+03  0.16554073150E+03  0.25076508802E+03  0.41345530219E+03  0.10566000000E+00 0.  1.
<mgrwt>
<rscale>  1 0.78014307E+03</rscale>
<asrwt>0</asrwt>
<pdfrwt beam="2">  1       21 0.52272184E-01 0.10406070E+04</pdfrwt>
<pdfrwt beam="1">  1       -4 0.21225754E+00 0.10406070E+04</pdfrwt>
<totfact> 0.14868045E+01</totfact>
</mgrwt>
</event>
<event>
 6    2  0.2379986E-005  0.1056723E+04  0.7818608E-02  0.9643529E-01
         21   -1    0    0  501  502  0.00000000000E+00  0.00000000000E+00  0.69906884144E+03  0.69906884144E+03  0.00000000000E+00 0. -1.
         -4   -1    0    0    0  501 -0.00000000000E+00 -0.00000000000E+00 -0.62108382384E+03  0.62108382384E+03  0.00000000000E+00 0. -1.
   -9000010    2    1    2    0  502 -0.16276831063E+03  0.20376427487E+03  0.50759210274E+02  0.10579415702E+04  0.10240363596E+04 0.  0.
         13    1    3    3    0    0 -0.11952177277E+03 -0.30363306463E+03 -0.29704545208E+03  0.44126466420E+03  0.10566000000E+00 0. -1.
         -4    1    3    3    0  502 -0.43246537856E+02  0.50739733951E+03  0.34780466236E+03  0.61667690595E+03  0.00000000000E+00 0. -1.
        -13    1    1    2    0    0  0.16276831063E+03 -0.20376427487E+03  0.27225807319E+02  0.26221109513E+03  0.10566000000E+00 0.  1.
<mgrwt>
<rscale>  1 0.74480966E+03</rscale>
<asrwt>0</asrwt>
<pdfrwt beam="1">  1       21 0.10754905E+00 0.10567232E+04</pdfrwt>
<pdfrwt beam="2">  1       -4 0.95551358E-01 0.10567232E+04</pdfrwt>
<totfact> 0.23504746E+01</totfact>
</mgrwt>
</event>
<event>
 6    2  0.2379986E-005  0.9949050E+03  0.7818608E-02  0.1033294E+00
         21   -1    0    0  501  502  0.00000000000E+00  0.00000000000E+00  0.11243589487E+04  0.11243589487E+04  0.00000000000E+00 0. -1.
         -4   -1    0    0    0  501 -0.00000000000E+00 -0.00000000000E+00 -0.28956739780E+03  0.28956739780E+03  0.00000000000E+00 0. -1.
   -9000010    2    1    2    0  502  0.80424398117E+01  0.34370775837E+02  0.89883541043E+03  0.13407986625E+04  0.99427859637E+03 0.  0.
         13    1    3    3    0    0  0.33218875831E+03 -0.28549001692E+03  0.73732473519E+03  0.85761395581E+03  0.10566000000E+00 0. -1.
         -4    1    3    3    0  502 -0.32414631850E+03  0.31986079276E+03  0.16151067523E+03  0.48318470667E+03  0.00000000000E+00 0. -1.
        -13    1    1    2    0    0 -0.80424398117E+01 -0.34370775837E+02 -0.64043859500E+02  0.73127684043E+02  0.10566000000E+00 0.  1.
<mgrwt>
<rscale>  1 0.43179520E+03</rscale>
<asrwt>0</asrwt>
<pdfrwt beam="1">  1       21 0.17297830E+00 0.99490500E+03</pdfrwt>
<pdfrwt beam="2">  1       -4 0.44548831E-01 0.99490500E+03</pdfrwt>
<totfact> 0.35387930E+01</totfact>
</mgrwt>
</event>
<event>
 6    2  0.2379986E-005  0.9192012E+03  0.7818608E-02  0.9998052E-01
         21   -1    0    0  501  502  0.00000000000E+00  0.00000000000E+00  0.13926392802E+04  0.13926392802E+04  0.00000000000E+00 0. -1.
         -4   -1    0    0    0  501 -0.00000000000E+00 -0.00000000000E+00 -0.24652945381E+03  0.24652945381E+03  0.00000000000E+00 0. -1.
   -9000010    2    1    2    0  502 -0.10128536091E+03 -0.71970933264E+02  0.11932754264E+04  0.15062659704E+04  0.91076472858E+03 0.  0.
         13    1    3    3    0    0  0.51953073009E+00  0.38395849459E+03  0.82992199888E+03  0.91443694745E+03  0.10566000000E+00 0. -1.
         -4    1    3    3    0  502 -0.10180489164E+03 -0.45592942785E+03  0.36335342755E+03  0.59182902299E+03  0.00000000000E+00 0. -1.
        -13    1    1    2    0    0  0.10128536091E+03  0.71970933264E+02 -0.47165600056E+02  0.13290276356E+03  0.10566000000E+00 0.  1.
<mgrwt>
<rscale>  1 0.55735740E+03</rscale>
<asrwt>0</asrwt>
<pdfrwt beam="1">  1       21 0.21425219E+00 0.91920125E+03</pdfrwt>
<pdfrwt beam="2">  1       -4 0.37927609E-01 0.91920125E+03</pdfrwt>
<totfact> 0.25533707E+01</totfact>
</mgrwt>
</event>
<event>
 6    2  0.2379986E-005  0.1094787E+04  0.7818608E-02  0.9467580E-01
         21   -1    0    0  501  502  0.00000000000E+00  0.00000000000E+00  0.33306389403E+03  0.33306389403E+03  0.00000000000E+00 0.  1.
         -4   -1    0    0    0  501 -0.00000000000E+00 -0.00000000000E+00 -0.18973971250E+04  0.18973971250E+04  0.00000000000E+00 0. -1.
   -9000010    2    1    2    0  502  0.98551821346E+02  0.41952635378E+03 -0.13805744799E+04  0.17619718380E+04  0.10064015303E+04 0.  0.
         13    1    3    3    0    0  0.19033808174E+02  0.15577405000E+03  0.14383189654E+03  0.21287429656E+03  0.10566000000E+00 0. -1.
         -4    1    3    3    0  502  0.79518013173E+02  0.26375230378E+03 -0.15244063765E+04  0.15490975414E+04  0.00000000000E+00 0. -1.
        -13    1    1    2    0    0 -0.98551821346E+02 -0.41952635378E+03 -0.18375875099E+03  0.46848918102E+03  0.10566000000E+00 0.  1.
<mgrwt>
<rscale>  1 0.86716780E+03</rscale>
<asrwt>0</asrwt>
<pdfrwt beam="1">  1       21 0.51240600E-01 0.10947871E+04</pdfrwt>
<pdfrwt beam="2">  1       -4 0.29190725E+00 0.10947871E+04</pdfrwt>
<totfact> 0.49140522E+00</totfact>
</mgrwt>
</event>
<event>
 6    2  0.2379986E-005  0.9710568E+03  0.7818608E-02  0.1016174E+00
         -4   -1    0    0    0  501 -0.00000000000E+00  0.00000000000E+00  0.65972993078E+03  0.65972993078E+03  0.00000000000E+00 0. -1.
         21   -1    0    0  501  502  0.00000000000E+00 -0.00000000000E+00 -0.81841932353E+03  0.81841932353E+03  0.00000000000E+00 0. -1.
   -9000010    2    1    2    0  502  0.62836178898E+02 -0.87046442502E+01 -0.52670704020E+03  0.11047042701E+04  0.96898248799E+03 0.  0.
         13    1    3    3    0    0 -0.17345212532E+03  0.22947354011E+03  0.16807663402E+03  0.33315688715E+03  0.10566000000E+00 0. -1.
         -4    1    3    3    0  502  0.23628830422E+03 -0.23817818436E+03 -0.69478367422E+03  0.77154738298E+03  0.00000000000E+00 0. -1.
        -13    1    1    2    0    0 -0.62836178898E+02  0.87046442502E+01  0.36801764745E+03  0.37344498418E+03  0.10566000000E+00 0.  1.
<mgrwt>
<rscale>  1 0.49092818E+03</rscale>
<asrwt>0</asrwt>
<pdfrwt beam="2">  1       21 0.12591066E+00 0.97105675E+03</pdfrwt>
<pdfrwt beam="1">  1       -4 0.10149691E+00 0.97105675E+03</pdfrwt>
<totfact> 0.13671744E+01</totfact>
</mgrwt>
</event>
<event>
 6    2  0.2379986E-005  0.1044712E+04  0.7818608E-02  0.9566567E-01
         21   -1    0    0  501  502  0.00000000000E+00  0.00000000000E+00  0.16059081942E+04  0.16059081942E+04  0.00000000000E+00 0. -1.
         -4   -1    0    0    0  501 -0.00000000000E+00 -0.00000000000E+00 -0.30619570100E+03  0.30619570100E+03  0.00000000000E+00 0. -1.
   -9000010    2    1    2    0  502  0.30900538951E+03  0.16689692659E+03  0.10499241056E+04  0.14811361881E+04  0.98391303742E+03 0.  0.
         13    1    3    3    0    0 -0.13201403096E+02  0.71182766320E+02  0.11326675361E+04  0.11349788640E+04  0.10566000000E+00 0. -1.
         -4    1    3    3    0  502  0.32220679261E+03  0.95714160269E+02 -0.82743430520E+02  0.34615732402E+03  0.00000000000E+00 0. -1.
        -13    1    1    2    0    0 -0.30900538951E+03 -0.16689692659E+03  0.24978838758E+03  0.43096770712E+03  0.10566000000E+00 0.  1.
<mgrwt>
<rscale>  1 0.79549060E+03</rscale>
<asrwt>0</asrwt>
<pdfrwt beam="1">  1       21 0.24706279E+00 0.10447123E+04</pdfrwt>
<pdfrwt beam="2">  1       -4 0.47107032E-01 0.10447123E+04</pdfrwt>
<totfact> 0.98308538E+00</totfact>
</mgrwt>
</event>
<event>
 6    2  0.2379986E-005  0.1026495E+04  0.7818608E-02  0.9752416E-01
         -4   -1    0    0    0  501 -0.00000000000E+00  0.00000000000E+00  0.84056985150E+03  0.84056985150E+03  0.00000000000E+00 0. -1.
         21   -1    0    0  501  502  0.00000000000E+00 -0.00000000000E+00 -0.45354525919E+03  0.45354525919E+03  0.00000000000E+00 0. -1.
   -9000010    2    1    2    0  502 -0.11441275668E+03 -0.16091972547E+03  0.38598300473E+03  0.10966650334E+04  0.10073261035E+04 0.  0.
         13    1    3    3    0    0  0.79512486913E+02  0.29097782675E+03 -0.17653534000E+03  0.34950689359E+03  0.10566000000E+00 0. -1.
         -4    1    3    3    0  502 -0.19392524359E+03 -0.45189755222E+03  0.56251834473E+03  0.74715813986E+03  0.00000000000E+00 0. -1.
        -13    1    1    2    0    0  0.11441275668E+03  0.16091972547E+03  0.10415875758E+01  0.19745007725E+03  0.10566000000E+00 0.  1.
<mgrwt>
<rscale>  1 0.67979880E+03</rscale>
<asrwt>0</asrwt>
<pdfrwt beam="2">  1       21 0.69776194E-01 0.10264947E+04</pdfrwt>
<pdfrwt beam="1">  1       -4 0.12931844E+00 0.10264947E+04</pdfrwt>
<totfact> 0.31505130E+01</totfact>
</mgrwt>
</event>
<event>
 6    2  0.2379986E-005  0.1024515E+04  0.7818608E-02  0.9689329E-01
         21   -1    0    0  501  502  0.00000000000E+00  0.00000000000E+00  0.50543041930E+03  0.50543041930E+03  0.00000000000E+00 0. -1.
         -4   -1    0    0    0  501 -0.00000000000E+00 -0.00000000000E+00 -0.11520381267E+04  0.11520381267E+04  0.00000000000E+00 0. -1.
   -9000010    2    1    2    0  502 -0.23826709172E+03 -0.57720293798E+02 -0.65317303147E+02  0.10265950368E+04  0.99475031052E+03 0.  0.
         13    1    3    3    0    0 -0.37140991197E+03 -0.44221800824E+03  0.10236899046E+03  0.58649936990E+03  0.10566000000E+00 0. -1.
         -4    1    3    3    0  502  0.13314282025E+03  0.38449771445E+03 -0.16768629361E+03  0.44009566695E+03  0.00000000000E+00 0. -1.
        -13    1    1    2    0    0  0.23826709172E+03  0.57720293798E+02 -0.58129040424E+03  0.63087350914E+03  0.10566000000E+00 0.  1.
<mgrwt>
<rscale>  1 0.71655681E+03</rscale>
<asrwt>0</asrwt>
<pdfrwt beam="1">  1       21 0.77758527E-01 0.10245150E+04</pdfrwt>
<pdfrwt beam="2">  1       -4 0.17723663E+00 0.10245150E+04</pdfrwt>
<totfact> 0.10455046E+01</totfact>
</mgrwt>
</event>
<event>
 6    2  0.2379986E-005  0.1046357E+04  0.7818608E-02  0.9622488E-01
         21   -1    0    0  501  502  0.00000000000E+00  0.00000000000E+00  0.54535612500E+03  0.54535612500E+03  0.00000000000E+00 0.  1.
         -4   -1    0    0    0  501 -0.00000000000E+00 -0.00000000000E+00 -0.81696411464E+03  0.81696411464E+03  0.00000000000E+00 0. -1.
   -9000010    2    1    2    0  502  0.14675411668E+03  0.24844435596E+03 -0.20745595946E+03  0.10667244634E+04  0.10057841404E+04 0.  0.
         13    1    3    3    0    0  0.12553583954E+03  0.99925977784E+02 -0.61335100389E+03  0.63399046773E+03  0.10566000000E+00 0. -1.
         -4    1    3    3    0  502  0.21218277146E+02  0.14851837817E+03  0.40589504443E+03  0.43273399570E+03  0.00000000000E+00 0. -1.
        -13    1    1    2    0    0 -0.14675411668E+03 -0.24844435596E+03 -0.64152030181E+02  0.29559577621E+03  0.10566000000E+00 0.  1.
<mgrwt>
<rscale>  1 0.75825518E+03</rscale>
<asrwt>0</asrwt>
<pdfrwt beam="1">  1       21 0.83900943E-01 0.10463571E+04</pdfrwt>
<pdfrwt beam="2">  1       -4 0.12568679E+00 0.10463571E+04</pdfrwt>
<totfact> 0.22000325E+01</totfact>
</mgrwt>
</event>
<event>
 6    2  0.2379986E-005  0.1029899E+04  0.7818608E-02  0.9700756E-01
         21   -1    0    0  501  502  0.00000000000E+00  0.00000000000E+00  0.61369137591E+03  0.61369137591E+03  0.00000000000E+00 0. -1.
         -4   -1    0    0    0  501 -0.00000000000E+00 -0.00000000000E+00 -0.83812321881E+03  0.83812321881E+03  0.00000000000E+00 0. -1.
   -9000010    2    1    2    0  502 -0.20208997822E+03  0.11445649479E+03  0.11949971908E+03  0.10368090779E+04  0.10033704364E+04 0.  0.
         13    1    3    3    0    0  0.67557470742E+02  0.18930106126E+02  0.53101543278E+03  0.53563024727E+03  0.10566000000E+00 0. -1.
         -4    1    3    3    0  502 -0.26964744896E+03  0.95526388664E+02 -0.41151571371E+03  0.50117883065E+03  0.00000000000E+00 0. -1.
        -13    1    1    2    0    0  0.20208997822E+03 -0.11445649479E+03 -0.34393156197E+03  0.41500551680E+03  0.10566000000E+00 0.  1.
<mgrwt>
<rscale>  1 0.70971773E+03</rscale>
<asrwt>0</asrwt>
<pdfrwt beam="1">  1       21 0.94414058E-01 0.10298995E+04</pdfrwt>
<pdfrwt beam="2">  1       -4 0.12894203E+00 0.10298995E+04</pdfrwt>
<totfact> 0.15528252E+01</totfact>
</mgrwt>
</event>
<event>
 6    2  0.2379986E-005  0.1015050E+04  0.7818608E-02  0.9837896E-01
         -4   -1    0    0    0  501 -0.00000000000E+00  0.00000000000E+00  0.65101203930E+03  0.65101203930E+03  0.00000000000E+00 0. -1.
         21   -1    0    0  501  502  0.00000000000E+00 -0.00000000000E+00 -0.60101871339E+03  0.60101871339E+03  0.00000000000E+00 0. -1.
   -9000010    2    1    2    0  502  0.15370349474E+03 -0.12051158998E+02 -0.12048650101E+03  0.10221756303E+04  0.10032726586E+04 0.  0.
         13    1    3    3    0    0 -0.14894893877E+03  0.33146804564E+03  0.24337804271E+03  0.43736681913E+03  0.10566000000E+00 0. -1.
         -4    1    3    3    0  502  0.30265243351E+03 -0.34351920464E+03 -0.36386454372E+03  0.58480881119E+03  0.00000000000E+00 0. -1.
        -13    1    1    2    0    0 -0.15370349474E+03  0.12051158998E+02  0.17047982692E+03  0.22985512237E+03  0.10566000000E+00 0.  1.
<mgrwt>
<rscale>  1 0.63367878E+03</rscale>
<asrwt>0</asrwt>
<pdfrwt beam="2">  1       21 0.92464417E-01 0.10150498E+04</pdfrwt>
<pdfrwt beam="1">  1       -4 0.10015570E+00 0.10150498E+04</pdfrwt>
<totfact> 0.30657813E+01</totfact>
</mgrwt>
</event>
<event>
 6    2  0.2379986E-005  0.1012325E+04  0.7818608E-02  0.9856822E-01
         -4   -1    0    0    0  501 -0.00000000000E+00  0.00000000000E+00  0.20658248635E+04  0.20658248635E+04  0.00000000000E+00 0. -1.
         21   -1    0    0  501  502  0.00000000000E+00 -0.00000000000E+00 -0.24610713812E+03  0.24610713812E+03  0.00000000000E+00 0.  1.
   -9000010    2    1    2    0  502 -0.94000172239E+02 -0.11190394568E+03  0.18943189323E+04  0.21478470338E+04  0.10017205886E+04 0.  0.
         13    1    3    3    0    0  0.10501905292E+03 -0.41714750677E+03  0.16595031382E+04  0.17143487746E+04  0.10566000000E+00 0. -1.
         -4    1    3    3    0  502 -0.19901922516E+03  0.30524356110E+03  0.23481579409E+03  0.43349825920E+03  0.00000000000E+00 0. -1.
        -13    1    1    2    0    0  0.94000172239E+02  0.11190394568E+03 -0.74601206941E+02  0.16408496787E+03  0.10566000000E+00 0.  1.
<mgrwt>
<rscale>  1 0.62400286E+03</rscale>
<asrwt>0</asrwt>
<pdfrwt beam="2">  1       21 0.37862638E-01 0.10123254E+04</pdfrwt>
<pdfrwt beam="1">  1       -4 0.31781920E+00 0.10123254E+04</pdfrwt>
<totfact> 0.65196637E+00</totfact>
</mgrwt>
</event>
<event>
 6    2  0.2379986E-005  0.1110531E+04  0.7818608E-02  0.9416935E-01
         -4   -1    0    0    0  501 -0.00000000000E+00  0.00000000000E+00  0.57071969033E+03  0.57071969033E+03  0.00000000000E+00 0. -1.
         21   -1    0    0  501  502  0.00000000000E+00 -0.00000000000E+00 -0.11420494216E+04  0.11420494216E+04  0.00000000000E+00 0. -1.
   -9000010    2    1    2    0  502 -0.26744651270E+03 -0.41536025094E+03 -0.48254634137E+03  0.12108385622E+04  0.99459905336E+03 0.  0.
         13    1    3    3    0    0 -0.17019625858E+03 -0.56484943892E+02 -0.73816133973E+03  0.75963115389E+03  0.10566000000E+00 0. -1.
         -4    1    3    3    0  502 -0.97250254120E+02 -0.35887530705E+03  0.25561499836E+03  0.45120740832E+03  0.00000000000E+00 0. -1.
        -13    1    1    2    0    0  0.26744651270E+03  0.41536025094E+03 -0.88783389846E+02  0.50193054967E+03  0.10566000000E+00 0.  1.
<mgrwt>
<rscale>  1 0.90694982E+03</rscale>
<asrwt>0</asrwt>
<pdfrwt beam="2">  1       21 0.17569991E+00 0.11105310E+04</pdfrwt>
<pdfrwt beam="1">  1       -4 0.87803029E-01 0.11105310E+04</pdfrwt>
<totfact> 0.74959376E+00</totfact>
</mgrwt>
</event>
<event>
 6    2  0.2379986E-005  0.1012800E+04  0.7818608E-02  0.9689374E-01
         21   -1    0    0  501  502  0.00000000000E+00  0.00000000000E+00  0.41660413707E+03  0.41660413707E+03  0.00000000000E+00 0. -1.
         -4   -1    0    0    0  501 -0.00000000000E+00 -0.00000000000E+00 -0.12652362028E+04  0.12652362028E+04  0.00000000000E+00 0. -1.
   -9000010    2    1    2    0  502  0.11249896950E+03  0.22742379758E+03 -0.26719311225E+03  0.10474517605E+04  0.98050264126E+03 0.  0.
         13    1    3    3    0    0  0.12185467750E+01 -0.31100874956E+03  0.16133373728E+03  0.35036625566E+03  0.10566000000E+00 0. -1.
         -4    1    3    3    0  502  0.11128042273E+03  0.53843254714E+03 -0.42852684953E+03  0.69708550485E+03  0.00000000000E+00 0. -1.
        -13    1    1    2    0    0 -0.11249896950E+03 -0.22742379758E+03 -0.58143895344E+03  0.63438857933E+03  0.10566000000E+00 0.  1.
<mgrwt>
<rscale>  1 0.71653020E+03</rscale>
<asrwt>0</asrwt>
<pdfrwt beam="1">  1       21 0.64092944E-01 0.10127996E+04</pdfrwt>
<pdfrwt beam="2">  1       -4 0.19465172E+00 0.10127996E+04</pdfrwt>
<totfact> 0.12392146E+01</totfact>
</mgrwt>
</event>
<event>
 6    2  0.2379986E-005  0.9852275E+03  0.7818608E-02  0.1006587E+00
         -4   -1    0    0    0  501 -0.00000000000E+00  0.00000000000E+00  0.15682035551E+03  0.15682035551E+03  0.00000000000E+00 0. -1.
         21   -1    0    0  501  502  0.00000000000E+00 -0.00000000000E+00 -0.18898922800E+04  0.18898922800E+04  0.00000000000E+00 0. -1.
   -9000010    2    1    2    0  502 -0.48727145703E+02  0.65457054035E+02 -0.16853000985E+04  0.19521551441E+04  0.98184231130E+03 0.  0.
         13    1    3    3    0    0  0.27710231396E+03 -0.34658223179E+03 -0.94963866758E+03  0.10481977609E+04  0.10566000000E+00 0. -1.
         -4    1    3    3    0  502 -0.32582945967E+03  0.41203928583E+03 -0.73566143088E+03  0.90395738325E+03  0.00000000000E+00 0. -1.
        -13    1    1    2    0    0  0.48727145703E+02 -0.65457054035E+02 -0.47771826049E+02  0.94557491397E+02  0.10566000000E+00 0.  1.
<mgrwt>
<rscale>  1 0.52854054E+03</rscale>
<asrwt>0</asrwt>
<pdfrwt beam="2">  1       21 0.29075266E+00 0.98522753E+03</pdfrwt>
<pdfrwt beam="1">  1       -4 0.24126208E-01 0.98522753E+03</pdfrwt>
<totfact> 0.20000194E+01</totfact>
</mgrwt>
</event>
<event>
 6    2  0.2379986E-005  0.1072298E+04  0.7818608E-02  0.9515240E-01
         -4   -1    0    0    0  501 -0.00000000000E+00  0.00000000000E+00  0.14200135885E+04  0.14200135885E+04  0.00000000000E+00 0. -1.
         21   -1    0    0  501  502  0.00000000000E+00 -0.00000000000E+00 -0.55670433278E+03  0.55670433278E+03  0.00000000000E+00 0. -1.
   -9000010    2    1    2    0  502 -0.36218425118E+03 -0.13936040228E+03  0.47544198087E+02  0.10733512217E+04  0.99961174502E+03 0.  0.
         13    1    3    3    0    0 -0.16490966365E+03  0.31096868081E+03  0.34978743848E+03  0.49623379660E+03  0.10566000000E+00 0. -1.
         -4    1    3    3    0  502 -0.19727458753E+03 -0.45032908310E+03 -0.30224324039E+03  0.57711742508E+03  0.00000000000E+00 0. -1.
        -13    1    1    2    0    0  0.36218425118E+03  0.13936040228E+03  0.81576505763E+03  0.90336669960E+03  0.10566000000E+00 0.  1.
<mgrwt>
<rscale>  1 0.83169523E+03</rscale>
<asrwt>0</asrwt>
<pdfrwt beam="2">  1       21 0.85646821E-01 0.10722977E+04</pdfrwt>
<pdfrwt beam="1">  1       -4 0.21846363E+00 0.10722977E+04</pdfrwt>
<totfact> 0.43871204E+00</totfact>
</mgrwt>
</event>
<event>
 6    2  0.2379986E-005  0.1007641E+04  0.7818608E-02  0.9989901E-01
         21   -1    0    0  501  502  0.00000000000E+00  0.00000000000E+00  0.55306059040E+03  0.55306059040E+03  0.00000000000E+00 0. -1.
         -4   -1    0    0    0  501 -0.00000000000E+00 -0.00000000000E+00 -0.57044433863E+03  0.57044433863E+03  0.00000000000E+00 0. -1.
   -9000010    2    1    2    0  502 -0.90060116331E+02 -0.35434931341E+02  0.44513665196E+02  0.10086234254E+04  0.10029821978E+04 0.  0.
         13    1    3    3    0    0 -0.12665782843E+03  0.31755684066E+03  0.38633842752E+03  0.51588946907E+03  0.10566000000E+00 0. -1.
         -4    1    3    3    0  502  0.36597712104E+02 -0.35299177200E+03 -0.34182476232E+03  0.49273395638E+03  0.00000000000E+00 0. -1.
        -13    1    1    2    0    0  0.90060116331E+02  0.35434931341E+02 -0.61897413423E+02  0.11488150358E+03  0.10566000000E+00 0.  1.
<mgrwt>
<rscale>  1 0.56095273E+03</rscale>
<asrwt>0</asrwt>
<pdfrwt beam="1">  1       21 0.85086244E-01 0.10076407E+04</pdfrwt>
<pdfrwt beam="2">  1       -4 0.87760668E-01 0.10076407E+04</pdfrwt>
<totfact> 0.51282493E+01</totfact>
</mgrwt>
</event>
<event>
 6    2  0.2379986E-005  0.1043480E+04  0.7818608E-02  0.9590576E-01
         -4   -1    0    0    0  501 -0.00000000000E+00  0.00000000000E+00  0.94449819264E+03  0.94449819264E+03  0.00000000000E+00 0. -1.
         21   -1    0    0  501  502  0.00000000000E+00 -0.00000000000E+00 -0.68036087349E+03  0.68036087349E+03  0.00000000000E+00 0. -1.
   -9000010    2    1    2    0  502 -0.76956584717E+02  0.31524110065E+03 -0.19608082114E+03  0.10617427236E+04  0.99174122387E+03 0.  0.
         13    1    3    3    0    0  0.34164520631E+03 -0.12250698225E+02  0.20255976535E+03  0.39736884163E+03  0.10566000000E+00 0. -1.
         -4    1    3    3    0  502 -0.41860179102E+03  0.32749179888E+03 -0.39864058649E+03  0.66437388192E+03  0.00000000000E+00 0. -1.
        -13    1    1    2    0    0  0.76956584717E+02 -0.31524110065E+03  0.46021814028E+03  0.56311634258E+03  0.10566000000E+00 0.  1.
<mgrwt>
<rscale>  1 0.77923093E+03</rscale>
<asrwt>0</asrwt>
<pdfrwt beam="2">  1       21 0.10467090E+00 0.10434797E+04</pdfrwt>
<pdfrwt beam="1">  1       -4 0.14530741E+00 0.10434797E+04</pdfrwt>
<totfact> 0.87903885E+00</totfact>
</mgrwt>
</event>
<event>
 6    2  0.2379986E-005  0.1011845E+04  0.7818608E-02  0.9823812E-01
         21   -1    0    0  501  502  0.00000000000E+00  0.00000000000E+00  0.77230728636E+03  0.77230728636E+03  0.00000000000E+00 0. -1.
         -4   -1    0    0    0  501 -0.00000000000E+00 -0.00000000000E+00 -0.45623997557E+03  0.45623997557E+03  0.00000000000E+00 0. -1.
   -9000010    2    1    2    0  502 -0.98467780796E+02  0.12985284382E+03  0.33171931663E+03  0.10648320783E+04  0.99863506098E+03 0.  0.
         13    1    3    3    0    0 -0.12804164019E+02  0.46345834376E+03  0.49967098040E+03  0.68163676752E+03  0.10566000000E+00 0. -1.
         -4    1    3    3    0  502 -0.85663616778E+02 -0.33360549995E+03 -0.16795166376E+03  0.38319531077E+03  0.00000000000E+00 0. -1.
        -13    1    1    2    0    0  0.98467780796E+02 -0.12985284382E+03 -0.15652005840E+02  0.16371518364E+03  0.10566000000E+00 0.  1.
<mgrwt>
<rscale>  1 0.64100165E+03</rscale>
<asrwt>0</asrwt>
<pdfrwt beam="1">  1       21 0.11881651E+00 0.10118447E+04</pdfrwt>
<pdfrwt beam="2">  1       -4 0.70190766E-01 0.10118447E+04</pdfrwt>
<totfact> 0.37336962E+01</totfact>
</mgrwt>
</event>
<event>
 6    2  0.2379986E-005  0.1010357E+04  0.7818608E-02  0.1018666E+00
         21   -1    0    0  501  502  0.00000000000E+00  0.00000000000E+00  0.88699065011E+03  0.88699065011E+03  0.00000000000E+00 0. -1.
         -4   -1    0    0    0  501 -0.00000000000E+00 -0.00000000000E+00 -0.45463606903E+03  0.45463606903E+03  0.00000000000E+00 0. -1.
   -9000010    2    1    2    0  502  0.18929127937E+02  0.48653568319E+02  0.59381398289E+03  0.11719369104E+04  0.10090072319E+04 0.  0.
         13    1    3    3    0    0  0.11905829222E+03 -0.14635866143E+03 -0.24256858916E+03  0.30730321562E+03  0.10566000000E+00 0. -1.
         -4    1    3    3    0  502 -0.10012916428E+03  0.19501222975E+03  0.83638257205E+03  0.86463369476E+03  0.00000000000E+00 0. -1.
        -13    1    1    2    0    0 -0.18929127937E+02 -0.48653568319E+02 -0.16145940181E+03  0.16968980875E+03  0.10566000000E+00 0.  1.
<mgrwt>
<rscale>  1 0.48171120E+03</rscale>
<asrwt>0</asrwt>
<pdfrwt beam="1">  1       21 0.13646010E+00 0.10103569E+04</pdfrwt>
<pdfrwt beam="2">  1       -4 0.69944011E-01 0.10103569E+04</pdfrwt>
<totfact> 0.26104419E+01</totfact>
</mgrwt>
</event>
<event>
 6    2  0.2379986E-005  0.1049139E+04  0.7818608E-02  0.9389404E-01
         -4   -1    0    0    0  501 -0.00000000000E+00  0.00000000000E+00  0.14002903627E+04  0.14002903627E+04  0.00000000000E+00 0. -1.
         21   -1    0    0  501  502  0.00000000000E+00 -0.00000000000E+00 -0.61904174168E+03  0.61904174168E+03  0.00000000000E+00 0. -1.
   -9000010    2    1    2    0  502  0.46196774134E+02  0.64482159578E+03  0.60133194688E+02  0.10508608856E+04  0.82629508498E+03 0.  0.
         13    1    3    3    0    0 -0.24885281482E+03  0.58467559865E+03 -0.18583933846E+03  0.66204950720E+03  0.10566000000E+00 0. -1.
         -4    1    3    3    0  502  0.29504958896E+03  0.60145997134E+02  0.24597253315E+03  0.38881137841E+03  0.00000000000E+00 0. -1.
        -13    1    1    2    0    0 -0.46196774134E+02 -0.64482159578E+03  0.72111542635E+03  0.96847121878E+03  0.10566000000E+00 0.  1.
<mgrwt>
<rscale>  1 0.92952824E+03</rscale>
<asrwt>0</asrwt>
<pdfrwt beam="2">  1       21 0.95237192E-01 0.10491390E+04</pdfrwt>
<pdfrwt beam="1">  1       -4 0.21542929E+00 0.10491390E+04</pdfrwt>
<totfact> 0.35597760E+00</totfact>
</mgrwt>
</event>
<event>
 6    2  0.2379986E-005  0.9998428E+03  0.7818608E-02  0.1002147E+00
         -4   -1    0    0    0  501 -0.00000000000E+00  0.00000000000E+00  0.77872407198E+03  0.77872407198E+03  0.00000000000E+00 0. -1.
         21   -1    0    0  501  502  0.00000000000E+00 -0.00000000000E+00 -0.41465040945E+03  0.41465040945E+03  0.00000000000E+00 0. -1.
   -9000010    2    1    2    0  502  0.89411623312E+02 -0.70768341201E+01  0.22015276510E+03  0.10237933627E+04  0.99581177411E+03 0.  0.
         13    1    3    3    0    0 -0.11461442339E+02  0.43401930731E+03  0.34483010250E+03  0.55444741368E+03  0.10566000000E+00 0. -1.
         -4    1    3    3    0  502  0.10087306565E+03 -0.44109614143E+03 -0.12467733740E+03  0.46934594897E+03  0.00000000000E+00 0. -1.
        -13    1    1    2    0    0 -0.89411623312E+02  0.70768341201E+01  0.14392089743E+03  0.16958111877E+03  0.10566000000E+00 0.  1.
<mgrwt>
<rscale>  1 0.54718777E+03</rscale>
<asrwt>0</asrwt>
<pdfrwt beam="2">  1       21 0.63792371E-01 0.99984279E+03</pdfrwt>
<pdfrwt beam="1">  1       -4 0.11980370E+00 0.99984279E+03</pdfrwt>
<totfact> 0.47018688E+01</totfact>
</mgrwt>
</event>
<event>
 6    2  0.2379986E-005  0.1024528E+04  0.7818608E-02  0.9637593E-01
         -4   -1    0    0    0  501 -0.00000000000E+00  0.00000000000E+00  0.22759338472E+03  0.22759338472E+03  0.00000000000E+00 0. -1.
         21   -1    0    0  501  502  0.00000000000E+00 -0.00000000000E+00 -0.20072245937E+04  0.20072245937E+04  0.00000000000E+00 0. -1.
   -9000010    2    1    2    0  502 -0.92088717324E+02 -0.27708458621E+03 -0.11463067338E+04  0.15374256198E+04  0.98203982039E+03 0.  0.
         13    1    3    3    0    0 -0.10527921734E+03  0.18673667352E+03  0.78015703368E+02  0.22812443967E+03  0.10566000000E+00 0. -1.
         -4    1    3    3    0  502  0.13190500016E+02 -0.46382125972E+03 -0.12243224371E+04  0.13093011801E+04  0.00000000000E+00 0. -1.
        -13    1    1    2    0    0  0.92088717324E+02  0.27708458621E+03 -0.63332447517E+03  0.69739235857E+03  0.10566000000E+00 0.  1.
<mgrwt>
<rscale>  1 0.74857239E+03</rscale>
<asrwt>0</asrwt>
<pdfrwt beam="2">  1       21 0.30880377E+00 0.10245284E+04</pdfrwt>
<pdfrwt beam="1">  1       -4 0.35014368E-01 0.10245284E+04</pdfrwt>
<totfact> 0.74214043E+00</totfact>
</mgrwt>
</event>
<event>
 6    2  0.2379986E-005  0.1023303E+04  0.7818608E-02  0.9859556E-01
         -4   -1    0    0    0  501 -0.00000000000E+00  0.00000000000E+00  0.54808552915E+03  0.54808552915E+03  0.00000000000E+00 0. -1.
         21   -1    0    0  501  502  0.00000000000E+00 -0.00000000000E+00 -0.70657718774E+03  0.70657718774E+03  0.00000000000E+00 0. -1.
   -9000010    2    1    2    0  502 -0.11000382397E+03 -0.86990061605E+02 -0.28874749646E+03  0.10632607666E+04  0.10136469943E+04 0.  0.
         13    1    3    3    0    0  0.12651883502E+03 -0.83459496472E+02  0.35038298303E+03  0.38176006748E+03  0.10566000000E+00 0. -1.
         -4    1    3    3    0  502 -0.23652265898E+03 -0.35305651329E+01 -0.63913047949E+03  0.68150069913E+03  0.00000000000E+00 0. -1.
        -13    1    1    2    0    0  0.11000382397E+03  0.86990061605E+02  0.13025583788E+03  0.19140195028E+03  0.10566000000E+00 0.  1.
<mgrwt>
<rscale>  1 0.62262054E+03</rscale>
<asrwt>0</asrwt>
<pdfrwt beam="2">  1       21 0.10870418E+00 0.10233027E+04</pdfrwt>
<pdfrwt beam="1">  1       -4 0.84320851E-01 0.10233027E+04</pdfrwt>
<totfact> 0.30799248E+01</totfact>
</mgrwt>
</event>
<event>
 6    2  0.2379986E-005  0.1090419E+04  0.7818608E-02  0.9468726E-01
         21   -1    0    0  501  502  0.00000000000E+00  0.00000000000E+00  0.54569516369E+03  0.54569516369E+03  0.00000000000E+00 0. -1.
         -4   -1    0    0    0  501 -0.00000000000E+00 -0.00000000000E+00 -0.10652234340E+04  0.10652234340E+04  0.00000000000E+00 0. -1.
   -9000010    2    1    2    0  502  0.33645212184E+03  0.27476217216E+03 -0.36653766964E+03  0.11503749878E+04  0.10001592212E+04 0.  0.
         13    1    3    3    0    0  0.94878783194E+02 -0.37317454663E+03 -0.44665340551E+02  0.38762898442E+03  0.10566000000E+00 0. -1.
         -4    1    3    3    0  502  0.24157333865E+03  0.64793671879E+03 -0.32187232909E+03  0.76274600342E+03  0.00000000000E+00 0. -1.
        -13    1    1    2    0    0 -0.33645212184E+03 -0.27476217216E+03 -0.15299060071E+03  0.46054360989E+03  0.10566000000E+00 0.  1.
<mgrwt>
<rscale>  1 0.86629296E+03</rscale>
<asrwt>0</asrwt>
<pdfrwt beam="1">  1       21 0.83953102E-01 0.10904186E+04</pdfrwt>
<pdfrwt beam="2">  1       -4 0.16388053E+00 0.10904186E+04</pdfrwt>
<totfact> 0.10810570E+01</totfact>
</mgrwt>
</event>
<event>
 6    2  0.2379986E-005  0.1052802E+04  0.7818608E-02  0.9541012E-01
         -4   -1    0    0    0  501 -0.00000000000E+00  0.00000000000E+00  0.19400032896E+04  0.19400032896E+04  0.00000000000E+00 0. -1.
         21   -1    0    0  501  502  0.00000000000E+00 -0.00000000000E+00 -0.31632720622E+03  0.31632720622E+03  0.00000000000E+00 0. -1.
   -9000010    2    1    2    0  502 -0.34857830059E+03 -0.13793717861E+03  0.71301477019E+03  0.12715271980E+04  0.98379767019E+03 0.  0.
         13    1    3    3    0    0  0.23262848006E+02  0.39896299572E+03  0.26356254236E+03  0.47872524160E+03  0.10566000000E+00 0. -1.
         -4    1    3    3    0  502 -0.37184114859E+03 -0.53690017432E+03  0.44945222783E+03  0.79280195640E+03  0.00000000000E+00 0. -1.
        -13    1    1    2    0    0  0.34857830059E+03  0.13793717861E+03  0.91066131317E+03  0.98480329780E+03  0.10566000000E+00 0.  1.
<mgrwt>
<rscale>  1 0.81326561E+03</rscale>
<asrwt>0</asrwt>
<pdfrwt beam="2">  1       21 0.48665725E-01 0.10528017E+04</pdfrwt>
<pdfrwt beam="1">  1       -4 0.29846204E+00 0.10528017E+04</pdfrwt>
<totfact> 0.50316705E+00</totfact>
</mgrwt>
</event>
<event>
 6    2  0.2379986E-005  0.1048910E+04  0.7818608E-02  0.9581610E-01
         -4   -1    0    0    0  501 -0.00000000000E+00  0.00000000000E+00  0.55864650788E+03  0.55864650788E+03  0.00000000000E+00 0. -1.
         21   -1    0    0  501  502  0.00000000000E+00 -0.00000000000E+00 -0.87011531977E+03  0.87011531977E+03  0.00000000000E+00 0. -1.
   -9000010    2    1    2    0  502 -0.13386340791E+02  0.32920573082E+03 -0.32763029532E+03  0.10988878941E+04  0.99581995666E+03 0.  0.
         13    1    3    3    0    0  0.18439329662E+03  0.52550715921E+03  0.12179702331E+03  0.57008173824E+03  0.10566000000E+00 0. -1.
         -4    1    3    3    0  502 -0.19777963741E+03 -0.19630142839E+03 -0.44942731862E+03  0.52880615587E+03  0.00000000000E+00 0. -1.
        -13    1    1    2    0    0  0.13386340791E+02 -0.32920573082E+03  0.16161483421E+02  0.32987393355E+03  0.10566000000E+00 0.  1.
<mgrwt>
<rscale>  1 0.78525431E+03</rscale>
<asrwt>0</asrwt>
<pdfrwt beam="2">  1       21 0.13386389E+00 0.10489104E+04</pdfrwt>
<pdfrwt beam="1">  1       -4 0.85945617E-01 0.10489104E+04</pdfrwt>
<totfact> 0.17097611E+01</totfact>
</mgrwt>
</event>
<event>
 6    2  0.2379986E-005  0.1081356E+04  0.7818608E-02  0.9542298E-01
         -4   -1    0    0    0  501 -0.00000000000E+00  0.00000000000E+00  0.42695983996E+03  0.42695983996E+03  0.00000000000E+00 0. -1.
         21   -1    0    0  501  502  0.00000000000E+00 -0.00000000000E+00 -0.13286901265E+04  0.13286901265E+04  0.00000000000E+00 0.  1.
   -9000010    2    1    2    0  502  0.34429759897E+03  0.90938919185E+01 -0.41253968047E+03  0.11573766211E+04  0.10250405453E+04 0.  0.
         13    1    3    3    0    0 -0.23525066299E+03  0.26520412993E+03 -0.38472139988E+03  0.52315071601E+03  0.10566000000E+00 0. -1.
         -4    1    3    3    0  502  0.57954826196E+03 -0.25611023801E+03 -0.27818280597E+02  0.63422590510E+03  0.00000000000E+00 0. -1.
        -13    1    1    2    0    0 -0.34429759897E+03 -0.90938919185E+01 -0.48919060608E+03  0.59827334536E+03  0.10566000000E+00 0.  1.
<mgrwt>
<rscale>  1 0.81235911E+03</rscale>
<asrwt>0</asrwt>
<pdfrwt beam="2">  1       21 0.20441386E+00 0.10813564E+04</pdfrwt>
<pdfrwt beam="1">  1       -4 0.65686130E-01 0.10813564E+04</pdfrwt>
<totfact> 0.91235854E+00</totfact>
</mgrwt>
</event>
<event>
 6    2  0.2379986E-005  0.8571509E+03  0.7818608E-02  0.1030104E+00
         21   -1    0    0  501  502  0.00000000000E+00  0.00000000000E+00  0.57169819591E+03  0.57169819591E+03  0.00000000000E+00 0. -1.
         -4   -1    0    0    0  501 -0.00000000000E+00 -0.00000000000E+00 -0.36867103122E+03  0.36867103122E+03  0.00000000000E+00 0. -1.
   -9000010    2    1    2    0  502 -0.55691816988E+02  0.24047983592E+02  0.19624473055E+03  0.87932910450E+03  0.85500163494E+03 0.  0.
         13    1    3    3    0    0 -0.44234688590E+03  0.10314842345E+02  0.21507977003E+03  0.49197203383E+03  0.10566000000E+00 0. -1.
         -4    1    3    3    0  502  0.38665506891E+03  0.13733141247E+02 -0.18835039484E+02  0.38735707066E+03  0.00000000000E+00 0. -1.
        -13    1    1    2    0    0  0.55691816988E+02 -0.24047983592E+02  0.67824341376E+01  0.61040122634E+02  0.10566000000E+00 0.  1.
<mgrwt>
<rscale>  1 0.44210192E+03</rscale>
<asrwt>0</asrwt>
<pdfrwt beam="1">  1       21 0.87953569E-01 0.85715091E+03</pdfrwt>
<pdfrwt beam="2">  1       -4 0.56718620E-01 0.85715091E+03</pdfrwt>
<totfact> 0.12756796E+02</totfact>
</mgrwt>
</event>
<event>
 6    2  0.2379986E-005  0.1027401E+04  0.7818608E-02  0.9771435E-01
         21   -1    0    0  501  502  0.00000000000E+00  0.00000000000E+00  0.27141496259E+03  0.27141496259E+03  0.00000000000E+00 0. -1.
         -4   -1    0    0    0  501 -0.00000000000E+00 -0.00000000000E+00 -0.14730603007E+04  0.14730603007E+04  0.00000000000E+00 0. -1.
   -9000010    2    1    2    0  502 -0.95213245790E+02 -0.15851174347E+03 -0.11696762143E+04  0.15568224694E+04  0.10106246682E+04 0.  0.
         13    1    3    3    0    0  0.70429580406E+02 -0.36030526977E+03 -0.90919543324E+01  0.36723682825E+03  0.10566000000E+00 0. -1.
         -4    1    3    3    0  502 -0.16564282620E+03  0.20179352631E+03 -0.11605842600E+04  0.11895856412E+04  0.00000000000E+00 0. -1.
        -13    1    1    2    0    0  0.95213245790E+02  0.15851174347E+03 -0.31969123730E+02  0.18765279381E+03  0.10566000000E+00 0.  1.
<mgrwt>
<rscale>  1 0.66918320E+03</rscale>
<asrwt>0</asrwt>
<pdfrwt beam="1">  1       21 0.41756149E-01 0.10274015E+04</pdfrwt>
<pdfrwt beam="2">  1       -4 0.22662466E+00 0.10274015E+04</pdfrwt>
<totfact> 0.19498915E+01</totfact>
</mgrwt>
</event>
<event>
 6    2  0.2379986E-005  0.1121302E+04  0.7818608E-02  0.9389817E-01
         -4   -1    0    0    0  501 -0.00000000000E+00  0.00000000000E+00  0.31061365987E+03  0.31061365987E+03  0.00000000000E+00 0. -1.
         21   -1    0    0  501  502  0.00000000000E+00 -0.00000000000E+00 -0.23986702367E+04  0.23986702367E+04  0.00000000000E+00 0. -1.
   -9000010    2    1    2    0  502 -0.35117339278E+03  0.39527340609E+03 -0.17606260244E+04  0.20873718488E+04  0.98881414838E+03 0.  0.
         13    1    3    3    0    0 -0.12400632542E+03 -0.84243262909E+02  0.81301507673E+02  0.17054161487E+03  0.10566000000E+00 0. -1.
         -4    1    3    3    0  502 -0.22716706736E+03  0.47951666900E+03 -0.18419275320E+04  0.19168302339E+04  0.00000000000E+00 0. -1.
        -13    1    1    2    0    0  0.35117339278E+03 -0.39527340609E+03 -0.32743055250E+03  0.62191204783E+03  0.10566000000E+00 0.  1.
<mgrwt>
<rscale>  1 0.92918448E+03</rscale>
<asrwt>0</asrwt>
<pdfrwt beam="2">  1       21 0.36902618E+00 0.11213016E+04</pdfrwt>
<pdfrwt beam="1">  1       -4 0.47786718E-01 0.11213016E+04</pdfrwt>
<totfact> 0.16095726E+00</totfact>
</mgrwt>
</event>
<event>
 6    2  0.2379986E-005  0.9541479E+03  0.7818608E-02  0.9816916E-01
         21   -1    0    0  501  502  0.00000000000E+00  0.00000000000E+00  0.67977142841E+03  0.67977142841E+03  0.00000000000E+00 0. -1.
         -4   -1    0    0    0  501 -0.00000000000E+00 -0.00000000000E+00 -0.48995103948E+03  0.48995103948E+03  0.00000000000E+00 0. -1.
   -9000010    2    1    2    0  502 -0.19786804265E+03  0.19070062789E+02  0.17781558564E+03  0.97057539645E+03  0.93321100941E+03 0.  0.
         13    1    3    3    0    0  0.29024903555E+03 -0.27649042698E+02 -0.19828669108E+03  0.35259976634E+03  0.10566000000E+00 0. -1.
         -4    1    3    3    0  502 -0.48811707820E+03  0.46719105488E+02  0.37610227672E+03  0.61797563011E+03  0.00000000000E+00 0. -1.
        -13    1    1    2    0    0  0.19786804265E+03 -0.19070062789E+02  0.12004803287E+02  0.19914707144E+03  0.10566000000E+00 0.  1.
<mgrwt>
<rscale>  1 0.64462572E+03</rscale>
<asrwt>0</asrwt>
<pdfrwt beam="1">  1       21 0.10458022E+00 0.95414790E+03</pdfrwt>
<pdfrwt beam="2">  1       -4 0.75377083E-01 0.95414790E+03</pdfrwt>
<totfact> 0.44193915E+01</totfact>
</mgrwt>
</event>
<event>
 6    2  0.2379986E-005  0.9566905E+03  0.7818608E-02  0.1022474E+00
         -4   -1    0    0    0  501 -0.00000000000E+00  0.00000000000E+00  0.42268982816E+03  0.42268982816E+03  0.00000000000E+00 0. -1.
         21   -1    0    0  501  502  0.00000000000E+00 -0.00000000000E+00 -0.65974207973E+03  0.65974207973E+03  0.00000000000E+00 0. -1.
   -9000010    2    1    2    0  502  0.14488451849E+02 -0.52856854526E+02 -0.29649225419E+03  0.10015808882E+04  0.95511928916E+03 0.  0.
         13    1    3    3    0    0  0.25013642877E+03  0.28772187690E+03  0.13409484792E+03  0.40414545753E+03  0.10566000000E+00 0. -1.
         -4    1    3    3    0  502 -0.23564797692E+03 -0.34057873142E+03 -0.43058710211E+03  0.59743543068E+03  0.00000000000E+00 0. -1.
        -13    1    1    2    0    0 -0.14488451849E+02  0.52856854526E+02  0.59440002625E+02  0.80851019681E+02  0.10566000000E+00 0.  1.
<mgrwt>
<rscale>  1 0.46804432E+03</rscale>
<asrwt>0</asrwt>
<pdfrwt beam="2">  1       21 0.10149878E+00 0.95669045E+03</pdfrwt>
<pdfrwt beam="1">  1       -4 0.65029205E-01 0.95669045E+03</pdfrwt>
<totfact> 0.66262511E+01</totfact>
</mgrwt>
</event>
<event>
 6    2  0.2379986E-005  0.1022468E+04  0.7818608E-02  0.9736846E-01
         21   -1    0    0  501  502  0.00000000000E+00  0.00000000000E+00  0.77563551023E+03  0.77563551023E+03  0.00000000000E+00 0. -1.
         -4   -1    0    0    0  501 -0.00000000000E+00 -0.00000000000E+00 -0.59652515933E+03  0.59652515933E+03  0.00000000000E+00 0. -1.
   -9000010    2    1    2    0  502 -0.65888212341E+02  0.19981335947E+03  0.37070929197E+03  0.10875964404E+04  0.10005868292E+04 0.  0.
         13    1    3    3    0    0  0.31863756042E+03  0.44466763906E+03  0.30699413349E+03  0.62729946062E+03  0.10566000000E+00 0. -1.
         -4    1    3    3    0  502 -0.38452577276E+03 -0.24485427960E+03  0.63715158479E+02  0.46029697975E+03  0.00000000000E+00 0. -1.
        -13    1    1    2    0    0  0.65888212341E+02 -0.19981335947E+03 -0.19159894107E+03  0.28456422918E+03  0.10566000000E+00 0.  1.
<mgrwt>
<rscale>  1 0.68864729E+03</rscale>
<asrwt>0</asrwt>
<pdfrwt beam="1">  1       21 0.11932854E+00 0.10224679E+04</pdfrwt>
<pdfrwt beam="2">  1       -4 0.91773101E-01 0.10224679E+04</pdfrwt>
<totfact> 0.19906789E+01</totfact>
</mgrwt>
</event>
<event>
 6    2  0.2379986E-005  0.1024766E+04  0.7818608E-02  0.9745431E-01
         -4   -1    0    0    0  501 -0.00000000000E+00  0.00000000000E+00  0.46752011441E+03  0.46752011441E+03  0.00000000000E+00 0. -1.
         21   -1    0    0  501  502  0.00000000000E+00 -0.00000000000E+00 -0.89879375910E+03  0.89879375910E+03  0.00000000000E+00 0. -1.
   -9000010    2    1    2    0  502 -0.72836370491E+02  0.18959399154E+03 -0.51467941404E+03  0.11467516909E+04  0.10044369183E+04 0.  0.
         13    1    3    3    0    0  0.26737789524E+03  0.37376178793E+03  0.49996729871E+02  0.46226453156E+03  0.10566000000E+00 0. -1.
         -4    1    3    3    0  502 -0.34021426573E+03 -0.18416779639E+03 -0.56467614391E+03  0.68448715936E+03  0.00000000000E+00 0. -1.
        -13    1    1    2    0    0  0.72836370491E+02 -0.18959399154E+03  0.83405769354E+02  0.21956218258E+03  0.10566000000E+00 0.  1.
<mgrwt>
<rscale>  1 0.68375065E+03</rscale>
<asrwt>0</asrwt>
<pdfrwt beam="2">  1       21 0.13827596E+00 0.10247656E+04</pdfrwt>
<pdfrwt beam="1">  1       -4 0.71926172E-01 0.10247656E+04</pdfrwt>
<totfact> 0.23619079E+01</totfact>
</mgrwt>
</event>
<event>
 6    2  0.2379986E-005  0.1083262E+04  0.7818608E-02  0.9547280E-01
         -4   -1    0    0    0  501 -0.00000000000E+00  0.00000000000E+00  0.26706740389E+03  0.26706740389E+03  0.00000000000E+00 0. -1.
         21   -1    0    0  501  502  0.00000000000E+00 -0.00000000000E+00 -0.27205636317E+04  0.27205636317E+04  0.00000000000E+00 0. -1.
   -9000010    2    1    2    0  502 -0.33907049941E+02 -0.33502776616E+03 -0.24173355569E+04  0.26489558262E+04  0.10295933579E+04 0.  0.
         13    1    3    3    0    0  0.15459646802E+03 -0.65933925313E+03 -0.12343753798E+04  0.14079456339E+04  0.10566000000E+00 0. -1.
         -4    1    3    3    0  502 -0.18850351796E+03  0.32431148697E+03 -0.11829601771E+04  0.12410101923E+04  0.00000000000E+00 0. -1.
        -13    1    1    2    0    0  0.33907049941E+02  0.33502776616E+03 -0.36160670893E+02  0.33867520933E+03  0.10566000000E+00 0.  1.
<mgrwt>
<rscale>  1 0.80886017E+03</rscale>
<asrwt>0</asrwt>
<pdfrwt beam="2">  1       21 0.41854825E+00 0.10832616E+04</pdfrwt>
<pdfrwt beam="1">  1       -4 0.41087293E-01 0.10832616E+04</pdfrwt>
<totfact> 0.10518637E+00</totfact>
</mgrwt>
</event>
<event>
 6    2  0.2379986E-005  0.9717828E+03  0.7818608E-02  0.9856899E-01
         21   -1    0    0  501  502  0.00000000000E+00  0.00000000000E+00  0.13252210268E+04  0.13252210268E+04  0.00000000000E+00 0. -1.
         -4   -1    0    0    0  501 -0.00000000000E+00 -0.00000000000E+00 -0.24436668498E+03  0.24436668498E+03  0.00000000000E+00 0. -1.
   -9000010    2    1    2    0  502  0.15804898698E+03 -0.47973762972E+02  0.89776351073E+03  0.13230046065E+04  0.95764341142E+03 0.  0.
         13    1    3    3    0    0  0.43935197502E+03  0.29344284360E+03  0.51946665836E+03  0.74093486942E+03  0.10566000000E+00 0. -1.
         -4    1    3    3    0  502 -0.28130298804E+03 -0.34141660657E+03  0.37829685237E+03  0.58206973709E+03  0.00000000000E+00 0. -1.
        -13    1    1    2    0    0 -0.15804898698E+03  0.47973762972E+02  0.18309083111E+03  0.24658310530E+03  0.10566000000E+00 0.  1.
<mgrwt>
<rscale>  1 0.62396389E+03</rscale>
<asrwt>0</asrwt>
<pdfrwt beam="1">  1       21 0.20388015E+00 0.97178283E+03</pdfrwt>
<pdfrwt beam="2">  1       -4 0.37594875E-01 0.97178283E+03</pdfrwt>
<totfact> 0.30317361E+01</totfact>
</mgrwt>
</event>
<event>
 6    2  0.2379986E-005  0.1011458E+04  0.7818608E-02  0.9866675E-01
         -4   -1    0    0    0  501 -0.00000000000E+00  0.00000000000E+00  0.32657146129E+03  0.32657146129E+03  0.00000000000E+00 0. -1.
         21   -1    0    0  501  502  0.00000000000E+00 -0.00000000000E+00 -0.14847275066E+04  0.14847275066E+04  0.00000000000E+00 0. -1.
   -9000010    2    1    2    0  502 -0.13854373872E+03 -0.30747947909E+02 -0.12749984859E+04  0.16274730422E+04  0.10014527250E+04 0.  0.
         13    1    3    3    0    0  0.24498667266E+03  0.23577358945E+03 -0.10602295881E+04  0.11134156663E+04  0.10566000000E+00 0. -1.
         -4    1    3    3    0  502 -0.38353041139E+03 -0.26652153736E+03 -0.21476889776E+03  0.51405737596E+03  0.00000000000E+00 0. -1.
        -13    1    1    2    0    0  0.13854373872E+03  0.30747947909E+02  0.11684244059E+03  0.18382592561E+03  0.10566000000E+00 0.  1.
<mgrwt>
<rscale>  1 0.61903875E+03</rscale>
<asrwt>0</asrwt>
<pdfrwt beam="2">  1       21 0.22841961E+00 0.10114580E+04</pdfrwt>
<pdfrwt beam="1">  1       -4 0.50241764E-01 0.10114580E+04</pdfrwt>
<totfact> 0.11378033E+01</totfact>
</mgrwt>
</event>
<event>
 6    2  0.2379986E-005  0.9848531E+03  0.7818608E-02  0.9852478E-01
         21   -1    0    0  501  502  0.00000000000E+00  0.00000000000E+00  0.89676287949E+03  0.89676287949E+03  0.00000000000E+00 0. -1.
         -4   -1    0    0    0  501 -0.00000000000E+00 -0.00000000000E+00 -0.36820465110E+03  0.36820465110E+03  0.00000000000E+00 0. -1.
   -9000010    2    1    2    0  502 -0.12608867299E+03  0.10007238225E+03  0.41918227603E+03  0.10703500975E+04  0.97160831383E+03 0.  0.
         13    1    3    3    0    0  0.37972960983E+03 -0.14028520136E+03  0.28324319495E+03  0.49406602084E+03  0.10566000000E+00 0. -1.
         -4    1    3    3    0  502 -0.50581828282E+03  0.24035758362E+03  0.13593908108E+03  0.57628407665E+03  0.00000000000E+00 0. -1.
        -13    1    1    2    0    0  0.12608867299E+03 -0.10007238225E+03  0.10937595236E+03  0.19461743310E+03  0.10566000000E+00 0.  1.
<mgrwt>
<rscale>  1 0.62620715E+03</rscale>
<asrwt>0</asrwt>
<pdfrwt beam="1">  1       21 0.13796352E+00 0.98485306E+03</pdfrwt>
<pdfrwt beam="2">  1       -4 0.56646870E-01 0.98485306E+03</pdfrwt>
<totfact> 0.40372901E+01</totfact>
</mgrwt>
</event>
<event>
 6    2  0.2379986E-005  0.9987547E+03  0.7818608E-02  0.1028225E+00
         21   -1    0    0  501  502  0.00000000000E+00  0.00000000000E+00  0.95192056526E+03  0.95192056526E+03  0.00000000000E+00 0. -1.
         -4   -1    0    0    0  501 -0.00000000000E+00 -0.00000000000E+00 -0.28402320320E+03  0.28402320320E+03  0.00000000000E+00 0. -1.
   -9000010    2    1    2    0  502 -0.18885738277E+02  0.35881398641E+02  0.64985212162E+03  0.11915614776E+04  0.99793127467E+03 0.  0.
         13    1    3    3    0    0 -0.71161726484E+02 -0.30823147212E+03  0.76266993171E+03  0.82567309973E+03  0.10566000000E+00 0. -1.
         -4    1    3    3    0  502  0.52275988207E+02  0.34411287076E+03 -0.11281781009E+03  0.36588837784E+03  0.00000000000E+00 0. -1.
        -13    1    1    2    0    0  0.18885738277E+02 -0.35881398641E+02  0.18045240443E+02  0.44382290898E+02  0.10566000000E+00 0.  1.
<mgrwt>
<rscale>  1 0.44831889E+03</rscale>
<asrwt>0</asrwt>
<pdfrwt beam="1">  1       21 0.14644932E+00 0.99875471E+03</pdfrwt>
<pdfrwt beam="2">  1       -4 0.43695878E-01 0.99875471E+03</pdfrwt>
<totfact> 0.59201678E+01</totfact>
</mgrwt>
</event>
<event>
 6    2  0.2379986E-005  0.1065915E+04  0.7818608E-02  0.9529245E-01
         21   -1    0    0  501  502  0.00000000000E+00  0.00000000000E+00  0.70566964645E+03  0.70566964645E+03  0.00000000000E+00 0. -1.
         -4   -1    0    0    0  501 -0.00000000000E+00 -0.00000000000E+00 -0.74265919743E+03  0.74265919743E+03  0.00000000000E+00 0. -1.
   -9000010    2    1    2    0  502  0.37017150421E+03  0.67512888098E+02  0.28996677786E+02  0.10663090458E+04  0.99729095114E+03 0.  0.
         13    1    3    3    0    0 -0.33489156213E+03  0.12313802703E+03 -0.19897156246E+02  0.35736709429E+03  0.10566000000E+00 0. -1.
         -4    1    3    3    0  502  0.70506306634E+03 -0.55625138930E+02  0.48893834031E+02  0.70894195150E+03  0.00000000000E+00 0. -1.
        -13    1    1    2    0    0 -0.37017150421E+03 -0.67512888098E+02 -0.65986228767E+02  0.38201979810E+03  0.10566000000E+00 0.  1.
<mgrwt>
<rscale>  1 0.82161617E+03</rscale>
<asrwt>0</asrwt>
<pdfrwt beam="1">  1       21 0.10856456E+00 0.10659147E+04</pdfrwt>
<pdfrwt beam="2">  1       -4 0.11425526E+00 0.10659147E+04</pdfrwt>
<totfact> 0.14831729E+01</totfact>
</mgrwt>
</event>
<event>
 6    2  0.2379986E-005  0.1144504E+04  0.7818608E-02  0.9367970E-01
         -4   -1    0    0    0  501 -0.00000000000E+00  0.00000000000E+00  0.38951388019E+03  0.38951388019E+03  0.00000000000E+00 0. -1.
         21   -1    0    0  501  502  0.00000000000E+00 -0.00000000000E+00 -0.35717089465E+04  0.35717089465E+04  0.00000000000E+00 0. -1.
   -9000010    2    1    2    0  502  0.45222077212E+03 -0.29110649098E+03 -0.32246502890E+04  0.34217331855E+04  0.10102682271E+04 0.  0.
         13    1    3    3    0    0 -0.12398022499E+03 -0.50073869605E+03 -0.11975696191E+04  0.13039491331E+04  0.10566000000E+00 0. -1.
         -4    1    3    3    0  502  0.57620099711E+03  0.20963220507E+03 -0.20270806699E+04  0.21177840524E+04  0.00000000000E+00 0. -1.
        -13    1    1    2    0    0 -0.45222077212E+03  0.29110649098E+03  0.42455222702E+02  0.53948964117E+03  0.10566000000E+00 0.  1.
<mgrwt>
<rscale>  1 0.94759206E+03</rscale>
<asrwt>0</asrwt>
<pdfrwt beam="2">  1       21 0.54949370E+00 0.11445036E+04</pdfrwt>
<pdfrwt beam="1">  1       -4 0.59925210E-01 0.11445036E+04</pdfrwt>
<totfact> 0.55010115E-02</totfact>
</mgrwt>
</event>
<event>
 6    2  0.2379986E-005  0.1045859E+04  0.7818608E-02  0.9598580E-01
         -4   -1    0    0    0  501 -0.00000000000E+00  0.00000000000E+00  0.43365794741E+03  0.43365794741E+03  0.00000000000E+00 0. -1.
         21   -1    0    0  501  502  0.00000000000E+00 -0.00000000000E+00 -0.11541743729E+04  0.11541743729E+04  0.00000000000E+00 0. -1.
   -9000010    2    1    2    0  502 -0.27950178563E+03 -0.14212900835E+03 -0.72782184120E+03  0.12741839767E+04  0.99774659653E+03 0.  0.
         13    1    3    3    0    0 -0.52265068175E+02 -0.49903363771E+03 -0.68472505268E+03  0.84889022721E+03  0.10566000000E+00 0. -1.
         -4    1    3    3    0  502 -0.22723671745E+03  0.35690462935E+03 -0.43096788515E+02  0.42529374954E+03  0.00000000000E+00 0. -1.
        -13    1    1    2    0    0  0.27950178563E+03  0.14212900835E+03  0.73054156753E+01  0.31364834361E+03  0.10566000000E+00 0.  1.
<mgrwt>
<rscale>  1 0.77390208E+03</rscale>
<asrwt>0</asrwt>
<pdfrwt beam="2">  1       21 0.17756529E+00 0.10458586E+04</pdfrwt>
<pdfrwt beam="1">  1       -4 0.66716607E-01 0.10458586E+04</pdfrwt>
<totfact> 0.13692682E+01</totfact>
</mgrwt>
</event>
<event>
 6    2  0.2379986E-005  0.1067050E+04  0.7818608E-02  0.9539220E-01
         -4   -1    0    0    0  501 -0.00000000000E+00  0.00000000000E+00  0.10323808383E+04  0.10323808383E+04  0.00000000000E+00 0. -1.
         21   -1    0    0  501  502  0.00000000000E+00 -0.00000000000E+00 -0.54941574238E+03  0.54941574238E+03  0.00000000000E+00 0.  1.
   -9000010    2    1    2    0  502 -0.26524427002E+03 -0.24680116882E+03  0.12820070670E+03  0.10747234866E+04  0.10036582146E+04 0.  0.
         13    1    3    3    0    0 -0.57262534740E+02  0.33142317406E+03  0.28465980770E+03  0.44062629912E+03  0.10566000000E+00 0. -1.
         -4    1    3    3    0  502 -0.20798173528E+03 -0.57822434288E+03 -0.15645910100E+03  0.63409718750E+03  0.00000000000E+00 0. -1.
        -13    1    1    2    0    0  0.26524427002E+03  0.24680116882E+03  0.35476438926E+03  0.50707309410E+03  0.10566000000E+00 0.  1.
<mgrwt>
<rscale>  1 0.81453033E+03</rscale>
<asrwt>0</asrwt>
<pdfrwt beam="2">  1       21 0.84525499E-01 0.10670497E+04</pdfrwt>
<pdfrwt beam="1">  1       -4 0.15882782E+00 0.10670497E+04</pdfrwt>
<totfact> 0.11627801E+01</totfact>
</mgrwt>
</event>
<event>
 6    2  0.2379986E-005  0.1017051E+04  0.7818608E-02  0.9699216E-01
         21   -1    0    0  501  502  0.00000000000E+00  0.00000000000E+00  0.30071645754E+03  0.30071645754E+03  0.00000000000E+00 0. -1.
         -4   -1    0    0    0  501 -0.00000000000E+00 -0.00000000000E+00 -0.13269566884E+04  0.13269566884E+04  0.00000000000E+00 0. -1.
   -9000010    2    1    2    0  502 -0.40808358737E+02  0.23895457535E+03 -0.87738527582E+03  0.13432044833E+04  0.98773921178E+03 0.  0.
         13    1    3    3    0    0  0.25341189553E+03 -0.13861953706E+03  0.56008775033E+02  0.29422773305E+03  0.10566000000E+00 0. -1.
         -4    1    3    3    0  502 -0.29422025427E+03  0.37757411240E+03 -0.93339405085E+03  0.10489767502E+04  0.00000000000E+00 0. -1.
        -13    1    1    2    0    0  0.40808358737E+02 -0.23895457535E+03 -0.14885495504E+03  0.28446866264E+03  0.10566000000E+00 0.  1.
<mgrwt>
<rscale>  1 0.71063517E+03</rscale>
<asrwt>0</asrwt>
<pdfrwt beam="1">  1       21 0.46264071E-01 0.10170513E+04</pdfrwt>
<pdfrwt beam="2">  1       -4 0.20414718E+00 0.10170513E+04</pdfrwt>
<totfact> 0.21905766E+01</totfact>
</mgrwt>
</event>
<event>
 6    2  0.2379986E-005  0.1036576E+04  0.7818608E-02  0.9853659E-01
         21   -1    0    0  501  502  0.00000000000E+00  0.00000000000E+00  0.13118901414E+04  0.13118901414E+04  0.00000000000E+00 0. -1.
         -4   -1    0    0    0  501 -0.00000000000E+00 -0.00000000000E+00 -0.27396747324E+03  0.27396747324E+03  0.00000000000E+00 0. -1.
   -9000010    2    1    2    0  502 -0.54688743754E+02  0.12619073238E+03  0.10063998594E+04  0.14447595697E+04  0.10274115912E+04 0.  0.
         13    1    3    3    0    0  0.11097288556E+03  0.37130186241E+03 -0.84955603406E+01  0.38762383836E+03  0.10566000000E+00 0. -1.
         -4    1    3    3    0  502 -0.16566162931E+03 -0.24511113003E+03  0.10148954198E+04  0.10571357314E+04  0.00000000000E+00 0. -1.
        -13    1    1    2    0    0  0.54688743754E+02 -0.12619073238E+03  0.31522808683E+02  0.14109804486E+03  0.10566000000E+00 0.  1.
<mgrwt>
<rscale>  1 0.62560690E+03</rscale>
<asrwt>0</asrwt>
<pdfrwt beam="1">  1       21 0.20182925E+00 0.10365759E+04</pdfrwt>
<pdfrwt beam="2">  1       -4 0.42148843E-01 0.10365759E+04</pdfrwt>
<totfact> 0.24611390E+01</totfact>
</mgrwt>
</event>
<event>
 6    2  0.2379986E-005  0.1047690E+04  0.7818608E-02  0.9625247E-01
         -4   -1    0    0    0  501 -0.00000000000E+00  0.00000000000E+00  0.40571387657E+03  0.40571387657E+03  0.00000000000E+00 0. -1.
         21   -1    0    0  501  502  0.00000000000E+00 -0.00000000000E+00 -0.12811907287E+04  0.12811907287E+04  0.00000000000E+00 0. -1.
   -9000010    2    1    2    0  502 -0.25840793407E+03 -0.11963931423E+03 -0.92532683749E+03  0.13978142074E+04  0.10082492630E+04 0.  0.
         13    1    3    3    0    0 -0.15527424818E+03 -0.10552147015E+03  0.19615170373E+03  0.27151496248E+03  0.10566000000E+00 0. -1.
         -4    1    3    3    0  502 -0.10313368589E+03 -0.14117844082E+02 -0.11214785412E+04  0.11262992449E+04  0.00000000000E+00 0. -1.
        -13    1    1    2    0    0  0.25840793407E+03  0.11963931423E+03  0.49849985401E+02  0.28909039782E+03  0.10566000000E+00 0.  1.
<mgrwt>
<rscale>  1 0.75647469E+03</rscale>
<asrwt>0</asrwt>
<pdfrwt beam="2">  1       21 0.19710626E+00 0.10476902E+04</pdfrwt>
<pdfrwt beam="1">  1       -4 0.62417520E-01 0.10476902E+04</pdfrwt>
<totfact> 0.11512384E+01</totfact>
</mgrwt>
</event>
<event>
 6    2  0.2379986E-005  0.1028867E+04  0.7818608E-02  0.9694542E-01
         21   -1    0    0  501  502  0.00000000000E+00  0.00000000000E+00  0.10718751601E+04  0.10718751601E+04  0.00000000000E+00 0. -1.
         -4   -1    0    0    0  501 -0.00000000000E+00 -0.00000000000E+00 -0.51939829234E+03  0.51939829234E+03  0.00000000000E+00 0. -1.
   -9000010    2    1    2    0  502 -0.17874499978E+03  0.15693076317E+03  0.75718302311E+03  0.12774555744E+04  0.10009942930E+04 0.  0.
         13    1    3    3    0    0 -0.54062200241E+03 -0.73528683372E+02  0.21589709179E+03  0.58676245805E+03  0.10566000000E+00 0. -1.
         -4    1    3    3    0  502  0.36187700263E+03  0.23045944654E+03  0.54128593132E+03  0.69069311635E+03  0.00000000000E+00 0. -1.
        -13    1    1    2    0    0  0.17874499978E+03 -0.15693076317E+03 -0.20470615534E+03  0.31381787804E+03  0.10566000000E+00 0.  1.
<mgrwt>
<rscale>  1 0.71342670E+03</rscale>
<asrwt>0</asrwt>
<pdfrwt beam="1">  1       21 0.16490387E+00 0.10288667E+04</pdfrwt>
<pdfrwt beam="2">  1       -4 0.79907430E-01 0.10288667E+04</pdfrwt>
<totfact> 0.11347026E+01</totfact>
</mgrwt>
</event>
<event>
 6    2  0.2379986E-005  0.1033697E+04  0.7818608E-02  0.9917177E-01
         -4   -1    0    0    0  501 -0.00000000000E+00  0.00000000000E+00  0.87703464717E+03  0.87703464717E+03  0.00000000000E+00 0. -1.
         21   -1    0    0  501  502  0.00000000000E+00 -0.00000000000E+00 -0.43611607179E+03  0.43611607179E+03  0.00000000000E+00 0. -1.
   -9000010    2    1    2    0  502  0.62955831814E+02  0.93819002657E+02  0.20820076644E+03  0.10544558567E+04  0.10275038455E+04 0.  0.
         13    1    3    3    0    0  0.39003001542E+03  0.31457089271E+03  0.37519090221E+03  0.62597642427E+03  0.10566000000E+00 0. -1.
         -4    1    3    3    0  502 -0.32707418361E+03 -0.22075189006E+03 -0.16699013577E+03  0.42847943240E+03  0.00000000000E+00 0. -1.
        -13    1    1    2    0    0 -0.62955831814E+02 -0.93819002657E+02  0.23271780893E+03  0.25869486229E+03  0.10566000000E+00 0.  1.
<mgrwt>
<rscale>  1 0.59435988E+03</rscale>
<asrwt>0</asrwt>
<pdfrwt beam="2">  1       21 0.67094780E-01 0.10336971E+04</pdfrwt>
<pdfrwt beam="1">  1       -4 0.13492841E+00 0.10336971E+04</pdfrwt>
<totfact> 0.30861666E+01</totfact>
</mgrwt>
</event>
<event>
 6    2  0.2379986E-005  0.1129061E+04  0.7818608E-02  0.9448814E-01
         -4   -1    0    0    0  501 -0.00000000000E+00  0.00000000000E+00  0.20309932621E+04  0.20309932621E+04  0.00000000000E+00 0. -1.
         21   -1    0    0  501  502  0.00000000000E+00 -0.00000000000E+00 -0.71638395824E+03  0.71638395824E+03  0.00000000000E+00 0. -1.
   -9000010    2    1    2    0  502  0.40527434659E+03 -0.10944673891E+03 -0.22525976177E+03  0.11513124863E+04  0.10481185984E+04 0.  0.
         13    1    3    3    0    0 -0.14554355984E+03 -0.74514957493E+02 -0.50623350452E+03  0.53198475445E+03  0.10566000000E+00 0. -1.
         -4    1    3    3    0  502  0.55081790642E+03 -0.34931781418E+02  0.28097374275E+03  0.61932773190E+03  0.00000000000E+00 0. -1.
        -13    1    1    2    0    0 -0.40527434659E+03  0.10944673891E+03  0.15398690656E+04  0.15960647340E+04  0.10566000000E+00 0.  1.
<mgrwt>
<rscale>  1 0.88165107E+03</rscale>
<asrwt>0</asrwt>
<pdfrwt beam="2">  1       21 0.11021292E+00 0.11290609E+04</pdfrwt>
<pdfrwt beam="1">  1       -4 0.31246050E+00 0.11290609E+04</pdfrwt>
<totfact> 0.60714125E-01</totfact>
</mgrwt>
</event>
<event>
 6    2  0.2379986E-005  0.1029297E+04  0.7818608E-02  0.9652282E-01
         21   -1    0    0  501  502  0.00000000000E+00  0.00000000000E+00  0.27350014146E+03  0.27350014146E+03  0.00000000000E+00 0.  1.
         -4   -1    0    0    0  501 -0.00000000000E+00 -0.00000000000E+00 -0.16268433859E+04  0.16268433859E+04  0.00000000000E+00 0. -1.
   -9000010    2    1    2    0  502 -0.19795432533E+03 -0.18937304597E+03 -0.12183548753E+04  0.15949422562E+04  0.99217142316E+03 0.  0.
         13    1    3    3    0    0 -0.41871556606E+03  0.14181090597E+02 -0.91589096164E+02  0.42885009303E+03  0.10566000000E+00 0. -1.
         -4    1    3    3    0  502  0.22076124073E+03 -0.20355413657E+03 -0.11267657792E+04  0.11660921632E+04  0.00000000000E+00 0. -1.
        -13    1    1    2    0    0  0.19795432533E+03  0.18937304597E+03 -0.13498836910E+03  0.30540127114E+03  0.10566000000E+00 0.  1.
<mgrwt>
<rscale>  1 0.73930393E+03</rscale>
<asrwt>0</asrwt>
<pdfrwt beam="1">  1       21 0.42076945E-01 0.10292969E+04</pdfrwt>
<pdfrwt beam="2">  1       -4 0.25028360E+00 0.10292969E+04</pdfrwt>
<totfact> 0.13645933E+01</totfact>
</mgrwt>
</event>
<event>
 6    2  0.2379986E-005  0.1039346E+04  0.7818608E-02  0.9670961E-01
         21   -1    0    0  501  502  0.00000000000E+00  0.00000000000E+00  0.87210285699E+03  0.87210285699E+03  0.00000000000E+00 0. -1.
         -4   -1    0    0    0  501 -0.00000000000E+00 -0.00000000000E+00 -0.92271651070E+03  0.92271651070E+03  0.00000000000E+00 0. -1.
   -9000010    2    1    2    0  502 -0.90275523613E+02  0.23291289217E+03  0.52713578389E+03  0.11653811187E+04  0.10088820207E+04 0.  0.
         13    1    3    3    0    0  0.33406349894E+03 -0.20512865283E+03  0.36189357229E+03  0.53351959137E+03  0.10566000000E+00 0. -1.
         -4    1    3    3    0  502 -0.42433902255E+03  0.43804154500E+03  0.16524221160E+03  0.63186152732E+03  0.00000000000E+00 0. -1.
        -13    1    1    2    0    0  0.90275523613E+02 -0.23291289217E+03 -0.57774943760E+03  0.62943824901E+03  0.10566000000E+00 0.  1.
<mgrwt>
<rscale>  1 0.72772395E+03</rscale>
<asrwt>0</asrwt>
<pdfrwt beam="1">  1       21 0.13416967E+00 0.10393464E+04</pdfrwt>
<pdfrwt beam="2">  1       -4 0.14195639E+00 0.10393464E+04</pdfrwt>
<totfact> 0.49179826E+00</totfact>
</mgrwt>
</event>
<event>
 6    2  0.2379986E-005  0.1045317E+04  0.7818608E-02  0.9617964E-01
         -4   -1    0    0    0  501 -0.00000000000E+00  0.00000000000E+00  0.38196936297E+03  0.38196936297E+03  0.00000000000E+00 0. -1.
         21   -1    0    0  501  502  0.00000000000E+00 -0.00000000000E+00 -0.11744286050E+04  0.11744286050E+04  0.00000000000E+00 0. -1.
   -9000010    2    1    2    0  502  0.28734049207E+03  0.61804045270E+02 -0.63245037501E+03  0.12217531606E+04  0.10031465547E+04 0.  0.
         13    1    3    3    0    0  0.27432467945E+03  0.51743034187E+03 -0.30336518071E+03  0.65955942300E+03  0.10566000000E+00 0. -1.
         -4    1    3    3    0  502  0.13015812619E+02 -0.45562629660E+03 -0.32908519430E+03  0.56219373763E+03  0.00000000000E+00 0. -1.
        -13    1    1    2    0    0 -0.28734049207E+03 -0.61804045270E+02 -0.16000886705E+03  0.33464480736E+03  0.10566000000E+00 0.  1.
<mgrwt>
<rscale>  1 0.76118517E+03</rscale>
<asrwt>0</asrwt>
<pdfrwt beam="2">  1       21 0.18068132E+00 0.10453168E+04</pdfrwt>
<pdfrwt beam="1">  1       -4 0.58764518E-01 0.10453168E+04</pdfrwt>
<totfact> 0.17172968E+01</totfact>
</mgrwt>
</event>
<event>
 6    2  0.2379986E-005  0.9688123E+03  0.7818608E-02  0.1020263E+00
         -4   -1    0    0    0  501 -0.00000000000E+00  0.00000000000E+00  0.38438204660E+03  0.38438204660E+03  0.00000000000E+00 0. -1.
         21   -1    0    0  501  502  0.00000000000E+00 -0.00000000000E+00 -0.12392115378E+04  0.12392115378E+04  0.00000000000E+00 0. -1.
   -9000010    2    1    2    0  502 -0.22243741452E+02 -0.51847151199E+02 -0.10451370479E+04  0.14250995331E+04  0.96716819591E+03 0.  0.
         13    1    3    3    0    0 -0.23687391351E+03 -0.44046689799E+03 -0.39235500514E+03  0.63565934301E+03  0.10566000000E+00 0. -1.
         -4    1    3    3    0  502  0.21463017206E+03  0.38861974679E+03 -0.65278204279E+03  0.78944019010E+03  0.00000000000E+00 0. -1.
        -13    1    1    2    0    0  0.22243741452E+02  0.51847151199E+02  0.19030755668E+03  0.19849405133E+03  0.10566000000E+00 0.  1.
<mgrwt>
<rscale>  1 0.47591893E+03</rscale>
<asrwt>0</asrwt>
<pdfrwt beam="2">  1       21 0.19064793E+00 0.96881228E+03</pdfrwt>
<pdfrwt beam="1">  1       -4 0.59135701E-01 0.96881228E+03</pdfrwt>
<totfact> 0.14518059E+01</totfact>
</mgrwt>
</event>
<event>
 6    2  0.2379986E-005  0.1025840E+04  0.7818608E-02  0.1024848E+00
         -4   -1    0    0    0  501 -0.00000000000E+00  0.00000000000E+00  0.66203111495E+03  0.66203111495E+03  0.00000000000E+00 0. -1.
         21   -1    0    0  501  502  0.00000000000E+00 -0.00000000000E+00 -0.49113489647E+03  0.49113489647E+03  0.00000000000E+00 0. -1.
   -9000010    2    1    2    0  502  0.40176446475E+02  0.99579764379E+01  0.51872898604E+02  0.10271506553E+04  0.10250045672E+04 0.  0.
         13    1    3    3    0    0  0.24933194272E+03  0.45660109316E+03 -0.52999991003E+02  0.52293401701E+03  0.10566000000E+00 0. -1.
         -4    1    3    3    0  502 -0.20915549625E+03 -0.44664311672E+03  0.10487288961E+03  0.50421663826E+03  0.00000000000E+00 0. -1.
        -13    1    1    2    0    0 -0.40176446475E+02 -0.99579764379E+01  0.11902331988E+03  0.12601535615E+03  0.10566000000E+00 0.  1.
<mgrwt>
<rscale>  1 0.45976881E+03</rscale>
<asrwt>0</asrwt>
<pdfrwt beam="2">  1       21 0.75559215E-01 0.10258400E+04</pdfrwt>
<pdfrwt beam="1">  1       -4 0.10185094E+00 0.10258400E+04</pdfrwt>
<totfact> 0.47520860E+01</totfact>
</mgrwt>
</event>
<event>
 6    2  0.2379986E-005  0.1223602E+04  0.7818608E-02  0.9230113E-01
         21   -1    0    0  501  502  0.00000000000E+00  0.00000000000E+00  0.19817357806E+04  0.19817357806E+04  0.00000000000E+00 0.  1.
         -4   -1    0    0    0  501 -0.00000000000E+00 -0.00000000000E+00 -0.48117015231E+03  0.48117015231E+03  0.00000000000E+00 0. -1.
   -9000010    2    1    2    0  502 -0.14690016634E+03  0.71345408605E+03  0.97811174774E+03  0.15664939405E+04  0.98316035451E+03 0.  0.
         13    1    3    3    0    0 -0.46425409001E+03  0.15632110491E+03  0.72969024890E+03  0.87887201482E+03  0.10566000000E+00 0. -1.
         -4    1    3    3    0  502  0.31735392367E+03  0.55713298114E+03  0.24842149884E+03  0.68762192564E+03  0.00000000000E+00 0. -1.
        -13    1    1    2    0    0  0.14690016634E+03 -0.71345408605E+03  0.52245388059E+03  0.89641199249E+03  0.10566000000E+00 0.  1.
<mgrwt>
<rscale>  1 0.10747948E+04</rscale>
<asrwt>0</asrwt>
<pdfrwt beam="1">  1       21 0.30488242E+00 0.12236015E+04</pdfrwt>
<pdfrwt beam="2">  1       -4 0.74026178E-01 0.12236015E+04</pdfrwt>
<totfact> 0.15471957E+00</totfact>
</mgrwt>
</event>
<event>
 6    2  0.2379986E-005  0.1067971E+04  0.7818608E-02  0.9924657E-01
         21   -1    0    0  501  502  0.00000000000E+00  0.00000000000E+00  0.15043444631E+04  0.15043444631E+04  0.00000000000E+00 0. -1.
         -4   -1    0    0    0  501 -0.00000000000E+00 -0.00000000000E+00 -0.25757158590E+03  0.25757158590E+03  0.00000000000E+00 0. -1.
   -9000010    2    1    2    0  502  0.89688232530E+02 -0.44286677982E+02  0.12698711480E+04  0.16592572443E+04  0.10632763429E+04 0.  0.
         13    1    3    3    0    0 -0.15348764090E+03  0.24985383700E+03 -0.39059920404E+02  0.29582272448E+03  0.10566000000E+00 0. -1.
         -4    1    3    3    0  502  0.24317587343E+03 -0.29414051498E+03  0.13089310684E+04  0.13634345198E+04  0.00000000000E+00 0. -1.
        -13    1    1    2    0    0 -0.89688232530E+02  0.44286677982E+02 -0.23098270825E+02  0.10265880469E+03  0.10566000000E+00 0.  1.
<mgrwt>
<rscale>  1 0.59081067E+03</rscale>
<asrwt>0</asrwt>
<pdfrwt beam="1">  1       21 0.23143760E+00 0.10679709E+04</pdfrwt>
<pdfrwt beam="2">  1       -4 0.39626399E-01 0.10679709E+04</pdfrwt>
<totfact> 0.17658683E+01</totfact>
</mgrwt>
</event>
<event>
 6    2  0.2379986E-005  0.9698094E+03  0.7818608E-02  0.9678206E-01
         -4   -1    0    0    0  501 -0.00000000000E+00  0.00000000000E+00  0.11047894946E+04  0.11047894946E+04  0.00000000000E+00 0. -1.
         21   -1    0    0  501  502  0.00000000000E+00 -0.00000000000E+00 -0.37842245944E+03  0.37842245944E+03  0.00000000000E+00 0. -1.
   -9000010    2    1    2    0  502 -0.22719727205E+03 -0.19599450384E+03  0.66780954055E+03  0.11774973202E+04  0.92222443621E+03 0.  0.
         13    1    3    3    0    0  0.26312324118E+03 -0.35569772336E+03  0.21810248869E+03  0.49327823506E+03  0.10566000000E+00 0. -1.
         -4    1    3    3    0  502 -0.49032051323E+03  0.15970321951E+03  0.44970705185E+03  0.68421908517E+03  0.00000000000E+00 0. -1.
        -13    1    1    2    0    0  0.22719727205E+03  0.19599450384E+03  0.58557494560E+02  0.30571463376E+03  0.10566000000E+00 0.  1.
<mgrwt>
<rscale>  1 0.72329381E+03</rscale>
<asrwt>0</asrwt>
<pdfrwt beam="2">  1       21 0.58218840E-01 0.96980944E+03</pdfrwt>
<pdfrwt beam="1">  1       -4 0.16996761E+00 0.96980944E+03</pdfrwt>
<totfact> 0.22886798E+01</totfact>
</mgrwt>
</event>
<event>
 6    2  0.2379986E-005  0.9931538E+03  0.7818608E-02  0.1002716E+00
         21   -1    0    0  501  502  0.00000000000E+00  0.00000000000E+00  0.71985118070E+03  0.71985118070E+03  0.00000000000E+00 0. -1.
         -4   -1    0    0    0  501 -0.00000000000E+00 -0.00000000000E+00 -0.55235645841E+03  0.55235645841E+03  0.00000000000E+00 0. -1.
   -9000010    2    1    2    0  502 -0.22149796198E+02  0.87125377985E+02  0.36268919646E+03  0.10573068739E+04  0.98907680566E+03 0.  0.
         13    1    3    3    0    0  0.19618695370E+03  0.49121376731E+03  0.14162918141E+03  0.54757567714E+03  0.10566000000E+00 0. -1.
         -4    1    3    3    0  502 -0.21833674989E+03 -0.40408838933E+03  0.22106001505E+03  0.50973119681E+03  0.00000000000E+00 0. -1.
        -13    1    1    2    0    0  0.22149796198E+02 -0.87125377985E+02 -0.19519447417E+03  0.21490076517E+03  0.10566000000E+00 0.  1.
<mgrwt>
<rscale>  1 0.54475167E+03</rscale>
<asrwt>0</asrwt>
<pdfrwt beam="1">  1       21 0.11074634E+00 0.99315375E+03</pdfrwt>
<pdfrwt beam="2">  1       -4 0.84977917E-01 0.99315375E+03</pdfrwt>
<totfact> 0.28937344E+01</totfact>
</mgrwt>
</event>
<event>
 6    2  0.2379986E-005  0.9940114E+03  0.7818608E-02  0.1018177E+00
         21   -1    0    0  501  502  0.00000000000E+00  0.00000000000E+00  0.81470607810E+03  0.81470607810E+03  0.00000000000E+00 0. -1.
         -4   -1    0    0    0  501 -0.00000000000E+00 -0.00000000000E+00 -0.33842769927E+03  0.33842769927E+03  0.00000000000E+00 0. -1.
   -9000010    2    1    2    0  502 -0.55643359454E+02  0.60163200825E-01  0.44263831744E+03  0.10881118429E+04  0.99245277745E+03 0.  0.
         13    1    3    3    0    0  0.25352477599E+03  0.36178163613E+03  0.42335972971E+03  0.61187763170E+03  0.10566000000E+00 0. -1.
         -4    1    3    3    0  502 -0.30916813544E+03 -0.36172147293E+03  0.19278587729E+02  0.47623421117E+03  0.00000000000E+00 0. -1.
        -13    1    1    2    0    0  0.55643359454E+02 -0.60163200825E-01  0.33640061387E+02  0.65021934492E+02  0.10566000000E+00 0.  1.
<mgrwt>
<rscale>  1 0.48350078E+03</rscale>
<asrwt>0</asrwt>
<pdfrwt beam="1">  1       21 0.12533940E+00 0.99401142E+03</pdfrwt>
<pdfrwt beam="2">  1       -4 0.52065800E-01 0.99401142E+03</pdfrwt>
<totfact> 0.62389928E+01</totfact>
</mgrwt>
</event>
<event>
 6    2  0.2379986E-005  0.1060167E+04  0.7818608E-02  0.9620116E-01
         -4   -1    0    0    0  501 -0.00000000000E+00  0.00000000000E+00  0.13746465672E+04  0.13746465672E+04  0.00000000000E+00 0. -1.
         21   -1    0    0  501  502  0.00000000000E+00 -0.00000000000E+00 -0.32650721323E+03  0.32650721323E+03  0.00000000000E+00 0. -1.
   -9000010    2    1    2    0  502  0.10621682784E+03  0.25871777790E+03  0.83581374534E+03  0.13500140955E+04  0.10226126041E+04 0.  0.
         13    1    3    3    0    0  0.44527830535E+03 -0.19091413265E+03  0.49050243983E+03  0.68942993110E+03  0.10566000000E+00 0. -1.
         -4    1    3    3    0  502 -0.33906147751E+03  0.44963191055E+03  0.34531130551E+03  0.66058416438E+03  0.00000000000E+00 0. -1.
        -13    1    1    2    0    0 -0.10621682784E+03 -0.25871777790E+03  0.21232560866E+03  0.35113968499E+03  0.10566000000E+00 0.  1.
<mgrwt>
<rscale>  1 0.75978945E+03</rscale>
<asrwt>0</asrwt>
<pdfrwt beam="2">  1       21 0.50231880E-01 0.10601667E+04</pdfrwt>
<pdfrwt beam="1">  1       -4 0.21148408E+00 0.10601667E+04</pdfrwt>
<totfact> 0.16366426E+01</totfact>
</mgrwt>
</event>
<event>
 6    2  0.2379986E-005  0.1137317E+04  0.7818608E-02  0.9349454E-01
         -4   -1    0    0    0  501 -0.00000000000E+00  0.00000000000E+00  0.98457339632E+03  0.98457339632E+03  0.00000000000E+00 0. -1.
         21   -1    0    0  501  502  0.00000000000E+00 -0.00000000000E+00 -0.82841295318E+03  0.82841295318E+03  0.00000000000E+00 0. -1.
   -9000010    2    1    2    0  502  0.12208527274E+03  0.57307356195E+03 -0.15784328935E+03  0.11482183626E+04  0.97476806625E+03 0.  0.
         13    1    3    3    0    0 -0.17600173367E+03  0.39886237901E+03 -0.49914843992E+03  0.66273447464E+03  0.10566000000E+00 0. -1.
         -4    1    3    3    0  502  0.29808700642E+03  0.17421118294E+03  0.34130515057E+03  0.48548388795E+03  0.00000000000E+00 0. -1.
        -13    1    1    2    0    0 -0.12208527274E+03 -0.57307356195E+03  0.31400373249E+03  0.66476798690E+03  0.10566000000E+00 0.  1.
<mgrwt>
<rscale>  1 0.96354801E+03</rscale>
<asrwt>0</asrwt>
<pdfrwt beam="2">  1       21 0.12744815E+00 0.11373174E+04</pdfrwt>
<pdfrwt beam="1">  1       -4 0.15147283E+00 0.11373174E+04</pdfrwt>
<totfact> 0.46864958E+00</totfact>
</mgrwt>
</event>
<event>
 6    2  0.2379986E-005  0.1154403E+04  0.7818608E-02  0.9503350E-01
         21   -1    0    0  501  502  0.00000000000E+00  0.00000000000E+00  0.10137073210E+04  0.10137073210E+04  0.00000000000E+00 0.  1.
         -4   -1    0    0    0  501 -0.00000000000E+00 -0.00000000000E+00 -0.54095017517E+03  0.54095017517E+03  0.00000000000E+00 0. -1.
   -9000010    2    1    2    0  502  0.27859767734E+03 -0.16580170900E+03  0.40551772184E+03  0.12235562672E+04  0.11079433396E+04 0.  0.
         13    1    3    3    0    0  0.38990510705E+03  0.38564058821E+03  0.34137555182E+02  0.54946341063E+03  0.10566000000E+00 0. -1.
         -4    1    3    3    0  502 -0.11130742971E+03 -0.55144229721E+03  0.37138016665E+03  0.67409285655E+03  0.00000000000E+00 0. -1.
        -13    1    1    2    0    0 -0.27859767734E+03  0.16580170900E+03  0.67239423955E+02  0.33110122897E+03  0.10566000000E+00 0.  1.
<mgrwt>
<rscale>  1 0.84037256E+03</rscale>
<asrwt>0</asrwt>
<pdfrwt beam="1">  1       21 0.15595497E+00 0.11544026E+04</pdfrwt>
<pdfrwt beam="2">  1       -4 0.83223104E-01 0.11544026E+04</pdfrwt>
<totfact> 0.11958970E+01</totfact>
</mgrwt>
</event>
<event>
 6    2  0.2379986E-005  0.9430527E+03  0.7818608E-02  0.1023878E+00
         -4   -1    0    0    0  501 -0.00000000000E+00  0.00000000000E+00  0.42380450609E+03  0.42380450609E+03  0.00000000000E+00 0. -1.
         21   -1    0    0  501  502  0.00000000000E+00 -0.00000000000E+00 -0.96831579204E+03  0.96831579204E+03  0.00000000000E+00 0. -1.
   -9000010    2    1    2    0  502 -0.48498940771E+02  0.25624646047E+02 -0.73388493981E+03  0.11949625905E+04  0.94145616895E+03 0.  0.
         13    1    3    3    0    0 -0.22255894471E+03  0.10951308318E+03  0.15022281643E+03  0.28998707729E+03  0.10566000000E+00 0. -1.
         -4    1    3    3    0  502  0.17406000394E+03 -0.83888437131E+02 -0.88410775624E+03  0.90497551320E+03  0.00000000000E+00 0. -1.
        -13    1    1    2    0    0  0.48498940771E+02 -0.25624646047E+02  0.18937365386E+03  0.19715770764E+03  0.10566000000E+00 0.  1.
<mgrwt>
<rscale>  1 0.46312776E+03</rscale>
<asrwt>0</asrwt>
<pdfrwt beam="2">  1       21 0.14897166E+00 0.94305275E+03</pdfrwt>
<pdfrwt beam="1">  1       -4 0.65200693E-01 0.94305275E+03</pdfrwt>
<totfact> 0.24168358E+01</totfact>
</mgrwt>
</event>
<event>
 6    2  0.2379986E-005  0.1017105E+04  0.7818608E-02  0.9813878E-01
         -4   -1    0    0    0  501 -0.00000000000E+00  0.00000000000E+00  0.44530829112E+03  0.44530829112E+03  0.00000000000E+00 0. -1.
         21   -1    0    0  501  502  0.00000000000E+00 -0.00000000000E+00 -0.90458585867E+03  0.90458585867E+03  0.00000000000E+00 0. -1.
   -9000010    2    1    2    0  502  0.61889488964E+02  0.15376133225E+03 -0.55481071717E+03  0.11585843226E+04  0.10035087665E+04 0.  0.
         13    1    3    3    0    0 -0.29096267119E+03 -0.16587342992E+03 -0.59290567976E+03  0.68096286759E+03  0.10566000000E+00 0. -1.
         -4    1    3    3    0  502  0.35285216015E+03  0.31963476217E+03  0.38094962587E+02  0.47762145501E+03  0.00000000000E+00 0. -1.
        -13    1    1    2    0    0 -0.61889488964E+02 -0.15376133225E+03  0.95533149623E+02  0.19130982719E+03  0.10566000000E+00 0.  1.
<mgrwt>
<rscale>  1 0.64623036E+03</rscale>
<asrwt>0</asrwt>
<pdfrwt beam="2">  1       21 0.13916705E+00 0.10171051E+04</pdfrwt>
<pdfrwt beam="1">  1       -4 0.68508968E-01 0.10171051E+04</pdfrwt>
<totfact> 0.25905379E+01</totfact>
</mgrwt>
</event>
<event>
 6    2  0.2379986E-005  0.1041425E+04  0.7818608E-02  0.9691733E-01
         -4   -1    0    0    0  501 -0.00000000000E+00  0.00000000000E+00  0.40360396741E+03  0.40360396741E+03  0.00000000000E+00 0. -1.
         21   -1    0    0  501  502  0.00000000000E+00 -0.00000000000E+00 -0.14034045301E+04  0.14034045301E+04  0.00000000000E+00 0. -1.
   -9000010    2    1    2    0  502 -0.16911309500E+03 -0.15813826984E+03 -0.11337948401E+04  0.15394988176E+04  0.10153614720E+04 0.  0.
         13    1    3    3    0    0 -0.21608437463E+03 -0.24898995302E+03 -0.13017530191E+04  0.13428512157E+04  0.10566000000E+00 0. -1.
         -4    1    3    3    0  502  0.46971279628E+02  0.90851683181E+02  0.16795817900E+03  0.19664760192E+03  0.00000000000E+00 0. -1.
        -13    1    1    2    0    0  0.16911309500E+03  0.15813826984E+03  0.13399427739E+03  0.26750967988E+03  0.10566000000E+00 0.  1.
<mgrwt>
<rscale>  1 0.71511127E+03</rscale>
<asrwt>0</asrwt>
<pdfrwt beam="2">  1       21 0.21590839E+00 0.10414249E+04</pdfrwt>
<pdfrwt beam="1">  1       -4 0.62092918E-01 0.10414249E+04</pdfrwt>
<totfact> 0.86846167E+00</totfact>
</mgrwt>
</event>
<event>
 6    2  0.2379986E-005  0.1049788E+04  0.7818608E-02  0.9599854E-01
         21   -1    0    0  501  502  0.00000000000E+00  0.00000000000E+00  0.18405378587E+04  0.18405378587E+04  0.00000000000E+00 0. -1.
         -4   -1    0    0    0  501 -0.00000000000E+00 -0.00000000000E+00 -0.28399142019E+03  0.28399142019E+03  0.00000000000E+00 0. -1.
   -9000010    2    1    2    0  502  0.23472745709E+03 -0.20050515118E+03  0.14654481364E+04  0.18026625260E+04  0.10033716398E+04 0.  0.
         13    1    3    3    0    0 -0.31857159602E+03 -0.48669765387E+02  0.10388661532E+04  0.10877037755E+04  0.10566000000E+00 0. -1.
         -4    1    3    3    0  502  0.55329905311E+03 -0.15183538579E+03  0.42658198322E+03  0.71495875053E+03  0.00000000000E+00 0. -1.
        -13    1    1    2    0    0 -0.23472745709E+03  0.20050515118E+03  0.91098302053E+02  0.32186675280E+03  0.10566000000E+00 0.  1.
<mgrwt>
<rscale>  1 0.77305837E+03</rscale>
<asrwt>0</asrwt>
<pdfrwt beam="1">  1       21 0.28315966E+00 0.10497876E+04</pdfrwt>
<pdfrwt beam="2">  1       -4 0.43690989E-01 0.10497876E+04</pdfrwt>
<totfact> 0.68057802E+00</totfact>
</mgrwt>
</event>
<event>
 6    2  0.2379986E-005  0.1067047E+04  0.7818608E-02  0.9543388E-01
         21   -1    0    0  501  502  0.00000000000E+00  0.00000000000E+00  0.74949654622E+03  0.74949654622E+03  0.00000000000E+00 0. -1.
         -4   -1    0    0    0  501 -0.00000000000E+00 -0.00000000000E+00 -0.10537630190E+04  0.10537630190E+04  0.00000000000E+00 0. -1.
   -9000010    2    1    2    0  502  0.29405254210E+03 -0.20263336286E+03  0.29374112034E+03  0.11067394508E+04  0.10055153847E+04 0.  0.
         13    1    3    3    0    0 -0.80068639500E+02  0.31805460336E+03  0.32907745229E+03  0.46460918902E+03  0.10566000000E+00 0. -1.
         -4    1    3    3    0  502  0.37412118160E+03 -0.52068796622E+03 -0.35336331956E+02  0.64213026174E+03  0.00000000000E+00 0. -1.
        -13    1    1    2    0    0 -0.29405254210E+03  0.20263336286E+03 -0.59800759316E+03  0.69652011450E+03  0.10566000000E+00 0.  1.
<mgrwt>
<rscale>  1 0.81159222E+03</rscale>
<asrwt>0</asrwt>
<pdfrwt beam="1">  1       21 0.11530716E+00 0.10670466E+04</pdfrwt>
<pdfrwt beam="2">  1       -4 0.16211739E+00 0.10670466E+04</pdfrwt>
<totfact> 0.50960497E+00</totfact>
</mgrwt>
</event>
<event>
 6    2  0.2379986E-005  0.1034725E+04  0.7818608E-02  0.9683670E-01
         -4   -1    0    0    0  501 -0.00000000000E+00  0.00000000000E+00  0.10399594737E+04  0.10399594737E+04  0.00000000000E+00 0. -1.
         21   -1    0    0  501  502  0.00000000000E+00 -0.00000000000E+00 -0.39757978270E+03  0.39757978270E+03  0.00000000000E+00 0. -1.
   -9000010    2    1    2    0  502 -0.23927415214E+03  0.39703191750E+02  0.45172711475E+03  0.11290317535E+04  0.10058960438E+04 0.  0.
         13    1    3    3    0    0  0.27483004006E+03 -0.97103208824E+02 -0.14837430628E+03  0.32707113906E+03  0.10566000000E+00 0. -1.
         -4    1    3    3    0  502 -0.51410419220E+03  0.13680640057E+03  0.60010142102E+03  0.80196061448E+03  0.00000000000E+00 0. -1.
        -13    1    1    2    0    0  0.23927415214E+03 -0.39703191750E+02  0.19065257625E+03  0.30850750285E+03  0.10566000000E+00 0.  1.
<mgrwt>
<rscale>  1 0.71997444E+03</rscale>
<asrwt>0</asrwt>
<pdfrwt beam="2">  1       21 0.61166121E-01 0.10347248E+04</pdfrwt>
<pdfrwt beam="1">  1       -4 0.15999376E+00 0.10347248E+04</pdfrwt>
<totfact> 0.24112395E+01</totfact>
</mgrwt>
</event>
<event>
 6    2  0.2379986E-005  0.1012652E+04  0.7818608E-02  0.9785269E-01
         -4   -1    0    0    0  501 -0.00000000000E+00  0.00000000000E+00  0.10886152593E+04  0.10886152593E+04  0.00000000000E+00 0. -1.
         21   -1    0    0  501  502  0.00000000000E+00 -0.00000000000E+00 -0.40340810701E+03  0.40340810701E+03  0.00000000000E+00 0. -1.
   -9000010    2    1    2    0  502 -0.17348420994E+03 -0.62774119339E+02  0.28602855571E+03  0.10522723864E+04  0.99570451411E+03 0.  0.
         13    1    3    3    0    0 -0.17796202328E+03 -0.40985236074E+03  0.47906652129E+03  0.65509860504E+03  0.10566000000E+00 0. -1.
         -4    1    3    3    0  502  0.44778133467E+01  0.34707824141E+03 -0.19303796559E+03  0.39717378140E+03  0.00000000000E+00 0. -1.
        -13    1    1    2    0    0  0.17348420994E+03  0.62774119339E+02  0.39917859658E+03  0.43975097986E+03  0.10566000000E+00 0.  1.
<mgrwt>
<rscale>  1 0.66159131E+03</rscale>
<asrwt>0</asrwt>
<pdfrwt beam="2">  1       21 0.62062786E-01 0.10126524E+04</pdfrwt>
<pdfrwt beam="1">  1       -4 0.16747927E+00 0.10126524E+04</pdfrwt>
<totfact> 0.20597429E+01</totfact>
</mgrwt>
</event>
<event>
 6    2  0.2379986E-005  0.1027230E+04  0.7818608E-02  0.9694988E-01
         21   -1    0    0  501  502  0.00000000000E+00  0.00000000000E+00  0.82309272543E+03  0.82309272543E+03  0.00000000000E+00 0. -1.
         -4   -1    0    0    0  501 -0.00000000000E+00 -0.00000000000E+00 -0.53685561829E+03  0.53685561829E+03  0.00000000000E+00 0. -1.
   -9000010    2    1    2    0  502  0.16115484465E+02 -0.23809525932E+03  0.56636408759E+02  0.10287904460E+04  0.99912613703E+03 0.  0.
         13    1    3    3    0    0  0.20090579334E+03 -0.40650683385E+03  0.39958323997E+03  0.60438209817E+03  0.10566000000E+00 0. -1.
         -4    1    3    3    0  502 -0.18479030887E+03  0.16841157453E+03 -0.34294683121E+03  0.42440834785E+03  0.00000000000E+00 0. -1.
        -13    1    1    2    0    0 -0.16115484465E+02  0.23809525932E+03  0.22960069838E+03  0.33115789770E+03  0.10566000000E+00 0.  1.
<mgrwt>
<rscale>  1 0.71315963E+03</rscale>
<asrwt>0</asrwt>
<pdfrwt beam="1">  1       21 0.12662965E+00 0.10272303E+04</pdfrwt>
<pdfrwt beam="2">  1       -4 0.82593172E-01 0.10272303E+04</pdfrwt>
<totfact> 0.21785758E+01</totfact>
</mgrwt>
</event>
<event>
 6    2  0.2379986E-005  0.1016854E+04  0.7818608E-02  0.9629793E-01
         21   -1    0    0  501  502  0.00000000000E+00  0.00000000000E+00  0.86989493854E+03  0.86989493854E+03  0.00000000000E+00 0. -1.
         -4   -1    0    0    0  501 -0.00000000000E+00 -0.00000000000E+00 -0.82372244791E+03  0.82372244791E+03  0.00000000000E+00 0. -1.
   -9000010    2    1    2    0  502  0.26286836259E+03  0.15795626390E+03  0.50999296978E+03  0.11375783542E+04  0.96950591815E+03 0.  0.
         13    1    3    3    0    0  0.32771992216E+03 -0.26192009012E+03 -0.63031210706E+02  0.42423510661E+03  0.10566000000E+00 0. -1.
         -4    1    3    3    0  502 -0.64851559567E+02  0.41987635402E+03  0.57302418049E+03  0.71334324758E+03  0.00000000000E+00 0. -1.
        -13    1    1    2    0    0 -0.26286836259E+03 -0.15795626390E+03 -0.46382047915E+03  0.55603903226E+03  0.10566000000E+00 0.  1.
<mgrwt>
<rscale>  1 0.75355286E+03</rscale>
<asrwt>0</asrwt>
<pdfrwt beam="1">  1       21 0.13382999E+00 0.10168538E+04</pdfrwt>
<pdfrwt beam="2">  1       -4 0.12672653E+00 0.10168538E+04</pdfrwt>
<totfact> 0.66654826E+00</totfact>
</mgrwt>
</event>
<event>
 6    2  0.2379986E-005  0.1004808E+04  0.7818608E-02  0.9805414E-01
         21   -1    0    0  501  502  0.00000000000E+00  0.00000000000E+00  0.46805166988E+03  0.46805166988E+03  0.00000000000E+00 0. -1.
         -4   -1    0    0    0  501 -0.00000000000E+00 -0.00000000000E+00 -0.82636231464E+03  0.82636231464E+03  0.00000000000E+00 0. -1.
   -9000010    2    1    2    0  502 -0.11570497410E+03  0.13360907351E+03 -0.14155219418E+03  0.10147297651E+04  0.98914126739E+03 0.  0.
         13    1    3    3    0    0  0.39483085216E+02  0.40901566649E+03 -0.42426071428E+03  0.59063516175E+03  0.10566000000E+00 0. -1.
         -4    1    3    3    0  502 -0.15518805932E+03 -0.27540659298E+03  0.28270852010E+03  0.42409460330E+03  0.00000000000E+00 0. -1.
        -13    1    1    2    0    0  0.11570497410E+03 -0.13360907351E+03 -0.21675845058E+03  0.27968421947E+03  0.10566000000E+00 0.  1.
<mgrwt>
<rscale>  1 0.65072812E+03</rscale>
<asrwt>0</asrwt>
<pdfrwt beam="1">  1       21 0.72007949E-01 0.10048082E+04</pdfrwt>
<pdfrwt beam="2">  1       -4 0.12713266E+00 0.10048082E+04</pdfrwt>
<totfact> 0.30672541E+01</totfact>
</mgrwt>
</event>
<event>
 6    2  0.2379986E-005  0.1045011E+04  0.7818608E-02  0.9582997E-01
         -4   -1    0    0    0  501 -0.00000000000E+00  0.00000000000E+00  0.49662058094E+03  0.49662058094E+03  0.00000000000E+00 0. -1.
         21   -1    0    0  501  502  0.00000000000E+00 -0.00000000000E+00 -0.95454164217E+03  0.95454164217E+03  0.00000000000E+00 0.  1.
   -9000010    2    1    2    0  502 -0.18015851233E+03 -0.27838335635E+03 -0.36275392069E+03  0.11061822549E+04  0.99100675651E+03 0.  0.
         13    1    3    3    0    0 -0.59304770350E+03 -0.18577753196E+03 -0.23079601436E+03  0.66293716250E+03  0.10566000000E+00 0. -1.
         -4    1    3    3    0  502  0.41288919118E+03 -0.92605824396E+02 -0.13195790632E+03  0.44324509241E+03  0.00000000000E+00 0. -1.
        -13    1    1    2    0    0  0.18015851233E+03  0.27838335635E+03 -0.95167140547E+02  0.34497996820E+03  0.10566000000E+00 0.  1.
<mgrwt>
<rscale>  1 0.78431828E+03</rscale>
<asrwt>0</asrwt>
<pdfrwt beam="2">  1       21 0.14685256E+00 0.10450114E+04</pdfrwt>
<pdfrwt beam="1">  1       -4 0.76403167E-01 0.10450114E+04</pdfrwt>
<totfact> 0.17426024E+01</totfact>
</mgrwt>
</event>
<event>
 6    2  0.2379986E-005  0.1012947E+04  0.7818608E-02  0.9874354E-01
         21   -1    0    0  501  502  0.00000000000E+00  0.00000000000E+00  0.30205188469E+03  0.30205188469E+03  0.00000000000E+00 0. -1.
         -4   -1    0    0    0  501 -0.00000000000E+00 -0.00000000000E+00 -0.13225948080E+04  0.13225948080E+04  0.00000000000E+00 0. -1.
   -9000010    2    1    2    0  502 -0.60111284564E+02  0.12402220735E+03 -0.58925199795E+03  0.11718699840E+04  0.10035270140E+04 0.  0.
         13    1    3    3    0    0 -0.22863786836E+03  0.52259837403E+03 -0.25380745750E+03  0.62434171095E+03  0.10566000000E+00 0. -1.
         -4    1    3    3    0  502  0.16852658379E+03 -0.39857616668E+03 -0.33544454046E+03  0.54752827307E+03  0.00000000000E+00 0. -1.
        -13    1    1    2    0    0  0.60111284564E+02 -0.12402220735E+03 -0.43129092532E+03  0.45277670863E+03  0.10566000000E+00 0.  1.
<mgrwt>
<rscale>  1 0.61520461E+03</rscale>
<asrwt>0</asrwt>
<pdfrwt beam="1">  1       21 0.46469521E-01 0.10129469E+04</pdfrwt>
<pdfrwt beam="2">  1       -4 0.20347612E+00 0.10129469E+04</pdfrwt>
<totfact> 0.21929368E+01</totfact>
</mgrwt>
</event>
<event>
 6    2  0.2379986E-005  0.1078413E+04  0.7818608E-02  0.9790354E-01
         21   -1    0    0  501  502  0.00000000000E+00  0.00000000000E+00  0.26394137904E+04  0.26394137904E+04  0.00000000000E+00 0. -1.
         -4   -1    0    0    0  501 -0.00000000000E+00 -0.00000000000E+00 -0.16904326843E+03  0.16904326843E+03  0.00000000000E+00 0. -1.
   -9000010    2    1    2    0  502 -0.60738150654E+02  0.13739525615E+03  0.24210114380E+04  0.26503339748E+04  0.10678985044E+04 0.  0.
         13    1    3    3    0    0  0.25965735814E+03 -0.11238944857E+03  0.21345895251E+04  0.21532593396E+04  0.10566000000E+00 0. -1.
         -4    1    3    3    0  502 -0.32039550880E+03  0.24978470472E+03  0.28642191287E+03  0.49707463518E+03  0.00000000000E+00 0. -1.
        -13    1    1    2    0    0  0.60738150654E+02 -0.13739525615E+03  0.49359083955E+02  0.15812308399E+03  0.10566000000E+00 0.  1.
<mgrwt>
<rscale>  1 0.65882788E+03</rscale>
<asrwt>0</asrwt>
<pdfrwt beam="1">  1       21 0.40606363E+00 0.10784126E+04</pdfrwt>
<pdfrwt beam="2">  1       -4 0.26006659E-01 0.10784126E+04</pdfrwt>
<totfact> 0.31575168E+00</totfact>
</mgrwt>
</event>
<event>
 6    2  0.2379986E-005  0.1080337E+04  0.7818608E-02  0.9511319E-01
         -4   -1    0    0    0  501 -0.00000000000E+00  0.00000000000E+00  0.45922871077E+03  0.45922871077E+03  0.00000000000E+00 0. -1.
         21   -1    0    0  501  502  0.00000000000E+00 -0.00000000000E+00 -0.11733447412E+04  0.11733447412E+04  0.00000000000E+00 0. -1.
   -9000010    2    1    2    0  502  0.37684009902E+03  0.77354791916E+02 -0.57236078508E+03  0.12225895684E+04  0.10095227389E+04 0.  0.
         13    1    3    3    0    0 -0.19301088426E+03  0.34345219010E+03 -0.41923143981E+03  0.57529785295E+03  0.10566000000E+00 0. -1.
         -4    1    3    3    0  502  0.56985098328E+03 -0.26609739818E+03 -0.15312934527E+03  0.64729171542E+03  0.00000000000E+00 0. -1.
        -13    1    1    2    0    0 -0.37684009902E+03 -0.77354791916E+02 -0.14175524536E+03  0.40998388360E+03  0.10566000000E+00 0.  1.
<mgrwt>
<rscale>  1 0.83454422E+03</rscale>
<asrwt>0</asrwt>
<pdfrwt beam="2">  1       21 0.18051457E+00 0.10803372E+04</pdfrwt>
<pdfrwt beam="1">  1       -4 0.70650572E-01 0.10803372E+04</pdfrwt>
<totfact> 0.11419944E+01</totfact>
</mgrwt>
</event>
<event>
 6    2  0.2379986E-005  0.1124747E+04  0.7818608E-02  0.9404563E-01
         21   -1    0    0  501  502  0.00000000000E+00  0.00000000000E+00  0.10407177912E+04  0.10407177912E+04  0.00000000000E+00 0. -1.
         -4   -1    0    0    0  501 -0.00000000000E+00 -0.00000000000E+00 -0.63927361371E+03  0.63927361371E+03  0.00000000000E+00 0. -1.
   -9000010    2    1    2    0  502 -0.38144905690E+03 -0.31856021162E+03  0.19351709692E+03  0.11412728574E+04  0.10089949835E+04 0.  0.
         13    1    3    3    0    0 -0.40038334327E+03 -0.60164807682E+03  0.36512246933E+03  0.80969232347E+03  0.10566000000E+00 0. -1.
         -4    1    3    3    0  502  0.18934286374E+02  0.28308786520E+03 -0.17160537241E+03  0.33158053390E+03  0.00000000000E+00 0. -1.
        -13    1    1    2    0    0  0.38144905690E+03  0.31856021162E+03  0.20792708054E+03  0.53871854751E+03  0.10566000000E+00 0.  1.
<mgrwt>
<rscale>  1 0.91701126E+03</rscale>
<asrwt>0</asrwt>
<pdfrwt beam="1">  1       21 0.16011043E+00 0.11247466E+04</pdfrwt>
<pdfrwt beam="2">  1       -4 0.98349787E-01 0.11247466E+04</pdfrwt>
<totfact> 0.75020290E+00</totfact>
</mgrwt>
</event>
<event>
 6    2  0.2379986E-005  0.1119816E+04  0.7818608E-02  0.9386874E-01
         21   -1    0    0  501  502  0.00000000000E+00  0.00000000000E+00  0.40237941043E+03  0.40237941043E+03  0.00000000000E+00 0.  1.
         -4   -1    0    0    0  501 -0.00000000000E+00 -0.00000000000E+00 -0.17158557678E+04  0.17158557678E+04  0.00000000000E+00 0. -1.
   -9000010    2    1    2    0  502  0.18959038305E+03  0.50185662414E+03 -0.80554437141E+03  0.13794527352E+04  0.98294635150E+03 0.  0.
         13    1    3    3    0    0  0.19711225283E+03  0.79700436171E+03 -0.54279205340E+03  0.98422173173E+03  0.10566000000E+00 0. -1.
         -4    1    3    3    0  502 -0.75218697866E+01 -0.29514773757E+03 -0.26275231801E+03  0.39523100351E+03  0.00000000000E+00 0. -1.
        -13    1    1    2    0    0 -0.18959038305E+03 -0.50185662414E+03 -0.50793198598E+03  0.73878244300E+03  0.10566000000E+00 0.  1.
<mgrwt>
<rscale>  1 0.93163812E+03</rscale>
<asrwt>0</asrwt>
<pdfrwt beam="1">  1       21 0.61904523E-01 0.11198161E+04</pdfrwt>
<pdfrwt beam="2">  1       -4 0.26397782E+00 0.11198161E+04</pdfrwt>
<totfact> 0.47987712E+00</totfact>
</mgrwt>
</event>
<event>
 6    2  0.2379986E-005  0.1017082E+04  0.7818608E-02  0.9930072E-01
         -4   -1    0    0    0  501 -0.00000000000E+00  0.00000000000E+00  0.36633921074E+03  0.36633921074E+03  0.00000000000E+00 0. -1.
         21   -1    0    0  501  502  0.00000000000E+00 -0.00000000000E+00 -0.89490836695E+03  0.89490836695E+03  0.00000000000E+00 0. -1.
   -9000010    2    1    2    0  502 -0.69358451042E+02  0.90240853265E+02 -0.53111138006E+03  0.11474034720E+04  0.10106935358E+04 0.  0.
         13    1    3    3    0    0 -0.26149068672E+03 -0.66691935787E+02 -0.76208033636E+03  0.80845014922E+03  0.10566000000E+00 0. -1.
         -4    1    3    3    0  502  0.19213223568E+03  0.15693278905E+03  0.23096895630E+03  0.33895332281E+03  0.00000000000E+00 0. -1.
        -13    1    1    2    0    0  0.69358451042E+02 -0.90240853265E+02  0.25422238415E+01  0.11384410567E+03  0.10566000000E+00 0.  1.
<mgrwt>
<rscale>  1 0.58825751E+03</rscale>
<asrwt>0</asrwt>
<pdfrwt beam="2">  1       21 0.13767821E+00 0.10170818E+04</pdfrwt>
<pdfrwt beam="1">  1       -4 0.56359879E-01 0.10170818E+04</pdfrwt>
<totfact> 0.40921173E+01</totfact>
</mgrwt>
</event>
<event>
 6    2  0.2379986E-005  0.1058175E+04  0.7818608E-02  0.9520670E-01
         -4   -1    0    0    0  501 -0.00000000000E+00  0.00000000000E+00  0.24319758202E+04  0.24319758202E+04  0.00000000000E+00 0. -1.
         21   -1    0    0  501  502  0.00000000000E+00 -0.00000000000E+00 -0.28950890934E+03  0.28950890934E+03  0.00000000000E+00 0. -1.
   -9000010    2    1    2    0  502 -0.93480534164E+02  0.38506099332E+03  0.81359029009E+03  0.13347894987E+04  0.98118462425E+03 0.  0.
         13    1    3    3    0    0 -0.40262041235E+03  0.56730983792E+03  0.48330550698E+03  0.84707016999E+03  0.10566000000E+00 0. -1.
         -4    1    3    3    0  502  0.30913987819E+03 -0.18224884461E+03  0.33028478311E+03  0.48771932871E+03  0.00000000000E+00 0. -1.
        -13    1    1    2    0    0  0.93480534164E+02 -0.38506099332E+03  0.13288766207E+04  0.13866952308E+04  0.10566000000E+00 0.  1.
<mgrwt>
<rscale>  1 0.82776902E+03</rscale>
<asrwt>0</asrwt>
<pdfrwt beam="2">  1       21 0.44539834E-01 0.10581748E+04</pdfrwt>
<pdfrwt beam="1">  1       -4 0.37415011E+00 0.10581748E+04</pdfrwt>
<totfact> 0.19918348E+00</totfact>
</mgrwt>
</event>
<event>
 6    2  0.2379986E-005  0.9883716E+03  0.7818608E-02  0.1003150E+00
         21   -1    0    0  501  502  0.00000000000E+00  0.00000000000E+00  0.57504789503E+03  0.57504789503E+03  0.00000000000E+00 0. -1.
         -4   -1    0    0    0  501 -0.00000000000E+00 -0.00000000000E+00 -0.56002509673E+03  0.56002509673E+03  0.00000000000E+00 0. -1.
   -9000010    2    1    2    0  502  0.20698968442E+01 -0.89951570159E+02  0.12134099252E+03  0.99579219971E+03  0.98426769687E+03 0.  0.
         13    1    3    3    0    0 -0.63022901653E+02 -0.26576034957E+03  0.50198843479E+03  0.57148302631E+03  0.10566000000E+00 0. -1.
         -4    1    3    3    0  502  0.65092798497E+02  0.17580877941E+03 -0.38064744226E+03  0.42430917340E+03  0.00000000000E+00 0. -1.
        -13    1    1    2    0    0 -0.20698968442E+01  0.89951570159E+02 -0.10631819423E+03  0.13928079205E+03  0.10566000000E+00 0.  1.
<mgrwt>
<rscale>  1 0.54290170E+03</rscale>
<asrwt>0</asrwt>
<pdfrwt beam="1">  1       21 0.88468907E-01 0.98837162E+03</pdfrwt>
<pdfrwt beam="2">  1       -4 0.86157707E-01 0.98837162E+03</pdfrwt>
<totfact> 0.48843348E+01</totfact>
</mgrwt>
</event>
<event>
 6    2  0.2379986E-005  0.1021724E+04  0.7818608E-02  0.9635393E-01
         21   -1    0    0  501  502  0.00000000000E+00  0.00000000000E+00  0.26302016007E+03  0.26302016007E+03  0.00000000000E+00 0. -1.
         -4   -1    0    0    0  501 -0.00000000000E+00 -0.00000000000E+00 -0.17175333716E+04  0.17175333716E+04  0.00000000000E+00 0. -1.
   -9000010    2    1    2    0  502  0.21279382494E+03  0.20662587885E+03 -0.12749243762E+04  0.16338149750E+04  0.97772375531E+03 0.  0.
         13    1    3    3    0    0  0.12211940154E+03 -0.31041867314E+03 -0.97222254251E+03  0.10278567917E+04  0.10566000000E+00 0. -1.
         -4    1    3    3    0  502  0.90674423396E+02  0.51704455199E+03 -0.30270183373E+03  0.60595818333E+03  0.00000000000E+00 0. -1.
        -13    1    1    2    0    0 -0.21279382494E+03 -0.20662587885E+03 -0.17958883528E+03  0.34673855664E+03  0.10566000000E+00 0.  1.
<mgrwt>
<rscale>  1 0.74997250E+03</rscale>
<asrwt>0</asrwt>
<pdfrwt beam="1">  1       21 0.40464640E-01 0.10217236E+04</pdfrwt>
<pdfrwt beam="2">  1       -4 0.26423590E+00 0.10217236E+04</pdfrwt>
<totfact> 0.12160131E+01</totfact>
</mgrwt>
</event>
<event>
 6    2  0.2379986E-005  0.1035199E+04  0.7818608E-02  0.9613120E-01
         -4   -1    0    0    0  501 -0.00000000000E+00  0.00000000000E+00  0.48542470316E+03  0.48542470316E+03  0.00000000000E+00 0. -1.
         21   -1    0    0  501  502  0.00000000000E+00 -0.00000000000E+00 -0.13863051893E+04  0.13863051893E+04  0.00000000000E+00 0. -1.
   -9000010    2    1    2    0  502 -0.30320854756E+03 -0.52148429492E+02 -0.10958534494E+04  0.15074918526E+04  0.98842400878E+03 0.  0.
         13    1    3    3    0    0 -0.49245633319E+03 -0.41832789011E+02 -0.11953074275E+04  0.12934539341E+04  0.10566000000E+00 0. -1.
         -4    1    3    3    0  502  0.18924778563E+03 -0.10315640481E+02  0.99453978065E+02  0.21403791851E+03  0.00000000000E+00 0. -1.
        -13    1    1    2    0    0  0.30320854756E+03  0.52148429492E+02  0.19497296335E+03  0.36423803976E+03  0.10566000000E+00 0.  1.
<mgrwt>
<rscale>  1 0.76433854E+03</rscale>
<asrwt>0</asrwt>
<pdfrwt beam="2">  1       21 0.21327772E+00 0.10351990E+04</pdfrwt>
<pdfrwt beam="1">  1       -4 0.74680723E-01 0.10351990E+04</pdfrwt>
<totfact> 0.59975344E+00</totfact>
</mgrwt>
</event>
<event>
 6    2  0.2379986E-005  0.1037822E+04  0.7818608E-02  0.9943715E-01
         -4   -1    0    0    0  501 -0.00000000000E+00  0.00000000000E+00  0.42965195608E+03  0.42965195608E+03  0.00000000000E+00 0. -1.
         21   -1    0    0  501  502  0.00000000000E+00 -0.00000000000E+00 -0.78249121520E+03  0.78249121520E+03  0.00000000000E+00 0. -1.
   -9000010    2    1    2    0  502 -0.62128159244E+02  0.81602229840E+02 -0.38138912135E+03  0.11056822024E+04  0.10327422906E+04 0.  0.
         13    1    3    3    0    0  0.21968380528E+03 -0.31224903765E+03  0.12814308591E+03  0.40271714323E+03  0.10566000000E+00 0. -1.
         -4    1    3    3    0  502 -0.28181196453E+03  0.39385126749E+03 -0.50953220726E+03  0.70296505922E+03  0.00000000000E+00 0. -1.
        -13    1    1    2    0    0  0.62128159244E+02 -0.81602229840E+02  0.28549862235E+02  0.10646096883E+03  0.10566000000E+00 0.  1.
<mgrwt>
<rscale>  1 0.58188652E+03</rscale>
<asrwt>0</asrwt>
<pdfrwt beam="2">  1       21 0.12038326E+00 0.10378225E+04</pdfrwt>
<pdfrwt beam="1">  1       -4 0.66100301E-01 0.10378225E+04</pdfrwt>
<totfact> 0.41156549E+01</totfact>
</mgrwt>
</event>
<event>
 6    2  0.2379986E-005  0.1042236E+04  0.7818608E-02  0.9655065E-01
         21   -1    0    0  501  502  0.00000000000E+00  0.00000000000E+00  0.95789777378E+03  0.95789777378E+03  0.00000000000E+00 0. -1.
         -4   -1    0    0    0  501 -0.00000000000E+00 -0.00000000000E+00 -0.48521183779E+03  0.48521183779E+03  0.00000000000E+00 0. -1.
   -9000010    2    1    2    0  502  0.60720232022E+02 -0.25424692761E+03  0.53909999546E+03  0.11734073957E+04  0.10089240132E+04 0.  0.
         13    1    3    3    0    0  0.11401855123E+03 -0.24248507094E+03  0.83271374910E+03  0.87476364737E+03  0.10566000000E+00 0. -1.
         -4    1    3    3    0  502 -0.53298319206E+02 -0.11761856679E+02 -0.29361375364E+03  0.29864374835E+03  0.00000000000E+00 0. -1.
        -13    1    1    2    0    0 -0.60720232022E+02  0.25424692761E+03 -0.66414059470E+02  0.26970221586E+03  0.10566000000E+00 0.  1.
<mgrwt>
<rscale>  1 0.73756413E+03</rscale>
<asrwt>0</asrwt>
<pdfrwt beam="1">  1       21 0.14736889E+00 0.10422361E+04</pdfrwt>
<pdfrwt beam="2">  1       -4 0.74647975E-01 0.10422361E+04</pdfrwt>
<totfact> 0.18199060E+01</totfact>
</mgrwt>
</event>
<event>
 6    2  0.2379986E-005  0.1021475E+04  0.7818608E-02  0.9791272E-01
         21   -1    0    0  501  502  0.00000000000E+00  0.00000000000E+00  0.22653981963E+03  0.22653981963E+03  0.00000000000E+00 0. -1.
         -4   -1    0    0    0  501 -0.00000000000E+00 -0.00000000000E+00 -0.18235485159E+04  0.18235485159E+04  0.00000000000E+00 0. -1.
   -9000010    2    1    2    0  502  0.12321714272E+03 -0.12600137533E+03 -0.10072486863E+04  0.14345595455E+04  0.10061572256E+04 0.  0.
         13    1    3    3    0    0  0.45044947837E+03 -0.25279218383E+02 -0.99437304891E+03  0.10919347705E+04  0.10566000000E+00 0. -1.
         -4    1    3    3    0  502 -0.32723233565E+03 -0.10072215695E+03 -0.12875637379E+02  0.34262477498E+03  0.00000000000E+00 0. -1.
        -13    1    1    2    0    0 -0.12321714272E+03  0.12600137533E+03 -0.58976000997E+03  0.61552879004E+03  0.10566000000E+00 0.  1.
<mgrwt>
<rscale>  1 0.65833043E+03</rscale>
<asrwt>0</asrwt>
<pdfrwt beam="1">  1       21 0.34852279E-01 0.10214750E+04</pdfrwt>
<pdfrwt beam="2">  1       -4 0.28054593E+00 0.10214750E+04</pdfrwt>
<totfact> 0.13156789E+01</totfact>
</mgrwt>
</event>
<event>
 6    2  0.2379986E-005  0.1008647E+04  0.7818608E-02  0.9900704E-01
         -4   -1    0    0    0  501 -0.00000000000E+00  0.00000000000E+00  0.15730475233E+04  0.15730475233E+04  0.00000000000E+00 0. -1.
         21   -1    0    0  501  502  0.00000000000E+00 -0.00000000000E+00 -0.29147680799E+03  0.29147680799E+03  0.00000000000E+00 0. -1.
   -9000010    2    1    2    0  502  0.26849858087E+02 -0.12537596054E+03  0.60556984689E+03  0.11764711127E+04  0.10004645887E+04 0.  0.
         13    1    3    3    0    0 -0.47624309268E+03  0.28933447542E+02  0.34827350747E+03  0.59071065242E+03  0.10566000000E+00 0. -1.
         -4    1    3    3    0  502  0.50309295077E+03 -0.15430940808E+03  0.25729633942E+03  0.58576046027E+03  0.00000000000E+00 0. -1.
        -13    1    1    2    0    0 -0.26849858087E+02  0.12537596054E+03  0.67600086842E+03  0.68805321860E+03  0.10566000000E+00 0.  1.
<mgrwt>
<rscale>  1 0.60227166E+03</rscale>
<asrwt>0</asrwt>
<pdfrwt beam="2">  1       21 0.44842587E-01 0.10086473E+04</pdfrwt>
<pdfrwt beam="1">  1       -4 0.24200731E+00 0.10086473E+04</pdfrwt>
<totfact> 0.13452919E+01</totfact>
</mgrwt>
</event>
<event>
 6    2  0.2379986E-005  0.1032717E+04  0.7818608E-02  0.9747502E-01
         -4   -1    0    0    0  501 -0.00000000000E+00  0.00000000000E+00  0.22107170088E+03  0.22107170088E+03  0.00000000000E+00 0. -1.
         21   -1    0    0  501  502  0.00000000000E+00 -0.00000000000E+00 -0.17221157900E+04  0.17221157900E+04  0.00000000000E+00 0. -1.
   -9000010    2    1    2    0  502 -0.19475935486E+03  0.30207231552E+02 -0.13161456221E+04  0.16729447530E+04  0.10137362402E+04 0.  0.
         13    1    3    3    0    0 -0.47178427278E+03  0.26539780110E+03 -0.11547307667E+04  0.12753115493E+04  0.10566000000E+00 0. -1.
         -4    1    3    3    0  502  0.27702491792E+03 -0.23519056955E+03 -0.16141485541E+03  0.39763320372E+03  0.00000000000E+00 0. -1.
        -13    1    1    2    0    0  0.19475935486E+03 -0.30207231552E+02 -0.18489846702E+03  0.27024273795E+03  0.10566000000E+00 0.  1.
<mgrwt>
<rscale>  1 0.68257618E+03</rscale>
<asrwt>0</asrwt>
<pdfrwt beam="2">  1       21 0.26494088E+00 0.10327172E+04</pdfrwt>
<pdfrwt beam="1">  1       -4 0.34011032E-01 0.10327172E+04</pdfrwt>
<totfact> 0.14751256E+01</totfact>
</mgrwt>
</event>
<event>
 6    2  0.2379986E-005  0.1057396E+04  0.7818608E-02  0.9730584E-01
         21   -1    0    0  501  502  0.00000000000E+00  0.00000000000E+00  0.93199390022E+03  0.93199390022E+03  0.00000000000E+00 0. -1.
         -4   -1    0    0    0  501 -0.00000000000E+00 -0.00000000000E+00 -0.50664208706E+03  0.50664208706E+03  0.00000000000E+00 0. -1.
   -9000010    2    1    2    0  502 -0.17267849485E+03  0.88937080173E+02  0.56550224619E+03  0.11991160051E+04  0.10394030674E+04 0.  0.
         13    1    3    3    0    0 -0.19630321781E+03  0.31771323902E+03 -0.18313193767E+03  0.41594948411E+03  0.10566000000E+00 0. -1.
         -4    1    3    3    0  502  0.23624722968E+02 -0.22877615885E+03  0.74863418386E+03  0.78316652101E+03  0.00000000000E+00 0. -1.
        -13    1    1    2    0    0  0.17267849485E+03 -0.88937080173E+02 -0.14015043302E+03  0.23951998216E+03  0.10566000000E+00 0.  1.
<mgrwt>
<rscale>  1 0.69224651E+03</rscale>
<asrwt>0</asrwt>
<pdfrwt beam="1">  1       21 0.14338368E+00 0.10573960E+04</pdfrwt>
<pdfrwt beam="2">  1       -4 0.77944937E-01 0.10573960E+04</pdfrwt>
<totfact> 0.17762102E+01</totfact>
</mgrwt>
</event>
<event>
 6    2  0.2379986E-005  0.9848843E+03  0.7818608E-02  0.9907828E-01
         21   -1    0    0  501  502  0.00000000000E+00  0.00000000000E+00  0.28725028388E+03  0.28725028388E+03  0.00000000000E+00 0. -1.
         -4   -1    0    0    0  501 -0.00000000000E+00 -0.00000000000E+00 -0.11066410981E+04  0.11066410981E+04  0.00000000000E+00 0. -1.
   -9000010    2    1    2    0  502 -0.13460171764E+03  0.12569958455E+01 -0.66152426534E+03  0.11864279856E+04  0.97564225456E+03 0.  0.
         13    1    3    3    0    0  0.28343393178E+03 -0.46175363944E+02 -0.70715768299E+03  0.76324239773E+03  0.10566000000E+00 0. -1.
         -4    1    3    3    0  502 -0.41803564943E+03  0.47432359790E+02  0.45633417650E+02  0.42318558784E+03  0.00000000000E+00 0. -1.
        -13    1    1    2    0    0  0.13460171764E+03 -0.12569958455E+01 -0.15786654885E+03  0.20746339639E+03  0.10566000000E+00 0.  1.
<mgrwt>
<rscale>  1 0.59883382E+03</rscale>
<asrwt>0</asrwt>
<pdfrwt beam="1">  1       21 0.44192351E-01 0.98488426E+03</pdfrwt>
<pdfrwt beam="2">  1       -4 0.17025248E+00 0.98488426E+03</pdfrwt>
<totfact> 0.41338709E+01</totfact>
</mgrwt>
</event>
<event>
 6    2  0.2379986E-005  0.1044685E+04  0.7818608E-02  0.9572694E-01
         -4   -1    0    0    0  501 -0.00000000000E+00  0.00000000000E+00  0.59308873815E+03  0.59308873815E+03  0.00000000000E+00 0. -1.
         21   -1    0    0  501  502  0.00000000000E+00 -0.00000000000E+00 -0.83082285538E+03  0.83082285538E+03  0.00000000000E+00 0. -1.
   -9000010    2    1    2    0  502  0.31692427071E+03  0.13347212165E+03 -0.26855071854E+03  0.10786501351E+04  0.98646379802E+03 0.  0.
         13    1    3    3    0    0  0.43996122098E+03 -0.64104969272E+02  0.25013127837E+03  0.51013820738E+03  0.10566000000E+00 0. -1.
         -4    1    3    3    0  502 -0.12303695026E+03  0.19757709092E+03 -0.51868199691E+03  0.56851192767E+03  0.00000000000E+00 0. -1.
        -13    1    1    2    0    0 -0.31692427071E+03 -0.13347212165E+03  0.30816601305E+02  0.34526145847E+03  0.10566000000E+00 0.  1.
<mgrwt>
<rscale>  1 0.79130118E+03</rscale>
<asrwt>0</asrwt>
<pdfrwt beam="2">  1       21 0.12781890E+00 0.10446849E+04</pdfrwt>
<pdfrwt beam="1">  1       -4 0.91244422E-01 0.10446849E+04</pdfrwt>
<totfact> 0.16810546E+01</totfact>
</mgrwt>
</event>
<event>
 6    2  0.2379986E-005  0.1026597E+04  0.7818608E-02  0.9700825E-01
         21   -1    0    0  501  502  0.00000000000E+00  0.00000000000E+00  0.36920904787E+03  0.36920904787E+03  0.00000000000E+00 0. -1.
         -4   -1    0    0    0  501 -0.00000000000E+00 -0.00000000000E+00 -0.13172546970E+04  0.13172546970E+04  0.00000000000E+00 0. -1.
   -9000010    2    1    2    0  502 -0.15693988458E+03  0.17416924408E+03 -0.42089263658E+03  0.11095275588E+04  0.99946772801E+03 0.  0.
         13    1    3    3    0    0  0.21241812485E+03  0.37512447833E+03  0.97560695117E+02  0.44199313841E+03  0.10566000000E+00 0. -1.
         -4    1    3    3    0  502 -0.36935800943E+03 -0.20095523425E+03 -0.51845333169E+03  0.66753442042E+03  0.00000000000E+00 0. -1.
        -13    1    1    2    0    0  0.15693988458E+03 -0.17416924408E+03 -0.52715301257E+03  0.57693618606E+03  0.10566000000E+00 0.  1.
<mgrwt>
<rscale>  1 0.70967702E+03</rscale>
<asrwt>0</asrwt>
<pdfrwt beam="1">  1       21 0.56801393E-01 0.10265967E+04</pdfrwt>
<pdfrwt beam="2">  1       -4 0.20265456E+00 0.10265967E+04</pdfrwt>
<totfact> 0.14334749E+01</totfact>
</mgrwt>
</event>
<event>
 6    2  0.2379986E-005  0.1008103E+04  0.7818608E-02  0.1003696E+00
         21   -1    0    0  501  502  0.00000000000E+00  0.00000000000E+00  0.70713892069E+03  0.70713892069E+03  0.00000000000E+00 0. -1.
         -4   -1    0    0    0  501 -0.00000000000E+00 -0.00000000000E+00 -0.50260261530E+03  0.50260261530E+03  0.00000000000E+00 0. -1.
   -9000010    2    1    2    0  502  0.67285744450E+00 -0.83357333328E+02  0.32857075339E+03  0.10602977231E+04  0.10046509960E+04 0.  0.
         13    1    3    3    0    0  0.45343729723E+03 -0.25918798744E+03  0.16247141370E+03  0.54697419207E+03  0.10566000000E+00 0. -1.
         -4    1    3    3    0  502 -0.45276443979E+03  0.17583065411E+03  0.16609933968E+03  0.51332353103E+03  0.00000000000E+00 0. -1.
        -13    1    1    2    0    0 -0.67285744450E+00  0.83357333328E+02 -0.12403444800E+03  0.14944381289E+03  0.10566000000E+00 0.  1.
<mgrwt>
<rscale>  1 0.54059048E+03</rscale>
<asrwt>0</asrwt>
<pdfrwt beam="1">  1       21 0.10879060E+00 0.10081034E+04</pdfrwt>
<pdfrwt beam="2">  1       -4 0.77323480E-01 0.10081034E+04</pdfrwt>
<totfact> 0.37573853E+01</totfact>
</mgrwt>
</event>
<event>
 6    2  0.2379986E-005  0.1078225E+04  0.7818608E-02  0.9508628E-01
         -4   -1    0    0    0  501 -0.00000000000E+00  0.00000000000E+00  0.44895842114E+03  0.44895842114E+03  0.00000000000E+00 0. -1.
         21   -1    0    0  501  502  0.00000000000E+00 -0.00000000000E+00 -0.12708548912E+04  0.12708548912E+04  0.00000000000E+00 0. -1.
   -9000010    2    1    2    0  502  0.31401150149E+03 -0.23232997832E+03 -0.77182280600E+03  0.13260013967E+04  0.10049819990E+04 0.  0.
         13    1    3    3    0    0  0.59667935875E+03 -0.42730808928E+03 -0.49993520996E+03  0.88800545362E+03  0.10566000000E+00 0. -1.
         -4    1    3    3    0  502 -0.28266785726E+03  0.19497811096E+03 -0.27188759604E+03  0.43799594309E+03  0.00000000000E+00 0. -1.
        -13    1    1    2    0    0 -0.31401150149E+03  0.23232997832E+03 -0.50073664044E+02  0.39381191563E+03  0.10566000000E+00 0.  1.
<mgrwt>
<rscale>  1 0.83650670E+03</rscale>
<asrwt>0</asrwt>
<pdfrwt beam="2">  1       21 0.19551614E+00 0.10782251E+04</pdfrwt>
<pdfrwt beam="1">  1       -4 0.69070527E-01 0.10782251E+04</pdfrwt>
<totfact> 0.94005472E+00</totfact>
</mgrwt>
</event>
<event>
 6    2  0.2379986E-005  0.1015402E+04  0.7818608E-02  0.1000514E+00
         21   -1    0    0  501  502  0.00000000000E+00  0.00000000000E+00  0.10001233079E+04  0.10001233079E+04  0.00000000000E+00 0. -1.
         -4   -1    0    0    0  501 -0.00000000000E+00 -0.00000000000E+00 -0.34110099945E+03  0.34110099945E+03  0.00000000000E+00 0. -1.
   -9000010    2    1    2    0  502  0.22115047470E+02  0.87387073595E+02  0.70873427362E+03  0.12382832242E+04  0.10113928499E+04 0.  0.
         13    1    3    3    0    0 -0.27567456070E+03 -0.36586128993E+03  0.21979468157E+03  0.50809512899E+03  0.10566000000E+00 0. -1.
         -4    1    3    3    0  502  0.29778960817E+03  0.45324836353E+03  0.48893959205E+03  0.73018809526E+03  0.00000000000E+00 0. -1.
        -13    1    1    2    0    0 -0.22115047470E+02 -0.87387073595E+02 -0.49711965138E+02  0.10294108314E+03  0.10566000000E+00 0.  1.
<mgrwt>
<rscale>  1 0.55425591E+03</rscale>
<asrwt>0</asrwt>
<pdfrwt beam="1">  1       21 0.15386512E+00 0.10154019E+04</pdfrwt>
<pdfrwt beam="2">  1       -4 0.52477077E-01 0.10154019E+04</pdfrwt>
<totfact> 0.35083226E+01</totfact>
</mgrwt>
</event>
<event>
 6    2  0.2379986E-005  0.1065919E+04  0.7818608E-02  0.1006933E+00
         21   -1    0    0  501  502  0.00000000000E+00  0.00000000000E+00  0.10609629995E+04  0.10609629995E+04  0.00000000000E+00 0. -1.
         -4   -1    0    0    0  501 -0.00000000000E+00 -0.00000000000E+00 -0.30775141968E+03  0.30775141968E+03  0.00000000000E+00 0. -1.
   -9000010    2    1    2    0  502 -0.63489815805E+02  0.57323686466E+01  0.75282904865E+03  0.13049651113E+04  0.10640105960E+04 0.  0.
         13    1    3    3    0    0  0.38094117053E+03 -0.22242462020E+03  0.66457982775E+03  0.79765609487E+03  0.10566000000E+00 0. -1.
         -4    1    3    3    0  502 -0.44443098634E+03  0.22815698885E+03  0.88249220908E+02  0.50730901645E+03  0.00000000000E+00 0. -1.
        -13    1    1    2    0    0  0.63489815805E+02 -0.57323686466E+01  0.38253118713E+00  0.63749307882E+02  0.10566000000E+00 0.  1.
<mgrwt>
<rscale>  1 0.52712053E+03</rscale>
<asrwt>0</asrwt>
<pdfrwt beam="1">  1       21 0.16322507E+00 0.10659186E+04</pdfrwt>
<pdfrwt beam="2">  1       -4 0.47346373E-01 0.10659186E+04</pdfrwt>
<totfact> 0.36651332E+01</totfact>
</mgrwt>
</event>
<event>
 6    2  0.2379986E-005  0.1011124E+04  0.7818608E-02  0.9925212E-01
         -4   -1    0    0    0  501 -0.00000000000E+00  0.00000000000E+00  0.41773283283E+03  0.41773283283E+03  0.00000000000E+00 0. -1.
         21   -1    0    0  501  502  0.00000000000E+00 -0.00000000000E+00 -0.77878358649E+03  0.77878358649E+03  0.00000000000E+00 0. -1.
   -9000010    2    1    2    0  502 -0.51385332830E+02  0.10583962265E+03 -0.37416505039E+03  0.10781336752E+04  0.10042560722E+04 0.  0.
         13    1    3    3    0    0  0.17130991257E+03 -0.55612590779E+01  0.30770407040E+03  0.35222126547E+03  0.10566000000E+00 0. -1.
         -4    1    3    3    0  502 -0.22269524540E+03  0.11140088173E+03 -0.68186912079E+03  0.72591240977E+03  0.00000000000E+00 0. -1.
        -13    1    1    2    0    0  0.51385332830E+02 -0.10583962265E+03  0.13114296727E+02  0.11838274408E+03  0.10566000000E+00 0.  1.
<mgrwt>
<rscale>  1 0.59054806E+03</rscale>
<asrwt>0</asrwt>
<pdfrwt beam="2">  1       21 0.11981286E+00 0.10111245E+04</pdfrwt>
<pdfrwt beam="1">  1       -4 0.64266590E-01 0.10111245E+04</pdfrwt>
<totfact> 0.44448521E+01</totfact>
</mgrwt>
</event>
<event>
 6    2  0.2379986E-005  0.1026339E+04  0.7818608E-02  0.9670712E-01
         -4   -1    0    0    0  501 -0.00000000000E+00  0.00000000000E+00  0.34084023772E+03  0.34084023772E+03  0.00000000000E+00 0. -1.
         21   -1    0    0  501  502  0.00000000000E+00 -0.00000000000E+00 -0.12404254157E+04  0.12404254157E+04  0.00000000000E+00 0. -1.
   -9000010    2    1    2    0  502  0.24636110529E+03  0.81945168258E+02 -0.80702774628E+03  0.13056287652E+04  0.99295714135E+03 0.  0.
         13    1    3    3    0    0 -0.30927274093E+03 -0.88610158473E+02 -0.13485216726E+02  0.32199883649E+03  0.10566000000E+00 0. -1.
         -4    1    3    3    0  502  0.55563384622E+03  0.17055532673E+03 -0.79354252955E+03  0.98362992876E+03  0.00000000000E+00 0. -1.
        -13    1    1    2    0    0 -0.24636110529E+03 -0.81945168258E+02 -0.92557431724E+02  0.27563688820E+03  0.10566000000E+00 0.  1.
<mgrwt>
<rscale>  1 0.72787677E+03</rscale>
<asrwt>0</asrwt>
<pdfrwt beam="2">  1       21 0.19083468E+00 0.10263395E+04</pdfrwt>
<pdfrwt beam="1">  1       -4 0.52436960E-01 0.10263395E+04</pdfrwt>
<totfact> 0.18607856E+01</totfact>
</mgrwt>
</event>
<event>
 6    2  0.2379986E-005  0.1040329E+04  0.7818608E-02  0.9562785E-01
         -4   -1    0    0    0  501 -0.00000000000E+00  0.00000000000E+00  0.31247858446E+03  0.31247858446E+03  0.00000000000E+00 0. -1.
         21   -1    0    0  501  502  0.00000000000E+00 -0.00000000000E+00 -0.15909491082E+04  0.15909491082E+04  0.00000000000E+00 0. -1.
   -9000010    2    1    2    0  502  0.26813379537E+03 -0.24070611695E+03 -0.10420433628E+04  0.14724601991E+04  0.97593519298E+03 0.  0.
         13    1    3    3    0    0 -0.25389440301E+03  0.18145410544E+03 -0.12556227719E+03  0.33638349674E+03  0.10566000000E+00 0. -1.
         -4    1    3    3    0  502  0.52202819837E+03 -0.42216022239E+03 -0.91648108564E+03  0.11360767023E+04  0.00000000000E+00 0. -1.
        -13    1    1    2    0    0 -0.26813379537E+03  0.24070611695E+03 -0.23642716095E+03  0.43096749361E+03  0.10566000000E+00 0.  1.
<mgrwt>
<rscale>  1 0.79809045E+03</rscale>
<asrwt>0</asrwt>
<pdfrwt beam="2">  1       21 0.24476141E+00 0.10403291E+04</pdfrwt>
<pdfrwt beam="1">  1       -4 0.48073627E-01 0.10403291E+04</pdfrwt>
<totfact> 0.97516996E+00</totfact>
</mgrwt>
</event>
<event>
 6    2  0.2379986E-005  0.1558421E+04  0.7818608E-02  0.8907091E-01
         21   -1    0    0  501  502  0.00000000000E+00  0.00000000000E+00  0.10292609394E+04  0.10292609394E+04  0.00000000000E+00 0.  1.
         -4   -1    0    0    0  501 -0.00000000000E+00 -0.00000000000E+00 -0.18960225501E+04  0.18960225501E+04  0.00000000000E+00 0. -1.
   -9000010    2    1    2    0  502  0.12084692945E+04  0.17975544455E+03 -0.34153511544E+03  0.15954064508E+04  0.96745307510E+03 0.  0.
         13    1    3    3    0    0  0.82531014702E+03 -0.26921413461E+03  0.77475744586E+02  0.87155928726E+03  0.10566000000E+00 0. -1.
         -4    1    3    3    0  502  0.38315914748E+03  0.44896957917E+03 -0.41901086003E+03  0.72384716352E+03  0.00000000000E+00 0. -1.
        -13    1    1    2    0    0 -0.12084692945E+04 -0.17975544455E+03 -0.52522649528E+03  0.13298770387E+04  0.10566000000E+00 0.  1.
<mgrwt>
<rscale>  1 0.14664271E+04</rscale>
<asrwt>0</asrwt>
<pdfrwt beam="1">  1       21 0.15834784E+00 0.15584208E+04</pdfrwt>
<pdfrwt beam="2">  1       -4 0.29169578E+00 0.15584208E+04</pdfrwt>
<totfact> 0.28938270E-01</totfact>
</mgrwt>
</event>
<event>
 6    2  0.2379986E-005  0.1027894E+04  0.7818608E-02  0.9657679E-01
         -4   -1    0    0    0  501 -0.00000000000E+00  0.00000000000E+00  0.63133113227E+03  0.63133113227E+03  0.00000000000E+00 0. -1.
         21   -1    0    0  501  502  0.00000000000E+00 -0.00000000000E+00 -0.92934039671E+03  0.92934039671E+03  0.00000000000E+00 0. -1.
   -9000010    2    1    2    0  502 -0.13010970547E+03  0.23668779088E+03 -0.57167250291E+03  0.11761702610E+04  0.99177486687E+03 0.  0.
         13    1    3    3    0    0  0.30813351608E+03  0.33148991143E+03 -0.56994921411E+03  0.72778701757E+03  0.10566000000E+00 0. -1.
         -4    1    3    3    0  502 -0.43824322155E+03 -0.94802120553E+02 -0.17232887914E+01  0.44838324346E+03  0.00000000000E+00 0. -1.
        -13    1    1    2    0    0  0.13010970547E+03 -0.23668779088E+03  0.27366323846E+03  0.38450126795E+03  0.10566000000E+00 0.  1.
<mgrwt>
<rscale>  1 0.73593474E+03</rscale>
<asrwt>0</asrwt>
<pdfrwt beam="2">  1       21 0.14297545E+00 0.10278945E+04</pdfrwt>
<pdfrwt beam="1">  1       -4 0.97127866E-01 0.10278945E+04</pdfrwt>
<totfact> 0.10735578E+01</totfact>
</mgrwt>
</event>
<event>
 6    2  0.2379986E-005  0.1271553E+04  0.7818608E-02  0.9182294E-01
         21   -1    0    0  501  502  0.00000000000E+00  0.00000000000E+00  0.68280413327E+03  0.68280413327E+03  0.00000000000E+00 0.  1.
         -4   -1    0    0    0  501 -0.00000000000E+00 -0.00000000000E+00 -0.15713729646E+04  0.15713729646E+04  0.00000000000E+00 0. -1.
   -9000010    2    1    2    0  502  0.82139879436E+02  0.77146183198E+03 -0.38229514115E+03  0.13277790309E+04  0.10074459102E+04 0.  0.
         13    1    3    3    0    0  0.45606378153E+02  0.36582785070E+03 -0.71331376545E+03  0.80294862676E+03  0.10566000000E+00 0. -1.
         -4    1    3    3    0  502  0.36533501282E+02  0.40563398127E+03  0.33101862429E+03  0.52483040414E+03  0.00000000000E+00 0. -1.
        -13    1    1    2    0    0 -0.82139879436E+02 -0.77146183198E+03 -0.50627369021E+03  0.92639806701E+03  0.10566000000E+00 0.  1.
<mgrwt>
<rscale>  1 0.11238063E+04</rscale>
<asrwt>0</asrwt>
<pdfrwt beam="1">  1       21 0.10504679E+00 0.12715532E+04</pdfrwt>
<pdfrwt beam="2">  1       -4 0.24174969E+00 0.12715532E+04</pdfrwt>
<totfact> 0.18466317E+00</totfact>
</mgrwt>
</event>
<event>
 6    2  0.2379986E-005  0.1040166E+04  0.7818608E-02  0.9534444E-01
         -4   -1    0    0    0  501 -0.00000000000E+00  0.00000000000E+00  0.18199500837E+04  0.18199500837E+04  0.00000000000E+00 0. -1.
         21   -1    0    0  501  502  0.00000000000E+00 -0.00000000000E+00 -0.33772304411E+03  0.33772304411E+03  0.00000000000E+00 0. -1.
   -9000010    2    1    2    0  502 -0.22158513923E+03  0.33021338368E+03  0.62703847404E+03  0.12145462294E+04  0.96114746149E+03 0.  0.
         13    1    3    3    0    0  0.18649660508E+02 -0.22850335136E+03 -0.11387787723E+03  0.25598783859E+03  0.10566000000E+00 0. -1.
         -4    1    3    3    0  502 -0.24023479974E+03  0.55871673504E+03  0.74091635126E+03  0.95855839081E+03  0.00000000000E+00 0. -1.
        -13    1    1    2    0    0  0.22158513923E+03 -0.33021338368E+03  0.85518856554E+03  0.94312689840E+03  0.10566000000E+00 0.  1.
<mgrwt>
<rscale>  1 0.81791374E+03</rscale>
<asrwt>0</asrwt>
<pdfrwt beam="2">  1       21 0.51957393E-01 0.10401660E+04</pdfrwt>
<pdfrwt beam="1">  1       -4 0.27999231E+00 0.10401660E+04</pdfrwt>
<totfact> 0.56876450E+00</totfact>
</mgrwt>
</event>
<event>
 6    2  0.2379986E-005  0.1058287E+04  0.7818608E-02  0.9644956E-01
         -4   -1    0    0    0  501 -0.00000000000E+00  0.00000000000E+00  0.15614065160E+04  0.15614065160E+04  0.00000000000E+00 0. -1.
         21   -1    0    0  501  502  0.00000000000E+00 -0.00000000000E+00 -0.29962377486E+03  0.29962377486E+03  0.00000000000E+00 0. -1.
   -9000010    2    1    2    0  502  0.20417008425E+03  0.15835911356E+03  0.78118947983E+03  0.13153812039E+04  0.10262590686E+04 0.  0.
         13    1    3    3    0    0 -0.50527192036E+01 -0.24156730919E+03 -0.14731518316E+03  0.28298775450E+03  0.10566000000E+00 0. -1.
         -4    1    3    3    0  502  0.20922280346E+03  0.39992642276E+03  0.92850466300E+03  0.10323934494E+04  0.00000000000E+00 0. -1.
        -13    1    1    2    0    0 -0.20417008425E+03 -0.15835911356E+03  0.48059326130E+03  0.54564908699E+03  0.10566000000E+00 0.  1.
<mgrwt>
<rscale>  1 0.74390849E+03</rscale>
<asrwt>0</asrwt>
<pdfrwt beam="2">  1       21 0.46095966E-01 0.10582867E+04</pdfrwt>
<pdfrwt beam="1">  1       -4 0.24021638E+00 0.10582867E+04</pdfrwt>
<totfact> 0.12942439E+01</totfact>
</mgrwt>
</event>
<event>
 6    2  0.2379986E-005  0.1043387E+04  0.7818608E-02  0.9617182E-01
         -4   -1    0    0    0  501 -0.00000000000E+00  0.00000000000E+00  0.76646269184E+03  0.76646269184E+03  0.00000000000E+00 0. -1.
         21   -1    0    0  501  502  0.00000000000E+00 -0.00000000000E+00 -0.63802140574E+03  0.63802140574E+03  0.00000000000E+00 0. -1.
   -9000010    2    1    2    0  502  0.29443672140E+03  0.33494733355E+02 -0.73357294147E+02  0.10459627478E+04  0.10004208600E+04 0.  0.
         13    1    3    3    0    0  0.34979374148E+03 -0.33118742830E+03  0.26121325659E+03  0.54797185222E+03  0.10566000000E+00 0. -1.
         -4    1    3    3    0  502 -0.55357020084E+02  0.36468216165E+03 -0.33457055074E+03  0.49799089562E+03  0.00000000000E+00 0. -1.
        -13    1    1    2    0    0 -0.29443672140E+03 -0.33494733355E+02  0.20179858025E+03  0.35852134975E+03  0.10566000000E+00 0.  1.
<mgrwt>
<rscale>  1 0.76169331E+03</rscale>
<asrwt>0</asrwt>
<pdfrwt beam="2">  1       21 0.98157140E-01 0.10433872E+04</pdfrwt>
<pdfrwt beam="1">  1       -4 0.11791734E+00 0.10433872E+04</pdfrwt>
<totfact> 0.17687876E+01</totfact>
</mgrwt>
</event>
<event>
 6    2  0.2379986E-005  0.9874043E+03  0.7818608E-02  0.9774888E-01
         -4   -1    0    0    0  501 -0.00000000000E+00  0.00000000000E+00  0.20461299393E+04  0.20461299393E+04  0.00000000000E+00 0. -1.
         21   -1    0    0  501  502  0.00000000000E+00 -0.00000000000E+00 -0.18596144899E+03  0.18596144899E+03  0.00000000000E+00 0. -1.
   -9000010    2    1    2    0  502 -0.45009223572E+02  0.20096195588E+03  0.12808997326E+04  0.16173037479E+04  0.96568926172E+03 0.  0.
         13    1    3    3    0    0  0.93200388141E+01  0.30189475827E+03 -0.28055839652E+02  0.30333883612E+03  0.10566000000E+00 0. -1.
         -4    1    3    3    0  502 -0.54329262386E+02 -0.10093280240E+03  0.13089555723E+04  0.13139649118E+04  0.00000000000E+00 0. -1.
        -13    1    1    2    0    0  0.45009223572E+02 -0.20096195588E+03  0.57926875767E+03  0.61478764033E+03  0.10566000000E+00 0.  1.
<mgrwt>
<rscale>  1 0.66727796E+03</rscale>
<asrwt>0</asrwt>
<pdfrwt beam="2">  1       21 0.28609455E-01 0.98740432E+03</pdfrwt>
<pdfrwt beam="1">  1       -4 0.31478921E+00 0.98740432E+03</pdfrwt>
<totfact> 0.12106924E+01</totfact>
</mgrwt>
</event>
<event>
 6    2  0.2379986E-005  0.1041520E+04  0.7818608E-02  0.9602844E-01
         -4   -1    0    0    0  501 -0.00000000000E+00  0.00000000000E+00  0.96259863196E+03  0.96259863196E+03  0.00000000000E+00 0. -1.
         21   -1    0    0  501  502  0.00000000000E+00 -0.00000000000E+00 -0.60558084397E+03  0.60558084397E+03  0.00000000000E+00 0. -1.
   -9000010    2    1    2    0  502 -0.21243553402E+03  0.22972798939E+03 -0.64160030796E+02  0.10434942642E+04  0.99340825677E+03 0.  0.
         13    1    3    3    0    0 -0.25340899343E+03  0.33723402517E+03 -0.46420203878E+03  0.62723715583E+03  0.10566000000E+00 0. -1.
         -4    1    3    3    0  502  0.40973459419E+02 -0.10750603577E+03  0.40004200799E+03  0.41625710836E+03  0.00000000000E+00 0. -1.
        -13    1    1    2    0    0  0.21243553402E+03 -0.22972798939E+03  0.42117781879E+03  0.52468521175E+03  0.10566000000E+00 0.  1.
<mgrwt>
<rscale>  1 0.77108214E+03</rscale>
<asrwt>0</asrwt>
<pdfrwt beam="2">  1       21 0.93166284E-01 0.10415199E+04</pdfrwt>
<pdfrwt beam="1">  1       -4 0.14809210E+00 0.10415199E+04</pdfrwt>
<totfact> 0.11147560E+01</totfact>
</mgrwt>
</event>
<event>
 6    2  0.2379986E-005  0.1008478E+04  0.7818608E-02  0.9951778E-01
         -4   -1    0    0    0  501 -0.00000000000E+00  0.00000000000E+00  0.15019719121E+04  0.15019719121E+04  0.00000000000E+00 0. -1.
         21   -1    0    0  501  502  0.00000000000E+00 -0.00000000000E+00 -0.21251516217E+03  0.21251516217E+03  0.00000000000E+00 0. -1.
   -9000010    2    1    2    0  502 -0.92181657498E+02 -0.58061054926E+02  0.10752865882E+04  0.14742009668E+04  0.10025760319E+04 0.  0.
         13    1    3    3    0    0  0.36146652257E+02 -0.66840330043E+01 -0.19397858026E+03  0.19743089305E+03  0.10566000000E+00 0. -1.
         -4    1    3    3    0  502 -0.12832830976E+03 -0.51377021922E+02  0.12692651684E+04  0.12767700738E+04  0.00000000000E+00 0. -1.
        -13    1    1    2    0    0  0.92181657498E+02  0.58061054926E+02  0.21417016180E+03  0.24028610748E+03  0.10566000000E+00 0.  1.
<mgrwt>
<rscale>  1 0.57816188E+03</rscale>
<asrwt>0</asrwt>
<pdfrwt beam="2">  1       21 0.32694641E-01 0.10084777E+04</pdfrwt>
<pdfrwt beam="1">  1       -4 0.23107259E+00 0.10084777E+04</pdfrwt>
<totfact> 0.30402065E+01</totfact>
</mgrwt>
</event>
<event>
 6    2  0.2379986E-005  0.1037919E+04  0.7818608E-02  0.9628611E-01
         21   -1    0    0  501  502  0.00000000000E+00  0.00000000000E+00  0.14595629342E+04  0.14595629342E+04  0.00000000000E+00 0. -1.
         -4   -1    0    0    0  501 -0.00000000000E+00 -0.00000000000E+00 -0.30187157784E+03  0.30187157784E+03  0.00000000000E+00 0. -1.
   -9000010    2    1    2    0  502 -0.23601867220E+03 -0.16772029475E+03  0.89648123055E+03  0.13714785506E+04  0.99671455646E+03 0.  0.
         13    1    3    3    0    0  0.11956891418E+03 -0.50944744265E+03  0.32233184929E+03  0.61459844963E+03  0.10566000000E+00 0. -1.
         -4    1    3    3    0  502 -0.35558758638E+03  0.34172714790E+03  0.57414938126E+03  0.75688010095E+03  0.00000000000E+00 0. -1.
        -13    1    1    2    0    0  0.23601867220E+03  0.16772029475E+03  0.26121012586E+03  0.38995596150E+03  0.10566000000E+00 0.  1.
<mgrwt>
<rscale>  1 0.75431130E+03</rscale>
<asrwt>0</asrwt>
<pdfrwt beam="1">  1       21 0.22454814E+00 0.10379185E+04</pdfrwt>
<pdfrwt beam="2">  1       -4 0.46441782E-01 0.10379185E+04</pdfrwt>
<totfact> 0.14175033E+01</totfact>
</mgrwt>
</event>
<event>
 6    2  0.2379986E-005  0.9940194E+03  0.7818608E-02  0.1005060E+00
         21   -1    0    0  501  502  0.00000000000E+00  0.00000000000E+00  0.40647496270E+03  0.40647496270E+03  0.00000000000E+00 0. -1.
         -4   -1    0    0    0  501 -0.00000000000E+00 -0.00000000000E+00 -0.71589017629E+03  0.71589017629E+03  0.00000000000E+00 0. -1.
   -9000010    2    1    2    0  502  0.50556951817E+02  0.66235328848E+02 -0.30111953881E+03  0.10386277307E+04  0.99052080348E+03 0.  0.
         13    1    3    3    0    0 -0.32043467743E+03 -0.31723783389E+03 -0.20972926822E+03  0.49729729826E+03  0.10566000000E+00 0. -1.
         -4    1    3    3    0  502  0.37099162925E+03  0.38347316273E+03 -0.91390270598E+02  0.54133043242E+03  0.00000000000E+00 0. -1.
        -13    1    1    2    0    0 -0.50556951817E+02 -0.66235328848E+02 -0.82956747793E+01  0.83737408299E+02  0.10566000000E+00 0.  1.
<mgrwt>
<rscale>  1 0.53486066E+03</rscale>
<asrwt>0</asrwt>
<pdfrwt beam="1">  1       21 0.62534610E-01 0.99401941E+03</pdfrwt>
<pdfrwt beam="2">  1       -4 0.11013695E+00 0.99401941E+03</pdfrwt>
<totfact> 0.60620193E+01</totfact>
</mgrwt>
</event>
<event>
 6    2  0.2379986E-005  0.9987500E+03  0.7818608E-02  0.9723602E-01
         -4   -1    0    0    0  501 -0.00000000000E+00  0.00000000000E+00  0.73100337343E+03  0.73100337343E+03  0.00000000000E+00 0. -1.
         21   -1    0    0  501  502  0.00000000000E+00 -0.00000000000E+00 -0.56279909418E+03  0.56279909418E+03  0.00000000000E+00 0. -1.
   -9000010    2    1    2    0  502 -0.22658773835E+03  0.65735091682E+02 -0.89097822773E+01  0.99878974348E+03  0.97048362274E+03 0.  0.
         13    1    3    3    0    0 -0.49529491672E+03  0.28835745575E+03  0.18162668723E+03  0.60121156135E+03  0.10566000000E+00 0. -1.
         -4    1    3    3    0  502  0.26870717837E+03 -0.22262236406E+03 -0.19053646951E+03  0.39757818213E+03  0.00000000000E+00 0. -1.
        -13    1    1    2    0    0  0.22658773835E+03 -0.65735091682E+02  0.17711406153E+03  0.29501272414E+03  0.10566000000E+00 0.  1.
<mgrwt>
<rscale>  1 0.69628740E+03</rscale>
<asrwt>0</asrwt>
<pdfrwt beam="2">  1       21 0.86584477E-01 0.99875000E+03</pdfrwt>
<pdfrwt beam="1">  1       -4 0.11246206E+00 0.99875000E+03</pdfrwt>
<totfact> 0.27095125E+01</totfact>
</mgrwt>
</event>
<event>
 6    2  0.2379986E-005  0.9234908E+03  0.7818608E-02  0.9922601E-01
         -4   -1    0    0    0  501 -0.00000000000E+00  0.00000000000E+00  0.21390478674E+04  0.21390478674E+04  0.00000000000E+00 0. -1.
         21   -1    0    0  501  502  0.00000000000E+00 -0.00000000000E+00 -0.18512165215E+03  0.18512165215E+03  0.00000000000E+00 0. -1.
   -9000010    2    1    2    0  502 -0.19007422287E+02  0.15455900914E+03  0.10143078838E+04  0.13717345405E+04  0.91026666259E+03 0.  0.
         13    1    3    3    0    0  0.14053626729E+03 -0.32280843242E+03  0.68521283351E+03  0.77037157583E+03  0.10566000000E+00 0. -1.
         -4    1    3    3    0  502 -0.15954368957E+03  0.47736744156E+03  0.32909505031E+03  0.60136296468E+03  0.00000000000E+00 0. -1.
        -13    1    1    2    0    0  0.19007422287E+02 -0.15455900914E+03  0.93961833144E+03  0.95243497907E+03  0.10566000000E+00 0.  1.
<mgrwt>
<rscale>  1 0.59178355E+03</rscale>
<asrwt>0</asrwt>
<pdfrwt beam="2">  1       21 0.28480256E-01 0.92349075E+03</pdfrwt>
<pdfrwt beam="1">  1       -4 0.32908427E+00 0.92349075E+03</pdfrwt>
<totfact> 0.10022837E+01</totfact>
</mgrwt>
</event>
<event>
 6    2  0.2379986E-005  0.1026422E+04  0.7818608E-02  0.9688959E-01
         -4   -1    0    0    0  501 -0.00000000000E+00  0.00000000000E+00  0.53091643856E+03  0.53091643856E+03  0.00000000000E+00 0. -1.
         21   -1    0    0  501  502  0.00000000000E+00 -0.00000000000E+00 -0.96561160503E+03  0.96561160503E+03  0.00000000000E+00 0. -1.
   -9000010    2    1    2    0  502 -0.23044392529E+03  0.80497319375E+02 -0.61182281778E+03  0.11949348786E+04  0.99697441425E+03 0.  0.
         13    1    3    3    0    0 -0.53436192101E+03 -0.20126057950E+03 -0.51590186646E+03  0.76954741924E+03  0.10566000000E+00 0. -1.
         -4    1    3    3    0  502  0.30391799571E+03  0.28175789887E+03 -0.95920951315E+02  0.42538745938E+03  0.00000000000E+00 0. -1.
        -13    1    1    2    0    0  0.23044392529E+03 -0.80497319375E+02  0.17712765131E+03  0.30159316496E+03  0.10566000000E+00 0.  1.
<mgrwt>
<rscale>  1 0.71678003E+03</rscale>
<asrwt>0</asrwt>
<pdfrwt beam="2">  1       21 0.14855563E+00 0.10264220E+04</pdfrwt>
<pdfrwt beam="1">  1       -4 0.81679453E-01 0.10264220E+04</pdfrwt>
<totfact> 0.14510505E+01</totfact>
</mgrwt>
</event>
<event>
 6    2  0.2379986E-005  0.1042667E+04  0.7818608E-02  0.9630295E-01
         -4   -1    0    0    0  501 -0.00000000000E+00  0.00000000000E+00  0.54788512399E+03  0.54788512399E+03  0.00000000000E+00 0. -1.
         21   -1    0    0  501  502  0.00000000000E+00 -0.00000000000E+00 -0.81261334784E+03  0.81261334784E+03  0.00000000000E+00 0. -1.
   -9000010    2    1    2    0  502  0.28330092520E+03 -0.19514707108E+02 -0.26780230802E+03  0.10765095651E+04  0.10032519770E+04 0.  0.
         13    1    3    3    0    0  0.51247116689E+03  0.33481913073E+03 -0.90567906416E+02  0.61881588864E+03  0.10566000000E+00 0. -1.
         -4    1    3    3    0  502 -0.22917024169E+03 -0.35433383784E+03 -0.17723440160E+03  0.45769367641E+03  0.00000000000E+00 0. -1.
        -13    1    1    2    0    0 -0.28330092520E+03  0.19514707108E+02  0.30740841653E+01  0.28398890677E+03  0.10566000000E+00 0.  1.
<mgrwt>
<rscale>  1 0.75323111E+03</rscale>
<asrwt>0</asrwt>
<pdfrwt beam="2">  1       21 0.12501744E+00 0.10426671E+04</pdfrwt>
<pdfrwt beam="1">  1       -4 0.84290019E-01 0.10426671E+04</pdfrwt>
<totfact> 0.21463916E+01</totfact>
</mgrwt>
</event>
<event>
 6    2  0.2379986E-005  0.1045948E+04  0.7818608E-02  0.9690458E-01
         21   -1    0    0  501  502  0.00000000000E+00  0.00000000000E+00  0.59728403023E+03  0.59728403023E+03  0.00000000000E+00 0. -1.
         -4   -1    0    0    0  501 -0.00000000000E+00 -0.00000000000E+00 -0.68289495556E+03  0.68289495556E+03  0.00000000000E+00 0. -1.
   -9000010    2    1    2    0  502  0.15936295885E+03  0.16517832373E+03 -0.43689826773E+02  0.10468598461E+04  0.10204539701E+04 0.  0.
         13    1    3    3    0    0 -0.49106914631E+02  0.57275623122E+03 -0.10691734156E+03  0.58471575877E+03  0.10566000000E+00 0. -1.
         -4    1    3    3    0  502  0.20846987348E+03 -0.40757790749E+03  0.63227514789E+02  0.46214408732E+03  0.00000000000E+00 0. -1.
        -13    1    1    2    0    0 -0.15936295885E+03 -0.16517832373E+03 -0.41921098554E+02  0.23331913970E+03  0.10566000000E+00 0.  1.
<mgrwt>
<rscale>  1 0.71587744E+03</rscale>
<asrwt>0</asrwt>
<pdfrwt beam="1">  1       21 0.91889851E-01 0.10459478E+04</pdfrwt>
<pdfrwt beam="2">  1       -4 0.10506076E+00 0.10459478E+04</pdfrwt>
<totfact> 0.27631920E+01</totfact>
</mgrwt>
</event>
<event>
 6    2  0.2379986E-005  0.1028946E+04  0.7818608E-02  0.9657081E-01
         -4   -1    0    0    0  501 -0.00000000000E+00  0.00000000000E+00  0.68231288026E+03  0.68231288026E+03  0.00000000000E+00 0. -1.
         21   -1    0    0  501  502  0.00000000000E+00 -0.00000000000E+00 -0.62490813825E+03  0.62490813825E+03  0.00000000000E+00 0. -1.
   -9000010    2    1    2    0  502 -0.26572553983E+03  0.46764609612E+02 -0.10492738062E+02  0.10289997573E+04  0.99294179675E+03 0.  0.
         13    1    3    3    0    0 -0.69283839614E+02  0.43296354323E+03  0.26803851051E+03  0.51390887760E+03  0.10566000000E+00 0. -1.
         -4    1    3    3    0  502 -0.19644170022E+03 -0.38619893362E+03 -0.27853124857E+03  0.51509087969E+03  0.00000000000E+00 0. -1.
        -13    1    1    2    0    0  0.26572553983E+03 -0.46764609612E+02  0.67897480067E+02  0.27822126122E+03  0.10566000000E+00 0.  1.
<mgrwt>
<rscale>  1 0.73630662E+03</rscale>
<asrwt>0</asrwt>
<pdfrwt beam="2">  1       21 0.96139714E-01 0.10289463E+04</pdfrwt>
<pdfrwt beam="1">  1       -4 0.10497121E+00 0.10289463E+04</pdfrwt>
<totfact> 0.24835448E+01</totfact>
</mgrwt>
</event>
<event>
 6    2  0.2379986E-005  0.8767828E+03  0.7818608E-02  0.1028690E+00
         21   -1    0    0  501  502  0.00000000000E+00  0.00000000000E+00  0.79783067093E+03  0.79783067093E+03  0.00000000000E+00 0. -1.
         -4   -1    0    0    0  501 -0.00000000000E+00 -0.00000000000E+00 -0.32992604172E+03  0.32992604172E+03  0.00000000000E+00 0. -1.
   -9000010    2    1    2    0  502 -0.34004934553E+02 -0.48349250018E+02  0.54366969557E+03  0.10316612289E+04  0.87478807021E+03 0.  0.
         13    1    3    3    0    0 -0.68499553072E+02 -0.60907945583E+02 -0.23493929407E+03  0.25218733050E+03  0.10566000000E+00 0. -1.
         -4    1    3    3    0  502  0.34494618519E+02  0.12558695565E+02  0.77860898964E+03  0.77947389840E+03  0.00000000000E+00 0. -1.
        -13    1    1    2    0    0  0.34004934553E+02  0.48349250018E+02 -0.75765066359E+02  0.96095483742E+02  0.10566000000E+00 0.  1.
<mgrwt>
<rscale>  1 0.44677035E+03</rscale>
<asrwt>0</asrwt>
<pdfrwt beam="1">  1       21 0.12274318E+00 0.87678284E+03</pdfrwt>
<pdfrwt beam="2">  1       -4 0.50757853E-01 0.87678284E+03</pdfrwt>
<totfact> 0.70293446E+01</totfact>
</mgrwt>
</event>
<event>
 6    2  0.2379986E-005  0.1086522E+04  0.7818608E-02  0.9461466E-01
         -4   -1    0    0    0  501 -0.00000000000E+00  0.00000000000E+00  0.35643567822E+03  0.35643567822E+03  0.00000000000E+00 0. -1.
         21   -1    0    0  501  502  0.00000000000E+00 -0.00000000000E+00 -0.20524293539E+04  0.20524293539E+04  0.00000000000E+00 0. -1.
   -9000010    2    1    2    0  502 -0.45017339519E+03 -0.16184820480E+02 -0.16221196732E+04  0.19523834733E+04  0.98874210911E+03 0.  0.
         13    1    3    3    0    0 -0.31443692001E+02  0.43612337853E+03 -0.91651454853E+03  0.10154758667E+04  0.10566000000E+00 0. -1.
         -4    1    3    3    0  502 -0.41872970319E+03 -0.45230819901E+03 -0.70560512470E+03  0.93690760656E+03  0.00000000000E+00 0. -1.
        -13    1    1    2    0    0  0.45017339519E+03  0.16184820480E+02 -0.73874002431E+02  0.45648155882E+03  0.10566000000E+00 0.  1.
<mgrwt>
<rscale>  1 0.87185413E+03</rscale>
<asrwt>0</asrwt>
<pdfrwt beam="2">  1       21 0.31575836E+00 0.10865215E+04</pdfrwt>
<pdfrwt beam="1">  1       -4 0.54836258E-01 0.10865215E+04</pdfrwt>
<totfact> 0.26249687E+00</totfact>
</mgrwt>
</event>
<event>
 6    2  0.2379986E-005  0.1018422E+04  0.7818608E-02  0.9773450E-01
         21   -1    0    0  501  502  0.00000000000E+00  0.00000000000E+00  0.14763465906E+04  0.14763465906E+04  0.00000000000E+00 0. -1.
         -4   -1    0    0    0  501 -0.00000000000E+00 -0.00000000000E+00 -0.25551044922E+03  0.25551044922E+03  0.00000000000E+00 0. -1.
   -9000010    2    1    2    0  502  0.16981511581E+03  0.82017154135E+02  0.89707163439E+03  0.13571739013E+04  0.10008094195E+04 0.  0.
         13    1    3    3    0    0 -0.41448406683E+03  0.19790455684E+00  0.26208333701E+03  0.49039246275E+03  0.10566000000E+00 0. -1.
         -4    1    3    3    0  502  0.58429918264E+03  0.81819249579E+02  0.63498829738E+03  0.86678143857E+03  0.00000000000E+00 0. -1.
        -13    1    1    2    0    0 -0.16981511581E+03 -0.82017154135E+02  0.32376450701E+03  0.37468313852E+03  0.10566000000E+00 0.  1.
<mgrwt>
<rscale>  1 0.66807039E+03</rscale>
<asrwt>0</asrwt>
<pdfrwt beam="1">  1       21 0.22713024E+00 0.10184221E+04</pdfrwt>
<pdfrwt beam="2">  1       -4 0.39309301E-01 0.10184221E+04</pdfrwt>
<totfact> 0.19273121E+01</totfact>
</mgrwt>
</event>
<event>
 6    2  0.2379986E-005  0.1056340E+04  0.7818608E-02  0.9579781E-01
         21   -1    0    0  501  502  0.00000000000E+00  0.00000000000E+00  0.42699516821E+03  0.42699516821E+03  0.00000000000E+00 0.  1.
         -4   -1    0    0    0  501 -0.00000000000E+00 -0.00000000000E+00 -0.12532647326E+04  0.12532647326E+04  0.00000000000E+00 0. -1.
   -9000010    2    1    2    0  502 -0.28586598072E+03  0.15379092303E+03 -0.36786537409E+03  0.11185612095E+04  0.10052279538E+04 0.  0.
         13    1    3    3    0    0  0.84830771653E+01  0.55649008391E+03 -0.16994490544E+03  0.58192306892E+03  0.10566000000E+00 0. -1.
         -4    1    3    3    0  502 -0.29434905788E+03 -0.40269916088E+03 -0.19792046865E+03  0.53663814061E+03  0.00000000000E+00 0. -1.
        -13    1    1    2    0    0  0.28586598072E+03 -0.15379092303E+03 -0.45840419029E+03  0.56169869127E+03  0.10566000000E+00 0.  1.
<mgrwt>
<rscale>  1 0.78648954E+03</rscale>
<asrwt>0</asrwt>
<pdfrwt beam="1">  1       21 0.65691564E-01 0.10563400E+04</pdfrwt>
<pdfrwt beam="2">  1       -4 0.19280996E+00 0.10563400E+04</pdfrwt>
<totfact> 0.12003408E+01</totfact>
</mgrwt>
</event>
<event>
 6    2  0.2379986E-005  0.1009771E+04  0.7818608E-02  0.9775478E-01
         21   -1    0    0  501  502  0.00000000000E+00  0.00000000000E+00  0.10174553690E+04  0.10174553690E+04  0.00000000000E+00 0. -1.
         -4   -1    0    0    0  501 -0.00000000000E+00 -0.00000000000E+00 -0.36649926113E+03  0.36649926113E+03  0.00000000000E+00 0. -1.
   -9000010    2    1    2    0  502  0.98239759174E+02 -0.16517449344E+03  0.63106140724E+03  0.11907462612E+04  0.99131452893E+03 0.  0.
         13    1    3    3    0    0  0.16284404992E+03  0.40214100549E+03  0.33109683718E+03  0.54576615840E+03  0.10566000000E+00 0. -1.
         -4    1    3    3    0  502 -0.64604290745E+02 -0.56731549893E+03  0.29996457006E+03  0.64498010279E+03  0.00000000000E+00 0. -1.
        -13    1    1    2    0    0 -0.98239759174E+02  0.16517449344E+03  0.19894700654E+02  0.19320836898E+03  0.10566000000E+00 0.  1.
<mgrwt>
<rscale>  1 0.66695279E+03</rscale>
<asrwt>0</asrwt>
<pdfrwt beam="1">  1       21 0.15653159E+00 0.10097713E+04</pdfrwt>
<pdfrwt beam="2">  1       -4 0.56384502E-01 0.10097713E+04</pdfrwt>
<totfact> 0.28673924E+01</totfact>
</mgrwt>
</event>
<event>
 6    2  0.2379986E-005  0.1043101E+04  0.7818608E-02  0.9870312E-01
         21   -1    0    0  501  502  0.00000000000E+00  0.00000000000E+00  0.20048523900E+03  0.20048523900E+03  0.00000000000E+00 0. -1.
         -4   -1    0    0    0  501 -0.00000000000E+00 -0.00000000000E+00 -0.17143243701E+04  0.17143243701E+04  0.00000000000E+00 0. -1.
   -9000010    2    1    2    0  502  0.12761213995E+03 -0.81584643450E+01 -0.13776246016E+04  0.17279785945E+04  0.10352338197E+04 0.  0.
         13    1    3    3    0    0 -0.67910400126E+02  0.81159243990E+02 -0.14842579941E+04  0.14880256885E+04  0.10566000000E+00 0. -1.
         -4    1    3    3    0  502  0.19552254007E+03 -0.89317708335E+02  0.10663339254E+03  0.23995290601E+03  0.00000000000E+00 0. -1.
        -13    1    1    2    0    0 -0.12761213995E+03  0.81584643450E+01 -0.13621452953E+03  0.18683101461E+03  0.10566000000E+00 0.  1.
<mgrwt>
<rscale>  1 0.61721918E+03</rscale>
<asrwt>0</asrwt>
<pdfrwt beam="1">  1       21 0.30843884E-01 0.10431014E+04</pdfrwt>
<pdfrwt beam="2">  1       -4 0.26374221E+00 0.10431014E+04</pdfrwt>
<totfact> 0.21373200E+01</totfact>
</mgrwt>
</event>
<event>
 6    2  0.2379986E-005  0.1011250E+04  0.7818608E-02  0.9832732E-01
         -4   -1    0    0    0  501 -0.00000000000E+00  0.00000000000E+00  0.16986322153E+04  0.16986322153E+04  0.00000000000E+00 0. -1.
         21   -1    0    0  501  502  0.00000000000E+00 -0.00000000000E+00 -0.25266337083E+03  0.25266337083E+03  0.00000000000E+00 0. -1.
   -9000010    2    1    2    0  502 -0.14403002356E+03 -0.66323317629E+02  0.80942073190E+03  0.12952948690E+04  0.99874093046E+03 0.  0.
         13    1    3    3    0    0 -0.17511684404E+03 -0.49590909899E+03  0.23171792055E+03  0.57470422776E+03  0.10566000000E+00 0. -1.
         -4    1    3    3    0  502  0.31086820483E+02  0.42958578136E+03  0.57770281135E+03  0.72059064121E+03  0.00000000000E+00 0. -1.
        -13    1    1    2    0    0  0.14403002356E+03  0.66323317629E+02  0.63654811257E+03  0.65600071717E+03  0.10566000000E+00 0.  1.
<mgrwt>
<rscale>  1 0.63635145E+03</rscale>
<asrwt>0</asrwt>
<pdfrwt beam="2">  1       21 0.38871289E-01 0.10112502E+04</pdfrwt>
<pdfrwt beam="1">  1       -4 0.26132803E+00 0.10112502E+04</pdfrwt>
<totfact> 0.13799810E+01</totfact>
</mgrwt>
</event>
<event>
 6    2  0.2379986E-005  0.1980648E+04  0.7818608E-02  0.8650010E-01
         21   -1    0    0  501  502  0.00000000000E+00  0.00000000000E+00  0.19827144688E+04  0.19827144688E+04  0.00000000000E+00 0.  1.
         -4   -1    0    0    0  501 -0.00000000000E+00 -0.00000000000E+00 -0.17750058180E+04  0.17750058180E+04  0.00000000000E+00 0. -1.
   -9000010    2    1    2    0  502  0.85803411927E+03  0.14814394996E+04  0.44316606091E+03  0.20296214053E+04  0.99603280599E+03 0.  0.
         13    1    3    3    0    0  0.21481752548E+03  0.29448792710E+03  0.56685228331E+03  0.67393711184E+03  0.10566000000E+00 0. -1.
         -4    1    3    3    0  502  0.64321659378E+03  0.11869515725E+04 -0.12368622240E+03  0.13556842935E+04  0.00000000000E+00 0. -1.
        -13    1    1    2    0    0 -0.85803411927E+03 -0.14814394996E+04 -0.23545741017E+03  0.17280988814E+04  0.10566000000E+00 0.  1.
<mgrwt>
<rscale>  1 0.19097668E+04</rscale>
<asrwt>0</asrwt>
<pdfrwt beam="1">  1       21 0.30503299E+00 0.19806481E+04</pdfrwt>
<pdfrwt beam="2">  1       -4 0.27307782E+00 0.19806481E+04</pdfrwt>
<totfact> 0.36104945E-02</totfact>
</mgrwt>
</event>
<event>
 6    2  0.2379986E-005  0.1052829E+04  0.7818608E-02  0.9591589E-01
         -4   -1    0    0    0  501 -0.00000000000E+00  0.00000000000E+00  0.41928480149E+03  0.41928480149E+03  0.00000000000E+00 0. -1.
         21   -1    0    0  501  502  0.00000000000E+00 -0.00000000000E+00 -0.18280189478E+04  0.18280189478E+04  0.00000000000E+00 0. -1.
   -9000010    2    1    2    0  502 -0.22321703978E+03 -0.22202432223E+03 -0.15725127814E+04  0.18924177127E+04  0.10046530273E+04 0.  0.
         13    1    3    3    0    0 -0.56521529566E+03 -0.36903393421E+03 -0.91823455116E+03  0.11396530512E+04  0.10566000000E+00 0. -1.
         -4    1    3    3    0  502  0.34199825588E+03  0.14700961198E+03 -0.65427823020E+03  0.75276466147E+03  0.00000000000E+00 0. -1.
        -13    1    1    2    0    0  0.22321703978E+03  0.22202432223E+03  0.16377863505E+03  0.35488603660E+03  0.10566000000E+00 0.  1.
<mgrwt>
<rscale>  1 0.77855414E+03</rscale>
<asrwt>0</asrwt>
<pdfrwt beam="2">  1       21 0.28123368E+00 0.10528287E+04</pdfrwt>
<pdfrwt beam="1">  1       -4 0.64505354E-01 0.10528287E+04</pdfrwt>
<totfact> 0.30437032E+00</totfact>
</mgrwt>
</event>
<event>
 6    2  0.2379986E-005  0.1108552E+04  0.7818608E-02  0.9427164E-01
         21   -1    0    0  501  502  0.00000000000E+00  0.00000000000E+00  0.61444849514E+03  0.61444849514E+03  0.00000000000E+00 0. -1.
         -4   -1    0    0    0  501 -0.00000000000E+00 -0.00000000000E+00 -0.13323483596E+04  0.13323483596E+04  0.00000000000E+00 0. -1.
   -9000010    2    1    2    0  502 -0.40423248742E+03 -0.25681726464E+03 -0.30444905976E+02  0.11089702961E+04  0.99976457926E+03 0.  0.
         13    1    3    3    0    0  0.14589967348E+03 -0.46359340092E+03 -0.15119547199E+03  0.50898490942E+03  0.10566000000E+00 0. -1.
         -4    1    3    3    0  502 -0.55013216090E+03  0.20677613628E+03  0.12075056601E+03  0.59998538664E+03  0.00000000000E+00 0. -1.
        -13    1    1    2    0    0  0.40423248742E+03  0.25681726464E+03 -0.68745495845E+03  0.83782655864E+03  0.10566000000E+00 0.  1.
<mgrwt>
<rscale>  1 0.89873493E+03</rscale>
<asrwt>0</asrwt>
<pdfrwt beam="1">  1       21 0.94530538E-01 0.11085523E+04</pdfrwt>
<pdfrwt beam="2">  1       -4 0.20497667E+00 0.11085523E+04</pdfrwt>
<totfact> 0.42072954E+00</totfact>
</mgrwt>
</event>
<event>
 6    2  0.2379986E-005  0.1020226E+04  0.7818608E-02  0.9763842E-01
         -4   -1    0    0    0  501 -0.00000000000E+00  0.00000000000E+00  0.52781422490E+03  0.52781422490E+03  0.00000000000E+00 0. -1.
         21   -1    0    0  501  502  0.00000000000E+00 -0.00000000000E+00 -0.71461829680E+03  0.71461829680E+03  0.00000000000E+00 0. -1.
   -9000010    2    1    2    0  502  0.33214334594E+01  0.19361070232E+03 -0.22577876219E+03  0.10449099316E+04  0.10016808771E+04 0.  0.
         13    1    3    3    0    0 -0.13065631276E+03 -0.31812971033E+03  0.17058912651E+03  0.38389874434E+03  0.10566000000E+00 0. -1.
         -4    1    3    3    0  502  0.13397774622E+03  0.51174041265E+03 -0.39636788870E+03  0.66101118721E+03  0.00000000000E+00 0. -1.
        -13    1    1    2    0    0 -0.33214334594E+01 -0.19361070232E+03  0.38974690286E+02  0.19752259015E+03  0.10566000000E+00 0.  1.
<mgrwt>
<rscale>  1 0.67339605E+03</rscale>
<asrwt>0</asrwt>
<pdfrwt beam="2">  1       21 0.10994128E+00 0.10202258E+04</pdfrwt>
<pdfrwt beam="1">  1       -4 0.81202189E-01 0.10202258E+04</pdfrwt>
<totfact> 0.32665121E+01</totfact>
</mgrwt>
</event>
<event>
 6    2  0.2379986E-005  0.1025508E+04  0.7818608E-02  0.9735831E-01
         -4   -1    0    0    0  501 -0.00000000000E+00  0.00000000000E+00  0.20776633918E+04  0.20776633918E+04  0.00000000000E+00 0. -1.
         21   -1    0    0  501  502  0.00000000000E+00 -0.00000000000E+00 -0.24649586315E+03  0.24649586315E+03  0.00000000000E+00 0. -1.
   -9000010    2    1    2    0  502  0.26217088071E-01 -0.20923701346E+03  0.88329711245E+03  0.13534695694E+04  0.10039352360E+04 0.  0.
         13    1    3    3    0    0  0.18074966262E+03 -0.57370129053E+03  0.40292457138E+03  0.72398330966E+03  0.10566000000E+00 0. -1.
         -4    1    3    3    0  502 -0.18072344553E+03  0.36446427707E+03  0.48037254108E+03  0.62948625978E+03  0.00000000000E+00 0. -1.
        -13    1    1    2    0    0 -0.26217088071E-01  0.20923701346E+03  0.94787041616E+03  0.97068968547E+03  0.10566000000E+00 0.  1.
<mgrwt>
<rscale>  1 0.68922948E+03</rscale>
<asrwt>0</asrwt>
<pdfrwt beam="2">  1       21 0.37922442E-01 0.10255077E+04</pdfrwt>
<pdfrwt beam="1">  1       -4 0.31964051E+00 0.10255077E+04</pdfrwt>
<totfact> 0.63181395E+00</totfact>
</mgrwt>
</event>
<event>
 6    2  0.2379986E-005  0.1012627E+04  0.7818608E-02  0.9810152E-01
         -4   -1    0    0    0  501 -0.00000000000E+00  0.00000000000E+00  0.87382585334E+03  0.87382585334E+03  0.00000000000E+00 0. -1.
         21   -1    0    0  501  502  0.00000000000E+00 -0.00000000000E+00 -0.44707661651E+03  0.44707661651E+03  0.00000000000E+00 0. -1.
   -9000010    2    1    2    0  502 -0.10264371942E+03 -0.13554071995E+03  0.19138881909E+03  0.10305551652E+04  0.99825209671E+03 0.  0.
         13    1    3    3    0    0  0.92603120330E+02  0.17620691801E+03  0.50775463687E+03  0.54537968267E+03  0.10566000000E+00 0. -1.
         -4    1    3    3    0  502 -0.19524683975E+03 -0.31174763796E+03 -0.31636581778E+03  0.48517548255E+03  0.00000000000E+00 0. -1.
        -13    1    1    2    0    0  0.10264371942E+03  0.13554071995E+03  0.23536041774E+03  0.29034730463E+03  0.10566000000E+00 0.  1.
<mgrwt>
<rscale>  1 0.64820547E+03</rscale>
<asrwt>0</asrwt>
<pdfrwt beam="2">  1       21 0.68781018E-01 0.10126274E+04</pdfrwt>
<pdfrwt beam="1">  1       -4 0.13443475E+00 0.10126274E+04</pdfrwt>
<totfact> 0.29496268E+01</totfact>
</mgrwt>
</event>
<event>
 6    2  0.2379986E-005  0.1023194E+04  0.7818608E-02  0.9650980E-01
         21   -1    0    0  501  502  0.00000000000E+00  0.00000000000E+00  0.89686508544E+03  0.89686508544E+03  0.00000000000E+00 0. -1.
         -4   -1    0    0    0  501 -0.00000000000E+00 -0.00000000000E+00 -0.12484497735E+04  0.12484497735E+04  0.00000000000E+00 0. -1.
   -9000010    2    1    2    0  502 -0.14602785021E+03  0.23903892813E+03  0.57750307674E+03  0.11749191520E+04  0.98410439887E+03 0.  0.
         13    1    3    3    0    0  0.44972644810E+02  0.28165951417E+03  0.81716165423E+03  0.86551013917E+03  0.10566000000E+00 0. -1.
         -4    1    3    3    0  502 -0.19100049502E+03 -0.42620586042E+02 -0.23965857748E+03  0.30940901282E+03  0.00000000000E+00 0. -1.
        -13    1    1    2    0    0  0.14602785021E+03 -0.23903892813E+03 -0.92908776479E+03  0.97039570694E+03  0.10566000000E+00 0.  1.
<mgrwt>
<rscale>  1 0.74011977E+03</rscale>
<asrwt>0</asrwt>
<pdfrwt beam="1">  1       21 0.13797925E+00 0.10231936E+04</pdfrwt>
<pdfrwt beam="2">  1       -4 0.19206919E+00 0.10231936E+04</pdfrwt>
<totfact> 0.19630654E+00</totfact>
</mgrwt>
</event>
<event>
 6    2  0.2379986E-005  0.1037913E+04  0.7818608E-02  0.9719939E-01
         21   -1    0    0  501  502  0.00000000000E+00  0.00000000000E+00  0.54772361029E+03  0.54772361029E+03  0.00000000000E+00 0. -1.
         -4   -1    0    0    0  501 -0.00000000000E+00 -0.00000000000E+00 -0.75437041929E+03  0.75437041929E+03  0.00000000000E+00 0. -1.
   -9000010    2    1    2    0  502 -0.44550401454E+01 -0.21275871387E+03 -0.52341429446E+02  0.10392323187E+04  0.10158632139E+04 0.  0.
         13    1    3    3    0    0 -0.13818185767E+03 -0.19410112880E+03  0.45533569097E+03  0.51390668086E+03  0.10566000000E+00 0. -1.
         -4    1    3    3    0  502  0.13372681752E+03 -0.18657585069E+02 -0.50767712042E+03  0.52532563787E+03  0.00000000000E+00 0. -1.
        -13    1    1    2    0    0  0.44550401454E+01  0.21275871387E+03 -0.15430537956E+03  0.26286171086E+03  0.10566000000E+00 0.  1.
<mgrwt>
<rscale>  1 0.69841970E+03</rscale>
<asrwt>0</asrwt>
<pdfrwt beam="1">  1       21 0.84265171E-01 0.10379134E+04</pdfrwt>
<pdfrwt beam="2">  1       -4 0.11605699E+00 0.10379134E+04</pdfrwt>
<totfact> 0.26646813E+01</totfact>
</mgrwt>
</event>
<event>
 6    2  0.2379986E-005  0.1088278E+04  0.7818608E-02  0.9512164E-01
         21   -1    0    0  501  502  0.00000000000E+00  0.00000000000E+00  0.80935301579E+03  0.80935301579E+03  0.00000000000E+00 0. -1.
         -4   -1    0    0    0  501 -0.00000000000E+00 -0.00000000000E+00 -0.66399426433E+03  0.66399426433E+03  0.00000000000E+00 0. -1.
   -9000010    2    1    2    0  502 -0.26859569308E+03 -0.26201788666E+03  0.14665677514E+03  0.10981157312E+04  0.10215443848E+04 0.  0.
         13    1    3    3    0    0 -0.33007465965E+03 -0.44282873205E+03 -0.28833745413E+03  0.62304499476E+03  0.10566000000E+00 0. -1.
         -4    1    3    3    0  502  0.61478966572E+02  0.18081084539E+03  0.43499422927E+03  0.47507073645E+03  0.00000000000E+00 0. -1.
        -13    1    1    2    0    0  0.26859569308E+03  0.26201788666E+03 -0.12980236731E+01  0.37523154892E+03  0.10566000000E+00 0.  1.
<mgrwt>
<rscale>  1 0.83392924E+03</rscale>
<asrwt>0</asrwt>
<pdfrwt beam="1">  1       21 0.12451585E+00 0.10882784E+04</pdfrwt>
<pdfrwt beam="2">  1       -4 0.10215296E+00 0.10882784E+04</pdfrwt>
<totfact> 0.13686972E+01</totfact>
</mgrwt>
</event>
<event>
 6    2  0.2379986E-005  0.8254957E+03  0.7818608E-02  0.1007185E+00
         21   -1    0    0  501  502  0.00000000000E+00  0.00000000000E+00  0.32770551508E+03  0.32770551508E+03  0.00000000000E+00 0. -1.
         -4   -1    0    0    0  501 -0.00000000000E+00 -0.00000000000E+00 -0.74671603122E+03  0.74671603122E+03  0.00000000000E+00 0. -1.
   -9000010    2    1    2    0  502 -0.34324792578E+02  0.13177699557E+03 -0.26087802786E+03  0.86573694467E+03  0.81418655356E+03 0.  0.
         13    1    3    3    0    0 -0.17166624073E+03  0.17357073689E+03  0.24141417514E+03  0.34333207545E+03  0.10566000000E+00 0. -1.
         -4    1    3    3    0  502  0.13734144815E+03 -0.41793741315E+02 -0.50229220300E+03  0.52240486922E+03  0.00000000000E+00 0. -1.
        -13    1    1    2    0    0  0.34324792578E+02 -0.13177699557E+03 -0.15813248828E+03  0.20868460164E+03  0.10566000000E+00 0.  1.
<mgrwt>
<rscale>  1 0.52608959E+03</rscale>
<asrwt>0</asrwt>
<pdfrwt beam="1">  1       21 0.50416234E-01 0.82549568E+03</pdfrwt>
<pdfrwt beam="2">  1       -4 0.11487939E+00 0.82549568E+03</pdfrwt>
<totfact> 0.88919733E+01</totfact>
</mgrwt>
</event>
<event>
 6    2  0.2379986E-005  0.1024244E+04  0.7818608E-02  0.9700630E-01
         21   -1    0    0  501  502  0.00000000000E+00  0.00000000000E+00  0.16099070865E+04  0.16099070865E+04  0.00000000000E+00 0. -1.
         -4   -1    0    0    0  501 -0.00000000000E+00 -0.00000000000E+00 -0.27229264601E+03  0.27229264601E+03  0.00000000000E+00 0. -1.
   -9000010    2    1    2    0  502 -0.22184409646E+03  0.81146759137E+02  0.12794530359E+04  0.16389254844E+04  0.99663286751E+03 0.  0.
         13    1    3    3    0    0 -0.44321053535E+02  0.57645200916E+01 -0.17046988459E+03  0.17623160385E+03  0.10566000000E+00 0. -1.
         -4    1    3    3    0  502 -0.17752304293E+03  0.75382239046E+02  0.14499229205E+04  0.14626938805E+04  0.00000000000E+00 0. -1.
        -13    1    1    2    0    0  0.22184409646E+03 -0.81146759137E+02  0.58161404558E+02  0.24327424812E+03  0.10566000000E+00 0.  1.
<mgrwt>
<rscale>  1 0.70979283E+03</rscale>
<asrwt>0</asrwt>
<pdfrwt beam="1">  1       21 0.24767801E+00 0.10242444E+04</pdfrwt>
<pdfrwt beam="2">  1       -4 0.41891177E-01 0.10242444E+04</pdfrwt>
<totfact> 0.12462628E+01</totfact>
</mgrwt>
</event>
<event>
 6    2  0.2379986E-005  0.1024243E+04  0.7818608E-02  0.9707290E-01
         21   -1    0    0  501  502  0.00000000000E+00  0.00000000000E+00  0.14444180695E+04  0.14444180695E+04  0.00000000000E+00 0. -1.
         -4   -1    0    0    0  501 -0.00000000000E+00 -0.00000000000E+00 -0.30561190607E+03  0.30561190607E+03  0.00000000000E+00 0. -1.
   -9000010    2    1    2    0  502  0.15370164275E+03 -0.17245338853E+03  0.66017316601E+03  0.12185660317E+04  0.99785279396E+03 0.  0.
         13    1    3    3    0    0 -0.39373990836E+03  0.60099811000E+02  0.41505046209E+03  0.57524777267E+03  0.10566000000E+00 0. -1.
         -4    1    3    3    0  502  0.54744155111E+03 -0.23255319953E+03  0.24512270392E+03  0.64331825908E+03  0.00000000000E+00 0. -1.
        -13    1    1    2    0    0 -0.15370164275E+03  0.17245338853E+03  0.47863299747E+03  0.53146394386E+03  0.10566000000E+00 0.  1.
<mgrwt>
<rscale>  1 0.70584423E+03</rscale>
<asrwt>0</asrwt>
<pdfrwt beam="1">  1       21 0.22221816E+00 0.10242434E+04</pdfrwt>
<pdfrwt beam="2">  1       -4 0.47017217E-01 0.10242434E+04</pdfrwt>
<totfact> 0.14337416E+01</totfact>
</mgrwt>
</event>
<event>
 6    2  0.2379986E-005  0.1021706E+04  0.7818608E-02  0.9800272E-01
         -4   -1    0    0    0  501 -0.00000000000E+00  0.00000000000E+00  0.72691487204E+03  0.72691487204E+03  0.00000000000E+00 0. -1.
         21   -1    0    0  501  502  0.00000000000E+00 -0.00000000000E+00 -0.18507233872E+04  0.18507233872E+04  0.00000000000E+00 0. -1.
   -9000010    2    1    2    0  502 -0.12935922725E+03  0.11180717275E+03 -0.16962601034E+04  0.19801974793E+04  0.10072979029E+04 0.  0.
         13    1    3    3    0    0 -0.19515494659E+03  0.49867680200E+03 -0.13662783844E+04  0.14674742386E+04  0.10566000000E+00 0. -1.
         -4    1    3    3    0  502  0.65795719335E+02 -0.38686962925E+03 -0.32998171900E+03  0.51272324074E+03  0.00000000000E+00 0. -1.
        -13    1    1    2    0    0  0.12935922725E+03 -0.11180717275E+03  0.57245158820E+03  0.59744077996E+03  0.10566000000E+00 0.  1.
<mgrwt>
<rscale>  1 0.65347926E+03</rscale>
<asrwt>0</asrwt>
<pdfrwt beam="2">  1       21 0.28472668E+00 0.10217063E+04</pdfrwt>
<pdfrwt beam="1">  1       -4 0.11183306E+00 0.10217063E+04</pdfrwt>
<totfact> 0.80697729E-01</totfact>
</mgrwt>
</event>
<event>
 6    2  0.2379986E-005  0.1385063E+04  0.7818608E-02  0.9062648E-01
         -4   -1    0    0    0  501 -0.00000000000E+00  0.00000000000E+00  0.26620115039E+04  0.26620115039E+04  0.00000000000E+00 0. -1.
         21   -1    0    0  501  502  0.00000000000E+00 -0.00000000000E+00 -0.60768129003E+03  0.60768129003E+03  0.00000000000E+00 0.  1.
   -9000010    2    1    2    0  502  0.77270631240E+03  0.54549693147E+03  0.54489709664E+03  0.14883926244E+04  0.10118091771E+04 0.  0.
         13    1    3    3    0    0  0.94217644407E+03  0.31847894083E+03  0.64787797799E+03  0.11869587916E+04  0.10566000000E+00 0. -1.
         -4    1    3    3    0  502 -0.16947013167E+03  0.22701799064E+03 -0.10298088135E+03  0.30143383275E+03  0.00000000000E+00 0. -1.
        -13    1    1    2    0    0 -0.77270631240E+03 -0.54549693147E+03  0.15094331173E+04  0.17813001696E+04  0.10566000000E+00 0.  1.
<mgrwt>
<rscale>  1 0.12590945E+04</rscale>
<asrwt>0</asrwt>
<pdfrwt beam="2">  1       21 0.93489430E-01 0.13850631E+04</pdfrwt>
<pdfrwt beam="1">  1       -4 0.40954023E+00 0.13850631E+04</pdfrwt>
<totfact> 0.20051058E-01</totfact>
</mgrwt>
</event>
<event>
 6    2  0.2379986E-005  0.1113948E+04  0.7818608E-02  0.9489974E-01
         -4   -1    0    0    0  501 -0.00000000000E+00  0.00000000000E+00  0.38217330423E+03  0.38217330423E+03  0.00000000000E+00 0. -1.
         21   -1    0    0  501  502  0.00000000000E+00 -0.00000000000E+00 -0.17694344148E+04  0.17694344148E+04  0.00000000000E+00 0. -1.
   -9000010    2    1    2    0  502 -0.31266176052E+03 -0.21265019569E+03 -0.13798954561E+04  0.17734123379E+04  0.10478083643E+04 0.  0.
         13    1    3    3    0    0 -0.19763773274E+03 -0.64046289085E+03 -0.80033098429E+03  0.10439267616E+04  0.10566000000E+00 0. -1.
         -4    1    3    3    0  502 -0.11502402778E+03  0.42781269515E+03 -0.57956447183E+03  0.72948557636E+03  0.00000000000E+00 0. -1.
        -13    1    1    2    0    0  0.31266176052E+03  0.21265019569E+03 -0.73656544127E+01  0.37819538105E+03  0.10566000000E+00 0.  1.
<mgrwt>
<rscale>  1 0.85027050E+03</rscale>
<asrwt>0</asrwt>
<pdfrwt beam="2">  1       21 0.27222068E+00 0.11139479E+04</pdfrwt>
<pdfrwt beam="1">  1       -4 0.58795892E-01 0.11139479E+04</pdfrwt>
<totfact> 0.42052297E+00</totfact>
</mgrwt>
</event>
<event>
 6    2  0.2379986E-005  0.9851261E+03  0.7818608E-02  0.9896835E-01
         -4   -1    0    0    0  501 -0.00000000000E+00  0.00000000000E+00  0.32004451519E+03  0.32004451519E+03  0.00000000000E+00 0. -1.
         21   -1    0    0  501  502  0.00000000000E+00 -0.00000000000E+00 -0.12318605553E+04  0.12318605553E+04  0.00000000000E+00 0. -1.
   -9000010    2    1    2    0  502  0.10009532739E+03 -0.96947432269E+02 -0.98620709987E+03  0.13939433026E+04  0.97522079957E+03 0.  0.
         13    1    3    3    0    0  0.13670479959E+02  0.18740229115E+03  0.13670560136E+03  0.23236809884E+03  0.10566000000E+00 0. -1.
         -4    1    3    3    0  502  0.86424847435E+02 -0.28434972342E+03 -0.11229127012E+04  0.11615752038E+04  0.00000000000E+00 0. -1.
        -13    1    1    2    0    0 -0.10009532739E+03  0.96947432269E+02  0.74391059712E+02  0.15796176790E+03  0.10566000000E+00 0.  1.
<mgrwt>
<rscale>  1 0.60414910E+03</rscale>
<asrwt>0</asrwt>
<pdfrwt beam="2">  1       21 0.18951701E+00 0.98512613E+03</pdfrwt>
<pdfrwt beam="1">  1       -4 0.49237617E-01 0.98512613E+03</pdfrwt>
<totfact> 0.21828110E+01</totfact>
</mgrwt>
</event>
<event>
 6    2  0.2379986E-005  0.1091502E+04  0.7818608E-02  0.9461514E-01
         -4   -1    0    0    0  501 -0.00000000000E+00  0.00000000000E+00  0.15586476101E+04  0.15586476101E+04  0.00000000000E+00 0. -1.
         21   -1    0    0  501  502  0.00000000000E+00 -0.00000000000E+00 -0.48179123872E+03  0.48179123872E+03  0.00000000000E+00 0. -1.
   -9000010    2    1    2    0  502 -0.42669484243E+03 -0.12365227621E+03  0.27797265574E+03  0.11263417116E+04  0.99700475426E+03 0.  0.
         13    1    3    3    0    0 -0.36171894230E+03 -0.25897954528E+03  0.61404675479E+03  0.75826408746E+03  0.10566000000E+00 0. -1.
         -4    1    3    3    0  502 -0.64975900131E+02  0.13532726907E+03 -0.33607409906E+03  0.36807762416E+03  0.00000000000E+00 0. -1.
        -13    1    1    2    0    0  0.42669484243E+03  0.12365227621E+03  0.79888371568E+03  0.91409713724E+03  0.10566000000E+00 0.  1.
<mgrwt>
<rscale>  1 0.87181710E+03</rscale>
<asrwt>0</asrwt>
<pdfrwt beam="2">  1       21 0.74121730E-01 0.10915021E+04</pdfrwt>
<pdfrwt beam="1">  1       -4 0.23979194E+00 0.10915021E+04</pdfrwt>
<totfact> 0.45098665E+00</totfact>
</mgrwt>
</event>
<event>
 6    2  0.2379986E-005  0.1123349E+04  0.7818608E-02  0.9397437E-01
         21   -1    0    0  501  502  0.00000000000E+00  0.00000000000E+00  0.61030381685E+03  0.61030381685E+03  0.00000000000E+00 0. -1.
         -4   -1    0    0    0  501 -0.00000000000E+00 -0.00000000000E+00 -0.13414546350E+04  0.13414546350E+04  0.00000000000E+00 0. -1.
   -9000010    2    1    2    0  502 -0.49901260138E+03  0.11324835305E+03 -0.83630512418E+02  0.11264577047E+04  0.10000370653E+04 0.  0.
         13    1    3    3    0    0 -0.75997868935E+03 -0.87759392770E+02  0.59418913609E+02  0.76733300316E+03  0.10566000000E+00 0. -1.
         -4    1    3    3    0  502  0.26096608797E+03  0.20100774582E+03 -0.14304942603E+03  0.35912470151E+03  0.00000000000E+00 0. -1.
        -13    1    1    2    0    0  0.49901260138E+03 -0.11324835305E+03 -0.64752030576E+03  0.82530074720E+03  0.10566000000E+00 0.  1.
<mgrwt>
<rscale>  1 0.92286944E+03</rscale>
<asrwt>0</asrwt>
<pdfrwt beam="1">  1       21 0.93892895E-01 0.11233490E+04</pdfrwt>
<pdfrwt beam="2">  1       -4 0.20637764E+00 0.11233490E+04</pdfrwt>
<totfact> 0.41805631E+00</totfact>
</mgrwt>
</event>
<event>
 6    2  0.2379986E-005  0.1589667E+04  0.7818608E-02  0.8888573E-01
         -4   -1    0    0    0  501 -0.00000000000E+00  0.00000000000E+00  0.13031319421E+04  0.13031319421E+04  0.00000000000E+00 0. -1.
         21   -1    0    0  501  502  0.00000000000E+00 -0.00000000000E+00 -0.16749324263E+04  0.16749324263E+04  0.00000000000E+00 0.  1.
   -9000010    2    1    2    0  502 -0.12158350092E+04  0.24146758944E+03 -0.63334911768E+03  0.17111906315E+04  0.99522907214E+03 0.  0.
         13    1    3    3    0    0 -0.98208281647E+03  0.35539084746E+02  0.24798962725E+02  0.98303849602E+03  0.10566000000E+00 0. -1.
         -4    1    3    3    0  502 -0.23375219277E+03  0.20592850469E+03 -0.65814808040E+03  0.72815213548E+03  0.00000000000E+00 0. -1.
        -13    1    1    2    0    0  0.12158350092E+04 -0.24146758944E+03  0.26154863340E+03  0.12668737369E+04  0.10566000000E+00 0.  1.
<mgrwt>
<rscale>  1 0.14938205E+04</rscale>
<asrwt>0</asrwt>
<pdfrwt beam="2">  1       21 0.25768191E+00 0.15896673E+04</pdfrwt>
<pdfrwt beam="1">  1       -4 0.20048184E+00 0.15896673E+04</pdfrwt>
<totfact> 0.22207137E-01</totfact>
</mgrwt>
</event>
<event>
 6    2  0.2379986E-005  0.1008817E+04  0.7818608E-02  0.1017091E+00
         21   -1    0    0  501  502  0.00000000000E+00  0.00000000000E+00  0.25280846089E+03  0.25280846089E+03  0.00000000000E+00 0. -1.
         -4   -1    0    0    0  501 -0.00000000000E+00 -0.00000000000E+00 -0.12689207905E+04  0.12689207905E+04  0.00000000000E+00 0. -1.
   -9000010    2    1    2    0  502  0.11512882795E+02 -0.53800258937E+02 -0.76879992019E+03  0.12683709017E+04  0.10073154485E+04 0.  0.
         13    1    3    3    0    0  0.25967802817E+03  0.32002541735E+03 -0.70296451860E+03  0.81486690425E+03  0.10566000000E+00 0. -1.
         -4    1    3    3    0  502 -0.24816514537E+03 -0.37382567628E+03 -0.65835401587E+02  0.45350399748E+03  0.00000000000E+00 0. -1.
        -13    1    1    2    0    0 -0.11512882795E+02  0.53800258937E+02 -0.24731240942E+03  0.25335834968E+03  0.10566000000E+00 0.  1.
<mgrwt>
<rscale>  1 0.48751306E+03</rscale>
<asrwt>0</asrwt>
<pdfrwt beam="1">  1       21 0.38893610E-01 0.10088168E+04</pdfrwt>
<pdfrwt beam="2">  1       -4 0.19521858E+00 0.10088168E+04</pdfrwt>
<totfact> 0.36245135E+01</totfact>
</mgrwt>
</event>
<event>
 6    2  0.2379986E-005  0.1118107E+04  0.7818608E-02  0.9386833E-01
         21   -1    0    0  501  502  0.00000000000E+00  0.00000000000E+00  0.85693052727E+03  0.85693052727E+03  0.00000000000E+00 0. -1.
         -4   -1    0    0    0  501 -0.00000000000E+00 -0.00000000000E+00 -0.10114826441E+04  0.10114826441E+04  0.00000000000E+00 0. -1.
   -9000010    2    1    2    0  502  0.13204141733E+03  0.52259496457E+03  0.30623267357E+03  0.11592847859E+04  0.97960315003E+03 0.  0.
         13    1    3    3    0    0 -0.38019013824E+03  0.26904439307E+03  0.35505093555E+03  0.58565399739E+03  0.10566000000E+00 0. -1.
         -4    1    3    3    0  502  0.51223155556E+03  0.25355057150E+03 -0.48818261983E+02  0.57363078851E+03  0.00000000000E+00 0. -1.
        -13    1    1    2    0    0 -0.13204141733E+03 -0.52259496457E+03 -0.46078479044E+03  0.70912838552E+03  0.10566000000E+00 0.  1.
<mgrwt>
<rscale>  1 0.93167252E+03</rscale>
<asrwt>0</asrwt>
<pdfrwt beam="1">  1       21 0.13183547E+00 0.11181068E+04</pdfrwt>
<pdfrwt beam="2">  1       -4 0.15561271E+00 0.11181068E+04</pdfrwt>
<totfact> 0.39898466E+00</totfact>
</mgrwt>
</event>
<event>
 6    2  0.2379986E-005  0.1007253E+04  0.7818608E-02  0.9985155E-01
         21   -1    0    0  501  502  0.00000000000E+00  0.00000000000E+00  0.27758564923E+03  0.27758564923E+03  0.00000000000E+00 0. -1.
         -4   -1    0    0    0  501 -0.00000000000E+00 -0.00000000000E+00 -0.11143337135E+04  0.11143337135E+04  0.00000000000E+00 0. -1.
   -9000010    2    1    2    0  502  0.98243947705E+02  0.46956174630E+01 -0.80222017419E+03  0.12876787351E+04  0.10024397213E+04 0.  0.
         13    1    3    3    0    0 -0.77906496628E+02  0.17575493857E+03 -0.97091961496E+03  0.98976973611E+03  0.10566000000E+00 0. -1.
         -4    1    3    3    0  502  0.17615044433E+03 -0.17105932110E+03  0.16869944077E+03  0.29790899901E+03  0.00000000000E+00 0. -1.
        -13    1    1    2    0    0 -0.98243947705E+02 -0.46956174630E+01 -0.34527890063E+02  0.10424062759E+03  0.10566000000E+00 0.  1.
<mgrwt>
<rscale>  1 0.56305975E+03</rscale>
<asrwt>0</asrwt>
<pdfrwt beam="1">  1       21 0.42705485E-01 0.10072534E+04</pdfrwt>
<pdfrwt beam="2">  1       -4 0.17143596E+00 0.10072534E+04</pdfrwt>
<totfact> 0.43503952E+01</totfact>
</mgrwt>
</event>
<event>
 6    2  0.2379986E-005  0.1064540E+04  0.7818608E-02  0.9693141E-01
         -4   -1    0    0    0  501 -0.00000000000E+00  0.00000000000E+00  0.34331091594E+03  0.34331091594E+03  0.00000000000E+00 0. -1.
         21   -1    0    0  501  502  0.00000000000E+00 -0.00000000000E+00 -0.13943229491E+04  0.13943229491E+04  0.00000000000E+00 0. -1.
   -9000010    2    1    2    0  502 -0.17315285255E+03 -0.12871300366E+03 -0.10840750617E+04  0.15193631096E+04  0.10424473953E+04 0.  0.
         13    1    3    3    0    0 -0.12447278777E+03 -0.11662355035E+03 -0.12931523511E+04  0.13043533040E+04  0.10566000000E+00 0. -1.
         -4    1    3    3    0  502 -0.48680064780E+02 -0.12089453309E+02  0.20907728939E+03  0.21500980565E+03  0.00000000000E+00 0. -1.
        -13    1    1    2    0    0  0.17315285255E+03  0.12871300366E+03  0.33063028490E+02  0.21827075543E+03  0.10566000000E+00 0.  1.
<mgrwt>
<rscale>  1 0.71426645E+03</rscale>
<asrwt>0</asrwt>
<pdfrwt beam="2">  1       21 0.21451122E+00 0.10645401E+04</pdfrwt>
<pdfrwt beam="1">  1       -4 0.52817064E-01 0.10645401E+04</pdfrwt>
<totfact> 0.12551191E+01</totfact>
</mgrwt>
</event>
<event>
 6    2  0.2379986E-005  0.1027699E+04  0.7818608E-02  0.9759396E-01
         21   -1    0    0  501  502  0.00000000000E+00  0.00000000000E+00  0.21114739505E+03  0.21114739505E+03  0.00000000000E+00 0. -1.
         -4   -1    0    0    0  501 -0.00000000000E+00 -0.00000000000E+00 -0.21581220318E+04  0.21581220318E+04  0.00000000000E+00 0. -1.
   -9000010    2    1    2    0  502 -0.12882212892E+03  0.14271239190E+03 -0.11192121630E+04  0.15194737503E+04  0.10095556668E+04 0.  0.
         13    1    3    3    0    0 -0.30747828296E+03  0.13604287976E+03 -0.12522637518E+04  0.12966167803E+04  0.10566000000E+00 0. -1.
         -4    1    3    3    0  502  0.17865615403E+03  0.66695121420E+01  0.13305158889E+03  0.22285696999E+03  0.00000000000E+00 0. -1.
        -13    1    1    2    0    0  0.12882212892E+03 -0.14271239190E+03 -0.82776247383E+03  0.84979567659E+03  0.10566000000E+00 0.  1.
<mgrwt>
<rscale>  1 0.67587869E+03</rscale>
<asrwt>0</asrwt>
<pdfrwt beam="1">  1       21 0.32484216E-01 0.10276987E+04</pdfrwt>
<pdfrwt beam="2">  1       -4 0.33201876E+00 0.10276987E+04</pdfrwt>
<totfact> 0.72549810E+00</totfact>
</mgrwt>
</event>
<event>
 6    2  0.2379986E-005  0.1011506E+04  0.7818608E-02  0.9827202E-01
         -4   -1    0    0    0  501 -0.00000000000E+00  0.00000000000E+00  0.30990066609E+03  0.30990066609E+03  0.00000000000E+00 0. -1.
         21   -1    0    0  501  502  0.00000000000E+00 -0.00000000000E+00 -0.11098943492E+04  0.11098943492E+04  0.00000000000E+00 0. -1.
   -9000010    2    1    2    0  502  0.16132385211E+03 -0.16763053042E+01 -0.69684131038E+03  0.12283044974E+04  0.99855692441E+03 0.  0.
         13    1    3    3    0    0 -0.15821451669E+03 -0.31063187774E+03  0.56953315795E+02  0.35322469917E+03  0.10566000000E+00 0. -1.
         -4    1    3    3    0  502  0.31953836880E+03  0.30895557243E+03 -0.75379462618E+03  0.87507979826E+03  0.00000000000E+00 0. -1.
        -13    1    1    2    0    0 -0.16132385211E+03  0.16763053042E+01 -0.10315237270E+03  0.19149051782E+03  0.10566000000E+00 0.  1.
<mgrwt>
<rscale>  1 0.63922954E+03</rscale>
<asrwt>0</asrwt>
<pdfrwt beam="2">  1       21 0.17075298E+00 0.10115059E+04</pdfrwt>
<pdfrwt beam="1">  1       -4 0.47677026E-01 0.10115059E+04</pdfrwt>
<totfact> 0.31855765E+01</totfact>
</mgrwt>
</event>
<event>
 6    2  0.2379986E-005  0.1046858E+04  0.7818608E-02  0.9598954E-01
         -4   -1    0    0    0  501 -0.00000000000E+00  0.00000000000E+00  0.14308546596E+04  0.14308546596E+04  0.00000000000E+00 0. -1.
         21   -1    0    0  501  502  0.00000000000E+00 -0.00000000000E+00 -0.36159003703E+03  0.36159003703E+03  0.00000000000E+00 0. -1.
   -9000010    2    1    2    0  502  0.30788272410E+03  0.52136824950E+02  0.53999769519E+03  0.11779257694E+04  0.99920047395E+03 0.  0.
         13    1    3    3    0    0  0.36040630656E+03 -0.17824086582E+03 -0.16482832653E+03  0.43454677590E+03  0.10566000000E+00 0. -1.
         -4    1    3    3    0  502 -0.52523582457E+02  0.23037769077E+03  0.70482602172E+03  0.74337899352E+03  0.00000000000E+00 0. -1.
        -13    1    1    2    0    0 -0.30788272410E+03 -0.52136824950E+02  0.52926692742E+03  0.61451892724E+03  0.10566000000E+00 0.  1.
<mgrwt>
<rscale>  1 0.77365437E+03</rscale>
<asrwt>0</asrwt>
<pdfrwt beam="2">  1       21 0.55629237E-01 0.10468580E+04</pdfrwt>
<pdfrwt beam="1">  1       -4 0.22013148E+00 0.10468580E+04</pdfrwt>
<totfact> 0.11538634E+01</totfact>
</mgrwt>
</event>
<event>
 6    2  0.2379986E-005  0.9906507E+03  0.7818608E-02  0.1033665E+00
         -4   -1    0    0    0  501 -0.00000000000E+00  0.00000000000E+00  0.21327415797E+03  0.21327415797E+03  0.00000000000E+00 0. -1.
         21   -1    0    0  501  502  0.00000000000E+00 -0.00000000000E+00 -0.19063895277E+04  0.19063895277E+04  0.00000000000E+00 0. -1.
   -9000010    2    1    2    0  502 -0.70830675598E+01  0.34650434376E+02 -0.17737330528E+04  0.20316293490E+04  0.99001921536E+03 0.  0.
         13    1    3    3    0    0  0.48106212521E+03  0.97693695823E+02 -0.76035958851E+03  0.90504781173E+03  0.10566000000E+00 0. -1.
         -4    1    3    3    0  502 -0.48814519277E+03 -0.63043261447E+02 -0.10133734643E+04  0.11265815373E+04  0.00000000000E+00 0. -1.
        -13    1    1    2    0    0  0.70830675598E+01 -0.34650434376E+02  0.80617683043E+02  0.88034336663E+02  0.10566000000E+00 0.  1.
<mgrwt>
<rscale>  1 0.43061620E+03</rscale>
<asrwt>0</asrwt>
<pdfrwt beam="2">  1       21 0.29329070E+00 0.99065073E+03</pdfrwt>
<pdfrwt beam="1">  1       -4 0.32811408E-01 0.99065073E+03</pdfrwt>
<totfact> 0.10608519E+01</totfact>
</mgrwt>
</event>
<event>
 6    2  0.2379986E-005  0.1040993E+04  0.7818608E-02  0.9617846E-01
         -4   -1    0    0    0  501 -0.00000000000E+00  0.00000000000E+00  0.86359412978E+03  0.86359412978E+03  0.00000000000E+00 0. -1.
         21   -1    0    0  501  502  0.00000000000E+00 -0.00000000000E+00 -0.67330130708E+03  0.67330130708E+03  0.00000000000E+00 0. -1.
   -9000010    2    1    2    0  502 -0.94069682468E+02  0.28245648720E+03 -0.18557891588E+03  0.10574057630E+04  0.99751523359E+03 0.  0.
         13    1    3    3    0    0  0.25442736138E+03  0.37001739373E+03 -0.43087526696E+03  0.62233404272E+03  0.10566000000E+00 0. -1.
         -4    1    3    3    0  502 -0.34849704385E+03 -0.87560906534E+02  0.24529635107E+03  0.43507172027E+03  0.00000000000E+00 0. -1.
        -13    1    1    2    0    0  0.94069682468E+02 -0.28245648720E+03  0.37587173859E+03  0.47948967387E+03  0.10566000000E+00 0.  1.
<mgrwt>
<rscale>  1 0.76126187E+03</rscale>
<asrwt>0</asrwt>
<pdfrwt beam="2">  1       21 0.10358482E+00 0.10409935E+04</pdfrwt>
<pdfrwt beam="1">  1       -4 0.13286064E+00 0.10409935E+04</pdfrwt>
<totfact> 0.11417243E+01</totfact>
</mgrwt>
</event>
<event>
 6    2  0.2379986E-005  0.1006928E+04  0.7818608E-02  0.1050042E+00
         -4   -1    0    0    0  501 -0.00000000000E+00  0.00000000000E+00  0.36475682366E+03  0.36475682366E+03  0.00000000000E+00 0. -1.
         21   -1    0    0  501  502  0.00000000000E+00 -0.00000000000E+00 -0.86799733341E+03  0.86799733341E+03  0.00000000000E+00 0. -1.
   -9000010    2    1    2    0  502  0.25661087198E+00 -0.20947684416E+02 -0.57394234269E+03  0.11590138582E+04  0.10067097096E+04 0.  0.
         13    1    3    3    0    0  0.24553008644E+03 -0.28783035497E+03 -0.68275040496E+03  0.78056355489E+03  0.10566000000E+00 0. -1.
         -4    1    3    3    0  502 -0.24527347557E+03  0.26688267055E+03  0.10880806227E+03  0.37845030331E+03  0.00000000000E+00 0. -1.
        -13    1    1    2    0    0 -0.25661087198E+00  0.20947684416E+02  0.70701832944E+02  0.73740298869E+02  0.10566000000E+00 0.  1.
<mgrwt>
<rscale>  1 0.38242144E+03</rscale>
<asrwt>0</asrwt>
<pdfrwt beam="2">  1       21 0.13353805E+00 0.10069277E+04</pdfrwt>
<pdfrwt beam="1">  1       -4 0.56116435E-01 0.10069277E+04</pdfrwt>
<totfact> 0.44880182E+01</totfact>
</mgrwt>
</event>
<event>
 6    2  0.2379986E-005  0.1001721E+04  0.7818608E-02  0.1009269E+00
         21   -1    0    0  501  502  0.00000000000E+00  0.00000000000E+00  0.50965428485E+03  0.50965428485E+03  0.00000000000E+00 0. -1.
         -4   -1    0    0    0  501 -0.00000000000E+00 -0.00000000000E+00 -0.57610286793E+03  0.57610286793E+03  0.00000000000E+00 0. -1.
   -9000010    2    1    2    0  502  0.60165433917E+02  0.38519640079E+02 -0.22683678483E+02  0.10019775601E+04  0.99917007541E+03 0.  0.
         13    1    3    3    0    0 -0.21960817261E+03  0.19924377860E+03  0.38252885228E+03  0.48399810617E+03  0.10566000000E+00 0. -1.
         -4    1    3    3    0  502  0.27977360653E+03 -0.16072413853E+03 -0.40521253076E+03  0.51797945394E+03  0.00000000000E+00 0. -1.
        -13    1    1    2    0    0 -0.60165433917E+02 -0.38519640079E+02 -0.43764904599E+02  0.83779592675E+02  0.10566000000E+00 0.  1.
<mgrwt>
<rscale>  1 0.51766065E+03</rscale>
<asrwt>0</asrwt>
<pdfrwt beam="1">  1       21 0.78408351E-01 0.10017208E+04</pdfrwt>
<pdfrwt beam="2">  1       -4 0.88631211E-01 0.10017208E+04</pdfrwt>
<totfact> 0.60816501E+01</totfact>
</mgrwt>
</event>
<event>
 6    2  0.2379986E-005  0.1008619E+04  0.7818608E-02  0.9785348E-01
         21   -1    0    0  501  502  0.00000000000E+00  0.00000000000E+00  0.94415005423E+03  0.94415005423E+03  0.00000000000E+00 0. -1.
         -4   -1    0    0    0  501 -0.00000000000E+00 -0.00000000000E+00 -0.37847882926E+03  0.37847882926E+03  0.00000000000E+00 0. -1.
   -9000010    2    1    2    0  502  0.13092263120E+03 -0.13305444075E+03  0.48754357344E+03  0.11202723648E+04  0.99119484248E+03 0.  0.
         13    1    3    3    0    0 -0.10174304482E+03 -0.52350856736E+03  0.14960945916E+03  0.55389156764E+03  0.10566000000E+00 0. -1.
         -4    1    3    3    0  502  0.23266567602E+03  0.39045412662E+03  0.33793411428E+03  0.56638079715E+03  0.00000000000E+00 0. -1.
        -13    1    1    2    0    0 -0.13092263120E+03  0.13305444075E+03  0.78127651531E+02  0.20235651870E+03  0.10566000000E+00 0.  1.
<mgrwt>
<rscale>  1 0.66154834E+03</rscale>
<asrwt>0</asrwt>
<pdfrwt beam="1">  1       21 0.14525385E+00 0.10086186E+04</pdfrwt>
<pdfrwt beam="2">  1       -4 0.58227513E-01 0.10086186E+04</pdfrwt>
<totfact> 0.32964229E+01</totfact>
</mgrwt>
</event>
<event>
 6    2  0.2379986E-005  0.1090516E+04  0.7818608E-02  0.9469094E-01
         -4   -1    0    0    0  501 -0.00000000000E+00  0.00000000000E+00  0.15999985963E+04  0.15999985963E+04  0.00000000000E+00 0. -1.
         21   -1    0    0  501  502  0.00000000000E+00 -0.00000000000E+00 -0.41223976599E+03  0.41223976599E+03  0.00000000000E+00 0.  1.
   -9000010    2    1    2    0  502 -0.41371268745E+02 -0.43173431662E+03  0.50123797070E+03  0.12001934104E+04  0.10005591522E+04 0.  0.
         13    1    3    3    0    0  0.38783116684E+03 -0.15751724548E+03  0.54703101875E+03  0.68881611714E+03  0.10566000000E+00 0. -1.
         -4    1    3    3    0  502 -0.42920243559E+03 -0.27421707115E+03 -0.45793048047E+02  0.51137729327E+03  0.00000000000E+00 0. -1.
        -13    1    1    2    0    0  0.41371268745E+02  0.43173431662E+03  0.68652085965E+03  0.81204495191E+03  0.10566000000E+00 0.  1.
<mgrwt>
<rscale>  1 0.86601285E+03</rscale>
<asrwt>0</asrwt>
<pdfrwt beam="2">  1       21 0.63421503E-01 0.10905158E+04</pdfrwt>
<pdfrwt beam="1">  1       -4 0.24615363E+00 0.10905158E+04</pdfrwt>
<totfact> 0.58807088E+00</totfact>
</mgrwt>
</event>
<event>
 6    2  0.2379986E-005  0.1053976E+04  0.7818608E-02  0.9545771E-01
         21   -1    0    0  501  502  0.00000000000E+00  0.00000000000E+00  0.13650404741E+04  0.13650404741E+04  0.00000000000E+00 0. -1.
         -4   -1    0    0    0  501 -0.00000000000E+00 -0.00000000000E+00 -0.61537581999E+03  0.61537581999E+03  0.00000000000E+00 0. -1.
   -9000010    2    1    2    0  502 -0.34211692532E+03 -0.13424331183E+03  0.10633833360E+04  0.14972137694E+04  0.98782574103E+03 0.  0.
         13    1    3    3    0    0  0.97219364250E+02 -0.37753434458E+03  0.87288694194E+02  0.39950358374E+03  0.10566000000E+00 0. -1.
         -4    1    3    3    0  502 -0.43933628957E+03  0.24329103275E+03  0.97609464179E+03  0.10977101856E+04  0.00000000000E+00 0. -1.
        -13    1    1    2    0    0  0.34211692532E+03  0.13424331183E+03 -0.31371868187E+03  0.48320252470E+03  0.10566000000E+00 0.  1.
<mgrwt>
<rscale>  1 0.80991778E+03</rscale>
<asrwt>0</asrwt>
<pdfrwt beam="1">  1       21 0.21000623E+00 0.10539758E+04</pdfrwt>
<pdfrwt beam="2">  1       -4 0.94673203E-01 0.10539758E+04</pdfrwt>
<totfact> 0.36267654E+00</totfact>
</mgrwt>
</event>
<event>
 6    2  0.2379986E-005  0.9820268E+03  0.7818608E-02  0.1012186E+00
         21   -1    0    0  501  502  0.00000000000E+00  0.00000000000E+00  0.20461845427E+04  0.20461845427E+04  0.00000000000E+00 0. -1.
         -4   -1    0    0    0  501 -0.00000000000E+00 -0.00000000000E+00 -0.14092891918E+03  0.14092891918E+03  0.00000000000E+00 0. -1.
   -9000010    2    1    2    0  502  0.69292023914E+02 -0.11559844835E+01  0.18629086359E+04  0.21058977035E+04  0.97957839461E+03 0.  0.
         13    1    3    3    0    0 -0.13851137318E+03 -0.45548350052E+03  0.10288329350E+04  0.11336436120E+04  0.10566000000E+00 0. -1.
         -4    1    3    3    0  502  0.20780339709E+03  0.45432751604E+03  0.83407570086E+03  0.97225409150E+03  0.00000000000E+00 0. -1.
        -13    1    1    2    0    0 -0.69292023914E+02  0.11559844835E+01  0.42346987632E+02  0.81215758347E+02  0.10566000000E+00 0.  1.
<mgrwt>
<rscale>  1 0.50614918E+03</rscale>
<asrwt>0</asrwt>
<pdfrwt beam="1">  1       21 0.31479760E+00 0.98202676E+03</pdfrwt>
<pdfrwt beam="2">  1       -4 0.21681374E-01 0.98202676E+03</pdfrwt>
<totfact> 0.17362628E+01</totfact>
</mgrwt>
</event>
<event>
 6    2  0.2379986E-005  0.1049360E+04  0.7818608E-02  0.9655432E-01
         21   -1    0    0  501  502  0.00000000000E+00  0.00000000000E+00  0.10836705926E+04  0.10836705926E+04  0.00000000000E+00 0. -1.
         -4   -1    0    0    0  501 -0.00000000000E+00 -0.00000000000E+00 -0.39318674820E+03  0.39318674820E+03  0.00000000000E+00 0. -1.
   -9000010    2    1    2    0  502 -0.25425642727E+03  0.27973470248E+02  0.56867341728E+03  0.11935436680E+04  0.10177073185E+04 0.  0.
         13    1    3    3    0    0  0.36798431389E+03 -0.15395893840E+03  0.25419938336E+03  0.47300438438E+03  0.10566000000E+00 0. -1.
         -4    1    3    3    0  502 -0.62224074116E+03  0.18193240865E+03  0.31447403392E+03  0.72053928365E+03  0.00000000000E+00 0. -1.
        -13    1    1    2    0    0  0.25425642727E+03 -0.27973470248E+02  0.12181042709E+03  0.28331367273E+03  0.10566000000E+00 0.  1.
<mgrwt>
<rscale>  1 0.73733464E+03</rscale>
<asrwt>0</asrwt>
<pdfrwt beam="1">  1       21 0.16671855E+00 0.10493603E+04</pdfrwt>
<pdfrwt beam="2">  1       -4 0.60490269E-01 0.10493603E+04</pdfrwt>
<totfact> 0.20452054E+01</totfact>
</mgrwt>
</event>
<event>
 6    2  0.2379986E-005  0.1027471E+04  0.7818608E-02  0.9752248E-01
         21   -1    0    0  501  502  0.00000000000E+00  0.00000000000E+00  0.35234502922E+03  0.35234502922E+03  0.00000000000E+00 0. -1.
         -4   -1    0    0    0  501 -0.00000000000E+00 -0.00000000000E+00 -0.16775833939E+04  0.16775833939E+04  0.00000000000E+00 0. -1.
   -9000010    2    1    2    0  502  0.14159293485E+03 -0.13696236814E+03 -0.43092937839E+03  0.11141796456E+04  0.10084090955E+04 0.  0.
         13    1    3    3    0    0  0.38253688406E+02 -0.32282006926E+03  0.24405052205E+03  0.40649330902E+03  0.10566000000E+00 0. -1.
         -4    1    3    3    0  502  0.10333924645E+03  0.18585770112E+03 -0.67497990044E+03  0.70768633654E+03  0.00000000000E+00 0. -1.
        -13    1    1    2    0    0 -0.14159293485E+03  0.13696236814E+03 -0.89430898634E+03  0.91574877761E+03  0.10566000000E+00 0.  1.
<mgrwt>
<rscale>  1 0.67989403E+03</rscale>
<asrwt>0</asrwt>
<pdfrwt beam="1">  1       21 0.54206927E-01 0.10274708E+04</pdfrwt>
<pdfrwt beam="2">  1       -4 0.25808975E+00 0.10274708E+04</pdfrwt>
<totfact> 0.70856287E+00</totfact>
</mgrwt>
</event>
<event>
 6    2  0.2379986E-005  0.9776772E+03  0.7818608E-02  0.9800488E-01
         21   -1    0    0  501  502  0.00000000000E+00  0.00000000000E+00  0.78029919432E+03  0.78029919432E+03  0.00000000000E+00 0. -1.
         -4   -1    0    0    0  501 -0.00000000000E+00 -0.00000000000E+00 -0.44340997287E+03  0.44340997287E+03  0.00000000000E+00 0. -1.
   -9000010    2    1    2    0  502 -0.14955268843E+03 -0.12513501049E+03  0.24373137334E+03  0.10075999973E+04  0.95803339964E+03 0.  0.
         13    1    3    3    0    0 -0.12840118682E+03 -0.29456205099E+02 -0.36654889249E+03  0.38950306102E+03  0.10566000000E+00 0. -1.
         -4    1    3    3    0  502 -0.21151501610E+02 -0.95678805389E+02  0.61028026583E+03  0.61809693632E+03  0.00000000000E+00 0. -1.
        -13    1    1    2    0    0  0.14955268843E+03  0.12513501049E+03  0.93157848102E+02  0.21610916985E+03  0.10566000000E+00 0.  1.
<mgrwt>
<rscale>  1 0.65336374E+03</rscale>
<asrwt>0</asrwt>
<pdfrwt beam="1">  1       21 0.12004603E+00 0.97767723E+03</pdfrwt>
<pdfrwt beam="2">  1       -4 0.68216919E-01 0.97767723E+03</pdfrwt>
<totfact> 0.38865553E+01</totfact>
</mgrwt>
</event>
<event>
 6    2  0.2379986E-005  0.1029901E+04  0.7818608E-02  0.9717705E-01
         -4   -1    0    0    0  501 -0.00000000000E+00  0.00000000000E+00  0.11701199372E+04  0.11701199372E+04  0.00000000000E+00 0. -1.
         21   -1    0    0  501  502  0.00000000000E+00 -0.00000000000E+00 -0.48279503233E+03  0.48279503233E+03  0.00000000000E+00 0. -1.
   -9000010    2    1    2    0  502  0.58625875717E+02  0.21146542404E+03  0.11056426233E+03  0.10358189731E+04  0.10062513951E+04 0.  0.
         13    1    3    3    0    0 -0.30096166200E+03 -0.26064744040E+03  0.18257791852E+03  0.43800652698E+03  0.10566000000E+00 0. -1.
         -4    1    3    3    0  502  0.35958753772E+03  0.47211286444E+03 -0.72013656191E+02  0.59781244612E+03  0.00000000000E+00 0. -1.
        -13    1    1    2    0    0 -0.58625875717E+02 -0.21146542404E+03  0.57676064258E+03  0.61709599648E+03  0.10566000000E+00 0.  1.
<mgrwt>
<rscale>  1 0.69972345E+03</rscale>
<asrwt>0</asrwt>
<pdfrwt beam="2">  1       21 0.74276159E-01 0.10299012E+04</pdfrwt>
<pdfrwt beam="1">  1       -4 0.18001845E+00 0.10299012E+04</pdfrwt>
<totfact> 0.11114950E+01</totfact>
</mgrwt>
</event>
<event>
 6    2  0.2379986E-005  0.1187644E+04  0.7818608E-02  0.9306299E-01
         -4   -1    0    0    0  501 -0.00000000000E+00  0.00000000000E+00  0.10151986811E+04  0.10151986811E+04  0.00000000000E+00 0. -1.
         21   -1    0    0  501  502  0.00000000000E+00 -0.00000000000E+00 -0.84217500459E+03  0.84217500459E+03  0.00000000000E+00 0.  1.
   -9000010    2    1    2    0  502 -0.11820727138E+03 -0.59014274298E+03 -0.10914298328E+03  0.11926485913E+04  0.10238442535E+04 0.  0.
         13    1    3    3    0    0 -0.54949217962E+03 -0.18077623607E+03 -0.14687643312E+03  0.59682024158E+03  0.10566000000E+00 0. -1.
         -4    1    3    3    0  502  0.43128490824E+03 -0.40936650691E+03  0.37733449837E+02  0.59582834969E+03  0.00000000000E+00 0. -1.
        -13    1    1    2    0    0  0.11820727138E+03  0.59014274298E+03  0.28216665982E+03  0.66472509444E+03  0.10566000000E+00 0.  1.
<mgrwt>
<rscale>  1 0.10020502E+04</rscale>
<asrwt>0</asrwt>
<pdfrwt beam="2">  1       21 0.12956538E+00 0.11876441E+04</pdfrwt>
<pdfrwt beam="1">  1       -4 0.15618441E+00 0.11876441E+04</pdfrwt>
<totfact> 0.41037610E+00</totfact>
</mgrwt>
</event>
<event>
 6    2  0.2379986E-005  0.9935705E+03  0.7818608E-02  0.1016186E+00
         -4   -1    0    0    0  501 -0.00000000000E+00  0.00000000000E+00  0.26429623640E+03  0.26429623640E+03  0.00000000000E+00 0. -1.
         21   -1    0    0  501  502  0.00000000000E+00 -0.00000000000E+00 -0.15367047794E+04  0.15367047794E+04  0.00000000000E+00 0. -1.
   -9000010    2    1    2    0  502  0.57533943765E+02  0.13945262025E+02 -0.13666856201E+04  0.16896780467E+04  0.99180526934E+03 0.  0.
         13    1    3    3    0    0  0.25415082209E+03 -0.73901764342E+02  0.39050432021E+02  0.26754262940E+03  0.10566000000E+00 0. -1.
         -4    1    3    3    0  502 -0.19661687832E+03  0.87847026367E+02 -0.14057360522E+04  0.14221354173E+04  0.00000000000E+00 0. -1.
        -13    1    1    2    0    0 -0.57533943765E+02 -0.13945262025E+02  0.94277077102E+02  0.11132296910E+03  0.10566000000E+00 0.  1.
<mgrwt>
<rscale>  1 0.49088457E+03</rscale>
<asrwt>0</asrwt>
<pdfrwt beam="2">  1       21 0.23641612E+00 0.99357049E+03</pdfrwt>
<pdfrwt beam="1">  1       -4 0.40660960E-01 0.99357049E+03</pdfrwt>
<totfact> 0.15711197E+01</totfact>
</mgrwt>
</event>
<event>
 6    2  0.2379986E-005  0.8638232E+03  0.7818608E-02  0.9691390E-01
         -4   -1    0    0    0  501 -0.00000000000E+00  0.00000000000E+00  0.20732031526E+03  0.20732031526E+03  0.00000000000E+00 0. -1.
         21   -1    0    0  501  502  0.00000000000E+00 -0.00000000000E+00 -0.19539879416E+04  0.19539879416E+04  0.00000000000E+00 0. -1.
   -9000010    2    1    2    0  502  0.39216177222E+03  0.10579664458E+03 -0.11180106503E+04  0.14128475763E+04  0.76236911940E+03 0.  0.
         13    1    3    3    0    0  0.47814173798E+03  0.19956049464E+03 -0.11667476605E+04  0.12766142828E+04  0.10566000000E+00 0. -1.
         -4    1    3    3    0  502 -0.85979965753E+02 -0.93763850066E+02  0.48737010250E+02  0.13623329350E+03  0.00000000000E+00 0. -1.
        -13    1    1    2    0    0 -0.39216177222E+03 -0.10579664458E+03 -0.62865697608E+03  0.74846068056E+03  0.10566000000E+00 0.  1.
<mgrwt>
<rscale>  1 0.71531750E+03</rscale>
<asrwt>0</asrwt>
<pdfrwt beam="2">  1       21 0.30061353E+00 0.86382316E+03</pdfrwt>
<pdfrwt beam="1">  1       -4 0.31895433E-01 0.86382316E+03</pdfrwt>
<totfact> 0.10338812E+01</totfact>
</mgrwt>
</event>
<event>
 6    2  0.2379986E-005  0.8826579E+03  0.7818608E-02  0.9814619E-01
         -4   -1    0    0    0  501 -0.00000000000E+00  0.00000000000E+00  0.12499098161E+04  0.12499098161E+04  0.00000000000E+00 0. -1.
         21   -1    0    0  501  502  0.00000000000E+00 -0.00000000000E+00 -0.27027467804E+03  0.27027467804E+03  0.00000000000E+00 0. -1.
   -9000010    2    1    2    0  502 -0.21749336066E+03  0.12924902688E+03  0.61265066812E+03  0.10744420963E+04  0.84562184475E+03 0.  0.
         13    1    3    3    0    0  0.32510319004E+03  0.78311779358E+02  0.27840475096E+03  0.43512531009E+03  0.10566000000E+00 0. -1.
         -4    1    3    3    0  502 -0.54259655070E+03  0.50937247521E+02  0.33424591715E+03  0.63931678623E+03  0.00000000000E+00 0. -1.
        -13    1    1    2    0    0  0.21749336066E+03 -0.12924902688E+03  0.36698446999E+03  0.44574239787E+03  0.10566000000E+00 0.  1.
<mgrwt>
<rscale>  1 0.64583886E+03</rscale>
<asrwt>0</asrwt>
<pdfrwt beam="2">  1       21 0.41580721E-01 0.88265790E+03</pdfrwt>
<pdfrwt beam="1">  1       -4 0.19229381E+00 0.88265790E+03</pdfrwt>
<totfact> 0.33376451E+01</totfact>
</mgrwt>
</event>
<event>
 6    2  0.2379986E-005  0.9971612E+03  0.7818608E-02  0.1042435E+00
         21   -1    0    0  501  502  0.00000000000E+00  0.00000000000E+00  0.32200495136E+03  0.32200495136E+03  0.00000000000E+00 0. -1.
         -4   -1    0    0    0  501 -0.00000000000E+00 -0.00000000000E+00 -0.84702959541E+03  0.84702959541E+03  0.00000000000E+00 0. -1.
   -9000010    2    1    2    0  502  0.18773999522E+02  0.19184813599E+02 -0.45893750225E+03  0.10977040371E+04  0.99679988062E+03 0.  0.
         13    1    3    3    0    0 -0.26216885891E+03 -0.44030267200E+02 -0.68295044253E+03  0.73286594486E+03  0.10566000000E+00 0. -1.
         -4    1    3    3    0  502  0.28094285843E+03  0.63215080799E+02  0.22401294029E+03  0.36483809226E+03  0.00000000000E+00 0. -1.
        -13    1    1    2    0    0 -0.18773999522E+02 -0.19184813599E+02 -0.66087141809E+02  0.71330509653E+02  0.10566000000E+00 0.  1.
<mgrwt>
<rscale>  1 0.40390632E+03</rscale>
<asrwt>0</asrwt>
<pdfrwt beam="1">  1       21 0.49539223E-01 0.99716123E+03</pdfrwt>
<pdfrwt beam="2">  1       -4 0.13031225E+00 0.99716123E+03</pdfrwt>
<totfact> 0.66295287E+01</totfact>
</mgrwt>
</event>
<event>
 6    2  0.2379986E-005  0.1079596E+04  0.7818608E-02  0.9476215E-01
         -4   -1    0    0    0  501 -0.00000000000E+00  0.00000000000E+00  0.47441806077E+03  0.47441806077E+03  0.00000000000E+00 0. -1.
         21   -1    0    0  501  502  0.00000000000E+00 -0.00000000000E+00 -0.13216111548E+04  0.13216111548E+04  0.00000000000E+00 0.  1.
   -9000010    2    1    2    0  502  0.30796684172E+03 -0.30854787639E+03 -0.35029209363E+03  0.11350027539E+04  0.98766458524E+03 0.  0.
         13    1    3    3    0    0 -0.10233648523E+02 -0.58982051122E+03 -0.86910908067E+01  0.58997331231E+03  0.10566000000E+00 0. -1.
         -4    1    3    3    0  502  0.31820049024E+03  0.28127263483E+03 -0.34160100282E+03  0.54502944161E+03  0.00000000000E+00 0. -1.
        -13    1    1    2    0    0 -0.30796684172E+03  0.30854787639E+03 -0.49690100037E+03  0.66102646161E+03  0.10566000000E+00 0.  1.
<mgrwt>
<rscale>  1 0.86060339E+03</rscale>
<asrwt>0</asrwt>
<pdfrwt beam="2">  1       21 0.20332479E+00 0.10795956E+04</pdfrwt>
<pdfrwt beam="1">  1       -4 0.72987395E-01 0.10795956E+04</pdfrwt>
<totfact> 0.73328523E+00</totfact>
</mgrwt>
</event>
<event>
 6    2  0.2379986E-005  0.1037462E+04  0.7818608E-02  0.1016330E+00
         21   -1    0    0  501  502  0.00000000000E+00  0.00000000000E+00  0.60274757347E+03  0.60274757347E+03  0.00000000000E+00 0. -1.
         -4   -1    0    0    0  501 -0.00000000000E+00 -0.00000000000E+00 -0.52149901270E+03  0.52149901270E+03  0.00000000000E+00 0. -1.
   -9000010    2    1    2    0  502  0.40800429886E+02 -0.31869621896E+02  0.13894769785E+03  0.10467253022E+04  0.10361694107E+04 0.  0.
         13    1    3    3    0    0 -0.24762576282E+03 -0.42366202140E+03  0.24546791725E+03  0.54869165872E+03  0.10566000000E+00 0. -1.
         -4    1    3    3    0  502  0.28842619270E+03  0.39179239950E+03 -0.10652021939E+03  0.49803364352E+03  0.00000000000E+00 0. -1.
        -13    1    1    2    0    0 -0.40800429886E+02  0.31869621896E+02 -0.57699137085E+02  0.77521283936E+02  0.10566000000E+00 0.  1.
<mgrwt>
<rscale>  1 0.49034671E+03</rscale>
<asrwt>0</asrwt>
<pdfrwt beam="1">  1       21 0.92730396E-01 0.10374620E+04</pdfrwt>
<pdfrwt beam="2">  1       -4 0.80230617E-01 0.10374620E+04</pdfrwt>
<totfact> 0.51207357E+01</totfact>
</mgrwt>
</event>
<event>
 6    2  0.2379986E-005  0.1174005E+04  0.7818608E-02  0.9312590E-01
         -4   -1    0    0    0  501 -0.00000000000E+00  0.00000000000E+00  0.73221081074E+03  0.73221081074E+03  0.00000000000E+00 0. -1.
         21   -1    0    0  501  502  0.00000000000E+00 -0.00000000000E+00 -0.11856203518E+04  0.11856203518E+04  0.00000000000E+00 0. -1.
   -9000010    2    1    2    0  502 -0.55943184133E+03  0.24055089962E+03 -0.55815303323E+03  0.12999315503E+04  0.10037223255E+04 0.  0.
         13    1    3    3    0    0 -0.76662343608E+03  0.44159214165E+03 -0.43852513345E+03  0.98743071460E+03  0.10566000000E+00 0. -1.
         -4    1    3    3    0  502  0.20719159475E+03 -0.20104124203E+03 -0.11962789979E+03  0.31250083574E+03  0.00000000000E+00 0. -1.
        -13    1    1    2    0    0  0.55943184133E+03 -0.24055089962E+03  0.10474349220E+03  0.61789961218E+03  0.10566000000E+00 0.  1.
<mgrwt>
<rscale>  1 0.99632051E+03</rscale>
<asrwt>0</asrwt>
<pdfrwt beam="2">  1       21 0.18240313E+00 0.11740048E+04</pdfrwt>
<pdfrwt beam="1">  1       -4 0.11264782E+00 0.11740048E+04</pdfrwt>
<totfact> 0.36415550E+00</totfact>
</mgrwt>
</event>
<event>
 6    2  0.2379986E-005  0.1010452E+04  0.7818608E-02  0.9871231E-01
         21   -1    0    0  501  502  0.00000000000E+00  0.00000000000E+00  0.51683849218E+03  0.51683849218E+03  0.00000000000E+00 0. -1.
         -4   -1    0    0    0  501 -0.00000000000E+00 -0.00000000000E+00 -0.77268522505E+03  0.77268522505E+03  0.00000000000E+00 0. -1.
   -9000010    2    1    2    0  502 -0.13537099495E+03  0.36690785239E+02 -0.14703857758E+02  0.10105588138E+04  0.10006704715E+04 0.  0.
         13    1    3    3    0    0 -0.10468889503E+03 -0.26750145129E+03  0.40177769700E+03  0.49390497077E+03  0.10566000000E+00 0. -1.
         -4    1    3    3    0  502 -0.30682099922E+02  0.30419223653E+03 -0.41648155475E+03  0.51665384298E+03  0.00000000000E+00 0. -1.
        -13    1    1    2    0    0  0.13537099495E+03 -0.36690785239E+02 -0.24114287511E+03  0.27896490348E+03  0.10566000000E+00 0.  1.
<mgrwt>
<rscale>  1 0.61676040E+03</rscale>
<asrwt>0</asrwt>
<pdfrwt beam="1">  1       21 0.79513614E-01 0.10104518E+04</pdfrwt>
<pdfrwt beam="2">  1       -4 0.11887465E+00 0.10104518E+04</pdfrwt>
<totfact> 0.28863821E+01</totfact>
</mgrwt>
</event>
<event>
 6    2  0.2379986E-005  0.1069024E+04  0.7818608E-02  0.9522916E-01
         21   -1    0    0  501  502  0.00000000000E+00  0.00000000000E+00  0.29066557062E+03  0.29066557062E+03  0.00000000000E+00 0. -1.
         -4   -1    0    0    0  501 -0.00000000000E+00 -0.00000000000E+00 -0.18266383368E+04  0.18266383368E+04  0.00000000000E+00 0. -1.
   -9000010    2    1    2    0  502 -0.37803045751E+03 -0.49894570209E+02 -0.12199162206E+04  0.16220380736E+04  0.99870687997E+03 0.  0.
         13    1    3    3    0    0 -0.72065998233E+03 -0.76124684740E+02 -0.79937101148E+03  0.10789531051E+04  0.10566000000E+00 0. -1.
         -4    1    3    3    0  502  0.34262952481E+03  0.26230114531E+02 -0.42054520913E+03  0.54308496858E+03  0.00000000000E+00 0. -1.
        -13    1    1    2    0    0  0.37803045751E+03  0.49894570209E+02 -0.31605654555E+03  0.49526583377E+03  0.10566000000E+00 0.  1.
<mgrwt>
<rscale>  1 0.82615177E+03</rscale>
<asrwt>0</asrwt>
<pdfrwt beam="1">  1       21 0.44717780E-01 0.10690238E+04</pdfrwt>
<pdfrwt beam="2">  1       -4 0.28102128E+00 0.10690238E+04</pdfrwt>
<totfact> 0.77144804E+00</totfact>
</mgrwt>
</event>
<event>
 6    2  0.2379986E-005  0.1034999E+04  0.7818608E-02  0.9703472E-01
         21   -1    0    0  501  502  0.00000000000E+00  0.00000000000E+00  0.17970376917E+04  0.17970376917E+04  0.00000000000E+00 0. -1.
         -4   -1    0    0    0  501 -0.00000000000E+00 -0.00000000000E+00 -0.30732635002E+03  0.30732635002E+03  0.00000000000E+00 0. -1.
   -9000010    2    1    2    0  502 -0.19260319336E+03 -0.11968581296E+03  0.15553945093E+04  0.18682814850E+04  0.10098529317E+04 0.  0.
         13    1    3    3    0    0 -0.36427127427E+03  0.25598371348E+03  0.27590931070E+03  0.52378161644E+03  0.10566000000E+00 0. -1.
         -4    1    3    3    0  502  0.17166808091E+03 -0.37566952644E+03  0.12794851986E+04  0.13444998686E+04  0.00000000000E+00 0. -1.
        -13    1    1    2    0    0  0.19260319336E+03  0.11968581296E+03 -0.65683167630E+02  0.23608255672E+03  0.10566000000E+00 0.  1.
<mgrwt>
<rscale>  1 0.70810441E+03</rscale>
<asrwt>0</asrwt>
<pdfrwt beam="1">  1       21 0.27646733E+00 0.10349993E+04</pdfrwt>
<pdfrwt beam="2">  1       -4 0.47280978E-01 0.10349993E+04</pdfrwt>
<totfact> 0.63734121E+00</totfact>
</mgrwt>
</event>
<event>
 6    2  0.2379986E-005  0.1077404E+04  0.7818608E-02  0.9521094E-01
         21   -1    0    0  501  502  0.00000000000E+00  0.00000000000E+00  0.10393365523E+04  0.10393365523E+04  0.00000000000E+00 0. -1.
         -4   -1    0    0    0  501 -0.00000000000E+00 -0.00000000000E+00 -0.54963339074E+03  0.54963339074E+03  0.00000000000E+00 0. -1.
   -9000010    2    1    2    0  502 -0.57568441822E+02 -0.37040489383E+03  0.54939630920E+03  0.12093949256E+04  0.10100920110E+04 0.  0.
         13    1    3    3    0    0 -0.47022887115E+02 -0.67709937600E+03  0.13219187673E+03  0.69148349245E+03  0.10566000000E+00 0. -1.
         -4    1    3    3    0  502 -0.10545554707E+02  0.30669448217E+03  0.41720443247E+03  0.51791143315E+03  0.00000000000E+00 0. -1.
        -13    1    1    2    0    0  0.57568441822E+02  0.37040489383E+03 -0.59693147586E+02  0.37957501748E+03  0.10566000000E+00 0.  1.
<mgrwt>
<rscale>  1 0.82746363E+03</rscale>
<asrwt>0</asrwt>
<pdfrwt beam="1">  1       21 0.15989793E+00 0.10774042E+04</pdfrwt>
<pdfrwt beam="2">  1       -4 0.84558983E-01 0.10774042E+04</pdfrwt>
<totfact> 0.10819927E+01</totfact>
</mgrwt>
</event>
<event>
 6    2  0.2379986E-005  0.1019119E+04  0.7818608E-02  0.9762038E-01
         21   -1    0    0  501  502  0.00000000000E+00  0.00000000000E+00  0.13364812169E+04  0.13364812169E+04  0.00000000000E+00 0. -1.
         -4   -1    0    0    0  501 -0.00000000000E+00 -0.00000000000E+00 -0.34057089935E+03  0.34057089935E+03  0.00000000000E+00 0. -1.
   -9000010    2    1    2    0  502 -0.19177633517E+03 -0.37633706396E+02  0.10609030989E+04  0.14710945202E+04  0.10002046008E+04 0.  0.
         13    1    3    3    0    0  0.37579345416E+02  0.43449305982E+03  0.24297309772E+03  0.49923177345E+03  0.10566000000E+00 0. -1.
         -4    1    3    3    0  502 -0.22935568059E+03 -0.47212676622E+03  0.81793000122E+03  0.97186274674E+03  0.00000000000E+00 0. -1.
        -13    1    1    2    0    0  0.19177633517E+03  0.37633706396E+02 -0.64992781375E+02  0.20595759608E+03  0.10566000000E+00 0.  1.
<mgrwt>
<rscale>  1 0.67440186E+03</rscale>
<asrwt>0</asrwt>
<pdfrwt beam="1">  1       21 0.20561249E+00 0.10191191E+04</pdfrwt>
<pdfrwt beam="2">  1       -4 0.52395524E-01 0.10191191E+04</pdfrwt>
<totfact> 0.14743682E+01</totfact>
</mgrwt>
</event>
<event>
 6    2  0.2379986E-005  0.1039504E+04  0.7818608E-02  0.1007803E+00
         21   -1    0    0  501  502  0.00000000000E+00  0.00000000000E+00  0.12798094036E+04  0.12798094036E+04  0.00000000000E+00 0. -1.
         -4   -1    0    0    0  501 -0.00000000000E+00 -0.00000000000E+00 -0.24496148765E+03  0.24496148765E+03  0.00000000000E+00 0. -1.
   -9000010    2    1    2    0  502  0.66770442736E+02 -0.41760252168E+01  0.10197672060E+04  0.14561912282E+04  0.10373485467E+04 0.  0.
         13    1    3    3    0    0  0.36342983781E+03  0.39823338930E+03  0.54988830766E+03  0.77009625465E+03  0.10566000000E+00 0. -1.
         -4    1    3    3    0  502 -0.29665939508E+03 -0.40240941451E+03  0.46987889837E+03  0.68609497353E+03  0.00000000000E+00 0. -1.
        -13    1    1    2    0    0 -0.66770442736E+02  0.41760252168E+01  0.15080709902E+02  0.68579663057E+02  0.10566000000E+00 0.  1.
<mgrwt>
<rscale>  1 0.52357347E+03</rscale>
<asrwt>0</asrwt>
<pdfrwt beam="1">  1       21 0.19689375E+00 0.10395036E+04</pdfrwt>
<pdfrwt beam="2">  1       -4 0.37686383E-01 0.10395036E+04</pdfrwt>
<totfact> 0.33429378E+01</totfact>
</mgrwt>
</event>
<event>
 6    2  0.2379986E-005  0.1005939E+04  0.7818608E-02  0.9893165E-01
         -4   -1    0    0    0  501 -0.00000000000E+00  0.00000000000E+00  0.44447695258E+03  0.44447695258E+03  0.00000000000E+00 0. -1.
         21   -1    0    0  501  502  0.00000000000E+00 -0.00000000000E+00 -0.12963495016E+04  0.12963495016E+04  0.00000000000E+00 0. -1.
   -9000010    2    1    2    0  502  0.12676134014E+03  0.38340196867E+02 -0.10807103223E+04  0.14764306417E+04  0.99718314828E+03 0.  0.
         13    1    3    3    0    0  0.46743198255E+03 -0.12203698195E+03 -0.20803491762E+03  0.52598880348E+03  0.10566000000E+00 0. -1.
         -4    1    3    3    0  502 -0.34067064240E+03  0.16037717882E+03 -0.87267540464E+03  0.95044183827E+03  0.00000000000E+00 0. -1.
        -13    1    1    2    0    0 -0.12676134014E+03 -0.38340196867E+02  0.22883777319E+03  0.26439581247E+03  0.10566000000E+00 0.  1.
<mgrwt>
<rscale>  1 0.60593695E+03</rscale>
<asrwt>0</asrwt>
<pdfrwt beam="2">  1       21 0.19943838E+00 0.10059387E+04</pdfrwt>
<pdfrwt beam="1">  1       -4 0.68381072E-01 0.10059387E+04</pdfrwt>
<totfact> 0.91150567E+00</totfact>
</mgrwt>
</event>
<event>
 6    2  0.2379986E-005  0.1059868E+04  0.7818608E-02  0.9599715E-01
         21   -1    0    0  501  502  0.00000000000E+00  0.00000000000E+00  0.43123293590E+03  0.43123293590E+03  0.00000000000E+00 0. -1.
         -4   -1    0    0    0  501 -0.00000000000E+00 -0.00000000000E+00 -0.11098571871E+04  0.11098571871E+04  0.00000000000E+00 0. -1.
   -9000010    2    1    2    0  502 -0.12481105335E+03  0.27294035027E+03 -0.40391758447E+03  0.11342265123E+04  0.10164871530E+04 0.  0.
         13    1    3    3    0    0 -0.43594781257E+03  0.48572662377E+03 -0.12309599000E+03  0.66417880292E+03  0.10566000000E+00 0. -1.
         -4    1    3    3    0  502  0.31113675922E+03 -0.21278627351E+03 -0.28082159447E+03  0.47004770934E+03  0.00000000000E+00 0. -1.
        -13    1    1    2    0    0  0.12481105335E+03 -0.27294035027E+03 -0.27470666673E+03  0.40686361075E+03  0.10566000000E+00 0.  1.
<mgrwt>
<rscale>  1 0.77315032E+03</rscale>
<asrwt>0</asrwt>
<pdfrwt beam="1">  1       21 0.66343530E-01 0.10598681E+04</pdfrwt>
<pdfrwt beam="2">  1       -4 0.17074726E+00 0.10598681E+04</pdfrwt>
<totfact> 0.16704285E+01</totfact>
</mgrwt>
</event>
<event>
 6    2  0.2379986E-005  0.1014369E+04  0.7818608E-02  0.9828873E-01
         21   -1    0    0  501  502  0.00000000000E+00  0.00000000000E+00  0.84108133354E+03  0.84108133354E+03  0.00000000000E+00 0. -1.
         -4   -1    0    0    0  501 -0.00000000000E+00 -0.00000000000E+00 -0.41276651995E+03  0.41276651995E+03  0.00000000000E+00 0. -1.
   -9000010    2    1    2    0  502 -0.16181117185E+02 -0.15827495395E+03  0.40844048166E+03  0.10935113641E+04  0.10018136986E+04 0.  0.
         13    1    3    3    0    0 -0.40160879716E+03 -0.37841267575E+03  0.32946470447E+03  0.64267626515E+03  0.10566000000E+00 0. -1.
         -4    1    3    3    0  502  0.38542767998E+03  0.22013772180E+03  0.78975777193E+02  0.45083509894E+03  0.00000000000E+00 0. -1.
        -13    1    1    2    0    0  0.16181117185E+02  0.15827495395E+03  0.19874331930E+02  0.16033648941E+03  0.10566000000E+00 0.  1.
<mgrwt>
<rscale>  1 0.63835806E+03</rscale>
<asrwt>0</asrwt>
<pdfrwt beam="1">  1       21 0.12939713E+00 0.10143685E+04</pdfrwt>
<pdfrwt beam="2">  1       -4 0.63502542E-01 0.10143685E+04</pdfrwt>
<totfact> 0.37265977E+01</totfact>
</mgrwt>
</event>
<event>
 6    2  0.2379986E-005  0.1004608E+04  0.7818608E-02  0.9724462E-01
         -4   -1    0    0    0  501 -0.00000000000E+00  0.00000000000E+00  0.16315517923E+03  0.16315517923E+03  0.00000000000E+00 0. -1.
         21   -1    0    0  501  502  0.00000000000E+00 -0.00000000000E+00 -0.23540665707E+04  0.23540665707E+04  0.00000000000E+00 0. -1.
   -9000010    2    1    2    0  502 -0.22121452899E+03 -0.67085909900E+02 -0.17009493987E+04  0.19754661291E+04  0.97765084937E+03 0.  0.
         13    1    3    3    0    0  0.18137696877E+03  0.36832327160E+03 -0.65203780605E+03  0.77052770805E+03  0.10566000000E+00 0. -1.
         -4    1    3    3    0  502 -0.40259149776E+03 -0.43540918150E+03 -0.10489115926E+04  0.12049384211E+04  0.00000000000E+00 0. -1.
        -13    1    1    2    0    0  0.22121452899E+03  0.67085909900E+02 -0.48996199282E+03  0.54175562085E+03  0.10566000000E+00 0.  1.
<mgrwt>
<rscale>  1 0.69578847E+03</rscale>
<asrwt>0</asrwt>
<pdfrwt beam="2">  1       21 0.36216410E+00 0.10046082E+04</pdfrwt>
<pdfrwt beam="1">  1       -4 0.25100796E-01 0.10046082E+04</pdfrwt>
<totfact> 0.66019348E+00</totfact>
</mgrwt>
</event>
<event>
 6    2  0.2379986E-005  0.1026092E+04  0.7818608E-02  0.1057499E+00
         21   -1    0    0  501  502  0.00000000000E+00  0.00000000000E+00  0.38109142280E+03  0.38109142280E+03  0.00000000000E+00 0. -1.
         -4   -1    0    0    0  501 -0.00000000000E+00 -0.00000000000E+00 -0.72898108218E+03  0.72898108218E+03  0.00000000000E+00 0. -1.
   -9000010    2    1    2    0  502  0.80046755475E+01 -0.13885968192E+02 -0.31478479843E+03  0.10732915598E+04  0.10259670600E+04 0.  0.
         13    1    3    3    0    0 -0.48049409327E+03 -0.15102989475E+03 -0.65298004860E+02  0.50788625043E+03  0.10566000000E+00 0. -1.
         -4    1    3    3    0  502  0.48849876882E+03  0.13714392656E+03 -0.24948679357E+03  0.56540530940E+03  0.00000000000E+00 0. -1.
        -13    1    1    2    0    0 -0.80046755475E+01  0.13885968192E+02 -0.33104860952E+02  0.36780945148E+02  0.10566000000E+00 0.  1.
<mgrwt>
<rscale>  1 0.36275350E+03</rscale>
<asrwt>0</asrwt>
<pdfrwt beam="1">  1       21 0.58629450E-01 0.10260922E+04</pdfrwt>
<pdfrwt beam="2">  1       -4 0.11215093E+00 0.10260922E+04</pdfrwt>
<totfact> 0.66791992E+01</totfact>
</mgrwt>
</event>
<event>
 6    2  0.2379986E-005  0.1035108E+04  0.7818608E-02  0.9615714E-01
         21   -1    0    0  501  502  0.00000000000E+00  0.00000000000E+00  0.45056923610E+03  0.45056923610E+03  0.00000000000E+00 0. -1.
         -4   -1    0    0    0  501 -0.00000000000E+00 -0.00000000000E+00 -0.14390921983E+04  0.14390921983E+04  0.00000000000E+00 0. -1.
   -9000010    2    1    2    0  502  0.29920542938E+03  0.59313253090E+02 -0.21366954290E+03  0.10569311158E+04  0.98914445811E+03 0.  0.
         13    1    3    3    0    0  0.91883370767E+02 -0.45901301956E+03 -0.16587023864E+03  0.49663714438E+03  0.10566000000E+00 0. -1.
         -4    1    3    3    0  502  0.20732205861E+03  0.51832627265E+03 -0.47799304260E+02  0.56029397141E+03  0.00000000000E+00 0. -1.
        -13    1    1    2    0    0 -0.29920542938E+03 -0.59313253090E+02 -0.77485341930E+03  0.83273031860E+03  0.10566000000E+00 0.  1.
<mgrwt>
<rscale>  1 0.76264799E+03</rscale>
<asrwt>0</asrwt>
<pdfrwt beam="1">  1       21 0.69318343E-01 0.10351081E+04</pdfrwt>
<pdfrwt beam="2">  1       -4 0.22139880E+00 0.10351081E+04</pdfrwt>
<totfact> 0.69215908E+00</totfact>
</mgrwt>
</event>
<event>
 6    2  0.2379986E-005  0.1154817E+04  0.7818608E-02  0.9343883E-01
         21   -1    0    0  501  502  0.00000000000E+00  0.00000000000E+00  0.71808546610E+03  0.71808546610E+03  0.00000000000E+00 0. -1.
         -4   -1    0    0    0  501 -0.00000000000E+00 -0.00000000000E+00 -0.10750926472E+04  0.10750926472E+04  0.00000000000E+00 0. -1.
   -9000010    2    1    2    0  502 -0.43105877168E+03  0.37460695202E+03 -0.77650854864E+02  0.11574250156E+04  0.10037235567E+04 0.  0.
         13    1    3    3    0    0  0.31332488596E+02 -0.72619287966E+02 -0.42091666613E+03  0.42828277670E+03  0.10566000000E+00 0. -1.
         -4    1    3    3    0  502 -0.46239126027E+03  0.44722623999E+03  0.34326581127E+03  0.72914223887E+03  0.00000000000E+00 0. -1.
        -13    1    1    2    0    0  0.43105877168E+03 -0.37460695202E+03 -0.27935632628E+03  0.63575309778E+03  0.10566000000E+00 0.  1.
<mgrwt>
<rscale>  1 0.96841345E+03</rscale>
<asrwt>0</asrwt>
<pdfrwt beam="1">  1       21 0.11047469E+00 0.11548173E+04</pdfrwt>
<pdfrwt beam="2">  1       -4 0.16539887E+00 0.11548173E+04</pdfrwt>
<totfact> 0.53217413E+00</totfact>
</mgrwt>
</event>
<event>
 6    2  0.2379986E-005  0.1073269E+04  0.7818608E-02  0.9533242E-01
         -4   -1    0    0    0  501 -0.00000000000E+00  0.00000000000E+00  0.66061364730E+03  0.66061364730E+03  0.00000000000E+00 0. -1.
         21   -1    0    0  501  502  0.00000000000E+00 -0.00000000000E+00 -0.88983076814E+03  0.88983076814E+03  0.00000000000E+00 0. -1.
   -9000010    2    1    2    0  502 -0.75129648394E+01  0.36343322990E+03 -0.40439300124E+03  0.11469264388E+04  0.10098348376E+04 0.  0.
         13    1    3    3    0    0  0.49208924951E+03  0.88677915400E+02 -0.14566642455E+03  0.52080161345E+03  0.10566000000E+00 0. -1.
         -4    1    3    3    0  502 -0.49960221435E+03  0.27475531450E+03 -0.25872657669E+03  0.62612482535E+03  0.00000000000E+00 0. -1.
        -13    1    1    2    0    0  0.75129648394E+01 -0.36343322990E+03  0.17517588041E+03  0.40351797664E+03  0.10566000000E+00 0.  1.
<mgrwt>
<rscale>  1 0.81876793E+03</rscale>
<asrwt>0</asrwt>
<pdfrwt beam="2">  1       21 0.13689704E+00 0.10732691E+04</pdfrwt>
<pdfrwt beam="1">  1       -4 0.10163287E+00 0.10732691E+04</pdfrwt>
<totfact> 0.10782199E+01</totfact>
</mgrwt>
</event>
<event>
 6    2  0.2379986E-005  0.1041688E+04  0.7818608E-02  0.9634061E-01
         21   -1    0    0  501  502  0.00000000000E+00  0.00000000000E+00  0.60403193170E+03  0.60403193170E+03  0.00000000000E+00 0. -1.
         -4   -1    0    0    0  501 -0.00000000000E+00 -0.00000000000E+00 -0.72426655151E+03  0.72426655151E+03  0.00000000000E+00 0. -1.
   -9000010    2    1    2    0  502 -0.25519734560E+03 -0.11797873243E+03 -0.96673144096E+02  0.10461640812E+04  0.10030298707E+04 0.  0.
         13    1    3    3    0    0 -0.60317863656E+02 -0.52216822095E+03  0.13282619613E+03  0.54216298766E+03  0.10566000000E+00 0. -1.
         -4    1    3    3    0  502 -0.19487948195E+03  0.40418948852E+03 -0.22949934022E+03  0.50400109352E+03  0.00000000000E+00 0. -1.
        -13    1    1    2    0    0  0.25519734560E+03  0.11797873243E+03 -0.23561475718E+02  0.28213440203E+03  0.10566000000E+00 0.  1.
<mgrwt>
<rscale>  1 0.75082260E+03</rscale>
<asrwt>0</asrwt>
<pdfrwt beam="1">  1       21 0.92927990E-01 0.10416879E+04</pdfrwt>
<pdfrwt beam="2">  1       -4 0.11142562E+00 0.10416879E+04</pdfrwt>
<totfact> 0.23279595E+01</totfact>
</mgrwt>
</event>
<event>
 6    2  0.2379986E-005  0.1042580E+04  0.7818608E-02  0.9623848E-01
         -4   -1    0    0    0  501 -0.00000000000E+00  0.00000000000E+00  0.13553605139E+04  0.13553605139E+04  0.00000000000E+00 0. -1.
         21   -1    0    0  501  502  0.00000000000E+00 -0.00000000000E+00 -0.34506696470E+03  0.34506696470E+03  0.00000000000E+00 0. -1.
   -9000010    2    1    2    0  502 -0.27083527476E+03 -0.10464592179E+03  0.61666763951E+03  0.12113018475E+04  0.10013344462E+04 0.  0.
         13    1    3    3    0    0 -0.52439109574E+03 -0.29253312794E+03  0.10417523994E+03  0.60943756367E+03  0.10566000000E+00 0. -1.
         -4    1    3    3    0  502  0.25355582098E+03  0.18788720615E+03  0.51249239956E+03  0.60186428387E+03  0.00000000000E+00 0. -1.
        -13    1    1    2    0    0  0.27083527476E+03  0.10464592179E+03  0.39362590965E+03  0.48912563101E+03  0.10566000000E+00 0.  1.
<mgrwt>
<rscale>  1 0.75737704E+03</rscale>
<asrwt>0</asrwt>
<pdfrwt beam="2">  1       21 0.53087226E-01 0.10425801E+04</pdfrwt>
<pdfrwt beam="1">  1       -4 0.20851700E+00 0.10425801E+04</pdfrwt>
<totfact> 0.15197680E+01</totfact>
</mgrwt>
</event>
<event>
 6    2  0.2379986E-005  0.1038508E+04  0.7818608E-02  0.9924348E-01
         -4   -1    0    0    0  501 -0.00000000000E+00  0.00000000000E+00  0.63141189440E+03  0.63141189440E+03  0.00000000000E+00 0. -1.
         21   -1    0    0  501  502  0.00000000000E+00 -0.00000000000E+00 -0.81042494075E+03  0.81042494075E+03  0.00000000000E+00 0. -1.
   -9000010    2    1    2    0  502  0.10513446256E+03 -0.28356210851E+02 -0.46348160159E+03  0.11372392318E+04  0.10327829130E+04 0.  0.
         13    1    3    3    0    0 -0.27742769083E+03  0.34174297610E+03 -0.13734859895E+02  0.44038964894E+03  0.10566000000E+00 0. -1.
         -4    1    3    3    0  502  0.38256215340E+03 -0.37009918695E+03 -0.44974674170E+03  0.69684958281E+03  0.00000000000E+00 0. -1.
        -13    1    1    2    0    0 -0.10513446256E+03  0.28356210851E+02  0.28446855524E+03  0.30459760340E+03  0.10566000000E+00 0.  1.
<mgrwt>
<rscale>  1 0.59095668E+03</rscale>
<asrwt>0</asrwt>
<pdfrwt beam="2">  1       21 0.12468076E+00 0.10385075E+04</pdfrwt>
<pdfrwt beam="1">  1       -4 0.97140292E-01 0.10385075E+04</pdfrwt>
<totfact> 0.15478009E+01</totfact>
</mgrwt>
</event>
<event>
 6    2  0.2379986E-005  0.9971155E+03  0.7818608E-02  0.9916916E-01
         -4   -1    0    0    0  501 -0.00000000000E+00  0.00000000000E+00  0.34998198729E+03  0.34998198729E+03  0.00000000000E+00 0. -1.
         21   -1    0    0  501  502  0.00000000000E+00 -0.00000000000E+00 -0.98307830759E+03  0.98307830759E+03  0.00000000000E+00 0. -1.
   -9000010    2    1    2    0  502 -0.12591075641E+03 -0.43786948303E+01 -0.41260206208E+03  0.10791106530E+04  0.98912418240E+03 0.  0.
         13    1    3    3    0    0 -0.19971204723E+01  0.46838849780E+03 -0.35349307465E+03  0.58681269443E+03  0.10566000000E+00 0. -1.
         -4    1    3    3    0  502 -0.12391363593E+03 -0.47276719263E+03 -0.59108987435E+02  0.49229795855E+03  0.00000000000E+00 0. -1.
        -13    1    1    2    0    0  0.12591075641E+03  0.43786948303E+01 -0.22049425822E+03  0.25394964189E+03  0.10566000000E+00 0.  1.
<mgrwt>
<rscale>  1 0.59448448E+03</rscale>
<asrwt>0</asrwt>
<pdfrwt beam="2">  1       21 0.15124282E+00 0.99711551E+03</pdfrwt>
<pdfrwt beam="1">  1       -4 0.53843383E-01 0.99711551E+03</pdfrwt>
<totfact> 0.34914073E+01</totfact>
</mgrwt>
</event>
<event>
 6    2  0.2379986E-005  0.1108472E+04  0.7818608E-02  0.9431031E-01
         21   -1    0    0  501  502  0.00000000000E+00  0.00000000000E+00  0.48442024334E+03  0.48442024334E+03  0.00000000000E+00 0. -1.
         -4   -1    0    0    0  501 -0.00000000000E+00 -0.00000000000E+00 -0.13969000319E+04  0.13969000319E+04  0.00000000000E+00 0. -1.
   -9000010    2    1    2    0  502  0.28725531381E+03 -0.37513333430E+03 -0.86581787349E+03  0.14065382418E+04  0.10027305729E+04 0.  0.
         13    1    3    3    0    0  0.56396414382E+03 -0.29793732761E+03 -0.17962305326E+03  0.66263614384E+03  0.10566000000E+00 0. -1.
         -4    1    3    3    0  502 -0.27670883001E+03 -0.77196006689E+02 -0.68619482023E+03  0.74390209797E+03  0.00000000000E+00 0. -1.
        -13    1    1    2    0    0 -0.28725531381E+03  0.37513333430E+03 -0.46661915111E+02  0.47478203346E+03  0.10566000000E+00 0.  1.
<mgrwt>
<rscale>  1 0.89565372E+03</rscale>
<asrwt>0</asrwt>
<pdfrwt beam="1">  1       21 0.74526191E-01 0.11084716E+04</pdfrwt>
<pdfrwt beam="2">  1       -4 0.21490770E+00 0.11084716E+04</pdfrwt>
<totfact> 0.63903533E+00</totfact>
</mgrwt>
</event>
<event>
 6    2  0.2379986E-005  0.1068595E+04  0.7818608E-02  0.9502703E-01
         -4   -1    0    0    0  501 -0.00000000000E+00  0.00000000000E+00  0.53690278799E+03  0.53690278799E+03  0.00000000000E+00 0. -1.
         21   -1    0    0  501  502  0.00000000000E+00 -0.00000000000E+00 -0.10573552062E+04  0.10573552062E+04  0.00000000000E+00 0.  1.
   -9000010    2    1    2    0  502  0.40633028516E+03 -0.52184065948E+02 -0.51097956046E+03  0.11844809529E+04  0.98694860012E+03 0.  0.
         13    1    3    3    0    0  0.12553060646E+03  0.13180026580E+03  0.27501758007E+03  0.32979375939E+03  0.10566000000E+00 0. -1.
         -4    1    3    3    0  502  0.28079967870E+03 -0.18398433175E+03 -0.78599714053E+03  0.85468719354E+03  0.00000000000E+00 0. -1.
        -13    1    1    2    0    0 -0.40633028516E+03  0.52184065948E+02 -0.94728577801E+01  0.40977704130E+03  0.10566000000E+00 0.  1.
<mgrwt>
<rscale>  1 0.84084840E+03</rscale>
<asrwt>0</asrwt>
<pdfrwt beam="2">  1       21 0.16267003E+00 0.10685949E+04</pdfrwt>
<pdfrwt beam="1">  1       -4 0.82600429E-01 0.10685949E+04</pdfrwt>
<totfact> 0.10884097E+01</totfact>
</mgrwt>
</event>
<event>
 6    2  0.2379986E-005  0.1000265E+04  0.7818608E-02  0.9994351E-01
         21   -1    0    0  501  502  0.00000000000E+00  0.00000000000E+00  0.75530267409E+03  0.75530267409E+03  0.00000000000E+00 0. -1.
         -4   -1    0    0    0  501 -0.00000000000E+00 -0.00000000000E+00 -0.70868442429E+03  0.70868442429E+03  0.00000000000E+00 0. -1.
   -9000010    2    1    2    0  502 -0.94418434178E+02  0.24545956583E+02  0.41497621523E+03  0.10829294301E+04  0.99549663319E+03 0.  0.
         13    1    3    3    0    0 -0.24737733968E+03 -0.26189782586E+03  0.60686781987E+03  0.70574399136E+03  0.10566000000E+00 0. -1.
         -4    1    3    3    0  502  0.15295890550E+03  0.28644378244E+03 -0.19189160464E+03  0.37718543875E+03  0.00000000000E+00 0. -1.
        -13    1    1    2    0    0  0.94418434178E+02 -0.24545956583E+02 -0.36835796542E+03  0.38105766827E+03  0.10566000000E+00 0.  1.
<mgrwt>
<rscale>  1 0.55898606E+03</rscale>
<asrwt>0</asrwt>
<pdfrwt beam="1">  1       21 0.11620041E+00 0.10002654E+04</pdfrwt>
<pdfrwt beam="2">  1       -4 0.10902837E+00 0.10002654E+04</pdfrwt>
<totfact> 0.14100201E+01</totfact>
</mgrwt>
</event>
<event>
 6    2  0.2379986E-005  0.1116933E+04  0.7818608E-02  0.9400227E-01
         21   -1    0    0  501  502  0.00000000000E+00  0.00000000000E+00  0.22665810821E+04  0.22665810821E+04  0.00000000000E+00 0. -1.
         -4   -1    0    0    0  501 -0.00000000000E+00 -0.00000000000E+00 -0.35506297908E+03  0.35506297908E+03  0.00000000000E+00 0. -1.
   -9000010    2    1    2    0  502 -0.73559254069E+02 -0.51012562259E+03  0.17598793425E+04  0.20843978983E+04  0.99090876653E+03 0.  0.
         13    1    3    3    0    0 -0.21830169267E+03 -0.78024045113E+03  0.12559721731E+04  0.14946226619E+04  0.10566000000E+00 0. -1.
         -4    1    3    3    0  502  0.14474243860E+03  0.27011482854E+03  0.50390716938E+03  0.58977523641E+03  0.00000000000E+00 0. -1.
        -13    1    1    2    0    0  0.73559254069E+02  0.51012562259E+03  0.15163876054E+03  0.53724616289E+03  0.10566000000E+00 0.  1.
<mgrwt>
<rscale>  1 0.92057005E+03</rscale>
<asrwt>0</asrwt>
<pdfrwt beam="1">  1       21 0.34870477E+00 0.11169330E+04</pdfrwt>
<pdfrwt beam="2">  1       -4 0.54625075E-01 0.11169330E+04</pdfrwt>
<totfact> 0.16343259E+00</totfact>
</mgrwt>
</event>
<event>
 6    2  0.2379986E-005  0.9304402E+03  0.7818608E-02  0.9853528E-01
         21   -1    0    0  501  502  0.00000000000E+00  0.00000000000E+00  0.33384176870E+03  0.33384176870E+03  0.00000000000E+00 0. -1.
         -4   -1    0    0    0  501 -0.00000000000E+00 -0.00000000000E+00 -0.10296878952E+04  0.10296878952E+04  0.00000000000E+00 0. -1.
   -9000010    2    1    2    0  502 -0.18039616573E+03 -0.60435628155E+02 -0.40222143201E+03  0.10136572384E+04  0.91078190299E+03 0.  0.
         13    1    3    3    0    0  0.26390734800E+03 -0.34669940962E+01  0.14923185740E+03  0.30319839512E+03  0.10566000000E+00 0. -1.
         -4    1    3    3    0  502 -0.44430351373E+03 -0.56968634059E+02 -0.55145328942E+03  0.71045884327E+03  0.00000000000E+00 0. -1.
        -13    1    1    2    0    0  0.18039616573E+03  0.60435628155E+02 -0.29362469451E+03  0.34987242554E+03  0.10566000000E+00 0.  1.
<mgrwt>
<rscale>  1 0.62567354E+03</rscale>
<asrwt>0</asrwt>
<pdfrwt beam="1">  1       21 0.51360271E-01 0.93044017E+03</pdfrwt>
<pdfrwt beam="2">  1       -4 0.15841353E+00 0.93044017E+03</pdfrwt>
<totfact> 0.36760257E+01</totfact>
</mgrwt>
</event>
<event>
 6    2  0.2379986E-005  0.1020937E+04  0.7818608E-02  0.9658175E-01
         -4   -1    0    0    0  501 -0.00000000000E+00  0.00000000000E+00  0.19100083877E+04  0.19100083877E+04  0.00000000000E+00 0. -1.
         21   -1    0    0  501  502  0.00000000000E+00 -0.00000000000E+00 -0.22456139487E+03  0.22456139487E+03  0.00000000000E+00 0. -1.
   -9000010    2    1    2    0  502  0.26544230107E+03  0.72589359571E+02  0.14440983964E+04  0.17685397476E+04  0.98314995300E+03 0.  0.
         13    1    3    3    0    0 -0.18910118273E+03 -0.40574391297E+02  0.12443822910E+04  0.12593223717E+04  0.10566000000E+00 0. -1.
         -4    1    3    3    0  502  0.45454348380E+03  0.11316375087E+03  0.19971610539E+03  0.50921737591E+03  0.00000000000E+00 0. -1.
        -13    1    1    2    0    0 -0.26544230107E+03 -0.72589359571E+02  0.24134859641E+03  0.36603003493E+03  0.10566000000E+00 0.  1.
<mgrwt>
<rscale>  1 0.73562584E+03</rscale>
<asrwt>0</asrwt>
<pdfrwt beam="2">  1       21 0.34547908E-01 0.10209371E+04</pdfrwt>
<pdfrwt beam="1">  1       -4 0.29384743E+00 0.10209371E+04</pdfrwt>
<totfact> 0.11091053E+01</totfact>
</mgrwt>
</event>
<event>
 6    2  0.2379986E-005  0.1083659E+04  0.7818608E-02  0.9476938E-01
         -4   -1    0    0    0  501 -0.00000000000E+00  0.00000000000E+00  0.90454420674E+03  0.90454420674E+03  0.00000000000E+00 0. -1.
         21   -1    0    0  501  502  0.00000000000E+00 -0.00000000000E+00 -0.10278570722E+04  0.10278570722E+04  0.00000000000E+00 0. -1.
   -9000010    2    1    2    0  502  0.37435545343E+03 -0.21148501011E+03 -0.64131327423E+03  0.12592056539E+04  0.99471013266E+03 0.  0.
         13    1    3    3    0    0  0.75337269019E+02 -0.28239696148E+03  0.20620409074E+03  0.35769244632E+03  0.10566000000E+00 0. -1.
         -4    1    3    3    0  502  0.29901818441E+03  0.70911951368E+02 -0.84751736497E+03  0.90151320754E+03  0.00000000000E+00 0. -1.
        -13    1    1    2    0    0 -0.37435545343E+03  0.21148501011E+03  0.51800040875E+03  0.67319562509E+03  0.10566000000E+00 0.  1.
<mgrwt>
<rscale>  1 0.86005670E+03</rscale>
<asrwt>0</asrwt>
<pdfrwt beam="2">  1       21 0.15813186E+00 0.10836587E+04</pdfrwt>
<pdfrwt beam="1">  1       -4 0.13916065E+00 0.10836587E+04</pdfrwt>
<totfact> 0.32713755E+00</totfact>
</mgrwt>
</event>
<event>
 6    2  0.2379986E-005  0.1279145E+04  0.7818608E-02  0.9169043E-01
         21   -1    0    0  501  502  0.00000000000E+00  0.00000000000E+00  0.32730077270E+03  0.32730077270E+03  0.00000000000E+00 0. -1.
         -4   -1    0    0    0  501 -0.00000000000E+00 -0.00000000000E+00 -0.33405164621E+04  0.33405164621E+04  0.00000000000E+00 0. -1.
   -9000010    2    1    2    0  502  0.65718818994E+03 -0.45789165918E+03 -0.16651325038E+04  0.20997326150E+04  0.99732126747E+03 0.  0.
         13    1    3    3    0    0  0.56753068271E+03 -0.72179988222E+03 -0.90129294390E+03  0.12866293669E+04  0.10566000000E+00 0. -1.
         -4    1    3    3    0  502  0.89657507230E+02  0.26390822303E+03 -0.76383955992E+03  0.81310324811E+03  0.00000000000E+00 0. -1.
        -13    1    1    2    0    0 -0.65718818994E+03  0.45789165918E+03 -0.13480831856E+04  0.15680846199E+04  0.10566000000E+00 0.  1.
<mgrwt>
<rscale>  1 0.11378748E+04</rscale>
<asrwt>0</asrwt>
<pdfrwt beam="1">  1       21 0.50353967E-01 0.12791446E+04</pdfrwt>
<pdfrwt beam="2">  1       -4 0.51392559E+00 0.12791446E+04</pdfrwt>
<totfact> 0.13559476E-01</totfact>
</mgrwt>
</event>
<event>
 6    2  0.2379986E-005  0.1051693E+04  0.7818608E-02  0.9607178E-01
         21   -1    0    0  501  502  0.00000000000E+00  0.00000000000E+00  0.12100145312E+04  0.12100145312E+04  0.00000000000E+00 0. -1.
         -4   -1    0    0    0  501 -0.00000000000E+00 -0.00000000000E+00 -0.54807962414E+03  0.54807962414E+03  0.00000000000E+00 0. -1.
   -9000010    2    1    2    0  502 -0.15225932122E+03  0.25782898082E+03  0.89315774181E+03  0.13797785533E+04  0.10081663653E+04 0.  0.
         13    1    3    3    0    0  0.95917698869E+02  0.21509407717E+03 -0.16790785365E+03  0.28923818121E+03  0.10566000000E+00 0. -1.
         -4    1    3    3    0  502 -0.24817702009E+03  0.42734903653E+02  0.10610655955E+04  0.10905403721E+04  0.00000000000E+00 0. -1.
        -13    1    1    2    0    0  0.15225932122E+03 -0.25782898082E+03 -0.23122283477E+03  0.37831560202E+03  0.10566000000E+00 0.  1.
<mgrwt>
<rscale>  1 0.76822915E+03</rscale>
<asrwt>0</asrwt>
<pdfrwt beam="1">  1       21 0.18615608E+00 0.10516930E+04</pdfrwt>
<pdfrwt beam="2">  1       -4 0.84319942E-01 0.10516930E+04</pdfrwt>
<totfact> 0.69680862E+00</totfact>
</mgrwt>
</event>
<event>
 6    2  0.2379986E-005  0.1004302E+04  0.7818608E-02  0.1044737E+00
         -4   -1    0    0    0  501 -0.00000000000E+00  0.00000000000E+00  0.76598053714E+03  0.76598053714E+03  0.00000000000E+00 0. -1.
         21   -1    0    0  501  502  0.00000000000E+00 -0.00000000000E+00 -0.34672017830E+03  0.34672017830E+03  0.00000000000E+00 0. -1.
   -9000010    2    1    2    0  502  0.38094931274E+01  0.24286374904E+02  0.39832272453E+03  0.10804092934E+04  0.10040014483E+04 0.  0.
         13    1    3    3    0    0  0.10799004975E+03 -0.30521317803E+03  0.59892464608E+03  0.68082866988E+03  0.10566000000E+00 0. -1.
         -4    1    3    3    0  502 -0.10418055662E+03  0.32949955293E+03 -0.20060192154E+03  0.39958062351E+03  0.00000000000E+00 0. -1.
        -13    1    1    2    0    0 -0.38094931274E+01 -0.24286374904E+02  0.20937634303E+02  0.32291422052E+02  0.10566000000E+00 0.  1.
<mgrwt>
<rscale>  1 0.39724602E+03</rscale>
<asrwt>0</asrwt>
<pdfrwt beam="2">  1       21 0.53341566E-01 0.10043024E+04</pdfrwt>
<pdfrwt beam="1">  1       -4 0.11784316E+00 0.10043024E+04</pdfrwt>
<totfact> 0.72857451E+01</totfact>
</mgrwt>
</event>
<event>
 6    2  0.2379986E-005  0.1093678E+04  0.7818608E-02  0.9469190E-01
         21   -1    0    0  501  502  0.00000000000E+00  0.00000000000E+00  0.18960399803E+04  0.18960399803E+04  0.00000000000E+00 0. -1.
         -4   -1    0    0    0  501 -0.00000000000E+00 -0.00000000000E+00 -0.36900774236E+03  0.36900774236E+03  0.00000000000E+00 0. -1.
   -9000010    2    1    2    0  502 -0.28958975442E+03  0.31761213001E+03  0.61001317916E+03  0.12522971826E+04  0.10056801002E+04 0.  0.
         13    1    3    3    0    0 -0.15302528945E+03  0.73473619437E+02  0.86032883532E+03  0.87691551931E+03  0.10566000000E+00 0. -1.
         -4    1    3    3    0  502 -0.13656446497E+03  0.24413851057E+03 -0.25031565616E+03  0.37538166332E+03  0.00000000000E+00 0. -1.
        -13    1    1    2    0    0  0.28958975442E+03 -0.31761213001E+03  0.91701905877E+03  0.10127505400E+04  0.10566000000E+00 0.  1.
<mgrwt>
<rscale>  1 0.86593894E+03</rscale>
<asrwt>0</asrwt>
<pdfrwt beam="1">  1       21 0.29169845E+00 0.10936783E+04</pdfrwt>
<pdfrwt beam="2">  1       -4 0.56770423E-01 0.10936783E+04</pdfrwt>
<totfact> 0.34377766E+00</totfact>
</mgrwt>
</event>
<event>
 6    2  0.2379986E-005  0.1003813E+04  0.7818608E-02  0.1015710E+00
         21   -1    0    0  501  502  0.00000000000E+00  0.00000000000E+00  0.10013204453E+04  0.10013204453E+04  0.00000000000E+00 0. -1.
         -4   -1    0    0    0  501 -0.00000000000E+00 -0.00000000000E+00 -0.32315492263E+03  0.32315492263E+03  0.00000000000E+00 0. -1.
   -9000010    2    1    2    0  502  0.25506533475E+02 -0.52364130679E+02  0.73419375220E+03  0.12436560688E+04  0.10021214329E+04 0.  0.
         13    1    3    3    0    0  0.28933961810E+03 -0.43210768136E+03  0.51517020105E+03  0.73200738392E+03  0.10566000000E+00 0. -1.
         -4    1    3    3    0  502 -0.26383308462E+03  0.37974355068E+03  0.21902355114E+03  0.51164868492E+03  0.00000000000E+00 0. -1.
        -13    1    1    2    0    0 -0.25506533475E+02  0.52364130679E+02 -0.56028229549E+02  0.80819299070E+02  0.10566000000E+00 0.  1.
<mgrwt>
<rscale>  1 0.49266992E+03</rscale>
<asrwt>0</asrwt>
<pdfrwt beam="1">  1       21 0.15404930E+00 0.10038127E+04</pdfrwt>
<pdfrwt beam="2">  1       -4 0.49716142E-01 0.10038127E+04</pdfrwt>
<totfact> 0.39253610E+01</totfact>
</mgrwt>
</event>
<event>
 6    2  0.2379986E-005  0.9883403E+03  0.7818608E-02  0.1009043E+00
         -4   -1    0    0    0  501 -0.00000000000E+00  0.00000000000E+00  0.18612843113E+03  0.18612843113E+03  0.00000000000E+00 0. -1.
         21   -1    0    0  501  502  0.00000000000E+00 -0.00000000000E+00 -0.18424492870E+04  0.18424492870E+04  0.00000000000E+00 0. -1.
   -9000010    2    1    2    0  502 -0.51443651400E+02 -0.54443939472E+02 -0.16807383809E+04  0.19497943537E+04  0.98549780564E+03 0.  0.
         13    1    3    3    0    0 -0.81201454993E+02  0.40178806992E+03 -0.12723743836E+04  0.13367736953E+04  0.10566000000E+00 0. -1.
         -4    1    3    3    0  502  0.29757803593E+02 -0.45623200939E+03 -0.40836399728E+03  0.61302065833E+03  0.00000000000E+00 0. -1.
        -13    1    1    2    0    0  0.51443651400E+02  0.54443939472E+02  0.24417525031E+02  0.78783364407E+02  0.10566000000E+00 0.  1.
<mgrwt>
<rscale>  1 0.51856842E+03</rscale>
<asrwt>0</asrwt>
<pdfrwt beam="2">  1       21 0.28345372E+00 0.98834028E+03</pdfrwt>
<pdfrwt beam="1">  1       -4 0.28635144E-01 0.98834028E+03</pdfrwt>
<totfact> 0.15962106E+01</totfact>
</mgrwt>
</event>
<event>
 6    2  0.2379986E-005  0.1020821E+04  0.7818608E-02  0.9750935E-01
         21   -1    0    0  501  502  0.00000000000E+00  0.00000000000E+00  0.89002334939E+03  0.89002334939E+03  0.00000000000E+00 0. -1.
         -4   -1    0    0    0  501 -0.00000000000E+00 -0.00000000000E+00 -0.62214613581E+03  0.62214613581E+03  0.00000000000E+00 0. -1.
   -9000010    2    1    2    0  502  0.12019825931E+02 -0.20138914739E+03  0.55447216958E+03  0.11616858980E+04  0.10006861016E+04 0.  0.
         13    1    3    3    0    0 -0.17217596042E+03 -0.35029360345E+03 -0.15023810009E+03  0.41823637796E+03  0.10566000000E+00 0. -1.
         -4    1    3    3    0  502  0.18419578635E+03  0.14890445606E+03  0.70471026967E+03  0.74344952009E+03  0.00000000000E+00 0. -1.
        -13    1    1    2    0    0 -0.12019825931E+02  0.20138914739E+03 -0.28659495600E+03  0.35048358716E+03  0.10566000000E+00 0.  1.
<mgrwt>
<rscale>  1 0.68063479E+03</rscale>
<asrwt>0</asrwt>
<pdfrwt beam="1">  1       21 0.13692667E+00 0.10208206E+04</pdfrwt>
<pdfrwt beam="2">  1       -4 0.95714790E-01 0.10208206E+04</pdfrwt>
<totfact> 0.12520416E+01</totfact>
</mgrwt>
</event>
<event>
 6    2  0.2379986E-005  0.1003995E+04  0.7818608E-02  0.9952890E-01
         21   -1    0    0  501  502  0.00000000000E+00  0.00000000000E+00  0.15273447416E+04  0.15273447416E+04  0.00000000000E+00 0. -1.
         -4   -1    0    0    0  501 -0.00000000000E+00 -0.00000000000E+00 -0.25376429850E+03  0.25376429850E+03  0.00000000000E+00 0. -1.
   -9000010    2    1    2    0  502 -0.77787545479E+02  0.77802598520E+02  0.13227317947E+04  0.16606100231E+04  0.99794894740E+03 0.  0.
         13    1    3    3    0    0  0.92895805219E+02  0.43346284844E+02  0.14444985070E+04  0.14481313748E+04  0.10566000000E+00 0. -1.
         -4    1    3    3    0  502 -0.17068335070E+03  0.34456313677E+02 -0.12176671226E+03  0.21247864827E+03  0.00000000000E+00 0. -1.
        -13    1    1    2    0    0  0.77787545479E+02 -0.77802598520E+02 -0.49151351587E+02  0.12049901699E+03  0.10566000000E+00 0.  1.
<mgrwt>
<rscale>  1 0.57765100E+03</rscale>
<asrwt>0</asrwt>
<pdfrwt beam="1">  1       21 0.23497611E+00 0.10039951E+04</pdfrwt>
<pdfrwt beam="2">  1       -4 0.39040662E-01 0.10039951E+04</pdfrwt>
<totfact> 0.17412142E+01</totfact>
</mgrwt>
</event>
<event>
 6    2  0.2379986E-005  0.1099081E+04  0.7818608E-02  0.9476590E-01
         21   -1    0    0  501  502  0.00000000000E+00  0.00000000000E+00  0.24035596597E+03  0.24035596597E+03  0.00000000000E+00 0. -1.
         -4   -1    0    0    0  501 -0.00000000000E+00 -0.00000000000E+00 -0.26875838336E+04  0.26875838336E+04  0.00000000000E+00 0. -1.
   -9000010    2    1    2    0  502 -0.41099628443E+03 -0.36562873078E+02 -0.12649750796E+04  0.16757511334E+04  0.10186879404E+04 0.  0.
         13    1    3    3    0    0 -0.26777574879E+03  0.15300503162E+03  0.72931756267E+02  0.31691235946E+03  0.10566000000E+00 0. -1.
         -4    1    3    3    0  502 -0.14322053563E+03 -0.18956790469E+03 -0.13379068358E+04  0.13588387740E+04  0.00000000000E+00 0. -1.
        -13    1    1    2    0    0  0.41099628443E+03  0.36562873078E+02 -0.11822527880E+04  0.12521886661E+04  0.10566000000E+00 0.  1.
<mgrwt>
<rscale>  1 0.86031959E+03</rscale>
<asrwt>0</asrwt>
<pdfrwt beam="1">  1       21 0.36977840E-01 0.10990814E+04</pdfrwt>
<pdfrwt beam="2">  1       -4 0.41347444E+00 0.10990814E+04</pdfrwt>
<totfact> 0.15704734E+00</totfact>
</mgrwt>
</event>
<event>
 6    2  0.2379986E-005  0.1102146E+04  0.7818608E-02  0.9960465E-01
         -4   -1    0    0    0  501 -0.00000000000E+00  0.00000000000E+00  0.69488335099E+03  0.69488335099E+03  0.00000000000E+00 0. -1.
         21   -1    0    0  501  502  0.00000000000E+00 -0.00000000000E+00 -0.52112612036E+03  0.52112612036E+03  0.00000000000E+00 0. -1.
   -9000010    2    1    2    0  502  0.25614598674E+02 -0.77039610821E+02  0.21807614538E+03  0.11235141381E+04  0.10991522206E+04 0.  0.
         13    1    3    3    0    0  0.30354411787E+03 -0.50642666829E+03  0.12831302058E+03  0.60421125797E+03  0.10566000000E+00 0. -1.
         -4    1    3    3    0  502 -0.27792951920E+03  0.42938705747E+03  0.89763124802E+02  0.51930288015E+03  0.00000000000E+00 0. -1.
        -13    1    1    2    0    0 -0.25614598674E+02  0.77039610821E+02 -0.44318914748E+02  0.92495333229E+02  0.10566000000E+00 0.  1.
<mgrwt>
<rscale>  1 0.57418292E+03</rscale>
<asrwt>0</asrwt>
<pdfrwt beam="2">  1       21 0.80173250E-01 0.11021465E+04</pdfrwt>
<pdfrwt beam="1">  1       -4 0.10690513E+00 0.11021465E+04</pdfrwt>
<totfact> 0.36528037E+01</totfact>
</mgrwt>
</event>
<event>
 6    2  0.2379986E-005  0.1021480E+04  0.7818608E-02  0.9720781E-01
         -4   -1    0    0    0  501 -0.00000000000E+00  0.00000000000E+00  0.96555059772E+03  0.96555059772E+03  0.00000000000E+00 0. -1.
         21   -1    0    0  501  502  0.00000000000E+00 -0.00000000000E+00 -0.49268242863E+03  0.49268242863E+03  0.00000000000E+00 0. -1.
   -9000010    2    1    2    0  502  0.64245167366E+02 -0.21314318023E+03  0.10316028990E+03  0.10266760963E+04  0.99692743187E+03 0.  0.
         13    1    3    3    0    0 -0.24582861032E+03  0.17326458234E+03 -0.27177798371E+03  0.40535861252E+03  0.10566000000E+00 0. -1.
         -4    1    3    3    0  502  0.31007377768E+03 -0.38640776258E+03  0.37493827361E+03  0.62131748374E+03  0.00000000000E+00 0. -1.
        -13    1    1    2    0    0 -0.64245167366E+02  0.21314318023E+03  0.36970787919E+03  0.43155693009E+03  0.10566000000E+00 0.  1.
<mgrwt>
<rscale>  1 0.69792876E+03</rscale>
<asrwt>0</asrwt>
<pdfrwt beam="2">  1       21 0.75797297E-01 0.10214802E+04</pdfrwt>
<pdfrwt beam="1">  1       -4 0.14854625E+00 0.10214802E+04</pdfrwt>
<totfact> 0.18104513E+01</totfact>
</mgrwt>
</event>
<event>
 6    2  0.2379986E-005  0.1046288E+04  0.7818608E-02  0.9667402E-01
         21   -1    0    0  501  502  0.00000000000E+00  0.00000000000E+00  0.63610668546E+03  0.63610668546E+03  0.00000000000E+00 0. -1.
         -4   -1    0    0    0  501 -0.00000000000E+00 -0.00000000000E+00 -0.86037894675E+03  0.86037894675E+03  0.00000000000E+00 0. -1.
   -9000010    2    1    2    0  502  0.18171226928E+03 -0.16850298728E+03  0.14030916856E+03  0.10556543315E+04  0.10165169941E+04 0.  0.
         13    1    3    3    0    0  0.47679519539E+03  0.24218029620E+03  0.16564164077E+02  0.53503208961E+03  0.10566000000E+00 0. -1.
         -4    1    3    3    0  502 -0.29508292611E+03 -0.41068328348E+03  0.12374500449E+03  0.52062224188E+03  0.00000000000E+00 0. -1.
        -13    1    1    2    0    0 -0.18171226928E+03  0.16850298728E+03 -0.36458142985E+03  0.44083130071E+03  0.10566000000E+00 0.  1.
<mgrwt>
<rscale>  1 0.72991242E+03</rscale>
<asrwt>0</asrwt>
<pdfrwt beam="1">  1       21 0.97862567E-01 0.10462884E+04</pdfrwt>
<pdfrwt beam="2">  1       -4 0.13236599E+00 0.10462884E+04</pdfrwt>
<totfact> 0.13270837E+01</totfact>
</mgrwt>
</event>
<event>
 6    2  0.2379986E-005  0.9178627E+03  0.7818608E-02  0.9963969E-01
         -4   -1    0    0    0  501 -0.00000000000E+00  0.00000000000E+00  0.10624109447E+03  0.10624109447E+03  0.00000000000E+00 0. -1.
         21   -1    0    0  501  502  0.00000000000E+00 -0.00000000000E+00 -0.26609888117E+04  0.26609888117E+04  0.00000000000E+00 0. -1.
   -9000010    2    1    2    0  502  0.85423653769E+02  0.10966101913E+03 -0.21029309608E+04  0.22945131493E+04  0.90727571686E+03 0.  0.
         13    1    3    3    0    0 -0.16347234328E+03 -0.35262482369E+03 -0.10038336289E+04  0.10764522465E+04  0.10566000000E+00 0. -1.
         -4    1    3    3    0  502  0.24889599705E+03  0.46228584282E+03 -0.10990973320E+04  0.12180609028E+04  0.00000000000E+00 0. -1.
        -13    1    1    2    0    0 -0.85423653769E+02 -0.10966101913E+03 -0.45181675640E+03  0.47271675691E+03  0.10566000000E+00 0.  1.
<mgrwt>
<rscale>  1 0.57258764E+03</rscale>
<asrwt>0</asrwt>
<pdfrwt beam="2">  1       21 0.40938289E+00 0.91786272E+03</pdfrwt>
<pdfrwt beam="1">  1       -4 0.16344784E-01 0.91786272E+03</pdfrwt>
<totfact> 0.73980331E+00</totfact>
</mgrwt>
</event>
<event>
 6    2  0.2379986E-005  0.1013665E+04  0.7818608E-02  0.9898252E-01
         21   -1    0    0  501  502  0.00000000000E+00  0.00000000000E+00  0.62961415288E+03  0.62961415288E+03  0.00000000000E+00 0. -1.
         -4   -1    0    0    0  501 -0.00000000000E+00 -0.00000000000E+00 -0.61607452258E+03  0.61607452258E+03  0.00000000000E+00 0. -1.
   -9000010    2    1    2    0  502 -0.47762788977E+02  0.11802658599E+03  0.18674123597E+03  0.10307227098E+04  0.10056368412E+04 0.  0.
         13    1    3    3    0    0  0.29832086289E+02  0.27841673908E+03 -0.35977316946E+03  0.45589755274E+03  0.10566000000E+00 0. -1.
         -4    1    3    3    0  502 -0.77594875266E+02 -0.16039015309E+03  0.54651440542E+03  0.57482515708E+03  0.00000000000E+00 0. -1.
        -13    1    1    2    0    0  0.47762788977E+02 -0.11802658599E+03 -0.17320160566E+03  0.21496596563E+03  0.10566000000E+00 0.  1.
<mgrwt>
<rscale>  1 0.60346074E+03</rscale>
<asrwt>0</asrwt>
<pdfrwt beam="1">  1       21 0.96863717E-01 0.10136651E+04</pdfrwt>
<pdfrwt beam="2">  1       -4 0.94780695E-01 0.10136651E+04</pdfrwt>
<totfact> 0.31234828E+01</totfact>
</mgrwt>
</event>
<event>
 6    2  0.2379986E-005  0.1004257E+04  0.7818608E-02  0.9681956E-01
         -4   -1    0    0    0  501 -0.00000000000E+00  0.00000000000E+00  0.30627860658E+03  0.30627860658E+03  0.00000000000E+00 0. -1.
         21   -1    0    0  501  502  0.00000000000E+00 -0.00000000000E+00 -0.14405230649E+04  0.14405230649E+04  0.00000000000E+00 0.  1.
   -9000010    2    1    2    0  502 -0.25736167816E+03 -0.70459268408E+02 -0.65714705435E+03  0.12001560039E+04  0.96815940870E+03 0.  0.
         13    1    3    3    0    0 -0.18324747869E+03 -0.47058161263E+03 -0.60784069054E+03  0.79025123147E+03  0.10566000000E+00 0. -1.
         -4    1    3    3    0  502 -0.74114199464E+02  0.40012234423E+03 -0.49306363808E+02  0.40990477238E+03  0.00000000000E+00 0. -1.
        -13    1    1    2    0    0  0.25736167816E+03  0.70459268408E+02 -0.47709740399E+03  0.54664566763E+03  0.10566000000E+00 0.  1.
<mgrwt>
<rscale>  1 0.72101346E+03</rscale>
<asrwt>0</asrwt>
<pdfrwt beam="2">  1       21 0.22161893E+00 0.10042570E+04</pdfrwt>
<pdfrwt beam="1">  1       -4 0.47119786E-01 0.10042570E+04</pdfrwt>
<totfact> 0.14441780E+01</totfact>
</mgrwt>
</event>
<event>
 6    2  0.2379986E-005  0.1032501E+04  0.7818608E-02  0.9685231E-01
         -4   -1    0    0    0  501 -0.00000000000E+00  0.00000000000E+00  0.58781421320E+03  0.58781421320E+03  0.00000000000E+00 0. -1.
         21   -1    0    0  501  502  0.00000000000E+00 -0.00000000000E+00 -0.81600593856E+03  0.81600593856E+03  0.00000000000E+00 0. -1.
   -9000010    2    1    2    0  502 -0.64800525264E+02  0.23403236402E+03 -0.39901351583E+03  0.11069189043E+04  0.10035374529E+04 0.  0.
         13    1    3    3    0    0 -0.49764957175E+03  0.25485774826E+03 -0.37435847318E+03  0.67286837176E+03  0.10566000000E+00 0. -1.
         -4    1    3    3    0  502  0.43284904648E+03 -0.20825384240E+02 -0.24655042647E+02  0.43405053254E+03  0.00000000000E+00 0. -1.
        -13    1    1    2    0    0  0.64800525264E+02 -0.23403236402E+03  0.17082179047E+03  0.29690124747E+03  0.10566000000E+00 0.  1.
<mgrwt>
<rscale>  1 0.71902982E+03</rscale>
<asrwt>0</asrwt>
<pdfrwt beam="2">  1       21 0.12553938E+00 0.10325007E+04</pdfrwt>
<pdfrwt beam="1">  1       -4 0.90432956E-01 0.10325007E+04</pdfrwt>
<totfact> 0.18026925E+01</totfact>
</mgrwt>
</event>
<event>
 6    2  0.2379986E-005  0.1161427E+04  0.7818608E-02  0.9355217E-01
         21   -1    0    0  501  502  0.00000000000E+00  0.00000000000E+00  0.21936962784E+04  0.21936962784E+04  0.00000000000E+00 0.  1.
         -4   -1    0    0    0  501 -0.00000000000E+00 -0.00000000000E+00 -0.41208060300E+03  0.41208060300E+03  0.00000000000E+00 0. -1.
   -9000010    2    1    2    0  502 -0.52578090152E+03 -0.11799873771E+03  0.60036116932E+03  0.13074196587E+04  0.10288553697E+04 0.  0.
         13    1    3    3    0    0 -0.13300617633E+03  0.31694589240E+03  0.63317638347E+03  0.72045658121E+03  0.10566000000E+00 0. -1.
         -4    1    3    3    0  502 -0.39277472520E+03 -0.43494463011E+03 -0.32815214155E+02  0.58696307746E+03  0.00000000000E+00 0. -1.
        -13    1    1    2    0    0  0.52578090152E+03  0.11799873771E+03  0.11812545061E+04  0.12983572227E+04  0.10566000000E+00 0.  1.
<mgrwt>
<rscale>  1 0.95854569E+03</rscale>
<asrwt>0</asrwt>
<pdfrwt beam="1">  1       21 0.33749173E+00 0.11614270E+04</pdfrwt>
<pdfrwt beam="2">  1       -4 0.63397017E-01 0.11614270E+04</pdfrwt>
<totfact> 0.13805327E+00</totfact>
</mgrwt>
</event>
<event>
 6    2  0.2379986E-005  0.1015612E+04  0.7818608E-02  0.9873465E-01
         21   -1    0    0  501  502  0.00000000000E+00  0.00000000000E+00  0.19471051520E+03  0.19471051520E+03  0.00000000000E+00 0. -1.
         -4   -1    0    0    0  501 -0.00000000000E+00 -0.00000000000E+00 -0.19513071847E+04  0.19513071847E+04  0.00000000000E+00 0. -1.
   -9000010    2    1    2    0  502  0.13390158435E+03 -0.29595089801E+02 -0.11967056532E+04  0.15695773605E+04  0.10063116647E+04 0.  0.
         13    1    3    3    0    0 -0.15857409957E+03 -0.44079547019E+01 -0.12594395129E+04  0.12693908275E+04  0.10566000000E+00 0. -1.
         -4    1    3    3    0  502  0.29247568392E+03 -0.25187135099E+02  0.62733859657E+02  0.30018653302E+03  0.00000000000E+00 0. -1.
        -13    1    1    2    0    0 -0.13390158435E+03  0.29595089801E+02 -0.55989101631E+03  0.57644033944E+03  0.10566000000E+00 0.  1.
<mgrwt>
<rscale>  1 0.61564686E+03</rscale>
<asrwt>0</asrwt>
<pdfrwt beam="1">  1       21 0.29955464E-01 0.10156125E+04</pdfrwt>
<pdfrwt beam="2">  1       -4 0.30020110E+00 0.10156125E+04</pdfrwt>
<totfact> 0.13553810E+01</totfact>
</mgrwt>
</event>
<event>
 6    2  0.2379986E-005  0.1155035E+04  0.7818608E-02  0.9341766E-01
         21   -1    0    0  501  502  0.00000000000E+00  0.00000000000E+00  0.12449679773E+04  0.12449679773E+04  0.00000000000E+00 0.  1.
         -4   -1    0    0    0  501 -0.00000000000E+00 -0.00000000000E+00 -0.60424457015E+03  0.60424457015E+03  0.00000000000E+00 0. -1.
   -9000010    2    1    2    0  502  0.48029204971E+03  0.31642663057E+03  0.48970765662E+03  0.12545596793E+04  0.10016487081E+04 0.  0.
         13    1    3    3    0    0  0.22404760764E+03  0.60621213619E+03  0.20717629128E+02  0.64662177188E+03  0.10566000000E+00 0. -1.
         -4    1    3    3    0  502  0.25624444207E+03 -0.28978550562E+03  0.46899002749E+03  0.60793790739E+03  0.00000000000E+00 0. -1.
        -13    1    1    2    0    0 -0.48029204971E+03 -0.31642663057E+03  0.15101575054E+03  0.59465286817E+03  0.10566000000E+00 0.  1.
<mgrwt>
<rscale>  1 0.97027121E+03</rscale>
<asrwt>0</asrwt>
<pdfrwt beam="1">  1       21 0.19153353E+00 0.11550352E+04</pdfrwt>
<pdfrwt beam="2">  1       -4 0.92960703E-01 0.11550352E+04</pdfrwt>
<totfact> 0.50102981E+00</totfact>
</mgrwt>
</event>
<event>
 6    2  0.2379986E-005  0.1016174E+04  0.7818608E-02  0.9803853E-01
         -4   -1    0    0    0  501 -0.00000000000E+00  0.00000000000E+00  0.93193387109E+03  0.93193387109E+03  0.00000000000E+00 0. -1.
         21   -1    0    0  501  502  0.00000000000E+00 -0.00000000000E+00 -0.40039292920E+03  0.40039292920E+03  0.00000000000E+00 0. -1.
   -9000010    2    1    2    0  502 -0.15717527453E+03 -0.69259655445E+02  0.33197731916E+03  0.10690273178E+04  0.10015535428E+04 0.  0.
         13    1    3    3    0    0 -0.11938031975E+03 -0.34750215173E+03  0.58514980859E+03  0.69094841765E+03  0.10566000000E+00 0. -1.
         -4    1    3    3    0  502 -0.37794954781E+02  0.27824249628E+03 -0.25317248943E+03  0.37807890016E+03  0.00000000000E+00 0. -1.
        -13    1    1    2    0    0  0.15717527453E+03  0.69259655445E+02  0.19956362272E+03  0.26329948248E+03  0.10566000000E+00 0.  1.
<mgrwt>
<rscale>  1 0.65156200E+03</rscale>
<asrwt>0</asrwt>
<pdfrwt beam="2">  1       21 0.61598912E-01 0.10161744E+04</pdfrwt>
<pdfrwt beam="1">  1       -4 0.14337444E+00 0.10161744E+04</pdfrwt>
<totfact> 0.31962186E+01</totfact>
</mgrwt>
</event>
<event>
 6    2  0.2379986E-005  0.1035474E+04  0.7818608E-02  0.9685462E-01
         -4   -1    0    0    0  501 -0.00000000000E+00  0.00000000000E+00  0.13521653817E+04  0.13521653817E+04  0.00000000000E+00 0. -1.
         21   -1    0    0  501  502  0.00000000000E+00 -0.00000000000E+00 -0.32757053370E+03  0.32757053370E+03  0.00000000000E+00 0. -1.
   -9000010    2    1    2    0  502  0.15705888239E+02 -0.24005192404E+03  0.61391426637E+03  0.12037840770E+04  0.10071413885E+04 0.  0.
         13    1    3    3    0    0 -0.40405292879E+02 -0.59886338093E+03  0.15756548741E+03  0.62056170580E+03  0.10566000000E+00 0. -1.
         -4    1    3    3    0  502  0.56111181117E+02  0.35881145689E+03  0.45634877896E+03  0.58322237123E+03  0.00000000000E+00 0. -1.
        -13    1    1    2    0    0 -0.15705888239E+02  0.24005192404E+03  0.41068058160E+03  0.47595183835E+03  0.10566000000E+00 0.  1.
<mgrwt>
<rscale>  1 0.71889000E+03</rscale>
<asrwt>0</asrwt>
<pdfrwt beam="2">  1       21 0.50395468E-01 0.10354735E+04</pdfrwt>
<pdfrwt beam="1">  1       -4 0.20802544E+00 0.10354735E+04</pdfrwt>
<totfact> 0.17157470E+01</totfact>
</mgrwt>
</event>
<event>
 6    2  0.2379986E-005  0.9967461E+03  0.7818608E-02  0.9964469E-01
         -4   -1    0    0    0  501 -0.00000000000E+00  0.00000000000E+00  0.20789601620E+04  0.20789601620E+04  0.00000000000E+00 0. -1.
         21   -1    0    0  501  502  0.00000000000E+00 -0.00000000000E+00 -0.15478002359E+03  0.15478002359E+03  0.00000000000E+00 0. -1.
   -9000010    2    1    2    0  502 -0.86295912890E+02  0.65558201231E+02  0.15388198256E+04  0.18334309998E+04  0.99083697610E+03 0.  0.
         13    1    3    3    0    0 -0.46142273104E+03 -0.31015851480E+02  0.34115416200E+03  0.57468173207E+03  0.10566000000E+00 0. -1.
         -4    1    3    3    0  502  0.37512681815E+03  0.96574052710E+02  0.11976656636E+04  0.12587492678E+04  0.00000000000E+00 0. -1.
        -13    1    1    2    0    0  0.86295912890E+02 -0.65558201231E+02  0.38536031282E+03  0.40030918574E+03  0.10566000000E+00 0.  1.
<mgrwt>
<rscale>  1 0.57236023E+03</rscale>
<asrwt>0</asrwt>
<pdfrwt beam="2">  1       21 0.23812313E-01 0.99674609E+03</pdfrwt>
<pdfrwt beam="1">  1       -4 0.31984001E+00 0.99674609E+03</pdfrwt>
<totfact> 0.16187254E+01</totfact>
</mgrwt>
</event>
<event>
 6    2  0.2379986E-005  0.1117059E+04  0.7818608E-02  0.9425897E-01
         -4   -1    0    0    0  501 -0.00000000000E+00  0.00000000000E+00  0.33482515304E+03  0.33482515304E+03  0.00000000000E+00 0. -1.
         21   -1    0    0  501  502  0.00000000000E+00 -0.00000000000E+00 -0.20346529090E+04  0.20346529090E+04  0.00000000000E+00 0.  1.
   -9000010    2    1    2    0  502  0.46846102838E+03  0.40040850335E+02 -0.14696375095E+04  0.18459834914E+04  0.10132924732E+04 0.  0.
         13    1    3    3    0    0  0.33715204907E+03  0.32238175193E+03 -0.14984225294E+03  0.48995327339E+03  0.10566000000E+00 0. -1.
         -4    1    3    3    0  502  0.13130897931E+03 -0.28234090160E+03 -0.13197952566E+04  0.13560302180E+04  0.00000000000E+00 0. -1.
        -13    1    1    2    0    0 -0.46846102838E+03 -0.40040850335E+02 -0.23019024642E+03  0.52349457067E+03  0.10566000000E+00 0.  1.
<mgrwt>
<rscale>  1 0.89974738E+03</rscale>
<asrwt>0</asrwt>
<pdfrwt beam="2">  1       21 0.31302352E+00 0.11170589E+04</pdfrwt>
<pdfrwt beam="1">  1       -4 0.51511563E-01 0.11170589E+04</pdfrwt>
<totfact> 0.31042338E+00</totfact>
</mgrwt>
</event>
<event>
 6    2  0.2379986E-005  0.1013971E+04  0.7818608E-02  0.9576522E-01
         21   -1    0    0  501  502  0.00000000000E+00  0.00000000000E+00  0.18554804764E+04  0.18554804764E+04  0.00000000000E+00 0. -1.
         -4   -1    0    0    0  501 -0.00000000000E+00 -0.00000000000E+00 -0.43873881147E+03  0.43873881147E+03  0.00000000000E+00 0. -1.
   -9000010    2    1    2    0  502  0.34430721075E+03 -0.13861991700E+03  0.15890586516E+04  0.18850052952E+04  0.94359664467E+03 0.  0.
         13    1    3    3    0    0  0.25555461571E+03 -0.48859352146E+03  0.52496981137E+03  0.76133114006E+03  0.10566000000E+00 0. -1.
         -4    1    3    3    0  502  0.88752595039E+02  0.34997360446E+03  0.10640888402E+04  0.11236741551E+04  0.00000000000E+00 0. -1.
        -13    1    1    2    0    0 -0.34430721075E+03  0.13861991700E+03 -0.17231698668E+03  0.40921399270E+03  0.10566000000E+00 0.  1.
<mgrwt>
<rscale>  1 0.78869804E+03</rscale>
<asrwt>0</asrwt>
<pdfrwt beam="1">  1       21 0.28545853E+00 0.10139712E+04</pdfrwt>
<pdfrwt beam="2">  1       -4 0.67498280E-01 0.10139712E+04</pdfrwt>
<totfact> 0.26086314E+00</totfact>
</mgrwt>
</event>
<event>
 6    2  0.2379986E-005  0.1017854E+04  0.7818608E-02  0.9720195E-01
         21   -1    0    0  501  502  0.00000000000E+00  0.00000000000E+00  0.39790446466E+03  0.39790446466E+03  0.00000000000E+00 0. -1.
         -4   -1    0    0    0  501 -0.00000000000E+00 -0.00000000000E+00 -0.10004577222E+04  0.10004577222E+04  0.00000000000E+00 0. -1.
   -9000010    2    1    2    0  502  0.22368300810E+02 -0.22433103875E+03 -0.39463609214E+03  0.10916794279E+04  0.99257320745E+03 0.  0.
         13    1    3    3    0    0  0.29457321179E+03 -0.44051631055E+03  0.44290045981E+02  0.53177966894E+03  0.10566000000E+00 0. -1.
         -4    1    3    3    0  502 -0.27220491098E+03  0.21618527180E+03 -0.43892613812E+03  0.55989975891E+03  0.00000000000E+00 0. -1.
        -13    1    1    2    0    0 -0.22368300810E+02  0.22433103875E+03 -0.20791716536E+03  0.30668275896E+03  0.10566000000E+00 0.  1.
<mgrwt>
<rscale>  1 0.69827014E+03</rscale>
<asrwt>0</asrwt>
<pdfrwt beam="1">  1       21 0.61216072E-01 0.10178538E+04</pdfrwt>
<pdfrwt beam="2">  1       -4 0.15391657E+00 0.10178538E+04</pdfrwt>
<totfact> 0.26799175E+01</totfact>
</mgrwt>
</event>
<event>
 6    2  0.2379986E-005  0.1130125E+04  0.7818608E-02  0.9574192E-01
         -4   -1    0    0    0  501 -0.00000000000E+00  0.00000000000E+00  0.13491193058E+04  0.13491193058E+04  0.00000000000E+00 0. -1.
         21   -1    0    0  501  502  0.00000000000E+00 -0.00000000000E+00 -0.46164432753E+03  0.46164432753E+03  0.00000000000E+00 0. -1.
   -9000010    2    1    2    0  502 -0.54026441928E+01  0.27018502936E+03  0.30795405324E+03  0.11713313442E+04  0.10973387264E+04 0.  0.
         13    1    3    3    0    0 -0.91168583580E+02  0.15576676339E+03  0.71629159573E+03  0.73868034797E+03  0.10566000000E+00 0. -1.
         -4    1    3    3    0  502  0.85765939387E+02  0.11441826597E+03 -0.40833754249E+03  0.43265099625E+03  0.00000000000E+00 0. -1.
        -13    1    1    2    0    0  0.54026441928E+01 -0.27018502936E+03  0.57952092507E+03  0.63943228916E+03  0.10566000000E+00 0.  1.
<mgrwt>
<rscale>  1 0.79028139E+03</rscale>
<asrwt>0</asrwt>
<pdfrwt beam="2">  1       21 0.71022205E-01 0.11301245E+04</pdfrwt>
<pdfrwt beam="1">  1       -4 0.20755681E+00 0.11301245E+04</pdfrwt>
<totfact> 0.79543734E+00</totfact>
</mgrwt>
</event>
<event>
 6    2  0.2379986E-005  0.9561100E+03  0.7818608E-02  0.1010331E+00
         -4   -1    0    0    0  501 -0.00000000000E+00  0.00000000000E+00  0.60893147011E+03  0.60893147011E+03  0.00000000000E+00 0. -1.
         21   -1    0    0  501  502  0.00000000000E+00 -0.00000000000E+00 -0.49129214067E+03  0.49129214067E+03  0.00000000000E+00 0. -1.
   -9000010    2    1    2    0  502  0.64784922756E+02 -0.46090417498E+02 -0.25535571741E+01  0.95611339616E+03  0.95279845343E+03 0.  0.
         13    1    3    3    0    0 -0.17799159295E+03  0.38631431478E+03  0.12638718833E+03  0.44372681855E+03  0.10566000000E+00 0. -1.
         -4    1    3    3    0  502  0.24277651570E+03 -0.43240473227E+03 -0.12894074550E+03  0.51238657762E+03  0.00000000000E+00 0. -1.
        -13    1    1    2    0    0 -0.64784922756E+02  0.46090417498E+02  0.12019288661E+03  0.14411021462E+03  0.10566000000E+00 0.  1.
<mgrwt>
<rscale>  1 0.51343179E+03</rscale>
<asrwt>0</asrwt>
<pdfrwt beam="2">  1       21 0.75583406E-01 0.95610999E+03</pdfrwt>
<pdfrwt beam="1">  1       -4 0.93681765E-01 0.95610999E+03</pdfrwt>
<totfact> 0.58345771E+01</totfact>
</mgrwt>
</event>
<event>
 6    2  0.2379986E-005  0.1009562E+04  0.7818608E-02  0.9874270E-01
         -4   -1    0    0    0  501 -0.00000000000E+00  0.00000000000E+00  0.33235828321E+03  0.33235828321E+03  0.00000000000E+00 0. -1.
         21   -1    0    0  501  502  0.00000000000E+00 -0.00000000000E+00 -0.11470237079E+04  0.11470237079E+04  0.00000000000E+00 0. -1.
   -9000010    2    1    2    0  502 -0.71301358268E+02 -0.11961136291E+03 -0.86686846702E+03  0.13306677328E+04  0.99991245321E+03 0.  0.
         13    1    3    3    0    0 -0.38882073256E+03  0.24918620427E+02  0.70571975994E+01  0.38968232564E+03  0.10566000000E+00 0. -1.
         -4    1    3    3    0  502  0.31751937430E+03 -0.14452998334E+03 -0.87392566462E+03  0.94098540712E+03  0.00000000000E+00 0. -1.
        -13    1    1    2    0    0  0.71301358268E+02  0.11961136291E+03  0.52203042365E+02  0.14871425831E+03  0.10566000000E+00 0.  1.
<mgrwt>
<rscale>  1 0.61524653E+03</rscale>
<asrwt>0</asrwt>
<pdfrwt beam="2">  1       21 0.17646518E+00 0.10095621E+04</pdfrwt>
<pdfrwt beam="1">  1       -4 0.51132044E-01 0.10095621E+04</pdfrwt>
<totfact> 0.24945266E+01</totfact>
</mgrwt>
</event>
<event>
 6    2  0.2379986E-005  0.1074644E+04  0.7818608E-02  0.9528621E-01
         21   -1    0    0  501  502  0.00000000000E+00  0.00000000000E+00  0.74653924203E+03  0.74653924203E+03  0.00000000000E+00 0. -1.
         -4   -1    0    0    0  501 -0.00000000000E+00 -0.00000000000E+00 -0.77930920065E+03  0.77930920065E+03  0.00000000000E+00 0. -1.
   -9000010    2    1    2    0  502 -0.70740275593E+02  0.36111683677E+03  0.19625599327E+03  0.10924174168E+04  0.10096780879E+04 0.  0.
         13    1    3    3    0    0  0.28697172740E+03 -0.19352729851E+03  0.25485042387E+03  0.42983059140E+03  0.10566000000E+00 0. -1.
         -4    1    3    3    0  502 -0.35771200300E+03  0.55464413529E+03 -0.58594430593E+02  0.66258682540E+03  0.00000000000E+00 0. -1.
        -13    1    1    2    0    0  0.70740275593E+02 -0.36111683677E+03 -0.22902595189E+03  0.43343102588E+03  0.10566000000E+00 0.  1.
<mgrwt>
<rscale>  1 0.82206202E+03</rscale>
<asrwt>0</asrwt>
<pdfrwt beam="1">  1       21 0.11485219E+00 0.10746438E+04</pdfrwt>
<pdfrwt beam="2">  1       -4 0.11989372E+00 0.10746438E+04</pdfrwt>
<totfact> 0.11385592E+01</totfact>
</mgrwt>
</event>
<event>
 6    2  0.2379986E-005  0.1000567E+04  0.7818608E-02  0.9991481E-01
         -4   -1    0    0    0  501 -0.00000000000E+00  0.00000000000E+00  0.55183120813E+03  0.55183120813E+03  0.00000000000E+00 0. -1.
         21   -1    0    0  501  502  0.00000000000E+00 -0.00000000000E+00 -0.63765596677E+03  0.63765596677E+03  0.00000000000E+00 0. -1.
   -9000010    2    1    2    0  502 -0.50564493227E+02 -0.84362824381E+02 -0.21868094966E+03  0.10241855331E+04  0.99572124332E+03 0.  0.
         13    1    3    3    0    0  0.13990428163E+03 -0.34163101470E+03  0.25772309415E+03  0.45022901133E+03  0.10566000000E+00 0. -1.
         -4    1    3    3    0  502 -0.19046877485E+03  0.25726819032E+03 -0.47640404382E+03  0.57395652179E+03  0.00000000000E+00 0. -1.
        -13    1    1    2    0    0  0.50564493227E+02  0.84362824381E+02  0.13285619103E+03  0.16530164177E+03  0.10566000000E+00 0.  1.
<mgrwt>
<rscale>  1 0.56025364E+03</rscale>
<asrwt>0</asrwt>
<pdfrwt beam="2">  1       21 0.98100918E-01 0.10005672E+04</pdfrwt>
<pdfrwt beam="1">  1       -4 0.84897109E-01 0.10005672E+04</pdfrwt>
<totfact> 0.39269016E+01</totfact>
</mgrwt>
</event>
<event>
 6    2  0.2379986E-005  0.1028486E+04  0.7818608E-02  0.9634028E-01
         21   -1    0    0  501  502  0.00000000000E+00  0.00000000000E+00  0.18060498196E+03  0.18060498196E+03  0.00000000000E+00 0. -1.
         -4   -1    0    0    0  501 -0.00000000000E+00 -0.00000000000E+00 -0.25659028690E+04  0.25659028690E+04  0.00000000000E+00 0. -1.
   -9000010    2    1    2    0  502 -0.28868611075E+03  0.44838198434E+02 -0.15374622907E+04  0.18497496092E+04  0.98612026994E+03 0.  0.
         13    1    3    3    0    0  0.12777737517E+03 -0.25305164952E+03 -0.65054486947E+02  0.29085097966E+03  0.10566000000E+00 0. -1.
         -4    1    3    3    0  502 -0.41646348592E+03  0.29788984796E+03 -0.14724078037E+04  0.15588986295E+04  0.00000000000E+00 0. -1.
        -13    1    1    2    0    0  0.28868611075E+03 -0.44838198434E+02 -0.84783559635E+03  0.89675824177E+03  0.10566000000E+00 0.  1.
<mgrwt>
<rscale>  1 0.75084329E+03</rscale>
<asrwt>0</asrwt>
<pdfrwt beam="1">  1       21 0.27785384E-01 0.10284859E+04</pdfrwt>
<pdfrwt beam="2">  1       -4 0.39475426E+00 0.10284859E+04</pdfrwt>
<totfact> 0.38376506E+00</totfact>
</mgrwt>
</event>
<event>
 6    2  0.2379986E-005  0.9956994E+03  0.7818608E-02  0.9714718E-01
         -4   -1    0    0    0  501 -0.00000000000E+00  0.00000000000E+00  0.13421537606E+04  0.13421537606E+04  0.00000000000E+00 0. -1.
         21   -1    0    0  501  502  0.00000000000E+00 -0.00000000000E+00 -0.50224878640E+03  0.50224878640E+03  0.00000000000E+00 0. -1.
   -9000010    2    1    2    0  502 -0.21425114595E+03  0.11940374627E+03  0.27823270522E+02  0.99608803411E+03  0.96501628439E+03 0.  0.
         13    1    3    3    0    0 -0.18671736116E+03  0.40605503484E+03 -0.31618052375E+03  0.54746159595E+03  0.10566000000E+00 0. -1.
         -4    1    3    3    0  502 -0.27533784785E+02 -0.28665128857E+03  0.34400379427E+03  0.44862643816E+03  0.00000000000E+00 0. -1.
        -13    1    1    2    0    0  0.21425114595E+03 -0.11940374627E+03  0.81208170369E+03  0.84831451290E+03  0.10566000000E+00 0.  1.
<mgrwt>
<rscale>  1 0.70147208E+03</rscale>
<asrwt>0</asrwt>
<pdfrwt beam="2">  1       21 0.77269044E-01 0.99569937E+03</pdfrwt>
<pdfrwt beam="1">  1       -4 0.20648519E+00 0.99569937E+03</pdfrwt>
<totfact> 0.67522071E+00</totfact>
</mgrwt>
</event>
<event>
 6    2  0.2379986E-005  0.1001838E+04  0.7818608E-02  0.9768750E-01
         -4   -1    0    0    0  501 -0.00000000000E+00  0.00000000000E+00  0.13911471543E+04  0.13911471543E+04  0.00000000000E+00 0. -1.
         21   -1    0    0  501  502  0.00000000000E+00 -0.00000000000E+00 -0.40329474147E+03  0.40329474147E+03  0.00000000000E+00 0. -1.
   -9000010    2    1    2    0  502  0.27240730527E+01  0.20118704910E+03  0.25404070478E+03  0.10335455274E+04  0.98142550827E+03 0.  0.
         13    1    3    3    0    0  0.25562709877E+03  0.37132291906E+03 -0.19471708899E+03  0.49106076992E+03  0.10566000000E+00 0. -1.
         -4    1    3    3    0  502 -0.25290302572E+03 -0.17013586995E+03  0.44875779377E+03  0.54248475751E+03  0.00000000000E+00 0. -1.
        -13    1    1    2    0    0 -0.27240730527E+01 -0.20118704910E+03  0.73381170801E+03  0.76089636829E+03  0.10566000000E+00 0.  1.
<mgrwt>
<rscale>  1 0.67066887E+03</rscale>
<asrwt>0</asrwt>
<pdfrwt beam="2">  1       21 0.62045346E-01 0.10018381E+04</pdfrwt>
<pdfrwt beam="1">  1       -4 0.21402264E+00 0.10018381E+04</pdfrwt>
<totfact> 0.99597114E+00</totfact>
</mgrwt>
</event>
<event>
 6    2  0.2379986E-005  0.1127353E+04  0.7818608E-02  0.9409443E-01
         21   -1    0    0  501  502  0.00000000000E+00  0.00000000000E+00  0.35761679399E+03  0.35761679399E+03  0.00000000000E+00 0. -1.
         -4   -1    0    0    0  501 -0.00000000000E+00 -0.00000000000E+00 -0.19793419363E+04  0.19793419363E+04  0.00000000000E+00 0. -1.
   -9000010    2    1    2    0  502 -0.29984870389E+03  0.38121877832E+03 -0.79854591232E+03  0.13815211039E+04  0.10176875671E+04 0.  0.
         13    1    3    3    0    0  0.10751716569E+02  0.66889376601E+03 -0.65028718148E+03  0.93295653660E+03  0.10566000000E+00 0. -1.
         -4    1    3    3    0  502 -0.31060042046E+03 -0.28767498769E+03 -0.14825873084E+03  0.44856456727E+03  0.00000000000E+00 0. -1.
        -13    1    1    2    0    0  0.29984870389E+03 -0.38121877832E+03 -0.82317923000E+03  0.95543762645E+03  0.10566000000E+00 0.  1.
<mgrwt>
<rscale>  1 0.91302607E+03</rscale>
<asrwt>0</asrwt>
<pdfrwt beam="1">  1       21 0.55017967E-01 0.11273531E+04</pdfrwt>
<pdfrwt beam="2">  1       -4 0.30451415E+00 0.11273531E+04</pdfrwt>
<totfact> 0.34979267E+00</totfact>
</mgrwt>
</event>
<event>
 6    2  0.2379986E-005  0.1018832E+04  0.7818608E-02  0.9748217E-01
         -4   -1    0    0    0  501 -0.00000000000E+00  0.00000000000E+00  0.54730317731E+03  0.54730317731E+03  0.00000000000E+00 0. -1.
         21   -1    0    0  501  502  0.00000000000E+00 -0.00000000000E+00 -0.71610349735E+03  0.71610349735E+03  0.00000000000E+00 0. -1.
   -9000010    2    1    2    0  502 -0.21733819527E+01  0.20475816822E+03 -0.23980845215E+03  0.10466745888E+04  0.99804256929E+03 0.  0.
         13    1    3    3    0    0  0.43245769250E+03  0.28284765904E+03  0.48947584829E+02  0.51905522948E+03  0.10566000000E+00 0. -1.
         -4    1    3    3    0  502 -0.43463107446E+03 -0.78089490818E+02 -0.28875603698E+03  0.52761935934E+03  0.00000000000E+00 0. -1.
        -13    1    1    2    0    0  0.21733819527E+01 -0.20475816822E+03  0.71008132116E+02  0.21673208584E+03  0.10566000000E+00 0.  1.
<mgrwt>
<rscale>  1 0.68217142E+03</rscale>
<asrwt>0</asrwt>
<pdfrwt beam="2">  1       21 0.11016977E+00 0.10188325E+04</pdfrwt>
<pdfrwt beam="1">  1       -4 0.84200489E-01 0.10188325E+04</pdfrwt>
<totfact> 0.29883352E+01</totfact>
</mgrwt>
</event>
<event>
 6    2  0.2379986E-005  0.1024555E+04  0.7818608E-02  0.9714687E-01
         -4   -1    0    0    0  501 -0.00000000000E+00  0.00000000000E+00  0.14391862376E+04  0.14391862376E+04  0.00000000000E+00 0. -1.
         21   -1    0    0  501  502  0.00000000000E+00 -0.00000000000E+00 -0.27245870484E+03  0.27245870484E+03  0.00000000000E+00 0. -1.
   -9000010    2    1    2    0  502  0.14458442053E+02  0.22469017467E+03  0.91186782584E+03  0.13715740638E+04  0.99950875910E+03 0.  0.
         13    1    3    3    0    0 -0.10581275044E+03 -0.33898013665E+03  0.87546334134E+02  0.36574341140E+03  0.10566000000E+00 0. -1.
         -4    1    3    3    0  502  0.12027119249E+03  0.56367031131E+03  0.82432149170E+03  0.10058306524E+04  0.00000000000E+00 0. -1.
        -13    1    1    2    0    0 -0.14458442053E+02 -0.22469017467E+03  0.25485970691E+03  0.34007087866E+03  0.10566000000E+00 0.  1.
<mgrwt>
<rscale>  1 0.70149041E+03</rscale>
<asrwt>0</asrwt>
<pdfrwt beam="2">  1       21 0.41916725E-01 0.10245548E+04</pdfrwt>
<pdfrwt beam="1">  1       -4 0.22141326E+00 0.10245548E+04</pdfrwt>
<totfact> 0.20877744E+01</totfact>
</mgrwt>
</event>
<event>
 6    2  0.2379986E-005  0.1413274E+04  0.7818608E-02  0.9030669E-01
         -4   -1    0    0    0  501 -0.00000000000E+00  0.00000000000E+00  0.95582419560E+03  0.95582419560E+03  0.00000000000E+00 0. -1.
         21   -1    0    0  501  502  0.00000000000E+00 -0.00000000000E+00 -0.16187673652E+04  0.16187673652E+04  0.00000000000E+00 0.  1.
   -9000010    2    1    2    0  502  0.10591972243E+03 -0.10018907167E+04 -0.91255084324E+02  0.14162171508E+04  0.99113043138E+03 0.  0.
         13    1    3    3    0    0 -0.35803089996E+03 -0.81043102040E+02 -0.11544078625E+03  0.38481254658E+03  0.10566000000E+00 0. -1.
         -4    1    3    3    0  502  0.46395062239E+03 -0.92084761463E+03  0.24185701928E+02  0.10314046042E+04  0.00000000000E+00 0. -1.
        -13    1    1    2    0    0 -0.10591972243E+03  0.10018907167E+04 -0.57168808526E+03  0.11583744100E+04  0.10566000000E+00 0.  1.
<mgrwt>
<rscale>  1 0.12986087E+04</rscale>
<asrwt>0</asrwt>
<pdfrwt beam="2">  1       21 0.24904113E+00 0.14132740E+04</pdfrwt>
<pdfrwt beam="1">  1       -4 0.14704988E+00 0.14132740E+04</pdfrwt>
<totfact> 0.62907505E-01</totfact>
</mgrwt>
</event>
<event>
 6    2  0.2379986E-005  0.9744227E+03  0.7818608E-02  0.1014702E+00
         -4   -1    0    0    0  501 -0.00000000000E+00  0.00000000000E+00  0.94405617471E+03  0.94405617471E+03  0.00000000000E+00 0. -1.
         21   -1    0    0  501  502  0.00000000000E+00 -0.00000000000E+00 -0.31455524668E+03  0.31455524668E+03  0.00000000000E+00 0. -1.
   -9000010    2    1    2    0  502  0.35973614272E+02  0.54939508139E+02  0.66900470376E+03  0.11819758556E+04  0.97220737456E+03 0.  0.
         13    1    3    3    0    0  0.34889799352E+03  0.21282217307E+03 -0.19757114172E+02  0.40916187745E+03  0.10566000000E+00 0. -1.
         -4    1    3    3    0  502 -0.31292437925E+03 -0.15788266494E+03  0.68876181794E+03  0.77281397817E+03  0.00000000000E+00 0. -1.
        -13    1    1    2    0    0 -0.35973614272E+02 -0.54939508139E+02 -0.39503775732E+02  0.76635565761E+02  0.10566000000E+00 0.  1.
<mgrwt>
<rscale>  1 0.49647943E+03</rscale>
<asrwt>0</asrwt>
<pdfrwt beam="2">  1       21 0.48393115E-01 0.97442272E+03</pdfrwt>
<pdfrwt beam="1">  1       -4 0.14523941E+00 0.97442272E+03</pdfrwt>
<totfact> 0.52615110E+01</totfact>
</mgrwt>
</event>
<event>
 6    2  0.2379986E-005  0.1127501E+04  0.7818608E-02  0.9403067E-01
         21   -1    0    0  501  502  0.00000000000E+00  0.00000000000E+00  0.48748639736E+03  0.48748639736E+03  0.00000000000E+00 0. -1.
         -4   -1    0    0    0  501 -0.00000000000E+00 -0.00000000000E+00 -0.15177924051E+04  0.15177924051E+04  0.00000000000E+00 0. -1.
   -9000010    2    1    2    0  502  0.46927642527E+03  0.16056309534E+03 -0.38507226925E+03  0.11914437704E+04  0.10125496208E+04 0.  0.
         13    1    3    3    0    0  0.74664389621E+03  0.24998979860E+03 -0.42909031918E+03  0.89671094581E+03  0.10566000000E+00 0. -1.
         -4    1    3    3    0  502 -0.27736747094E+03 -0.89426703256E+02  0.44018049934E+02  0.29473282463E+03  0.00000000000E+00 0. -1.
        -13    1    1    2    0    0 -0.46927642527E+03 -0.16056309534E+03 -0.64523373851E+03  0.81383503204E+03  0.10566000000E+00 0.  1.
<mgrwt>
<rscale>  1 0.91823675E+03</rscale>
<asrwt>0</asrwt>
<pdfrwt beam="1">  1       21 0.74997909E-01 0.11275006E+04</pdfrwt>
<pdfrwt beam="2">  1       -4 0.23350652E+00 0.11275006E+04</pdfrwt>
<totfact> 0.47843817E+00</totfact>
</mgrwt>
</event>
<event>
 6    2  0.2379986E-005  0.1024934E+04  0.7818608E-02  0.9679296E-01
         21   -1    0    0  501  502  0.00000000000E+00  0.00000000000E+00  0.33258875937E+03  0.33258875937E+03  0.00000000000E+00 0. -1.
         -4   -1    0    0    0  501 -0.00000000000E+00 -0.00000000000E+00 -0.16199688690E+04  0.16199688690E+04  0.00000000000E+00 0. -1.
   -9000010    2    1    2    0  502 -0.17777065814E+03  0.18039046692E+03 -0.52980538218E+03  0.11537694172E+04  0.99315003783E+03 0.  0.
         13    1    3    3    0    0 -0.47826069372E+03  0.33169669318E+03 -0.57035656225E+03  0.81490036611E+03  0.10566000000E+00 0. -1.
         -4    1    3    3    0  502  0.30049003558E+03 -0.15130622626E+03  0.40551180074E+02  0.33886905110E+03  0.00000000000E+00 0. -1.
        -13    1    1    2    0    0  0.17777065814E+03 -0.18039046692E+03 -0.75757472748E+03  0.79878821119E+03  0.10566000000E+00 0.  1.
<mgrwt>
<rscale>  1 0.72262963E+03</rscale>
<asrwt>0</asrwt>
<pdfrwt beam="1">  1       21 0.51167502E-01 0.10249342E+04</pdfrwt>
<pdfrwt beam="2">  1       -4 0.24922598E+00 0.10249342E+04</pdfrwt>
<totfact> 0.91199765E+00</totfact>
</mgrwt>
</event>
<event>
 6    2  0.2379986E-005  0.9889149E+03  0.7818608E-02  0.1045306E+00
         -4   -1    0    0    0  501 -0.00000000000E+00  0.00000000000E+00  0.16799495563E+03  0.16799495563E+03  0.00000000000E+00 0. -1.
         21   -1    0    0  501  502  0.00000000000E+00 -0.00000000000E+00 -0.16119071305E+04  0.16119071305E+04  0.00000000000E+00 0. -1.
   -9000010    2    1    2    0  502 -0.25304913147E+02  0.11466599163E+01 -0.14487735539E+04  0.17541087221E+04  0.98859038286E+03 0.  0.
         13    1    3    3    0    0 -0.13263363394E+02  0.12879696793E+03  0.12212503843E+03  0.17798626894E+03  0.10566000000E+00 0. -1.
         -4    1    3    3    0  502 -0.12041549754E+02 -0.12765030801E+03 -0.15708985923E+04  0.15761224532E+04  0.00000000000E+00 0. -1.
        -13    1    1    2    0    0  0.25304913147E+02 -0.11466599163E+01  0.48613789987E+01  0.25793364034E+02  0.10566000000E+00 0.  1.
<mgrwt>
<rscale>  1 0.39562405E+03</rscale>
<asrwt>0</asrwt>
<pdfrwt beam="2">  1       21 0.24798571E+00 0.98891486E+03</pdfrwt>
<pdfrwt beam="1">  1       -4 0.25845378E-01 0.98891486E+03</pdfrwt>
<totfact> 0.32499518E+01</totfact>
</mgrwt>
</event>
<event>
 6    2  0.2379986E-005  0.1216340E+04  0.7818608E-02  0.9249978E-01
         21   -1    0    0  501  502  0.00000000000E+00  0.00000000000E+00  0.85506739549E+03  0.85506739549E+03  0.00000000000E+00 0. -1.
         -4   -1    0    0    0  501 -0.00000000000E+00 -0.00000000000E+00 -0.10676517159E+04  0.10676517159E+04  0.00000000000E+00 0. -1.
   -9000010    2    1    2    0  502  0.60650180439E+03 -0.32684290363E+03 -0.64680762085E+02  0.12180587704E+04  0.10024035340E+04 0.  0.
         13    1    3    3    0    0  0.66541525290E+03  0.14721684632E+03 -0.21935166397E+03  0.71593674461E+03  0.10566000000E+00 0. -1.
         -4    1    3    3    0  502 -0.58913448513E+02 -0.47405974994E+03  0.15467090189E+03  0.50212202583E+03  0.00000000000E+00 0. -1.
        -13    1    1    2    0    0 -0.60650180439E+03  0.32684290363E+03 -0.14790355832E+03  0.70466034095E+03  0.10566000000E+00 0.  1.
<mgrwt>
<rscale>  1 0.10552136E+04</rscale>
<asrwt>0</asrwt>
<pdfrwt beam="1">  1       21 0.13154883E+00 0.12163402E+04</pdfrwt>
<pdfrwt beam="2">  1       -4 0.16425411E+00 0.12163402E+04</pdfrwt>
<totfact> 0.34165252E+00</totfact>
</mgrwt>
</event>
<event>
 6    2  0.2379986E-005  0.1003903E+04  0.7818608E-02  0.9882825E-01
         21   -1    0    0  501  502  0.00000000000E+00  0.00000000000E+00  0.37018250622E+03  0.37018250622E+03  0.00000000000E+00 0. -1.
         -4   -1    0    0    0  501 -0.00000000000E+00 -0.00000000000E+00 -0.95918719226E+03  0.95918719226E+03  0.00000000000E+00 0. -1.
   -9000010    2    1    2    0  502 -0.81163234777E+02 -0.11130921223E+03 -0.36855555740E+03  0.10694177012E+04  0.99440625971E+03 0.  0.
         13    1    3    3    0    0  0.25213561689E+03  0.14261796504E+03 -0.54308829172E+03  0.61551373423E+03  0.10566000000E+00 0. -1.
         -4    1    3    3    0  502 -0.33329885167E+03 -0.25392717727E+03  0.17453273432E+03  0.45390396697E+03  0.00000000000E+00 0. -1.
        -13    1    1    2    0    0  0.81163234777E+02  0.11130921223E+03 -0.22044912864E+03  0.25995199728E+03  0.10566000000E+00 0.  1.
<mgrwt>
<rscale>  1 0.61100936E+03</rscale>
<asrwt>0</asrwt>
<pdfrwt beam="1">  1       21 0.56951156E-01 0.10039029E+04</pdfrwt>
<pdfrwt beam="2">  1       -4 0.14756726E+00 0.10039029E+04</pdfrwt>
<totfact> 0.35284296E+01</totfact>
</mgrwt>
</event>
<event>
 6    2  0.2379986E-005  0.1209558E+04  0.7818608E-02  0.9266236E-01
         21   -1    0    0  501  502  0.00000000000E+00  0.00000000000E+00  0.46933850542E+03  0.46933850542E+03  0.00000000000E+00 0. -1.
         -4   -1    0    0    0  501 -0.00000000000E+00 -0.00000000000E+00 -0.18901325440E+04  0.18901325440E+04  0.00000000000E+00 0. -1.
   -9000010    2    1    2    0  502  0.59278044914E+03  0.28984638199E+03 -0.77722719866E+03  0.14377455617E+04  0.10137211628E+04 0.  0.
         13    1    3    3    0    0 -0.24039883273E+03  0.16173204338E+03  0.20676311055E+01  0.28974668056E+03  0.10566000000E+00 0. -1.
         -4    1    3    3    0  502  0.83317928187E+03  0.12811433861E+03 -0.77929482976E+03  0.11479988812E+04  0.00000000000E+00 0. -1.
        -13    1    1    2    0    0 -0.59278044914E+03 -0.28984638199E+03 -0.64356683992E+03  0.92172548768E+03  0.10566000000E+00 0.  1.
<mgrwt>
<rscale>  1 0.10395155E+04</rscale>
<asrwt>0</asrwt>
<pdfrwt beam="1">  1       21 0.72205925E-01 0.12095578E+04</pdfrwt>
<pdfrwt beam="2">  1       -4 0.29078962E+00 0.12095578E+04</pdfrwt>
<totfact> 0.22808424E+00</totfact>
</mgrwt>
</event>
<event>
 6    2  0.2379986E-005  0.1123311E+04  0.7818608E-02  0.9350898E-01
         -4   -1    0    0    0  501 -0.00000000000E+00  0.00000000000E+00  0.70243716224E+03  0.70243716224E+03  0.00000000000E+00 0. -1.
         21   -1    0    0  501  502  0.00000000000E+00 -0.00000000000E+00 -0.13175842196E+04  0.13175842196E+04  0.00000000000E+00 0. -1.
   -9000010    2    1    2    0  502  0.52860031290E+03  0.29421020989E+03 -0.80950822935E+03  0.13846048140E+04  0.94649298948E+03 0.  0.
         13    1    3    3    0    0  0.46374458347E+03 -0.17351278161E+03 -0.76373131791E+03  0.91019298020E+03  0.10566000000E+00 0. -1.
         -4    1    3    3    0  502  0.64855729433E+02  0.46772299150E+03 -0.45776911440E+02  0.47441183379E+03  0.00000000000E+00 0. -1.
        -13    1    1    2    0    0 -0.52860031290E+03 -0.29421020989E+03  0.19436117196E+03  0.63541656788E+03  0.10566000000E+00 0.  1.
<mgrwt>
<rscale>  1 0.96229180E+03</rscale>
<asrwt>0</asrwt>
<pdfrwt beam="2">  1       21 0.20270526E+00 0.11233107E+04</pdfrwt>
<pdfrwt beam="1">  1       -4 0.10806726E+00 0.11233107E+04</pdfrwt>
<totfact> 0.29221983E+00</totfact>
</mgrwt>
</event>
<event>
 6    2  0.2379986E-005  0.7378103E+03  0.7818608E-02  0.1039677E+00
         -4   -1    0    0    0  501 -0.00000000000E+00  0.00000000000E+00  0.36448351844E+03  0.36448351844E+03  0.00000000000E+00 0. -1.
         21   -1    0    0  501  502  0.00000000000E+00 -0.00000000000E+00 -0.86596106884E+03  0.86596106884E+03  0.00000000000E+00 0. -1.
   -9000010    2    1    2    0  502  0.71775447985E+02 -0.14387464639E+01 -0.70141371061E+03  0.10180104463E+04  0.73430939696E+03 0.  0.
         13    1    3    3    0    0  0.19777054770E+03  0.27608269562E+03 -0.11754134108E+03  0.35937560071E+03  0.10566000000E+00 0. -1.
         -4    1    3    3    0  502 -0.12599509971E+03 -0.27752144208E+03 -0.58387236952E+03  0.65863484561E+03  0.00000000000E+00 0. -1.
        -13    1    1    2    0    0 -0.71775447985E+02  0.14387464639E+01  0.19993616021E+03  0.21243414097E+03  0.10566000000E+00 0.  1.
<mgrwt>
<rscale>  1 0.41207328E+03</rscale>
<asrwt>0</asrwt>
<pdfrwt beam="2">  1       21 0.13322478E+00 0.73781032E+03</pdfrwt>
<pdfrwt beam="1">  1       -4 0.56074388E-01 0.73781032E+03</pdfrwt>
<totfact> 0.46543734E+01</totfact>
</mgrwt>
</event>
<event>
 6    2  0.2379986E-005  0.1022211E+04  0.7818608E-02  0.1010905E+00
         21   -1    0    0  501  502  0.00000000000E+00  0.00000000000E+00  0.27099226084E+03  0.27099226084E+03  0.00000000000E+00 0. -1.
         -4   -1    0    0    0  501 -0.00000000000E+00 -0.00000000000E+00 -0.11485707221E+04  0.11485707221E+04  0.00000000000E+00 0. -1.
   -9000010    2    1    2    0  502 -0.72027609965E+01  0.63509936033E+02 -0.72232407470E+03  0.12516662068E+04  0.10202111705E+04 0.  0.
         13    1    3    3    0    0  0.87228936333E+02  0.52512315561E+03 -0.50137786280E+03  0.73126123127E+03  0.10566000000E+00 0. -1.
         -4    1    3    3    0  502 -0.94431697330E+02 -0.46161321958E+03 -0.22094621191E+03  0.52040497548E+03  0.00000000000E+00 0. -1.
        -13    1    1    2    0    0  0.72027609965E+01 -0.63509936033E+02 -0.15525438654E+03  0.16789677616E+03  0.10566000000E+00 0.  1.
<mgrwt>
<rscale>  1 0.51116359E+03</rscale>
<asrwt>0</asrwt>
<pdfrwt beam="1">  1       21 0.41691117E-01 0.10222114E+04</pdfrwt>
<pdfrwt beam="2">  1       -4 0.17670319E+00 0.10222114E+04</pdfrwt>
<totfact> 0.41934858E+01</totfact>
</mgrwt>
</event>
<event>
 6    2  0.2379986E-005  0.1062080E+04  0.7818608E-02  0.9626170E-01
         -4   -1    0    0    0  501 -0.00000000000E+00  0.00000000000E+00  0.96357640685E+03  0.96357640685E+03  0.00000000000E+00 0. -1.
         21   -1    0    0  501  502  0.00000000000E+00 -0.00000000000E+00 -0.62315628090E+03  0.62315628090E+03  0.00000000000E+00 0. -1.
   -9000010    2    1    2    0  502 -0.26455314618E+03  0.65259734212E+02 -0.10217631197E+03  0.10669838849E+04  0.10265317393E+04 0.  0.
         13    1    3    3    0    0 -0.31194488242E+03 -0.38067377202E+03  0.19459329918E+03  0.52923406317E+03  0.10566000000E+00 0. -1.
         -4    1    3    3    0  502  0.47391736249E+02  0.44593350623E+03 -0.29676961115E+03  0.53774982171E+03  0.00000000000E+00 0. -1.
        -13    1    1    2    0    0  0.26455314618E+03 -0.65259734212E+02  0.44259643792E+03  0.51974880287E+03  0.10566000000E+00 0.  1.
<mgrwt>
<rscale>  1 0.75588032E+03</rscale>
<asrwt>0</asrwt>
<pdfrwt beam="2">  1       21 0.95870198E-01 0.10620803E+04</pdfrwt>
<pdfrwt beam="1">  1       -4 0.14824252E+00 0.10620803E+04</pdfrwt>
<totfact> 0.10343904E+01</totfact>
</mgrwt>
</event>
<event>
 6    2  0.2379986E-005  0.1077229E+04  0.7818608E-02  0.9453808E-01
         -4   -1    0    0    0  501 -0.00000000000E+00  0.00000000000E+00  0.61177457496E+03  0.61177457496E+03  0.00000000000E+00 0. -1.
         21   -1    0    0  501  502  0.00000000000E+00 -0.00000000000E+00 -0.10227332619E+04  0.10227332619E+04  0.00000000000E+00 0. -1.
   -9000010    2    1    2    0  502 -0.27844767637E+03  0.38469197348E+03 -0.42842122089E+03  0.11592963322E+04  0.96690341836E+03 0.  0.
         13    1    3    3    0    0 -0.93197536415E+02  0.65133076670E+03 -0.48802193539E+02  0.65977209224E+03  0.10566000000E+00 0. -1.
         -4    1    3    3    0  502 -0.18525013996E+03 -0.26663879321E+03 -0.37961902735E+03  0.49952423998E+03  0.00000000000E+00 0. -1.
        -13    1    1    2    0    0  0.27844767637E+03 -0.38469197348E+03  0.17462533911E+02  0.47521150469E+03  0.10566000000E+00 0.  1.
<mgrwt>
<rscale>  1 0.87776759E+03</rscale>
<asrwt>0</asrwt>
<pdfrwt beam="2">  1       21 0.15734358E+00 0.10772294E+04</pdfrwt>
<pdfrwt beam="1">  1       -4 0.94119166E-01 0.10772294E+04</pdfrwt>
<totfact> 0.88073971E+00</totfact>
</mgrwt>
</event>
<event>
 6    2  0.2379986E-005  0.1051672E+04  0.7818608E-02  0.1013693E+00
         -4   -1    0    0    0  501 -0.00000000000E+00  0.00000000000E+00  0.36721767033E+03  0.36721767033E+03  0.00000000000E+00 0. -1.
         21   -1    0    0  501  502  0.00000000000E+00 -0.00000000000E+00 -0.10560087284E+04  0.10560087284E+04  0.00000000000E+00 0. -1.
   -9000010    2    1    2    0  502  0.53413053588E+02 -0.70333971109E+01 -0.78542122514E+03  0.13125926637E+04  0.10502907106E+04 0.  0.
         13    1    3    3    0    0 -0.46695024694E+03 -0.12733284157E+03 -0.21026218535E+03  0.52769914100E+03  0.10566000000E+00 0. -1.
         -4    1    3    3    0  502  0.52036330052E+03  0.12029944446E+03 -0.57515903979E+03  0.78489352266E+03  0.00000000000E+00 0. -1.
        -13    1    1    2    0    0 -0.53413053588E+02  0.70333971109E+01  0.96630167106E+02  0.11063373503E+03  0.10566000000E+00 0.  1.
<mgrwt>
<rscale>  1 0.50032866E+03</rscale>
<asrwt>0</asrwt>
<pdfrwt beam="2">  1       21 0.16246288E+00 0.10516715E+04</pdfrwt>
<pdfrwt beam="1">  1       -4 0.56495026E-01 0.10516715E+04</pdfrwt>
<totfact> 0.25558338E+01</totfact>
</mgrwt>
</event>
<event>
 6    2  0.2379986E-005  0.9491517E+03  0.7818608E-02  0.9856379E-01
         -4   -1    0    0    0  501 -0.00000000000E+00  0.00000000000E+00  0.46811038145E+03  0.46811038145E+03  0.00000000000E+00 0. -1.
         21   -1    0    0  501  502  0.00000000000E+00 -0.00000000000E+00 -0.87033952622E+03  0.87033952622E+03  0.00000000000E+00 0. -1.
   -9000010    2    1    2    0  502 -0.17005796061E+03 -0.51094128949E+02 -0.55904196036E+03  0.11015520599E+04  0.93239407294E+03 0.  0.
         13    1    3    3    0    0 -0.70761753571E+02  0.41235633903E+03 -0.76781829403E+02  0.42537094000E+03  0.10566000000E+00 0. -1.
         -4    1    3    3    0  502 -0.99296207038E+02 -0.46345046798E+03 -0.48226013096E+03  0.67618111990E+03  0.00000000000E+00 0. -1.
        -13    1    1    2    0    0  0.17005796061E+03  0.51094128949E+02  0.15681281559E+03  0.23689784777E+03  0.10566000000E+00 0.  1.
<mgrwt>
<rscale>  1 0.62422736E+03</rscale>
<asrwt>0</asrwt>
<pdfrwt beam="2">  1       21 0.13389839E+00 0.94915174E+03</pdfrwt>
<pdfrwt beam="1">  1       -4 0.72016982E-01 0.94915174E+03</pdfrwt>
<totfact> 0.25885288E+01</totfact>
</mgrwt>
</event>
<event>
 6    2  0.2379986E-005  0.9924741E+03  0.7818608E-02  0.1005066E+00
         -4   -1    0    0    0  501 -0.00000000000E+00  0.00000000000E+00  0.24756708552E+03  0.24756708552E+03  0.00000000000E+00 0. -1.
         21   -1    0    0  501  502  0.00000000000E+00 -0.00000000000E+00 -0.12864926134E+04  0.12864926134E+04  0.00000000000E+00 0. -1.
   -9000010    2    1    2    0  502 -0.44294487095E+02 -0.71018021112E+02 -0.10554058313E+04  0.14487533540E+04  0.98893844663E+03 0.  0.
         13    1    3    3    0    0 -0.36928422874E+03 -0.37074624300E+03 -0.73721135565E+03  0.90404878870E+03  0.10566000000E+00 0. -1.
         -4    1    3    3    0  502  0.32498974164E+03  0.29972822189E+03 -0.31819447562E+03  0.54470456532E+03  0.00000000000E+00 0. -1.
        -13    1    1    2    0    0  0.44294487095E+02  0.71018021112E+02  0.16480303409E+02  0.85306344864E+02  0.10566000000E+00 0.  1.
<mgrwt>
<rscale>  1 0.53483502E+03</rscale>
<asrwt>0</asrwt>
<pdfrwt beam="2">  1       21 0.19792194E+00 0.99247409E+03</pdfrwt>
<pdfrwt beam="1">  1       -4 0.38087244E-01 0.99247409E+03</pdfrwt>
<totfact> 0.32364175E+01</totfact>
</mgrwt>
</event>
<event>
 6    2  0.2379986E-005  0.1020880E+04  0.7818608E-02  0.9618785E-01
         -4   -1    0    0    0  501 -0.00000000000E+00  0.00000000000E+00  0.93191232954E+03  0.93191232954E+03  0.00000000000E+00 0. -1.
         21   -1    0    0  501  502  0.00000000000E+00 -0.00000000000E+00 -0.79939139881E+03  0.79939139881E+03  0.00000000000E+00 0. -1.
   -9000010    2    1    2    0  502  0.25222962196E+03  0.18809913858E+03 -0.41323372733E+03  0.11013440264E+04  0.97118251783E+03 0.  0.
         13    1    3    3    0    0 -0.14909586083E+03  0.41342882977E+02 -0.61114141404E+03  0.63042259541E+03  0.10566000000E+00 0. -1.
         -4    1    3    3    0  502  0.40132548279E+03  0.14675625560E+03  0.19790768671E+03  0.47092143098E+03  0.00000000000E+00 0. -1.
        -13    1    1    2    0    0 -0.25222962196E+03 -0.18809913858E+03  0.54575465806E+03  0.62995970195E+03  0.10566000000E+00 0.  1.
<mgrwt>
<rscale>  1 0.76065216E+03</rscale>
<asrwt>0</asrwt>
<pdfrwt beam="2">  1       21 0.12298329E+00 0.10208803E+04</pdfrwt>
<pdfrwt beam="1">  1       -4 0.14337113E+00 0.10208803E+04</pdfrwt>
<totfact> 0.60474380E+00</totfact>
</mgrwt>
</event>
<event>
 6    2  0.2379986E-005  0.1027547E+04  0.7818608E-02  0.9661918E-01
         21   -1    0    0  501  502  0.00000000000E+00  0.00000000000E+00  0.45806834902E+03  0.45806834902E+03  0.00000000000E+00 0. -1.
         -4   -1    0    0    0  501 -0.00000000000E+00 -0.00000000000E+00 -0.10853359547E+04  0.10853359547E+04  0.00000000000E+00 0. -1.
   -9000010    2    1    2    0  502  0.24563946068E+03  0.10340533605E+03 -0.21078176371E+03  0.10489431062E+04  0.99238162008E+03 0.  0.
         13    1    3    3    0    0  0.15573751933E+03  0.43351105861E+03 -0.44009047209E+03  0.63707585707E+03  0.10566000000E+00 0. -1.
         -4    1    3    3    0  502  0.89901941346E+02 -0.33010572257E+03  0.22930870838E+03  0.41186724909E+03  0.00000000000E+00 0. -1.
        -13    1    1    2    0    0 -0.24563946068E+03 -0.10340533605E+03 -0.41648584193E+03  0.49446119752E+03  0.10566000000E+00 0.  1.
<mgrwt>
<rscale>  1 0.73330148E+03</rscale>
<asrwt>0</asrwt>
<pdfrwt beam="1">  1       21 0.70472054E-01 0.10275469E+04</pdfrwt>
<pdfrwt beam="2">  1       -4 0.16697476E+00 0.10275469E+04</pdfrwt>
<totfact> 0.15546284E+01</totfact>
</mgrwt>
</event>
<event>
 6    2  0.2379986E-005  0.1043378E+04  0.7818608E-02  0.9735901E-01
         -4   -1    0    0    0  501 -0.00000000000E+00  0.00000000000E+00  0.42457740319E+03  0.42457740319E+03  0.00000000000E+00 0. -1.
         21   -1    0    0  501  502  0.00000000000E+00 -0.00000000000E+00 -0.98863003587E+03  0.98863003587E+03  0.00000000000E+00 0. -1.
   -9000010    2    1    2    0  502  0.14438374932E+03 -0.13639757222E+03 -0.61099592322E+03  0.12091127344E+04  0.10242981117E+04 0.  0.
         13    1    3    3    0    0  0.29969145044E+03 -0.47186350447E+03 -0.83819841511E+02  0.56523969191E+03  0.10566000000E+00 0. -1.
         -4    1    3    3    0  502 -0.15530770112E+03  0.33546593225E+03 -0.52717608171E+03  0.64387304250E+03  0.00000000000E+00 0. -1.
        -13    1    1    2    0    0 -0.14438374932E+03  0.13639757222E+03  0.46943290537E+02  0.20409470465E+03  0.10566000000E+00 0.  1.
<mgrwt>
<rscale>  1 0.68918920E+03</rscale>
<asrwt>0</asrwt>
<pdfrwt beam="2">  1       21 0.15209692E+00 0.10433780E+04</pdfrwt>
<pdfrwt beam="1">  1       -4 0.65319602E-01 0.10433780E+04</pdfrwt>
<totfact> 0.22472325E+01</totfact>
</mgrwt>
</event>
<event>
 6    2  0.2379986E-005  0.1050060E+04  0.7818608E-02  0.9543939E-01
         21   -1    0    0  501  502  0.00000000000E+00  0.00000000000E+00  0.25466264954E+04  0.25466264954E+04  0.00000000000E+00 0. -1.
         -4   -1    0    0    0  501 -0.00000000000E+00 -0.00000000000E+00 -0.27816179159E+03  0.27816179159E+03  0.00000000000E+00 0. -1.
   -9000010    2    1    2    0  502  0.32494492084E+03 -0.18518027665E+03  0.22092790257E+04  0.24461276314E+04  0.98119602481E+03 0.  0.
         13    1    3    3    0    0  0.54071539661E+03  0.19543228904E+03  0.92250147587E+03  0.10870031756E+04  0.10566000000E+00 0. -1.
         -4    1    3    3    0  502 -0.21577047577E+03 -0.38061256569E+03  0.12867775499E+04  0.13591244557E+04  0.00000000000E+00 0. -1.
        -13    1    1    2    0    0 -0.32494492084E+03  0.18518027665E+03  0.59185678072E+02  0.37866065559E+03  0.10566000000E+00 0.  1.
<mgrwt>
<rscale>  1 0.81120476E+03</rscale>
<asrwt>0</asrwt>
<pdfrwt beam="1">  1       21 0.39178868E+00 0.10500603E+04</pdfrwt>
<pdfrwt beam="2">  1       -4 0.42794124E-01 0.10500603E+04</pdfrwt>
<totfact> 0.14627847E+00</totfact>
</mgrwt>
</event>
<event>
 6    2  0.2379986E-005  0.1007918E+04  0.7818608E-02  0.9791504E-01
         -4   -1    0    0    0  501 -0.00000000000E+00  0.00000000000E+00  0.77495469527E+03  0.77495469527E+03  0.00000000000E+00 0. -1.
         21   -1    0    0  501  502  0.00000000000E+00 -0.00000000000E+00 -0.46997204537E+03  0.46997204537E+03  0.00000000000E+00 0. -1.
   -9000010    2    1    2    0  502 -0.14470092161E+03 -0.11252351841E+03  0.18207435032E+03  0.10242315658E+04  0.99111015154E+03 0.  0.
         13    1    3    3    0    0 -0.38351940975E+03 -0.26060938413E+03  0.44261739384E+03  0.64102617517E+03  0.10566000000E+00 0. -1.
         -4    1    3    3    0  502  0.23881848814E+03  0.14808586572E+03 -0.26054304352E+03  0.38320539066E+03  0.00000000000E+00 0. -1.
        -13    1    1    2    0    0  0.14470092161E+03  0.11252351841E+03  0.12290829959E+03  0.22069517480E+03  0.10566000000E+00 0.  1.
<mgrwt>
<rscale>  1 0.65820511E+03</rscale>
<asrwt>0</asrwt>
<pdfrwt beam="2">  1       21 0.72303391E-01 0.10079183E+04</pdfrwt>
<pdfrwt beam="1">  1       -4 0.11922380E+00 0.10079183E+04</pdfrwt>
<totfact> 0.35754541E+01</totfact>
</mgrwt>
</event>
<event>
 6    2  0.2379986E-005  0.1029755E+04  0.7818608E-02  0.9687709E-01
         21   -1    0    0  501  502  0.00000000000E+00  0.00000000000E+00  0.48344432656E+03  0.48344432656E+03  0.00000000000E+00 0. -1.
         -4   -1    0    0    0  501 -0.00000000000E+00 -0.00000000000E+00 -0.14834339442E+04  0.14834339442E+04  0.00000000000E+00 0. -1.
   -9000010    2    1    2    0  502  0.10728061938E+03 -0.21776167299E+03 -0.99855966630E+02  0.10345854636E+04  0.10007330263E+04 0.  0.
         13    1    3    3    0    0  0.41634674969E+03 -0.15139884706E+03  0.29239595105E+03  0.53081223632E+03  0.10566000000E+00 0. -1.
         -4    1    3    3    0  502 -0.30906613031E+03 -0.66362825935E+02 -0.39225191768E+03  0.50377322725E+03  0.00000000000E+00 0. -1.
        -13    1    1    2    0    0 -0.10728061938E+03  0.21776167299E+03 -0.90013365104E+03  0.93229280723E+03  0.10566000000E+00 0.  1.
<mgrwt>
<rscale>  1 0.71753305E+03</rscale>
<asrwt>0</asrwt>
<pdfrwt beam="1">  1       21 0.74376052E-01 0.10297552E+04</pdfrwt>
<pdfrwt beam="2">  1       -4 0.22822060E+00 0.10297552E+04</pdfrwt>
<totfact> 0.53307681E+00</totfact>
</mgrwt>
</event>
<event>
 6    2  0.2379986E-005  0.9839896E+03  0.7818608E-02  0.9755674E-01
         21   -1    0    0  501  502  0.00000000000E+00  0.00000000000E+00  0.26370934977E+04  0.26370934977E+04  0.00000000000E+00 0.  1.
         -4   -1    0    0    0  501 -0.00000000000E+00 -0.00000000000E+00 -0.13880261677E+03  0.13880261677E+03  0.00000000000E+00 0. -1.
   -9000010    2    1    2    0  502 -0.37580877795E+01  0.22171543136E+03  0.19426647070E+04  0.21776550994E+04  0.95867810686E+03 0.  0.
         13    1    3    3    0    0  0.46183879693E+03  0.54239241321E+02  0.11824105184E+04  0.12705635029E+04  0.10566000000E+00 0. -1.
         -4    1    3    3    0  502 -0.46559688471E+03  0.16747619004E+03  0.76025418858E+03  0.90709159656E+03  0.00000000000E+00 0. -1.
        -13    1    1    2    0    0  0.37580877795E+01 -0.22171543136E+03  0.55562617394E+03  0.59824101502E+03  0.10566000000E+00 0.  1.
<mgrwt>
<rscale>  1 0.67796540E+03</rscale>
<asrwt>0</asrwt>
<pdfrwt beam="1">  1       21 0.40570665E+00 0.98398962E+03</pdfrwt>
<pdfrwt beam="2">  1       -4 0.21354251E-01 0.98398962E+03</pdfrwt>
<totfact> 0.47058245E+00</totfact>
</mgrwt>
</event>
<event>
 6    2  0.2379986E-005  0.1009369E+04  0.7818608E-02  0.9885398E-01
         -4   -1    0    0    0  501 -0.00000000000E+00  0.00000000000E+00  0.14053193952E+04  0.14053193952E+04  0.00000000000E+00 0. -1.
         21   -1    0    0  501  502  0.00000000000E+00 -0.00000000000E+00 -0.24888444421E+03  0.24888444421E+03  0.00000000000E+00 0.  1.
   -9000010    2    1    2    0  502 -0.49461435352E+02 -0.12497959632E+03  0.85002405482E+03  0.13196085891E+04  0.10003797287E+04 0.  0.
         13    1    3    3    0    0  0.17856887136E+03 -0.32284958260E+03  0.93567220521E+03  0.10057838642E+04  0.10566000000E+00 0. -1.
         -4    1    3    3    0  502 -0.22803030672E+03  0.19786998628E+03 -0.85648150391E+02  0.31382472483E+03  0.00000000000E+00 0. -1.
        -13    1    1    2    0    0  0.49461435352E+02  0.12497959632E+03  0.30641089613E+03  0.33459525028E+03  0.10566000000E+00 0.  1.
<mgrwt>
<rscale>  1 0.60974224E+03</rscale>
<asrwt>0</asrwt>
<pdfrwt beam="2">  1       21 0.38289915E-01 0.10093691E+04</pdfrwt>
<pdfrwt beam="1">  1       -4 0.21620298E+00 0.10093691E+04</pdfrwt>
<totfact> 0.27288886E+01</totfact>
</mgrwt>
</event>
<event>
 6    2  0.2379986E-005  0.1102365E+04  0.7818608E-02  0.9404639E-01
         -4   -1    0    0    0  501 -0.00000000000E+00  0.00000000000E+00  0.24769628750E+04  0.24769628750E+04  0.00000000000E+00 0. -1.
         21   -1    0    0  501  502  0.00000000000E+00 -0.00000000000E+00 -0.27002501708E+03  0.27002501708E+03  0.00000000000E+00 0. -1.
   -9000010    2    1    2    0  502 -0.37021109614E+03 -0.37607490092E+03  0.13837944599E+04  0.17692079313E+04  0.96784348436E+03 0.  0.
         13    1    3    3    0    0 -0.61095573697E+03 -0.46651035752E+03  0.12774902179E+04  0.14909326256E+04  0.10566000000E+00 0. -1.
         -4    1    3    3    0  502  0.24074464083E+03  0.90435456606E+02  0.10630424207E+03  0.27827530574E+03  0.00000000000E+00 0. -1.
        -13    1    1    2    0    0  0.37021109614E+03  0.37607490092E+03  0.82314339804E+03  0.97777996078E+03  0.10566000000E+00 0.  1.
<mgrwt>
<rscale>  1 0.91694888E+03</rscale>
<asrwt>0</asrwt>
<pdfrwt beam="2">  1       21 0.41542312E-01 0.11023655E+04</pdfrwt>
<pdfrwt beam="1">  1       -4 0.38107120E+00 0.11023655E+04</pdfrwt>
<totfact> 0.20603665E+00</totfact>
</mgrwt>
</event>
<event>
 6    2  0.2379986E-005  0.1052867E+04  0.7818608E-02  0.9659906E-01
         -4   -1    0    0    0  501 -0.00000000000E+00  0.00000000000E+00  0.73364423779E+03  0.73364423779E+03  0.00000000000E+00 0. -1.
         21   -1    0    0  501  502  0.00000000000E+00 -0.00000000000E+00 -0.65292311278E+03  0.65292311278E+03  0.00000000000E+00 0. -1.
   -9000010    2    1    2    0  502  0.12029255790E+03 -0.21851695327E+03 -0.12892083679E+03  0.10607303949E+04  0.10228921890E+04 0.  0.
         13    1    3    3    0    0 -0.32258326354E+02 -0.46981127308E+03  0.28694369186E+03  0.55145255952E+03  0.10566000000E+00 0. -1.
         -4    1    3    3    0  502  0.15255088425E+03  0.25129431981E+03 -0.41586452865E+03  0.50927783541E+03  0.00000000000E+00 0. -1.
        -13    1    1    2    0    0 -0.12029255790E+03  0.21851695327E+03  0.20964196180E+03  0.32583695565E+03  0.10566000000E+00 0.  1.
<mgrwt>
<rscale>  1 0.73454986E+03</rscale>
<asrwt>0</asrwt>
<pdfrwt beam="2">  1       21 0.10044971E+00 0.10528667E+04</pdfrwt>
<pdfrwt beam="1">  1       -4 0.11286834E+00 0.10528667E+04</pdfrwt>
<totfact> 0.18605867E+01</totfact>
</mgrwt>
</event>
<event>
 6    2  0.2379986E-005  0.1530422E+04  0.7818608E-02  0.8931109E-01
         21   -1    0    0  501  502  0.00000000000E+00  0.00000000000E+00  0.17839356461E+04  0.17839356461E+04  0.00000000000E+00 0. -1.
         -4   -1    0    0    0  501 -0.00000000000E+00 -0.00000000000E+00 -0.11297493804E+04  0.11297493804E+04  0.00000000000E+00 0. -1.
   -9000010    2    1    2    0  502 -0.23286159675E+03  0.11491324117E+04  0.80888324178E+03  0.17310350410E+04  0.98359564432E+03 0.  0.
         13    1    3    3    0    0 -0.26202362024E+03  0.21893228151E+03  0.71911118438E+03  0.79605818136E+03  0.10566000000E+00 0. -1.
         -4    1    3    3    0  502  0.29162023488E+02  0.93020013015E+03  0.89772057397E+02  0.93497685962E+03  0.00000000000E+00 0. -1.
        -13    1    1    2    0    0  0.23286159675E+03 -0.11491324117E+04 -0.15469697606E+03  0.11826499856E+04  0.10566000000E+00 0.  1.
<mgrwt>
<rscale>  1 0.14318103E+04</rscale>
<asrwt>0</asrwt>
<pdfrwt beam="1">  1       21 0.27445164E+00 0.15304216E+04</pdfrwt>
<pdfrwt beam="2">  1       -4 0.17380760E+00 0.15304216E+04</pdfrwt>
<totfact> 0.26766426E-01</totfact>
</mgrwt>
</event>
<event>
 6    2  0.2379986E-005  0.9780511E+03  0.7818608E-02  0.9879524E-01
         -4   -1    0    0    0  501 -0.00000000000E+00  0.00000000000E+00  0.31408864564E+03  0.31408864564E+03  0.00000000000E+00 0. -1.
         21   -1    0    0  501  502  0.00000000000E+00 -0.00000000000E+00 -0.12840682771E+04  0.12840682771E+04  0.00000000000E+00 0. -1.
   -9000010    2    1    2    0  502 -0.82126834174E+02  0.12619955019E+03 -0.10438380852E+04  0.14304481701E+04  0.96639167823E+03 0.  0.
         13    1    3    3    0    0 -0.29495409308E+03  0.41057093069E+03 -0.25690704292E+03  0.56706934851E+03  0.10566000000E+00 0. -1.
         -4    1    3    3    0  502  0.21282725890E+03 -0.28437138051E+03 -0.78693104233E+03  0.86337882158E+03  0.00000000000E+00 0. -1.
        -13    1    1    2    0    0  0.82126834174E+02 -0.12619955019E+03  0.73858453783E+02  0.16770875266E+03  0.10566000000E+00 0.  1.
<mgrwt>
<rscale>  1 0.61264004E+03</rscale>
<asrwt>0</asrwt>
<pdfrwt beam="2">  1       21 0.19754896E+00 0.97805113E+03</pdfrwt>
<pdfrwt beam="1">  1       -4 0.48321331E-01 0.97805113E+03</pdfrwt>
<totfact> 0.19973125E+01</totfact>
</mgrwt>
</event>
<event>
 6    2  0.2379986E-005  0.1086865E+04  0.7818608E-02  0.9504612E-01
         -4   -1    0    0    0  501 -0.00000000000E+00  0.00000000000E+00  0.93716807110E+03  0.93716807110E+03  0.00000000000E+00 0. -1.
         21   -1    0    0  501  502  0.00000000000E+00 -0.00000000000E+00 -0.72151417980E+03  0.72151417980E+03  0.00000000000E+00 0. -1.
   -9000010    2    1    2    0  502 -0.37628842103E+03 -0.89400729740E+02 -0.18422226677E+03  0.11023672149E+04  0.10157215006E+04 0.  0.
         13    1    3    3    0    0 -0.39392045052E+02 -0.93350368561E+02  0.40833778149E+03  0.42072054797E+03  0.10566000000E+00 0. -1.
         -4    1    3    3    0  502 -0.33689637597E+03  0.39496388213E+01 -0.59256004827E+03  0.68164666697E+03  0.00000000000E+00 0. -1.
        -13    1    1    2    0    0  0.37628842103E+03  0.89400729740E+02  0.39987615807E+03  0.55631503596E+03  0.10566000000E+00 0.  1.
<mgrwt>
<rscale>  1 0.83944626E+03</rscale>
<asrwt>0</asrwt>
<pdfrwt beam="2">  1       21 0.11100218E+00 0.10868650E+04</pdfrwt>
<pdfrwt beam="1">  1       -4 0.14417970E+00 0.10868650E+04</pdfrwt>
<totfact> 0.76992589E+00</totfact>
</mgrwt>
</event>
<event>
 6    2  0.2379986E-005  0.1017692E+04  0.7818608E-02  0.9916049E-01
         21   -1    0    0  501  502  0.00000000000E+00  0.00000000000E+00  0.62542121789E+03  0.62542121789E+03  0.00000000000E+00 0. -1.
         -4   -1    0    0    0  501 -0.00000000000E+00 -0.00000000000E+00 -0.91148756776E+03  0.91148756776E+03  0.00000000000E+00 0. -1.
   -9000010    2    1    2    0  502  0.77824770561E+02  0.89796397768E+02  0.19945859756E+03  0.10370542331E+04  0.10107312513E+04 0.  0.
         13    1    3    3    0    0  0.52502344397E+03  0.51388415888E+01 -0.32809670199E+02  0.52607272314E+03  0.10566000000E+00 0. -1.
         -4    1    3    3    0  502 -0.44719867341E+03  0.84657556179E+02  0.23226826776E+03  0.51098150996E+03  0.00000000000E+00 0. -1.
        -13    1    1    2    0    0 -0.77824770561E+02 -0.89796397768E+02 -0.48552494743E+03  0.49985455255E+03  0.10566000000E+00 0.  1.
<mgrwt>
<rscale>  1 0.59489745E+03</rscale>
<asrwt>0</asrwt>
<pdfrwt beam="1">  1       21 0.96218649E-01 0.10176924E+04</pdfrwt>
<pdfrwt beam="2">  1       -4 0.14022886E+00 0.10176924E+04</pdfrwt>
<totfact> 0.11939925E+01</totfact>
</mgrwt>
</event>
<event>
 6    2  0.2379986E-005  0.1018206E+04  0.7818608E-02  0.9851386E-01
         21   -1    0    0  501  502  0.00000000000E+00  0.00000000000E+00  0.12264114245E+04  0.12264114245E+04  0.00000000000E+00 0. -1.
         -4   -1    0    0    0  501 -0.00000000000E+00 -0.00000000000E+00 -0.45912085723E+03  0.45912085723E+03  0.00000000000E+00 0. -1.
   -9000010    2    1    2    0  502  0.14292921436E+03  0.30687049576E+02  0.98933070965E+03  0.14196896755E+04  0.10076572167E+04 0.  0.
         13    1    3    3    0    0 -0.39662690769E+03 -0.84660825150E+01  0.70398682232E+03  0.80807303855E+03  0.10566000000E+00 0. -1.
         -4    1    3    3    0  502  0.53955612205E+03  0.39153132091E+02  0.28534388733E+03  0.61161663698E+03  0.00000000000E+00 0. -1.
        -13    1    1    2    0    0 -0.14292921436E+03 -0.30687049576E+02 -0.22204014233E+03  0.26584260625E+03  0.10566000000E+00 0.  1.
<mgrwt>
<rscale>  1 0.62676321E+03</rscale>
<asrwt>0</asrwt>
<pdfrwt beam="1">  1       21 0.18867868E+00 0.10182060E+04</pdfrwt>
<pdfrwt beam="2">  1       -4 0.70633979E-01 0.10182060E+04</pdfrwt>
<totfact> 0.10062243E+01</totfact>
</mgrwt>
</event>
<event>
 6    2  0.2379986E-005  0.1140041E+04  0.7818608E-02  0.9402662E-01
         -4   -1    0    0    0  501 -0.00000000000E+00  0.00000000000E+00  0.14076293053E+04  0.14076293053E+04  0.00000000000E+00 0. -1.
         21   -1    0    0  501  502  0.00000000000E+00 -0.00000000000E+00 -0.47024196396E+03  0.47024196396E+03  0.00000000000E+00 0. -1.
   -9000010    2    1    2    0  502 -0.45911816516E+03 -0.14171809724E+03  0.58040985808E+03  0.12792842302E+04  0.10338370420E+04 0.  0.
         13    1    3    3    0    0  0.28764743477E+03  0.15121146557E+03  0.82944677473E+02  0.33538900509E+03  0.10566000000E+00 0. -1.
         -4    1    3    3    0  502 -0.74676559993E+03 -0.29292956281E+03  0.49746518060E+03  0.94389522507E+03  0.00000000000E+00 0. -1.
        -13    1    1    2    0    0  0.45911816516E+03  0.14171809724E+03  0.35697748326E+03  0.59858703911E+03  0.10566000000E+00 0.  1.
<mgrwt>
<rscale>  1 0.91856946E+03</rscale>
<asrwt>0</asrwt>
<pdfrwt beam="2">  1       21 0.72344918E-01 0.11400406E+04</pdfrwt>
<pdfrwt beam="1">  1       -4 0.21655835E+00 0.11400406E+04</pdfrwt>
<totfact> 0.66566561E+00</totfact>
</mgrwt>
</event>
<event>
 6    2  0.2379986E-005  0.1003408E+04  0.7818608E-02  0.9789632E-01
         -4   -1    0    0    0  501 -0.00000000000E+00  0.00000000000E+00  0.27479400838E+03  0.27479400838E+03  0.00000000000E+00 0. -1.
         21   -1    0    0  501  502  0.00000000000E+00 -0.00000000000E+00 -0.13171432922E+04  0.13171432922E+04  0.00000000000E+00 0. -1.
   -9000010    2    1    2    0  502  0.27425016585E+02 -0.18491049185E+03 -0.78567704415E+03  0.12744082920E+04  0.98584180039E+03 0.  0.
         13    1    3    3    0    0  0.40881114515E+02 -0.31915844753E+02  0.23580668318E+03  0.24144293252E+03  0.10566000000E+00 0. -1.
         -4    1    3    3    0  502 -0.13456097930E+02 -0.15299464710E+03 -0.10214837273E+04  0.10329653594E+04  0.00000000000E+00 0. -1.
        -13    1    1    2    0    0 -0.27425016585E+02  0.18491049185E+03 -0.25667223964E+03  0.31752900859E+03  0.10566000000E+00 0.  1.
<mgrwt>
<rscale>  1 0.65921932E+03</rscale>
<asrwt>0</asrwt>
<pdfrwt beam="2">  1       21 0.20263743E+00 0.10034082E+04</pdfrwt>
<pdfrwt beam="1">  1       -4 0.42276001E-01 0.10034082E+04</pdfrwt>
<totfact> 0.24246741E+01</totfact>
</mgrwt>
</event>
<event>
 6    2  0.2757223E-005  0.8183336E+03  0.7818608E-02  0.9985616E-01
         21   -1    0    0  501  502  0.00000000000E+00  0.00000000000E+00  0.21006961762E+04  0.21006961762E+04  0.00000000000E+00 0. -1.
         -4   -1    0    0    0  501 -0.00000000000E+00 -0.00000000000E+00 -0.12145686438E+03  0.12145686438E+03  0.00000000000E+00 0. -1.
   -9000010    2    1    2    0  502  0.84772089506E+02  0.16234407305E+03  0.17199669844E+04  0.19047194946E+04  0.79757634134E+03 0.  0.
         13    1    3    3    0    0 -0.16953758097E+03 -0.18842548713E+03  0.12067213187E+04  0.12330545437E+04  0.10566000000E+00 0. -1.
         -4    1    3    3    0  502  0.25430967048E+03  0.35076956018E+03  0.51324566575E+03  0.67166495089E+03  0.00000000000E+00 0. -1.
        -13    1    1    2    0    0 -0.84772089506E+02 -0.16234407305E+03  0.25927232736E+03  0.31743354598E+03  0.10566000000E+00 0.  1.
<mgrwt>
<rscale>  1 0.56285468E+03</rscale>
<asrwt>0</asrwt>
<pdfrwt beam="1">  1       21 0.32318400E+00 0.81833363E+03</pdfrwt>
<pdfrwt beam="2">  1       -4 0.18685673E-01 0.81833363E+03</pdfrwt>
<totfact> 0.20939759E+01</totfact>
</mgrwt>
</event>
<event>
 6    2  0.2379986E-005  0.1266001E+04  0.7818608E-02  0.9186573E-01
         -4   -1    0    0    0  501 -0.00000000000E+00  0.00000000000E+00  0.10589666373E+04  0.10589666373E+04  0.00000000000E+00 0. -1.
         21   -1    0    0  501  502  0.00000000000E+00 -0.00000000000E+00 -0.10903735974E+04  0.10903735974E+04  0.00000000000E+00 0.  1.
   -9000010    2    1    2    0  502  0.75943209999E+03  0.14720576115E+03 -0.34883012013E+03  0.13131798886E+04  0.10021737956E+04 0.  0.
         13    1    3    3    0    0  0.76024820758E+03  0.19286940185E+03  0.16152023845E+03  0.80079007355E+03  0.10566000000E+00 0. -1.
         -4    1    3    3    0  502 -0.81610759312E+00 -0.45663640699E+02 -0.51035035858E+03  0.51238981509E+03  0.00000000000E+00 0. -1.
        -13    1    1    2    0    0 -0.75943209999E+03 -0.14720576115E+03  0.31742316006E+03  0.83616034605E+03  0.10566000000E+00 0.  1.
<mgrwt>
<rscale>  1 0.11193094E+04</rscale>
<asrwt>0</asrwt>
<pdfrwt beam="2">  1       21 0.16774978E+00 0.12660012E+04</pdfrwt>
<pdfrwt beam="1">  1       -4 0.16291794E+00 0.12660012E+04</pdfrwt>
<totfact> 0.17590222E+00</totfact>
</mgrwt>
</event>
<event>
 6    2  0.2379986E-005  0.1055848E+04  0.7818608E-02  0.9575212E-01
         21   -1    0    0  501  502  0.00000000000E+00  0.00000000000E+00  0.67434980253E+03  0.67434980253E+03  0.00000000000E+00 0. -1.
         -4   -1    0    0    0  501 -0.00000000000E+00 -0.00000000000E+00 -0.74492300806E+03  0.74492300806E+03  0.00000000000E+00 0. -1.
   -9000010    2    1    2    0  502  0.95500733449E+02 -0.31610399236E+03  0.74758275849E+02  0.10584911942E+04  0.10028821887E+04 0.  0.
         13    1    3    3    0    0  0.23604996303E+03  0.32356566875E+03  0.14206550143E+02  0.40076946524E+03  0.10566000000E+00 0. -1.
         -4    1    3    3    0  502 -0.14054922958E+03 -0.63966966110E+03  0.60551725707E+02  0.65772172897E+03  0.00000000000E+00 0. -1.
        -13    1    1    2    0    0 -0.95500733449E+02  0.31610399236E+03 -0.14533148138E+03  0.36078161638E+03  0.10566000000E+00 0.  1.
<mgrwt>
<rscale>  1 0.78958760E+03</rscale>
<asrwt>0</asrwt>
<pdfrwt beam="1">  1       21 0.10374612E+00 0.10558479E+04</pdfrwt>
<pdfrwt beam="2">  1       -4 0.11460354E+00 0.10558479E+04</pdfrwt>
<totfact> 0.16521243E+01</totfact>
</mgrwt>
</event>
<event>
 6    2  0.2379986E-005  0.1022176E+04  0.7818608E-02  0.9797949E-01
         -4   -1    0    0    0  501 -0.00000000000E+00  0.00000000000E+00  0.26202220918E+03  0.26202220918E+03  0.00000000000E+00 0. -1.
         21   -1    0    0  501  502  0.00000000000E+00 -0.00000000000E+00 -0.14371808444E+04  0.14371808444E+04  0.00000000000E+00 0. -1.
   -9000010    2    1    2    0  502  0.16402710730E+03  0.51939897545E+02 -0.11249220796E+04  0.15199647553E+04  0.10075914486E+04 0.  0.
         13    1    3    3    0    0  0.41046827439E+02 -0.17571254420E+03  0.14029173902E+03  0.22856404668E+03  0.10566000000E+00 0. -1.
         -4    1    3    3    0  502  0.12298027986E+03  0.22765244174E+03 -0.12652138186E+04  0.12914007086E+04  0.00000000000E+00 0. -1.
        -13    1    1    2    0    0 -0.16402710730E+03 -0.51939897545E+02 -0.50236555660E+02  0.17923829829E+03  0.10566000000E+00 0.  1.
<mgrwt>
<rscale>  1 0.65472738E+03</rscale>
<asrwt>0</asrwt>
<pdfrwt beam="2">  1       21 0.22110474E+00 0.10221757E+04</pdfrwt>
<pdfrwt beam="1">  1       -4 0.40311109E-01 0.10221757E+04</pdfrwt>
<totfact> 0.20045407E+01</totfact>
</mgrwt>
</event>
<event>
 6    2  0.2379986E-005  0.1068827E+04  0.7818608E-02  0.9541786E-01
         -4   -1    0    0    0  501 -0.00000000000E+00  0.00000000000E+00  0.17631238329E+04  0.17631238329E+04  0.00000000000E+00 0. -1.
         21   -1    0    0  501  502  0.00000000000E+00 -0.00000000000E+00 -0.29274009901E+03  0.29274009901E+03  0.00000000000E+00 0. -1.
   -9000010    2    1    2    0  502 -0.31089295745E+03  0.17610692621E+03  0.98765120419E+03  0.14552818919E+04  0.10073343056E+04 0.  0.
         13    1    3    3    0    0  0.65926349682E+00 -0.40348826651E+03  0.29449428183E+03  0.49952988803E+03  0.10566000000E+00 0. -1.
         -4    1    3    3    0  502 -0.31155222095E+03  0.57959519272E+03  0.69315692236E+03  0.95575200382E+03  0.00000000000E+00 0. -1.
        -13    1    1    2    0    0  0.31089295745E+03 -0.17610692621E+03  0.48273252968E+03  0.60058204005E+03  0.10566000000E+00 0.  1.
<mgrwt>
<rscale>  1 0.81271965E+03</rscale>
<asrwt>0</asrwt>
<pdfrwt beam="2">  1       21 0.45036939E-01 0.10688267E+04</pdfrwt>
<pdfrwt beam="1">  1       -4 0.27124981E+00 0.10688267E+04</pdfrwt>
<totfact> 0.87287448E+00</totfact>
</mgrwt>
</event>
<event>
 6    2  0.2379986E-005  0.1013209E+04  0.7818608E-02  0.9873495E-01
         21   -1    0    0  501  502  0.00000000000E+00  0.00000000000E+00  0.31740415711E+03  0.31740415711E+03  0.00000000000E+00 0. -1.
         -4   -1    0    0    0  501 -0.00000000000E+00 -0.00000000000E+00 -0.10672055789E+04  0.10672055789E+04  0.00000000000E+00 0. -1.
   -9000010    2    1    2    0  502  0.75927919899E+02  0.11535193303E+03 -0.58639010025E+03  0.11706602358E+04  0.10037534162E+04 0.  0.
         13    1    3    3    0    0 -0.11190968474E+03  0.31813758546E+03  0.16106362772E+03  0.37373360052E+03  0.10566000000E+00 0. -1.
         -4    1    3    3    0  502  0.18783760464E+03 -0.20278565243E+03 -0.74745372797E+03  0.79692663527E+03  0.00000000000E+00 0. -1.
        -13    1    1    2    0    0 -0.75927919899E+02 -0.11535193303E+03 -0.16341132157E+03  0.21394950025E+03  0.10566000000E+00 0.  1.
<mgrwt>
<rscale>  1 0.61563210E+03</rscale>
<asrwt>0</asrwt>
<pdfrwt beam="1">  1       21 0.48831408E-01 0.10132088E+04</pdfrwt>
<pdfrwt beam="2">  1       -4 0.16418548E+00 0.10132088E+04</pdfrwt>
<totfact> 0.36868743E+01</totfact>
</mgrwt>
</event>
<event>
 6    2  0.2379986E-005  0.1078758E+04  0.7818608E-02  0.9509775E-01
         -4   -1    0    0    0  501 -0.00000000000E+00  0.00000000000E+00  0.87909219184E+03  0.87909219184E+03  0.00000000000E+00 0. -1.
         21   -1    0    0  501  502  0.00000000000E+00 -0.00000000000E+00 -0.11012814826E+04  0.11012814826E+04  0.00000000000E+00 0.  1.
   -9000010    2    1    2    0  502 -0.33603658113E+03 -0.19492017189E+03  0.47778129979E+03  0.11798280505E+04  0.10063820353E+04 0.  0.
         13    1    3    3    0    0 -0.45989719013E+03  0.29953163898E+03  0.13386827688E+03  0.56492951327E+03  0.10566000000E+00 0. -1.
         -4    1    3    3    0  502  0.12386060900E+03 -0.49445181087E+03  0.34391302290E+03  0.61489853721E+03  0.00000000000E+00 0. -1.
        -13    1    1    2    0    0  0.33603658113E+03  0.19492017189E+03 -0.69997059059E+03  0.80054562401E+03  0.10566000000E+00 0.  1.
<mgrwt>
<rscale>  1 0.83566939E+03</rscale>
<asrwt>0</asrwt>
<pdfrwt beam="2">  1       21 0.16942792E+00 0.10787582E+04</pdfrwt>
<pdfrwt beam="1">  1       -4 0.13524495E+00 0.10787582E+04</pdfrwt>
<totfact> 0.28890262E+00</totfact>
</mgrwt>
</event>
<event>
 6    2  0.2379986E-005  0.1167632E+04  0.7818608E-02  0.9313392E-01
         21   -1    0    0  501  502  0.00000000000E+00  0.00000000000E+00  0.13030253476E+04  0.13030253476E+04  0.00000000000E+00 0. -1.
         -4   -1    0    0    0  501 -0.00000000000E+00 -0.00000000000E+00 -0.70101013617E+03  0.70101013617E+03  0.00000000000E+00 0. -1.
   -9000010    2    1    2    0  502  0.60972761349E+03  0.95590133673E+02  0.72544297426E+03  0.13746392174E+04  0.99119131999E+03 0.  0.
         13    1    3    3    0    0  0.32568333908E+03  0.52093671959E+03  0.57508590536E+03  0.84152748789E+03  0.10566000000E+00 0. -1.
         -4    1    3    3    0  502  0.28404427441E+03 -0.42534658592E+03  0.15035706890E+03  0.53311172951E+03  0.00000000000E+00 0. -1.
        -13    1    1    2    0    0 -0.60972761349E+03 -0.95590133673E+02 -0.12342776284E+03  0.62939626636E+03  0.10566000000E+00 0.  1.
<mgrwt>
<rscale>  1 0.99559276E+03</rscale>
<asrwt>0</asrwt>
<pdfrwt beam="1">  1       21 0.20046544E+00 0.11676324E+04</pdfrwt>
<pdfrwt beam="2">  1       -4 0.10784771E+00 0.11676324E+04</pdfrwt>
<totfact> 0.30248913E+00</totfact>
</mgrwt>
</event>
<event>
 6    2  0.2379986E-005  0.9519460E+03  0.7818608E-02  0.9840057E-01
         -4   -1    0    0    0  501 -0.00000000000E+00  0.00000000000E+00  0.12851916814E+04  0.12851916814E+04  0.00000000000E+00 0. -1.
         21   -1    0    0  501  502  0.00000000000E+00 -0.00000000000E+00 -0.25272754581E+03  0.25272754581E+03  0.00000000000E+00 0. -1.
   -9000010    2    1    2    0  502 -0.63321293716E+02 -0.17446615293E+03  0.89862171456E+03  0.13090921537E+04  0.93367727621E+03 0.  0.
         13    1    3    3    0    0  0.21128214634E+03  0.10038992093E+03  0.89025664682E+03  0.92047552382E+03  0.10566000000E+00 0. -1.
         -4    1    3    3    0  502 -0.27460344005E+03 -0.27485607386E+03  0.83650677458E+01  0.38861662983E+03  0.00000000000E+00 0. -1.
        -13    1    1    2    0    0  0.63321293716E+02  0.17446615293E+03  0.13384242099E+03  0.22882707352E+03  0.10566000000E+00 0.  1.
<mgrwt>
<rscale>  1 0.63256457E+03</rscale>
<asrwt>0</asrwt>
<pdfrwt beam="2">  1       21 0.38881162E-01 0.95194605E+03</pdfrwt>
<pdfrwt beam="1">  1       -4 0.19772179E+00 0.95194605E+03</pdfrwt>
<totfact> 0.35085142E+01</totfact>
</mgrwt>
</event>
<event>
 6    2  0.2379986E-005  0.1005775E+04  0.7818608E-02  0.9941122E-01
         -4   -1    0    0    0  501 -0.00000000000E+00  0.00000000000E+00  0.35664997302E+03  0.35664997302E+03  0.00000000000E+00 0. -1.
         21   -1    0    0  501  502  0.00000000000E+00 -0.00000000000E+00 -0.96647746746E+03  0.96647746746E+03  0.00000000000E+00 0. -1.
   -9000010    2    1    2    0  502  0.13763443163E+02 -0.11277990872E+03 -0.39587623378E+03  0.10808798537E+04  0.99933704302E+03 0.  0.
         13    1    3    3    0    0  0.48549786008E+03 -0.10969285343E+03 -0.34669405537E+03  0.60657849733E+03  0.10566000000E+00 0. -1.
         -4    1    3    3    0  502 -0.47173441692E+03 -0.30870552967E+01 -0.49182178415E+02  0.47430135640E+03  0.00000000000E+00 0. -1.
        -13    1    1    2    0    0 -0.13763443163E+02  0.11277990872E+03 -0.21395126066E+03  0.24224758674E+03  0.10566000000E+00 0.  1.
<mgrwt>
<rscale>  1 0.58309081E+03</rscale>
<asrwt>0</asrwt>
<pdfrwt beam="2">  1       21 0.14868884E+00 0.10057750E+04</pdfrwt>
<pdfrwt beam="1">  1       -4 0.54869228E-01 0.10057750E+04</pdfrwt>
<totfact> 0.35129474E+01</totfact>
</mgrwt>
</event>
<event>
 6    2  0.2379986E-005  0.9979403E+03  0.7818608E-02  0.1038620E+00
         21   -1    0    0  501  502  0.00000000000E+00  0.00000000000E+00  0.37716373593E+03  0.37716373593E+03  0.00000000000E+00 0. -1.
         -4   -1    0    0    0  501 -0.00000000000E+00 -0.00000000000E+00 -0.92644164724E+03  0.92644164724E+03  0.00000000000E+00 0. -1.
   -9000010    2    1    2    0  502  0.28492200763E+02  0.91343730996E+01 -0.65502313219E+03  0.11937085899E+04  0.99749167992E+03 0.  0.
         13    1    3    3    0    0 -0.18913495781E+03 -0.37418896701E+03 -0.62406645294E+03  0.75183001014E+03  0.10566000000E+00 0. -1.
         -4    1    3    3    0  502  0.21762715857E+03  0.38332334011E+03 -0.30956679252E+02  0.44187857972E+03  0.00000000000E+00 0. -1.
        -13    1    1    2    0    0 -0.28492200763E+02 -0.91343730996E+01  0.10574522088E+03  0.10989679331E+03  0.10566000000E+00 0.  1.
<mgrwt>
<rscale>  1 0.41526156E+03</rscale>
<asrwt>0</asrwt>
<pdfrwt beam="1">  1       21 0.58025190E-01 0.99794033E+03</pdfrwt>
<pdfrwt beam="2">  1       -4 0.14252948E+00 0.99794033E+03</pdfrwt>
<totfact> 0.37149934E+01</totfact>
</mgrwt>
</event>
<event>
 6    2  0.2379986E-005  0.1039589E+04  0.7818608E-02  0.9634840E-01
         -4   -1    0    0    0  501 -0.00000000000E+00  0.00000000000E+00  0.10014999629E+04  0.10014999629E+04  0.00000000000E+00 0. -1.
         21   -1    0    0  501  502  0.00000000000E+00 -0.00000000000E+00 -0.74525909836E+03  0.74525909836E+03  0.00000000000E+00 0. -1.
   -9000010    2    1    2    0  502  0.16309517471E+03  0.23018349486E+03 -0.33453011120E+03  0.10920875144E+04  0.10005799651E+04 0.  0.
         13    1    3    3    0    0 -0.39599357089E+03 -0.16628848025E+02 -0.20286276302E+01  0.39634776808E+03  0.10566000000E+00 0. -1.
         -4    1    3    3    0  502  0.55908874560E+03  0.24681234288E+03 -0.33250148357E+03  0.69573974633E+03  0.00000000000E+00 0. -1.
        -13    1    1    2    0    0 -0.16309517471E+03 -0.23018349486E+03  0.59077097577E+03  0.65467154688E+03  0.10566000000E+00 0.  1.
<mgrwt>
<rscale>  1 0.75032554E+03</rscale>
<asrwt>0</asrwt>
<pdfrwt beam="2">  1       21 0.11465525E+00 0.10395887E+04</pdfrwt>
<pdfrwt beam="1">  1       -4 0.15407692E+00 0.10395887E+04</pdfrwt>
<totfact> 0.59649495E+00</totfact>
</mgrwt>
</event>
<event>
 6    2  0.2379986E-005  0.9962031E+03  0.7818608E-02  0.9466923E-01
         -4   -1    0    0    0  501 -0.00000000000E+00  0.00000000000E+00  0.66755369159E+03  0.66755369159E+03  0.00000000000E+00 0. -1.
         21   -1    0    0  501  502  0.00000000000E+00 -0.00000000000E+00 -0.10015564441E+04  0.10015564441E+04  0.00000000000E+00 0. -1.
   -9000010    2    1    2    0  502 -0.55128790261E+03 -0.15729945374E+03 -0.43492401152E+03  0.10870048347E+04  0.81471414938E+03 0.  0.
         13    1    3    3    0    0  0.12377001650E+03 -0.25932055463E+03 -0.19897442634E+02  0.28803139833E+03  0.10566000000E+00 0. -1.
         -4    1    3    3    0  502 -0.67505791911E+03  0.10202110089E+03 -0.41502656888E+03  0.79897343639E+03  0.00000000000E+00 0. -1.
        -13    1    1    2    0    0  0.55128790261E+03  0.15729945374E+03  0.10092125903E+03  0.58210530095E+03  0.10566000000E+00 0.  1.
<mgrwt>
<rscale>  1 0.86766987E+03</rscale>
<asrwt>0</asrwt>
<pdfrwt beam="2">  1       21 0.15408561E+00 0.99620310E+03</pdfrwt>
<pdfrwt beam="1">  1       -4 0.10270057E+00 0.99620310E+03</pdfrwt>
<totfact> 0.76523487E+00</totfact>
</mgrwt>
</event>
<event>
 6    2  0.2379986E-005  0.1124221E+04  0.7818608E-02  0.9728853E-01
         21   -1    0    0  501  502  0.00000000000E+00  0.00000000000E+00  0.14609263560E+04  0.14609263560E+04  0.00000000000E+00 0. -1.
         -4   -1    0    0    0  501 -0.00000000000E+00 -0.00000000000E+00 -0.30003675434E+03  0.30003675434E+03  0.00000000000E+00 0. -1.
   -9000010    2    1    2    0  502 -0.15748714070E+03  0.40262383997E+02  0.11328647870E+04  0.15960126316E+04  0.11124074952E+04 0.  0.
         13    1    3    3    0    0  0.30214905665E+03 -0.32431619064E+03  0.18293092386E+03  0.47951931975E+03  0.10566000000E+00 0. -1.
         -4    1    3    3    0  502 -0.45963619735E+03  0.36457857464E+03  0.94993386313E+03  0.11164933118E+04  0.00000000000E+00 0. -1.
        -13    1    1    2    0    0  0.15748714070E+03 -0.40262383997E+02  0.28024814679E+02  0.16495047879E+03  0.10566000000E+00 0.  1.
<mgrwt>
<rscale>  1 0.69324572E+03</rscale>
<asrwt>0</asrwt>
<pdfrwt beam="1">  1       21 0.22475790E+00 0.11242214E+04</pdfrwt>
<pdfrwt beam="2">  1       -4 0.46159502E-01 0.11242214E+04</pdfrwt>
<totfact> 0.14156799E+01</totfact>
</mgrwt>
</event>
<event>
 6    2  0.2379986E-005  0.9978147E+03  0.7818608E-02  0.1010684E+00
         -4   -1    0    0    0  501 -0.00000000000E+00  0.00000000000E+00  0.26418138471E+03  0.26418138471E+03  0.00000000000E+00 0. -1.
         21   -1    0    0  501  502  0.00000000000E+00 -0.00000000000E+00 -0.13938897285E+04  0.13938897285E+04  0.00000000000E+00 0. -1.
   -9000010    2    1    2    0  502 -0.69077192883E+02  0.39838488733E+01 -0.11991796095E+04  0.15600211385E+04  0.99541282244E+03 0.  0.
         13    1    3    3    0    0  0.41489882509E+03 -0.19820068715E+03 -0.43365530844E+03  0.63204547712E+03  0.10566000000E+00 0. -1.
         -4    1    3    3    0  502 -0.48397601798E+03  0.20218453602E+03 -0.76552430103E+03  0.92797566135E+03  0.00000000000E+00 0. -1.
        -13    1    1    2    0    0  0.69077192883E+02 -0.39838488733E+01  0.69471265674E+02  0.98049974742E+02  0.10566000000E+00 0.  1.
<mgrwt>
<rscale>  1 0.51203717E+03</rscale>
<asrwt>0</asrwt>
<pdfrwt beam="2">  1       21 0.21444457E+00 0.99781472E+03</pdfrwt>
<pdfrwt beam="1">  1       -4 0.40643291E-01 0.99781472E+03</pdfrwt>
<totfact> 0.21893352E+01</totfact>
</mgrwt>
</event>
<event>
 6    2  0.2379986E-005  0.9945164E+03  0.7818608E-02  0.1005925E+00
         21   -1    0    0  501  502  0.00000000000E+00  0.00000000000E+00  0.29319353270E+03  0.29319353270E+03  0.00000000000E+00 0. -1.
         -4   -1    0    0    0  501 -0.00000000000E+00 -0.00000000000E+00 -0.10867938829E+04  0.10867938829E+04  0.00000000000E+00 0. -1.
   -9000010    2    1    2    0  502 -0.54995563447E+02  0.59453372942E+02 -0.57939526876E+03  0.11509829536E+04  0.99121322953E+03 0.  0.
         13    1    3    3    0    0 -0.53386639107E+02 -0.20100105921E+03  0.22445287173E+03  0.30599127738E+03  0.10566000000E+00 0. -1.
         -4    1    3    3    0  502 -0.16089243402E+01  0.26045443215E+03 -0.80384814049E+03  0.84499167619E+03  0.00000000000E+00 0. -1.
        -13    1    1    2    0    0  0.54995563447E+02 -0.59453372942E+02 -0.21420508145E+03  0.22900446205E+03  0.10566000000E+00 0.  1.
<mgrwt>
<rscale>  1 0.53127031E+03</rscale>
<asrwt>0</asrwt>
<pdfrwt beam="1">  1       21 0.45106698E-01 0.99451641E+03</pdfrwt>
<pdfrwt beam="2">  1       -4 0.16719906E+00 0.99451641E+03</pdfrwt>
<totfact> 0.41604824E+01</totfact>
</mgrwt>
</event>
<event>
 6    2  0.2379986E-005  0.1258341E+04  0.7818608E-02  0.9204605E-01
         21   -1    0    0  501  502  0.00000000000E+00  0.00000000000E+00  0.23110708703E+04  0.23110708703E+04  0.00000000000E+00 0.  1.
         -4   -1    0    0    0  501 -0.00000000000E+00 -0.00000000000E+00 -0.45977058848E+03  0.45977058848E+03  0.00000000000E+00 0. -1.
   -9000010    2    1    2    0  502 -0.70328586445E+03  0.21841576935E+03  0.81384734843E+03  0.14985894965E+04  0.10203462731E+04 0.  0.
         13    1    3    3    0    0 -0.28259736327E+03 -0.10287447622E+03 -0.19561127778E+03  0.35875926572E+03  0.10566000000E+00 0. -1.
         -4    1    3    3    0  502 -0.42068850118E+03  0.32129024557E+03  0.10094586262E+04  0.11398302308E+04  0.00000000000E+00 0. -1.
        -13    1    1    2    0    0  0.70328586445E+03 -0.21841576935E+03  0.10374529334E+04  0.12722519623E+04  0.10566000000E+00 0.  1.
<mgrwt>
<rscale>  1 0.11006025E+04</rscale>
<asrwt>0</asrwt>
<pdfrwt beam="1">  1       21 0.35554936E+00 0.12583414E+04</pdfrwt>
<pdfrwt beam="2">  1       -4 0.70733938E-01 0.12583414E+04</pdfrwt>
<totfact> 0.81665968E-01</totfact>
</mgrwt>
</event>
<event>
 6    2  0.2379986E-005  0.1239662E+04  0.7818608E-02  0.9250268E-01
         21   -1    0    0  501  502  0.00000000000E+00  0.00000000000E+00  0.67614192273E+03  0.67614192273E+03  0.00000000000E+00 0.  1.
         -4   -1    0    0    0  501 -0.00000000000E+00 -0.00000000000E+00 -0.13465943146E+04  0.13465943146E+04  0.00000000000E+00 0. -1.
   -9000010    2    1    2    0  502  0.35232129317E+03  0.54636094339E+03 -0.57182140580E+03  0.13651887815E+04  0.10555188842E+04 0.  0.
         13    1    3    3    0    0  0.49025664290E+03 -0.11463704861E+03 -0.45759732311E+03  0.68035913318E+03  0.10566000000E+00 0. -1.
         -4    1    3    3    0  502 -0.13793534972E+03  0.66099799200E+03 -0.11422408269E+03  0.68482964831E+03  0.00000000000E+00 0. -1.
        -13    1    1    2    0    0 -0.35232129317E+03 -0.54636094339E+03 -0.98630986039E+02  0.65754745582E+03  0.10566000000E+00 0.  1.
<mgrwt>
<rscale>  1 0.10549304E+04</rscale>
<asrwt>0</asrwt>
<pdfrwt beam="1">  1       21 0.10402184E+00 0.12396615E+04</pdfrwt>
<pdfrwt beam="2">  1       -4 0.20716835E+00 0.12396615E+04</pdfrwt>
<totfact> 0.31605416E+00</totfact>
</mgrwt>
</event>
<event>
 6    2  0.2379986E-005  0.9157014E+03  0.7818608E-02  0.1028377E+00
         21   -1    0    0  501  502  0.00000000000E+00  0.00000000000E+00  0.19369424037E+03  0.19369424037E+03  0.00000000000E+00 0. -1.
         -4   -1    0    0    0  501 -0.00000000000E+00 -0.00000000000E+00 -0.12841294227E+04  0.12841294227E+04  0.00000000000E+00 0. -1.
   -9000010    2    1    2    0  502 -0.93749488700E+00  0.52365275445E+02 -0.91406212359E+03  0.12938386963E+04  0.91420238755E+03 0.  0.
         13    1    3    3    0    0  0.36826671200E+03 -0.16560703552E+03 -0.71498718832E+03  0.82112894968E+03  0.10566000000E+00 0. -1.
         -4    1    3    3    0  502 -0.36920420689E+03  0.21797231097E+03 -0.19907493527E+03  0.47270974666E+03  0.00000000000E+00 0. -1.
        -13    1    1    2    0    0  0.93749488699E+00 -0.52365275445E+02 -0.17637305873E+03  0.18398496672E+03  0.10566000000E+00 0.  1.
<mgrwt>
<rscale>  1 0.44781008E+03</rscale>
<asrwt>0</asrwt>
<pdfrwt beam="1">  1       21 0.29799113E-01 0.91570137E+03</pdfrwt>
<pdfrwt beam="2">  1       -4 0.19755838E+00 0.91570137E+03</pdfrwt>
<totfact> 0.60832842E+01</totfact>
</mgrwt>
</event>
<event>
 6    2  0.2379986E-005  0.1063097E+04  0.7818608E-02  0.9534856E-01
         -4   -1    0    0    0  501 -0.00000000000E+00  0.00000000000E+00  0.11347177927E+04  0.11347177927E+04  0.00000000000E+00 0. -1.
         21   -1    0    0  501  502  0.00000000000E+00 -0.00000000000E+00 -0.48780674101E+03  0.48780674101E+03  0.00000000000E+00 0. -1.
   -9000010    2    1    2    0  502 -0.21817082296E+02  0.37131410441E+03  0.27843357404E+03  0.10989542787E+04  0.99590416324E+03 0.  0.
         13    1    3    3    0    0  0.21474379127E+03  0.53950611029E+02  0.56726764811E+03  0.60894840511E+03  0.10566000000E+00 0. -1.
         -4    1    3    3    0  502 -0.23656087357E+03  0.31736349338E+03 -0.28883407407E+03  0.49000587362E+03  0.00000000000E+00 0. -1.
        -13    1    1    2    0    0  0.21817082296E+02 -0.37131410441E+03  0.36847747768E+03  0.52357025501E+03  0.10566000000E+00 0.  1.
<mgrwt>
<rscale>  1 0.81762118E+03</rscale>
<asrwt>0</asrwt>
<pdfrwt beam="2">  1       21 0.75047191E-01 0.10630970E+04</pdfrwt>
<pdfrwt beam="1">  1       -4 0.17457197E+00 0.10630970E+04</pdfrwt>
<totfact> 0.11812616E+01</totfact>
</mgrwt>
</event>
<event>
 6    2  0.2379986E-005  0.1072945E+04  0.7818608E-02  0.9457302E-01
         21   -1    0    0  501  502  0.00000000000E+00  0.00000000000E+00  0.72252189028E+03  0.72252189028E+03  0.00000000000E+00 0.  1.
         -4   -1    0    0    0  501 -0.00000000000E+00 -0.00000000000E+00 -0.83122633192E+03  0.83122633192E+03  0.00000000000E+00 0. -1.
   -9000010    2    1    2    0  502 -0.36079130973E+03  0.30850417021E+03 -0.11424720405E+03  0.10790104782E+04  0.96221930774E+03 0.  0.
         13    1    3    3    0    0 -0.48487528323E+03  0.26386324138E+03  0.31112868355E+03  0.63366309607E+03  0.10566000000E+00 0. -1.
         -4    1    3    3    0  502  0.12408397350E+03  0.44640928830E+02 -0.42537588759E+03  0.44534738211E+03  0.00000000000E+00 0. -1.
        -13    1    1    2    0    0  0.36079130973E+03 -0.30850417021E+03  0.55427624121E+01  0.47473774401E+03  0.10566000000E+00 0.  1.
<mgrwt>
<rscale>  1 0.87506280E+03</rscale>
<asrwt>0</asrwt>
<pdfrwt beam="1">  1       21 0.11115721E+00 0.10729451E+04</pdfrwt>
<pdfrwt beam="2">  1       -4 0.12788098E+00 0.10729451E+04</pdfrwt>
<totfact> 0.10504540E+01</totfact>
</mgrwt>
</event>
<event>
 6    2  0.2379986E-005  0.1002212E+04  0.7818608E-02  0.9880710E-01
         -4   -1    0    0    0  501 -0.00000000000E+00  0.00000000000E+00  0.18712337676E+03  0.18712337676E+03  0.00000000000E+00 0. -1.
         21   -1    0    0  501  502  0.00000000000E+00 -0.00000000000E+00 -0.18008791742E+04  0.18008791742E+04  0.00000000000E+00 0. -1.
   -9000010    2    1    2    0  502 -0.59949320162E+02  0.12585679492E+03 -0.15175539445E+04  0.18186252753E+04  0.99246867149E+03 0.  0.
         13    1    3    3    0    0 -0.47723236846E+03  0.20605152841E+03 -0.11286523439E+04  0.12426037544E+04  0.10566000000E+00 0. -1.
         -4    1    3    3    0  502  0.41728304830E+03 -0.80194733482E+02 -0.38890160058E+03  0.57602152096E+03  0.00000000000E+00 0. -1.
        -13    1    1    2    0    0  0.59949320162E+02 -0.12585679492E+03 -0.96201852950E+02  0.16937727561E+03  0.10566000000E+00 0.  1.
<mgrwt>
<rscale>  1 0.61205357E+03</rscale>
<asrwt>0</asrwt>
<pdfrwt beam="2">  1       21 0.27705834E+00 0.10022115E+04</pdfrwt>
<pdfrwt beam="1">  1       -4 0.28788211E-01 0.10022115E+04</pdfrwt>
<totfact> 0.17277995E+01</totfact>
</mgrwt>
</event>
<event>
 6    2  0.2379986E-005  0.1014243E+04  0.7818608E-02  0.9923503E-01
         -4   -1    0    0    0  501 -0.00000000000E+00  0.00000000000E+00  0.16529840407E+04  0.16529840407E+04  0.00000000000E+00 0. -1.
         21   -1    0    0  501  502  0.00000000000E+00 -0.00000000000E+00 -0.19364073405E+03  0.19364073405E+03  0.00000000000E+00 0. -1.
   -9000010    2    1    2    0  502  0.82600203215E+02  0.83160974119E+02  0.13141973284E+04  0.16600613610E+04  0.10074475486E+04 0.  0.
         13    1    3    3    0    0 -0.20557348488E+03 -0.38047368786E+03  0.80368338756E+03  0.91264871853E+03  0.10566000000E+00 0. -1.
         -4    1    3    3    0  502  0.28817368810E+03  0.46363466198E+03  0.51051394082E+03  0.74741264243E+03  0.00000000000E+00 0. -1.
        -13    1    1    2    0    0 -0.82600203215E+02 -0.83160974119E+02  0.14514597831E+03  0.18656341381E+03  0.10566000000E+00 0.  1.
<mgrwt>
<rscale>  1 0.59135630E+03</rscale>
<asrwt>0</asrwt>
<pdfrwt beam="2">  1       21 0.29790883E-01 0.10142431E+04</pdfrwt>
<pdfrwt beam="1">  1       -4 0.25430523E+00 0.10142431E+04</pdfrwt>
<totfact> 0.26297113E+01</totfact>
</mgrwt>
</event>
<event>
 6    2  0.2379986E-005  0.1011348E+04  0.7818608E-02  0.9807923E-01
         -4   -1    0    0    0  501 -0.00000000000E+00  0.00000000000E+00  0.13566631773E+04  0.13566631773E+04  0.00000000000E+00 0. -1.
         21   -1    0    0  501  502  0.00000000000E+00 -0.00000000000E+00 -0.28051289248E+03  0.28051289248E+03  0.00000000000E+00 0. -1.
   -9000010    2    1    2    0  502  0.11433570730E+00  0.17191853774E+03  0.71924471481E+03  0.12410225721E+04  0.99662834994E+03 0.  0.
         13    1    3    3    0    0 -0.15192586553E+03 -0.38028816632E+03  0.15745238296E+03  0.43873889971E+03  0.10566000000E+00 0. -1.
         -4    1    3    3    0  502  0.15204020124E+03  0.55220670405E+03  0.56179233185E+03  0.80228367235E+03  0.00000000000E+00 0. -1.
        -13    1    1    2    0    0 -0.11433570730E+00 -0.17191853774E+03  0.35690557001E+03  0.39615349773E+03  0.10566000000E+00 0.  1.
<mgrwt>
<rscale>  1 0.64939071E+03</rscale>
<asrwt>0</asrwt>
<pdfrwt beam="2">  1       21 0.43155830E-01 0.10113476E+04</pdfrwt>
<pdfrwt beam="1">  1       -4 0.20871741E+00 0.10113476E+04</pdfrwt>
<totfact> 0.23726338E+01</totfact>
</mgrwt>
</event>
<event>
 6    2  0.2379986E-005  0.1024651E+04  0.7818608E-02  0.9760210E-01
         -4   -1    0    0    0  501 -0.00000000000E+00  0.00000000000E+00  0.15384885172E+03  0.15384885172E+03  0.00000000000E+00 0. -1.
         21   -1    0    0  501  502  0.00000000000E+00 -0.00000000000E+00 -0.24413435758E+04  0.24413435758E+04  0.00000000000E+00 0. -1.
   -9000010    2    1    2    0  502 -0.19036703996E+03  0.34418511616E+02 -0.20206852172E+04  0.22656297355E+04  0.10062231897E+04 0.  0.
         13    1    3    3    0    0 -0.41172898893E+03 -0.28847269547E+03 -0.16559039242E+04  0.17305360654E+04  0.10566000000E+00 0. -1.
         -4    1    3    3    0  502  0.22136194897E+03  0.32289120709E+03 -0.36478129307E+03  0.53509367016E+03  0.00000000000E+00 0. -1.
        -13    1    1    2    0    0  0.19036703996E+03 -0.34418511616E+02 -0.26680950683E+03  0.32956269198E+03  0.10566000000E+00 0.  1.
<mgrwt>
<rscale>  1 0.67542335E+03</rscale>
<asrwt>0</asrwt>
<pdfrwt beam="2">  1       21 0.37559136E+00 0.10246508E+04</pdfrwt>
<pdfrwt beam="1">  1       -4 0.23669052E-01 0.10246508E+04</pdfrwt>
<totfact> 0.60348378E+00</totfact>
</mgrwt>
</event>
<event>
 6    2  0.2401598E-005  0.7728503E+03  0.7818608E-02  0.1000277E+00
         -4   -1    0    0    0  501 -0.00000000000E+00  0.00000000000E+00  0.16195242825E+04  0.16195242825E+04  0.00000000000E+00 0. -1.
         21   -1    0    0  501  502  0.00000000000E+00 -0.00000000000E+00 -0.19211522230E+03  0.19211522230E+03  0.00000000000E+00 0. -1.
   -9000010    2    1    2    0  502  0.17202145373E+03 -0.11326579718E+03  0.65761509805E+03  0.10147685763E+04  0.74490074837E+03 0.  0.
         13    1    3    3    0    0  0.13724279289E+03 -0.10190147372E+03 -0.13715313532E+03  0.21915859153E+03  0.10566000000E+00 0. -1.
         -4    1    3    3    0  502  0.34778660839E+02 -0.11364323456E+02  0.79476823337E+03  0.79560998478E+03  0.00000000000E+00 0. -1.
        -13    1    1    2    0    0 -0.17202145373E+03  0.11326579718E+03  0.76979396216E+03  0.79687092851E+03  0.10566000000E+00 0.  1.
<mgrwt>
<rscale>  1 0.55528835E+03</rscale>
<asrwt>0</asrwt>
<pdfrwt beam="2">  1       21 0.29556189E-01 0.77285034E+03</pdfrwt>
<pdfrwt beam="1">  1       -4 0.24915757E+00 0.77285034E+03</pdfrwt>
<totfact> 0.29562436E+01</totfact>
</mgrwt>
</event>
<event>
 6    2  0.2379986E-005  0.1036805E+04  0.7818608E-02  0.9594525E-01
         -4   -1    0    0    0  501 -0.00000000000E+00  0.00000000000E+00  0.71127576881E+03  0.71127576881E+03  0.00000000000E+00 0. -1.
         21   -1    0    0  501  502  0.00000000000E+00 -0.00000000000E+00 -0.74414460174E+03  0.74414460174E+03  0.00000000000E+00 0. -1.
   -9000010    2    1    2    0  502 -0.27150989506E+03 -0.18107937374E+03 -0.24605935929E+03  0.10656030102E+04  0.98410223269E+03 0.  0.
         13    1    3    3    0    0  0.39349536394E+02 -0.53192521628E+03  0.59350520003E+01  0.53341171503E+03  0.10566000000E+00 0. -1.
         -4    1    3    3    0  502 -0.31085943145E+03  0.35084584254E+03 -0.25199441129E+03  0.53219129519E+03  0.00000000000E+00 0. -1.
        -13    1    1    2    0    0  0.27150989506E+03  0.18107937374E+03  0.21319052636E+03  0.38981736032E+03  0.10566000000E+00 0.  1.
<mgrwt>
<rscale>  1 0.77659621E+03</rscale>
<asrwt>0</asrwt>
<pdfrwt beam="2">  1       21 0.11448378E+00 0.10368050E+04</pdfrwt>
<pdfrwt beam="1">  1       -4 0.10942704E+00 0.10368050E+04</pdfrwt>
<totfact> 0.14459808E+01</totfact>
</mgrwt>
</event>
<event>
 6    2  0.2379986E-005  0.1015316E+04  0.7818608E-02  0.9823839E-01
         -4   -1    0    0    0  501 -0.00000000000E+00  0.00000000000E+00  0.45961319118E+03  0.45961319118E+03  0.00000000000E+00 0. -1.
         21   -1    0    0  501  502  0.00000000000E+00 -0.00000000000E+00 -0.75317564098E+03  0.75317564098E+03  0.00000000000E+00 0. -1.
   -9000010    2    1    2    0  502  0.14587317683E+03  0.68803453564E+02 -0.25932195863E+03  0.10479091144E+04  0.10024234309E+04 0.  0.
         13    1    3    3    0    0  0.37021250364E+03  0.71286351757E+01  0.27757365150E+03  0.46276912004E+03  0.10566000000E+00 0. -1.
         -4    1    3    3    0  502 -0.22433932682E+03  0.61674818388E+02 -0.53689561013E+03  0.58513999432E+03  0.00000000000E+00 0. -1.
        -13    1    1    2    0    0 -0.14587317683E+03 -0.68803453564E+02 -0.34240491165E+02  0.16487971779E+03  0.10566000000E+00 0.  1.
<mgrwt>
<rscale>  1 0.64098725E+03</rscale>
<asrwt>0</asrwt>
<pdfrwt beam="2">  1       21 0.11587318E+00 0.10153155E+04</pdfrwt>
<pdfrwt beam="1">  1       -4 0.70709722E-01 0.10153155E+04</pdfrwt>
<totfact> 0.39157707E+01</totfact>
</mgrwt>
</event>
<event>
 6    2  0.2379986E-005  0.1033632E+04  0.7818608E-02  0.9603229E-01
         -4   -1    0    0    0  501 -0.00000000000E+00  0.00000000000E+00  0.23618614886E+03  0.23618614886E+03  0.00000000000E+00 0. -1.
         21   -1    0    0  501  502  0.00000000000E+00 -0.00000000000E+00 -0.23956724056E+04  0.23956724056E+04  0.00000000000E+00 0. -1.
   -9000010    2    1    2    0  502  0.10984884045E+03 -0.30022774605E+03 -0.20466227827E+04  0.22928281101E+04  0.98295089427E+03 0.  0.
         13    1    3    3    0    0  0.28094616455E+03 -0.25062109962E+03 -0.17925462034E+03  0.41698190971E+03  0.10566000000E+00 0. -1.
         -4    1    3    3    0  502 -0.17109732410E+03 -0.49606646428E+02 -0.18673681624E+04  0.18758462004E+04  0.00000000000E+00 0. -1.
        -13    1    1    2    0    0 -0.10984884045E+03  0.30022774605E+03 -0.11286347400E+03  0.33903044432E+03  0.10566000000E+00 0.  1.
<mgrwt>
<rscale>  1 0.77082855E+03</rscale>
<asrwt>0</asrwt>
<pdfrwt beam="2">  1       21 0.36856497E+00 0.10336324E+04</pdfrwt>
<pdfrwt beam="1">  1       -4 0.36336332E-01 0.10336324E+04</pdfrwt>
<totfact> 0.28928279E+00</totfact>
</mgrwt>
</event>
<event>
 6    2  0.2379986E-005  0.1031929E+04  0.7818608E-02  0.9630297E-01
         -4   -1    0    0    0  501 -0.00000000000E+00  0.00000000000E+00  0.16027011673E+04  0.16027011673E+04  0.00000000000E+00 0. -1.
         21   -1    0    0  501  502  0.00000000000E+00 -0.00000000000E+00 -0.29310782623E+03  0.29310782623E+03  0.00000000000E+00 0. -1.
   -9000010    2    1    2    0  502 -0.24326246784E+03 -0.16318670254E+03  0.12009064086E+04  0.15833679774E+04  0.98948037947E+03 0.  0.
         13    1    3    3    0    0  0.13314339817E+03 -0.48363693235E+02 -0.13197442228E+03  0.19360648387E+03  0.10566000000E+00 0. -1.
         -4    1    3    3    0  502 -0.37640586600E+03 -0.11482300930E+03  0.13328808309E+04  0.13897614935E+04  0.00000000000E+00 0. -1.
        -13    1    1    2    0    0  0.24326246784E+03  0.16318670254E+03  0.10868693249E+03  0.31244101620E+03  0.10566000000E+00 0.  1.
<mgrwt>
<rscale>  1 0.75322988E+03</rscale>
<asrwt>0</asrwt>
<pdfrwt beam="2">  1       21 0.45093513E-01 0.10319292E+04</pdfrwt>
<pdfrwt beam="1">  1       -4 0.24656941E+00 0.10319292E+04</pdfrwt>
<totfact> 0.12420925E+01</totfact>
</mgrwt>
</event>
<event>
 6    2  0.2379986E-005  0.1029768E+04  0.7818608E-02  0.9629500E-01
         21   -1    0    0  501  502  0.00000000000E+00  0.00000000000E+00  0.12517065622E+04  0.12517065622E+04  0.00000000000E+00 0. -1.
         -4   -1    0    0    0  501 -0.00000000000E+00 -0.00000000000E+00 -0.39948700239E+03  0.39948700239E+03  0.00000000000E+00 0. -1.
   -9000010    2    1    2    0  502  0.17720681339E+01  0.29557075162E+03  0.38713954028E+03  0.11001358134E+04  0.98643630043E+03 0.  0.
         13    1    3    3    0    0 -0.34234065817E+03  0.35296294663E+03 -0.99191723622E+02  0.50161636450E+03  0.10566000000E+00 0. -1.
         -4    1    3    3    0  502  0.34411272630E+03 -0.57392195007E+02  0.48633126390E+03  0.59851944889E+03  0.00000000000E+00 0. -1.
        -13    1    1    2    0    0 -0.17720681339E+01 -0.29557075162E+03  0.46508001956E+03  0.55105775124E+03  0.10566000000E+00 0.  1.
<mgrwt>
<rscale>  1 0.75374053E+03</rscale>
<asrwt>0</asrwt>
<pdfrwt beam="1">  1       21 0.19257024E+00 0.10297678E+04</pdfrwt>
<pdfrwt beam="2">  1       -4 0.61459539E-01 0.10297678E+04</pdfrwt>
<totfact> 0.12839186E+01</totfact>
</mgrwt>
</event>
<event>
 6    2  0.2379986E-005  0.9985623E+03  0.7818608E-02  0.1003974E+00
         21   -1    0    0  501  502  0.00000000000E+00  0.00000000000E+00  0.33119344663E+04  0.33119344663E+04  0.00000000000E+00 0. -1.
         -4   -1    0    0    0  501 -0.00000000000E+00 -0.00000000000E+00 -0.97101852498E+02  0.97101852498E+02  0.00000000000E+00 0. -1.
   -9000010    2    1    2    0  502  0.35082163960E+02  0.77453243516E+02  0.31427183059E+04  0.32975452980E+04  0.99493561539E+03 0.  0.
         13    1    3    3    0    0 -0.39272088503E+03 -0.20223449380E+03  0.97522160761E+03  0.10706006161E+04  0.10566000000E+00 0. -1.
         -4    1    3    3    0  502  0.42780304899E+03  0.27968773731E+03  0.21674966983E+04  0.22269446819E+04  0.00000000000E+00 0. -1.
        -13    1    1    2    0    0 -0.35082163960E+02 -0.77453243516E+02  0.72114307926E+02  0.11149102085E+03  0.10566000000E+00 0.  1.
<mgrwt>
<rscale>  1 0.53941369E+03</rscale>
<asrwt>0</asrwt>
<pdfrwt beam="1">  1       21 0.50952829E+00 0.99856229E+03</pdfrwt>
<pdfrwt beam="2">  1       -4 0.14938749E-01 0.99856229E+03</pdfrwt>
<totfact> 0.17321786E+00</totfact>
</mgrwt>
</event>
<event>
 6    2  0.2379986E-005  0.1087051E+04  0.7818608E-02  0.9407047E-01
         21   -1    0    0  501  502  0.00000000000E+00  0.00000000000E+00  0.94496663377E+03  0.94496663377E+03  0.00000000000E+00 0. -1.
         -4   -1    0    0    0  501 -0.00000000000E+00 -0.00000000000E+00 -0.84203143580E+03  0.84203143580E+03  0.00000000000E+00 0. -1.
   -9000010    2    1    2    0  502  0.38596870025E+03  0.38566419166E+03 -0.27740823319E+03  0.11218891739E+04  0.94019747096E+03 0.  0.
         13    1    3    3    0    0 -0.26477908267E+03  0.33894541789E+03 -0.16048414477E+03  0.45907203227E+03  0.10566000000E+00 0. -1.
         -4    1    3    3    0  502  0.65074778292E+03  0.46718773762E+02 -0.11692408843E+03  0.66281714164E+03  0.00000000000E+00 0. -1.
        -13    1    1    2    0    0 -0.38596870025E+03 -0.38566419166E+03  0.38034343116E+03  0.66510889566E+03  0.10566000000E+00 0.  1.
<mgrwt>
<rscale>  1 0.91497969E+03</rscale>
<asrwt>0</asrwt>
<pdfrwt beam="1">  1       21 0.14537948E+00 0.10870511E+04</pdfrwt>
<pdfrwt beam="2">  1       -4 0.12954330E+00 0.10870511E+04</pdfrwt>
<totfact> 0.49854797E+00</totfact>
</mgrwt>
</event>
<event>
 6    2  0.2379986E-005  0.1021493E+04  0.7818608E-02  0.9838481E-01
         -4   -1    0    0    0  501 -0.00000000000E+00  0.00000000000E+00  0.58823115161E+03  0.58823115161E+03  0.00000000000E+00 0. -1.
         21   -1    0    0  501  502  0.00000000000E+00 -0.00000000000E+00 -0.58682941642E+03  0.58682941642E+03  0.00000000000E+00 0. -1.
   -9000010    2    1    2    0  502 -0.98447644800E+02 -0.11447918329E+03 -0.24909077730E+02  0.10217970948E+04  0.10102729427E+04 0.  0.
         13    1    3    3    0    0 -0.35093009473E+03  0.54561022796E+02  0.37701494378E+03  0.51794702006E+03  0.10566000000E+00 0. -1.
         -4    1    3    3    0  502  0.25248244993E+03 -0.16904020609E+03 -0.40192402151E+03  0.50385007479E+03  0.00000000000E+00 0. -1.
        -13    1    1    2    0    0  0.98447644800E+02  0.11447918329E+03  0.26310812922E+02  0.15326347319E+03  0.10566000000E+00 0.  1.
<mgrwt>
<rscale>  1 0.63337721E+03</rscale>
<asrwt>0</asrwt>
<pdfrwt beam="2">  1       21 0.90281448E-01 0.10214934E+04</pdfrwt>
<pdfrwt beam="1">  1       -4 0.90497101E-01 0.10214934E+04</pdfrwt>
<totfact> 0.41339165E+01</totfact>
</mgrwt>
</event>
<event>
 6    2  0.2379986E-005  0.1011266E+04  0.7818608E-02  0.9824227E-01
         -4   -1    0    0    0  501 -0.00000000000E+00  0.00000000000E+00  0.10838548231E+04  0.10838548231E+04  0.00000000000E+00 0. -1.
         21   -1    0    0  501  502  0.00000000000E+00 -0.00000000000E+00 -0.41317487626E+03  0.41317487626E+03  0.00000000000E+00 0. -1.
   -9000010    2    1    2    0  502  0.13611080753E+03 -0.89725367341E+02  0.24402760566E+03  0.10402923297E+04  0.99803900996E+03 0.  0.
         13    1    3    3    0    0  0.28255274300E+03  0.76169084751E+02  0.57324358494E+03  0.64361945348E+03  0.10566000000E+00 0. -1.
         -4    1    3    3    0  502 -0.14644193547E+03 -0.16589445209E+03 -0.32921597929E+03  0.39667287621E+03  0.00000000000E+00 0. -1.
        -13    1    1    2    0    0 -0.13611080753E+03  0.89725367341E+02  0.42665234123E+03  0.45673736973E+03  0.10566000000E+00 0.  1.
<mgrwt>
<rscale>  1 0.64078429E+03</rscale>
<asrwt>0</asrwt>
<pdfrwt beam="2">  1       21 0.63565366E-01 0.10112659E+04</pdfrwt>
<pdfrwt beam="1">  1       -4 0.16674690E+00 0.10112659E+04</pdfrwt>
<totfact> 0.19762749E+01</totfact>
</mgrwt>
</event>
<event>
 6    2  0.2379986E-005  0.9811498E+03  0.7818608E-02  0.1030874E+00
         -4   -1    0    0    0  501 -0.00000000000E+00  0.00000000000E+00  0.53360242941E+03  0.53360242941E+03  0.00000000000E+00 0. -1.
         21   -1    0    0  501  502  0.00000000000E+00 -0.00000000000E+00 -0.65044118183E+03  0.65044118183E+03  0.00000000000E+00 0. -1.
   -9000010    2    1    2    0  502  0.36127651322E+02  0.16052377240E+02 -0.27665672579E+03  0.10194086156E+04  0.98035304644E+03 0.  0.
         13    1    3    3    0    0  0.31365966041E+03 -0.24005461747E+02 -0.54629396842E+03  0.63039333424E+03  0.10566000000E+00 0. -1.
         -4    1    3    3    0  502 -0.27753200908E+03  0.40057838987E+02  0.26963724263E+03  0.38901528138E+03  0.00000000000E+00 0. -1.
        -13    1    1    2    0    0 -0.36127651322E+02 -0.16052377240E+02  0.15981797337E+03  0.16463499561E+03  0.10566000000E+00 0.  1.
<mgrwt>
<rscale>  1 0.43958493E+03</rscale>
<asrwt>0</asrwt>
<pdfrwt beam="2">  1       21 0.10006787E+00 0.98114983E+03</pdfrwt>
<pdfrwt beam="1">  1       -4 0.82092681E-01 0.98114983E+03</pdfrwt>
<totfact> 0.40485767E+01</totfact>
</mgrwt>
</event>
<event>
 6    2  0.2379986E-005  0.1014046E+04  0.7818608E-02  0.9885746E-01
         21   -1    0    0  501  502  0.00000000000E+00  0.00000000000E+00  0.33989932619E+03  0.33989932619E+03  0.00000000000E+00 0. -1.
         -4   -1    0    0    0  501 -0.00000000000E+00 -0.00000000000E+00 -0.10052598543E+04  0.10052598543E+04  0.00000000000E+00 0. -1.
   -9000010    2    1    2    0  502  0.11634080396E+03  0.63224950904E+02 -0.49223460462E+03  0.11272023645E+04  0.10053644550E+04 0.  0.
         13    1    3    3    0    0  0.47004413766E+03 -0.30137737942E+01 -0.58995364649E+03  0.75431816255E+03  0.10566000000E+00 0. -1.
         -4    1    3    3    0  502 -0.35370333370E+03  0.66238724699E+02  0.97719041874E+02  0.37288420195E+03  0.00000000000E+00 0. -1.
        -13    1    1    2    0    0 -0.11634080396E+03 -0.63224950904E+02 -0.17312592349E+03  0.21795681598E+03  0.10566000000E+00 0.  1.
<mgrwt>
<rscale>  1 0.60957079E+03</rscale>
<asrwt>0</asrwt>
<pdfrwt beam="1">  1       21 0.52292205E-01 0.10140465E+04</pdfrwt>
<pdfrwt beam="2">  1       -4 0.15465536E+00 0.10140465E+04</pdfrwt>
<totfact> 0.37467225E+01</totfact>
</mgrwt>
</event>
<event>
 6    2  0.2379986E-005  0.1004211E+04  0.7818608E-02  0.9781164E-01
         -4   -1    0    0    0  501 -0.00000000000E+00  0.00000000000E+00  0.58743688148E+03  0.58743688148E+03  0.00000000000E+00 0. -1.
         21   -1    0    0  501  502  0.00000000000E+00 -0.00000000000E+00 -0.66312680657E+03  0.66312680657E+03  0.00000000000E+00 0. -1.
   -9000010    2    1    2    0  502  0.16580841405E+03 -0.96331085543E+02  0.74524922079E+02  0.10069725969E+04  0.98573208261E+03 0.  0.
         13    1    3    3    0    0 -0.10279439732E+03  0.23585867608E+03 -0.33013070883E+03  0.41854784587E+03  0.10566000000E+00 0. -1.
         -4    1    3    3    0  502  0.26860281138E+03 -0.33218976162E+03  0.40465563091E+03  0.58842475104E+03  0.00000000000E+00 0. -1.
        -13    1    1    2    0    0 -0.16580841405E+03  0.96331085543E+02 -0.15021484717E+03  0.24359109115E+03  0.10566000000E+00 0.  1.
<mgrwt>
<rscale>  1 0.66383269E+03</rscale>
<asrwt>0</asrwt>
<pdfrwt beam="2">  1       21 0.10201951E+00 0.10042111E+04</pdfrwt>
<pdfrwt beam="1">  1       -4 0.90374905E-01 0.10042111E+04</pdfrwt>
<totfact> 0.30774127E+01</totfact>
</mgrwt>
</event>
<event>
 6    2  0.2379986E-005  0.1146668E+04  0.7818608E-02  0.9359671E-01
         -4   -1    0    0    0  501 -0.00000000000E+00  0.00000000000E+00  0.15443337079E+04  0.15443337079E+04  0.00000000000E+00 0. -1.
         21   -1    0    0  501  502  0.00000000000E+00 -0.00000000000E+00 -0.61805878597E+03  0.61805878597E+03  0.00000000000E+00 0. -1.
   -9000010    2    1    2    0  502 -0.54674729259E+03 -0.68405953761E+02  0.75992008135E+02  0.11491832257E+04  0.10056019712E+04 0.  0.
         13    1    3    3    0    0 -0.78645009818E+03 -0.15631985402E+03  0.25035342601E+03  0.84000982302E+03  0.10566000000E+00 0. -1.
         -4    1    3    3    0  502  0.23970280560E+03  0.87913900259E+02 -0.17436141788E+03  0.30917340266E+03  0.00000000000E+00 0. -1.
        -13    1    1    2    0    0  0.54674729259E+03  0.68405953761E+02  0.85028291376E+03  0.10132092681E+04  0.10566000000E+00 0.  1.
<mgrwt>
<rscale>  1 0.95470261E+03</rscale>
<asrwt>0</asrwt>
<pdfrwt beam="2">  1       21 0.95085967E-01 0.11466679E+04</pdfrwt>
<pdfrwt beam="1">  1       -4 0.23758980E+00 0.11466679E+04</pdfrwt>
<totfact> 0.25528288E+00</totfact>
</mgrwt>
</event>
<event>
 6    2  0.2379986E-005  0.9964230E+03  0.7818608E-02  0.1000444E+00
         -4   -1    0    0    0  501 -0.00000000000E+00  0.00000000000E+00  0.43746765821E+03  0.43746765821E+03  0.00000000000E+00 0. -1.
         21   -1    0    0  501  502  0.00000000000E+00 -0.00000000000E+00 -0.72105310569E+03  0.72105310569E+03  0.00000000000E+00 0. -1.
   -9000010    2    1    2    0  502  0.57803707243E+02  0.76146158315E+02 -0.33339890607E+03  0.10507204957E+04  0.99182620634E+03 0.  0.
         13    1    3    3    0    0  0.47161761322E+03  0.26443637664E+03 -0.20557551480E+03  0.57845576653E+03  0.10566000000E+00 0. -1.
         -4    1    3    3    0  502 -0.41381390597E+03 -0.18829021832E+03 -0.12782339127E+03  0.47226472920E+03  0.00000000000E+00 0. -1.
        -13    1    1    2    0    0 -0.57803707243E+02 -0.76146158315E+02  0.49813458591E+02  0.10780026817E+03  0.10566000000E+00 0.  1.
<mgrwt>
<rscale>  1 0.55455957E+03</rscale>
<asrwt>0</asrwt>
<pdfrwt beam="2">  1       21 0.11093125E+00 0.99642297E+03</pdfrwt>
<pdfrwt beam="1">  1       -4 0.67302717E-01 0.99642297E+03</pdfrwt>
<totfact> 0.48940706E+01</totfact>
</mgrwt>
</event>
<event>
 6    2  0.2379986E-005  0.1389877E+04  0.7818608E-02  0.9052963E-01
         21   -1    0    0  501  502  0.00000000000E+00  0.00000000000E+00  0.21006156805E+04  0.21006156805E+04  0.00000000000E+00 0.  1.
         -4   -1    0    0    0  501 -0.00000000000E+00 -0.00000000000E+00 -0.67072714554E+03  0.67072714554E+03  0.00000000000E+00 0. -1.
   -9000010    2    1    2    0  502  0.21721239422E+02  0.97143025215E+03  0.70086030261E+03  0.15565874096E+04  0.99378601964E+03 0.  0.
         13    1    3    3    0    0 -0.38302397706E+03  0.53731020888E+02  0.20394146137E+03  0.43724880839E+03  0.10566000000E+00 0. -1.
         -4    1    3    3    0  502  0.40474521648E+03  0.91769923127E+03  0.49691884124E+03  0.11193386012E+04  0.00000000000E+00 0. -1.
        -13    1    1    2    0    0 -0.21721239422E+02 -0.97143025215E+03  0.72902823231E+03  0.12147554164E+04  0.10566000000E+00 0.  1.
<mgrwt>
<rscale>  1 0.12709032E+04</rscale>
<asrwt>0</asrwt>
<pdfrwt beam="1">  1       21 0.32317164E+00 0.13898774E+04</pdfrwt>
<pdfrwt beam="2">  1       -4 0.10318879E+00 0.13898774E+04</pdfrwt>
<totfact> 0.52975965E-01</totfact>
</mgrwt>
</event>
<event>
 6    2  0.2379986E-005  0.7712863E+03  0.7818608E-02  0.1004890E+00
         -4   -1    0    0    0  501 -0.00000000000E+00  0.00000000000E+00  0.10645166396E+04  0.10645166396E+04  0.00000000000E+00 0. -1.
         21   -1    0    0  501  502  0.00000000000E+00 -0.00000000000E+00 -0.23163818115E+03  0.23163818115E+03  0.00000000000E+00 0. -1.
   -9000010    2    1    2    0  502  0.17572299055E+03  0.35720344694E+02  0.50336404094E+03  0.92100914912E+03  0.75015197301E+03 0.  0.
         13    1    3    3    0    0 -0.95348371934E+02 -0.25871496363E+02  0.61394352630E+03  0.62184186978E+03  0.10566000000E+00 0. -1.
         -4    1    3    3    0  502  0.27107136248E+03  0.61591841057E+02 -0.11057948536E+03  0.29916727934E+03  0.00000000000E+00 0. -1.
        -13    1    1    2    0    0 -0.17572299055E+03 -0.35720344694E+02  0.32951441751E+03  0.37514567163E+03  0.10566000000E+00 0.  1.
<mgrwt>
<rscale>  1 0.53557088E+03</rscale>
<asrwt>0</asrwt>
<pdfrwt beam="2">  1       21 0.35636644E-01 0.77128626E+03</pdfrwt>
<pdfrwt beam="1">  1       -4 0.16377179E+00 0.77128626E+03</pdfrwt>
<totfact> 0.73564036E+01</totfact>
</mgrwt>
</event>
<event>
 6    2  0.2379986E-005  0.1022464E+04  0.7818608E-02  0.9956653E-01
         21   -1    0    0  501  502  0.00000000000E+00  0.00000000000E+00  0.22778408393E+03  0.22778408393E+03  0.00000000000E+00 0. -1.
         -4   -1    0    0    0  501 -0.00000000000E+00 -0.00000000000E+00 -0.14111995485E+04  0.14111995485E+04  0.00000000000E+00 0. -1.
   -9000010    2    1    2    0  502  0.32871702035E+01  0.10287214300E+03 -0.10091867774E+04  0.14366247189E+04  0.10172704399E+04 0.  0.
         13    1    3    3    0    0  0.21360626202E+03 -0.36625961265E+03 -0.17920963054E+03  0.46031493771E+03  0.10566000000E+00 0. -1.
         -4    1    3    3    0  502 -0.21031909182E+03  0.46913175565E+03 -0.82997714686E+03  0.97630978119E+03  0.00000000000E+00 0. -1.
        -13    1    1    2    0    0 -0.32871702035E+01 -0.10287214300E+03 -0.17422868720E+03  0.20235891357E+03  0.10566000000E+00 0.  1.
<mgrwt>
<rscale>  1 0.57592499E+03</rscale>
<asrwt>0</asrwt>
<pdfrwt beam="1">  1       21 0.35043705E-01 0.10224640E+04</pdfrwt>
<pdfrwt beam="2">  1       -4 0.21710762E+00 0.10224640E+04</pdfrwt>
<totfact> 0.32301172E+01</totfact>
</mgrwt>
</event>
<event>
 6    2  0.2379986E-005  0.1113868E+04  0.7818608E-02  0.9423180E-01
         -4   -1    0    0    0  501 -0.00000000000E+00  0.00000000000E+00  0.75826284445E+03  0.75826284445E+03  0.00000000000E+00 0. -1.
         21   -1    0    0  501  502  0.00000000000E+00 -0.00000000000E+00 -0.91325673327E+03  0.91325673327E+03  0.00000000000E+00 0. -1.
   -9000010    2    1    2    0  502 -0.14013152628E+03 -0.45786184634E+03 -0.32998563448E+03  0.11617191881E+04  0.10056970907E+04 0.  0.
         13    1    3    3    0    0  0.30254794548E+03 -0.31432269477E+03 -0.50244603467E+03  0.66542170439E+03  0.10566000000E+00 0. -1.
         -4    1    3    3    0  502 -0.44267947176E+03 -0.14353915157E+03  0.17246040018E+03  0.49629748376E+03  0.00000000000E+00 0. -1.
        -13    1    1    2    0    0  0.14013152628E+03  0.45786184634E+03  0.17499174566E+03  0.50980038957E+03  0.10566000000E+00 0.  1.
<mgrwt>
<rscale>  1 0.90192328E+03</rscale>
<asrwt>0</asrwt>
<pdfrwt beam="2">  1       21 0.14050104E+00 0.11138676E+04</pdfrwt>
<pdfrwt beam="1">  1       -4 0.11665582E+00 0.11138676E+04</pdfrwt>
<totfact> 0.71231845E+00</totfact>
</mgrwt>
</event>
<event>
 6    2  0.2379986E-005  0.9977230E+03  0.7818608E-02  0.9848088E-01
         -4   -1    0    0    0  501 -0.00000000000E+00  0.00000000000E+00  0.52403342342E+03  0.52403342342E+03  0.00000000000E+00 0. -1.
         21   -1    0    0  501  502  0.00000000000E+00 -0.00000000000E+00 -0.64130453461E+03  0.64130453461E+03  0.00000000000E+00 0. -1.
   -9000010    2    1    2    0  502 -0.62246444506E+02 -0.14418806763E+03 -0.65082952074E+02  0.99984344509E+03  0.98528488537E+03 0.  0.
         13    1    3    3    0    0 -0.11492373871E+03  0.26365855016E+03  0.32433026986E+03  0.43348982906E+03  0.10566000000E+00 0. -1.
         -4    1    3    3    0  502  0.52677294203E+02 -0.40784661779E+03 -0.38941322193E+03  0.56635361602E+03  0.00000000000E+00 0. -1.
        -13    1    1    2    0    0  0.62246444506E+02  0.14418806763E+03 -0.52188159117E+02  0.16549451295E+03  0.10566000000E+00 0.  1.
<mgrwt>
<rscale>  1 0.62844503E+03</rscale>
<asrwt>0</asrwt>
<pdfrwt beam="2">  1       21 0.98662237E-01 0.99772297E+03</pdfrwt>
<pdfrwt beam="1">  1       -4 0.80620526E-01 0.99772297E+03</pdfrwt>
<totfact> 0.43647789E+01</totfact>
</mgrwt>
</event>
<event>
 6    2  0.2379986E-005  0.1039228E+04  0.7818608E-02  0.9646929E-01
         -4   -1    0    0    0  501 -0.00000000000E+00  0.00000000000E+00  0.64949799861E+03  0.64949799861E+03  0.00000000000E+00 0. -1.
         21   -1    0    0  501  502  0.00000000000E+00 -0.00000000000E+00 -0.67108441862E+03  0.67108441862E+03  0.00000000000E+00 0. -1.
   -9000010    2    1    2    0  502 -0.16739222106E+03 -0.21317746872E+03  0.49386401538E+02  0.10404004381E+04  0.10032593215E+04 0.  0.
         13    1    3    3    0    0  0.35167591072E+03  0.16977727479E+03 -0.23668051680E+02  0.39122941742E+03  0.10566000000E+00 0. -1.
         -4    1    3    3    0  502 -0.51906813179E+03 -0.38295474351E+03  0.73054453218E+02  0.64917102072E+03  0.00000000000E+00 0. -1.
        -13    1    1    2    0    0  0.16739222106E+03  0.21317746872E+03 -0.70972821555E+02  0.28018197909E+03  0.10566000000E+00 0.  1.
<mgrwt>
<rscale>  1 0.74266504E+03</rscale>
<asrwt>0</asrwt>
<pdfrwt beam="2">  1       21 0.10324376E+00 0.10392276E+04</pdfrwt>
<pdfrwt beam="1">  1       -4 0.99922769E-01 0.10392276E+04</pdfrwt>
<totfact> 0.23439460E+01</totfact>
</mgrwt>
</event>
<event>
 6    2  0.2379986E-005  0.1020283E+04  0.7818608E-02  0.9710761E-01
         -4   -1    0    0    0  501 -0.00000000000E+00  0.00000000000E+00  0.11055855891E+04  0.11055855891E+04  0.00000000000E+00 0. -1.
         21   -1    0    0  501  502  0.00000000000E+00 -0.00000000000E+00 -0.44779294103E+03  0.44779294103E+03  0.00000000000E+00 0. -1.
   -9000010    2    1    2    0  502  0.21733495892E+01  0.23099811657E+03  0.19871334909E+03  0.10394537621E+04  0.99378683584E+03 0.  0.
         13    1    3    3    0    0  0.49553718674E+03  0.88305528563E+02  0.56254348468E+02  0.50647757374E+03  0.10566000000E+00 0. -1.
         -4    1    3    3    0  502 -0.49336383715E+03  0.14269258800E+03  0.14245900063E+03  0.53297618834E+03  0.00000000000E+00 0. -1.
        -13    1    1    2    0    0 -0.21733495892E+01 -0.23099811657E+03  0.45907929896E+03  0.51392476804E+03  0.10566000000E+00 0.  1.
<mgrwt>
<rscale>  1 0.70379694E+03</rscale>
<asrwt>0</asrwt>
<pdfrwt beam="2">  1       21 0.68891222E-01 0.10202829E+04</pdfrwt>
<pdfrwt beam="1">  1       -4 0.17009009E+00 0.10202829E+04</pdfrwt>
<totfact> 0.15558924E+01</totfact>
</mgrwt>
</event>
<event>
 6    2  0.2379986E-005  0.1057237E+04  0.7818608E-02  0.1020427E+00
         -4   -1    0    0    0  501 -0.00000000000E+00  0.00000000000E+00  0.22440921557E+03  0.22440921557E+03  0.00000000000E+00 0. -1.
         21   -1    0    0  501  502  0.00000000000E+00 -0.00000000000E+00 -0.18086713918E+04  0.18086713918E+04  0.00000000000E+00 0. -1.
   -9000010    2    1    2    0  502  0.28427562458E+02  0.32524699997E+02 -0.16468675542E+04  0.19570186133E+04  0.10563536953E+04 0.  0.
         13    1    3    3    0    0  0.42285207134E+02 -0.46359183867E+03 -0.12076655574E+04  0.12942803179E+04  0.10566000000E+00 0. -1.
         -4    1    3    3    0  502 -0.13857644676E+02  0.49611653866E+03 -0.43920199677E+03  0.66273829542E+03  0.00000000000E+00 0. -1.
        -13    1    1    2    0    0 -0.28427562458E+02 -0.32524699997E+02  0.62605377975E+02  0.76061994009E+02  0.10566000000E+00 0.  1.
<mgrwt>
<rscale>  1 0.47532745E+03</rscale>
<asrwt>0</asrwt>
<pdfrwt beam="2">  1       21 0.27825714E+00 0.10572365E+04</pdfrwt>
<pdfrwt beam="1">  1       -4 0.34524494E-01 0.10572365E+04</pdfrwt>
<totfact> 0.11769550E+01</totfact>
</mgrwt>
</event>
<event>
 6    2  0.2379986E-005  0.9938991E+03  0.7818608E-02  0.1031482E+00
         -4   -1    0    0    0  501 -0.00000000000E+00  0.00000000000E+00  0.61212149757E+03  0.61212149757E+03  0.00000000000E+00 0. -1.
         21   -1    0    0  501  502  0.00000000000E+00 -0.00000000000E+00 -0.46502497010E+03  0.46502497010E+03  0.00000000000E+00 0. -1.
   -9000010    2    1    2    0  502 -0.19715575872E+02 -0.31726328792E+02  0.75957958924E+02  0.99679741063E+03  0.99319696054E+03 0.  0.
         13    1    3    3    0    0 -0.23365478274E+03  0.13483089798E+03  0.45607930678E+03  0.52988892589E+03  0.10566000000E+00 0. -1.
         -4    1    3    3    0  502  0.21393920687E+03 -0.16655722677E+03 -0.38012134785E+03  0.46690848474E+03  0.00000000000E+00 0. -1.
        -13    1    1    2    0    0  0.19715575872E+02  0.31726328792E+02  0.71138568543E+02  0.80349057051E+02  0.10566000000E+00 0.  1.
<mgrwt>
<rscale>  1 0.43761199E+03</rscale>
<asrwt>0</asrwt>
<pdfrwt beam="2">  1       21 0.71542303E-01 0.99389912E+03</pdfrwt>
<pdfrwt beam="1">  1       -4 0.94172538E-01 0.99389912E+03</pdfrwt>
<totfact> 0.65239822E+01</totfact>
</mgrwt>
</event>
<event>
 6    2  0.2379986E-005  0.1005977E+04  0.7818608E-02  0.9667316E-01
         -4   -1    0    0    0  501 -0.00000000000E+00  0.00000000000E+00  0.10739815582E+04  0.10739815582E+04  0.00000000000E+00 0. -1.
         21   -1    0    0  501  502  0.00000000000E+00 -0.00000000000E+00 -0.40598915453E+03  0.40598915453E+03  0.00000000000E+00 0. -1.
   -9000010    2    1    2    0  502 -0.27578931676E+03  0.41525217025E+02  0.65569400159E+03  0.12008016730E+04  0.96654329612E+03 0.  0.
         13    1    3    3    0    0 -0.20333199463E+03 -0.91352089453E+02  0.89241484997E+03  0.91983334354E+03  0.10566000000E+00 0. -1.
         -4    1    3    3    0  502 -0.72457322131E+02  0.13287730648E+03 -0.23672084837E+03  0.28096832946E+03  0.00000000000E+00 0. -1.
        -13    1    1    2    0    0  0.27578931676E+03 -0.41525217025E+02  0.12298402087E+02  0.27916903973E+03  0.10566000000E+00 0.  1.
<mgrwt>
<rscale>  1 0.72996577E+03</rscale>
<asrwt>0</asrwt>
<pdfrwt beam="2">  1       21 0.62459870E-01 0.10059772E+04</pdfrwt>
<pdfrwt beam="1">  1       -4 0.16522793E+00 0.10059772E+04</pdfrwt>
<totfact> 0.21100813E+01</totfact>
</mgrwt>
</event>
<event>
 6    2  0.2379986E-005  0.1058707E+04  0.7818608E-02  0.9550729E-01
         21   -1    0    0  501  502  0.00000000000E+00  0.00000000000E+00  0.28285839791E+03  0.28285839791E+03  0.00000000000E+00 0. -1.
         -4   -1    0    0    0  501 -0.00000000000E+00 -0.00000000000E+00 -0.18250569353E+04  0.18250569353E+04  0.00000000000E+00 0. -1.
   -9000010    2    1    2    0  502 -0.36741216415E+02 -0.35453571223E+03 -0.13019403971E+04  0.16780671352E+04  0.99690271556E+03 0.  0.
         13    1    3    3    0    0  0.34011803736E+03  0.19004290270E+03 -0.57638891864E+03  0.69571602030E+03  0.10566000000E+00 0. -1.
         -4    1    3    3    0  502 -0.37685925378E+03 -0.54457861492E+03 -0.72555147850E+03  0.98235111490E+03  0.00000000000E+00 0. -1.
        -13    1    1    2    0    0  0.36741216415E+02  0.35453571223E+03 -0.24025814027E+03  0.42984819804E+03  0.10566000000E+00 0.  1.
<mgrwt>
<rscale>  1 0.80644881E+03</rscale>
<asrwt>0</asrwt>
<pdfrwt beam="1">  1       21 0.43516676E-01 0.10587070E+04</pdfrwt>
<pdfrwt beam="2">  1       -4 0.28077800E+00 0.10587070E+04</pdfrwt>
<totfact> 0.82126893E+00</totfact>
</mgrwt>
</event>
<event>
 6    2  0.2379986E-005  0.1286560E+04  0.7818608E-02  0.9186309E-01
         21   -1    0    0  501  502  0.00000000000E+00  0.00000000000E+00  0.11445765415E+04  0.11445765415E+04  0.00000000000E+00 0.  1.
         -4   -1    0    0    0  501 -0.00000000000E+00 -0.00000000000E+00 -0.11823639612E+04  0.11823639612E+04  0.00000000000E+00 0. -1.
   -9000010    2    1    2    0  502 -0.33450676957E+03 -0.65761444985E+03  0.53453197342E+03  0.13931840878E+04  0.10539857344E+04 0.  0.
         13    1    3    3    0    0  0.33367193909E+03 -0.14398560787E+03  0.39879680542E+03  0.53954399394E+03  0.10566000000E+00 0. -1.
         -4    1    3    3    0  502 -0.66817870866E+03 -0.51362884198E+03  0.13573516800E+03  0.85364009387E+03  0.00000000000E+00 0. -1.
        -13    1    1    2    0    0  0.33450676957E+03  0.65761444985E+03 -0.57231939307E+03  0.93375641491E+03  0.10566000000E+00 0.  1.
<mgrwt>
<rscale>  1 0.11195862E+04</rscale>
<asrwt>0</asrwt>
<pdfrwt beam="1">  1       21 0.17608870E+00 0.12865603E+04</pdfrwt>
<pdfrwt beam="2">  1       -4 0.18190215E+00 0.12865603E+04</pdfrwt>
<totfact> 0.11095413E+00</totfact>
</mgrwt>
</event>
<event>
 6    2  0.2379986E-005  0.1083503E+04  0.7818608E-02  0.9476929E-01
         21   -1    0    0  501  502  0.00000000000E+00  0.00000000000E+00  0.66554797718E+03  0.66554797718E+03  0.00000000000E+00 0. -1.
         -4   -1    0    0    0  501 -0.00000000000E+00 -0.00000000000E+00 -0.89276329284E+03  0.89276329284E+03  0.00000000000E+00 0. -1.
   -9000010    2    1    2    0  502 -0.30179820530E+03  0.30652263687E+03 -0.27002040888E+02  0.10838393001E+04  0.99445474240E+03 0.  0.
         13    1    3    3    0    0 -0.34037278729E+03  0.65066452852E+03  0.18615782128E+02  0.73455055749E+03  0.10566000000E+00 0. -1.
         -4    1    3    3    0  502  0.38574581988E+02 -0.34414189165E+03 -0.45617823015E+02  0.34928874265E+03  0.00000000000E+00 0. -1.
        -13    1    1    2    0    0  0.30179820530E+03 -0.30652263687E+03 -0.20021327478E+03  0.47447196988E+03  0.10566000000E+00 0.  1.
<mgrwt>
<rscale>  1 0.86006299E+03</rscale>
<asrwt>0</asrwt>
<pdfrwt beam="1">  1       21 0.10239200E+00 0.10835029E+04</pdfrwt>
<pdfrwt beam="2">  1       -4 0.13734820E+00 0.10835029E+04</pdfrwt>
<totfact> 0.10734690E+01</totfact>
</mgrwt>
</event>
<event>
 6    2  0.2379986E-005  0.9511206E+03  0.7818608E-02  0.1012756E+00
         21   -1    0    0  501  502  0.00000000000E+00  0.00000000000E+00  0.11271698386E+04  0.11271698386E+04  0.00000000000E+00 0. -1.
         -4   -1    0    0    0  501 -0.00000000000E+00 -0.00000000000E+00 -0.26190534147E+03  0.26190534147E+03  0.00000000000E+00 0. -1.
   -9000010    2    1    2    0  502  0.47684681213E+02 -0.57830483163E+02  0.89727852064E+03  0.13075699503E+04  0.94816255870E+03 0.  0.
         13    1    3    3    0    0 -0.42807584053E+03  0.93913420764E+02  0.52971562105E+03  0.68750804082E+03  0.10566000000E+00 0. -1.
         -4    1    3    3    0  502  0.47576052175E+03 -0.15174390393E+03  0.36756289958E+03  0.62006190947E+03  0.00000000000E+00 0. -1.
        -13    1    1    2    0    0 -0.47684681213E+02  0.57830483163E+02 -0.32014023545E+02  0.81505229727E+02  0.10566000000E+00 0.  1.
<mgrwt>
<rscale>  1 0.50393717E+03</rscale>
<asrwt>0</asrwt>
<pdfrwt beam="1">  1       21 0.17341074E+00 0.95112062E+03</pdfrwt>
<pdfrwt beam="2">  1       -4 0.40293130E-01 0.95112062E+03</pdfrwt>
<totfact> 0.43388415E+01</totfact>
</mgrwt>
</event>
<event>
 6    2  0.2379986E-005  0.1095974E+04  0.7818608E-02  0.9454614E-01
         21   -1    0    0  501  502  0.00000000000E+00  0.00000000000E+00  0.40900049426E+03  0.40900049426E+03  0.00000000000E+00 0.  1.
         -4   -1    0    0    0  501 -0.00000000000E+00 -0.00000000000E+00 -0.14618138325E+04  0.14618138325E+04  0.00000000000E+00 0. -1.
   -9000010    2    1    2    0  502 -0.44908310220E+03  0.22668383961E+02 -0.77409732821E+03  0.13417849195E+04  0.99948517164E+03 0.  0.
         13    1    3    3    0    0  0.27674791400E+03 -0.19254339435E+03 -0.20377062044E+03  0.39393507527E+03  0.10566000000E+00 0. -1.
         -4    1    3    3    0  502 -0.72583101620E+03  0.21521177832E+03 -0.57032670777E+03  0.94784984423E+03  0.00000000000E+00 0. -1.
        -13    1    1    2    0    0  0.44908310220E+03 -0.22668383961E+02 -0.27871601000E+03  0.52902940722E+03  0.10566000000E+00 0.  1.
<mgrwt>
<rscale>  1 0.87714262E+03</rscale>
<asrwt>0</asrwt>
<pdfrwt beam="1">  1       21 0.62923152E-01 0.10959745E+04</pdfrwt>
<pdfrwt beam="2">  1       -4 0.22489444E+00 0.10959745E+04</pdfrwt>
<totfact> 0.81346587E+00</totfact>
</mgrwt>
</event>
<event>
 6    2  0.2379986E-005  0.1384635E+04  0.7818608E-02  0.9065924E-01
         21   -1    0    0  501  502  0.00000000000E+00  0.00000000000E+00  0.21737458254E+04  0.21737458254E+04  0.00000000000E+00 0. -1.
         -4   -1    0    0    0  501 -0.00000000000E+00 -0.00000000000E+00 -0.63718396981E+03  0.63718396981E+03  0.00000000000E+00 0. -1.
   -9000010    2    1    2    0  502 -0.20211268159E+03 -0.91275595336E+03  0.67834159541E+03  0.15418691219E+04  0.10213912583E+04 0.  0.
         13    1    3    3    0    0  0.24628212150E+03 -0.64777179672E+03  0.74417217070E+03  0.10168851532E+04  0.10566000000E+00 0. -1.
         -4    1    3    3    0  502 -0.44839480309E+03 -0.26498415664E+03 -0.65830575296E+02  0.52498396866E+03  0.00000000000E+00 0. -1.
        -13    1    1    2    0    0  0.20211268159E+03  0.91275595336E+03  0.85822026016E+03  0.12690606733E+04  0.10566000000E+00 0.  1.
<mgrwt>
<rscale>  1 0.12551300E+04</rscale>
<asrwt>0</asrwt>
<pdfrwt beam="1">  1       21 0.33442243E+00 0.13846346E+04</pdfrwt>
<pdfrwt beam="2">  1       -4 0.98028304E-01 0.13846346E+04</pdfrwt>
<totfact> 0.50990072E-01</totfact>
</mgrwt>
</event>
<event>
 6    2  0.2379986E-005  0.1020977E+04  0.7818608E-02  0.1015542E+00
         21   -1    0    0  501  502  0.00000000000E+00  0.00000000000E+00  0.13320339870E+04  0.13320339870E+04  0.00000000000E+00 0. -1.
         -4   -1    0    0    0  501 -0.00000000000E+00 -0.00000000000E+00 -0.34623853620E+03  0.34623853620E+03  0.00000000000E+00 0. -1.
   -9000010    2    1    2    0  502  0.53829013649E+01  0.55380662804E+02  0.11304671554E+04  0.15232695983E+04  0.10194598011E+04 0.  0.
         13    1    3    3    0    0  0.46870924627E+03 -0.10740096450E+03  0.79301837978E+03  0.92741656582E+03  0.10566000000E+00 0. -1.
         -4    1    3    3    0  502 -0.46332634491E+03  0.16278162730E+03  0.33744877565E+03  0.59585303243E+03  0.00000000000E+00 0. -1.
        -13    1    1    2    0    0 -0.53829013649E+01 -0.55380662804E+02 -0.14467170466E+03  0.15500292492E+03  0.10566000000E+00 0.  1.
<mgrwt>
<rscale>  1 0.49330124E+03</rscale>
<asrwt>0</asrwt>
<pdfrwt beam="1">  1       21 0.20492830E+00 0.10209771E+04</pdfrwt>
<pdfrwt beam="2">  1       -4 0.53267468E-01 0.10209771E+04</pdfrwt>
<totfact> 0.14383934E+01</totfact>
</mgrwt>
</event>
<event>
 6    2  0.2379986E-005  0.1058066E+04  0.7818608E-02  0.9547233E-01
         -4   -1    0    0    0  501 -0.00000000000E+00  0.00000000000E+00  0.83505304755E+03  0.83505304755E+03  0.00000000000E+00 0. -1.
         21   -1    0    0  501  502  0.00000000000E+00 -0.00000000000E+00 -0.78760097681E+03  0.78760097681E+03  0.00000000000E+00 0. -1.
   -9000010    2    1    2    0  502  0.14934312314E+03 -0.32913429462E+03 -0.32183294769E+03  0.11059295443E+04  0.99441991046E+03 0.  0.
         13    1    3    3    0    0 -0.41017083395E+03 -0.27744300441E+03 -0.17450030264E+03  0.52503818957E+03  0.10566000000E+00 0. -1.
         -4    1    3    3    0  502  0.55951395709E+03 -0.51691290213E+02 -0.14733264505E+03  0.58089135469E+03  0.00000000000E+00 0. -1.
        -13    1    1    2    0    0 -0.14934312314E+03  0.32913429462E+03  0.36928501843E+03  0.51672448009E+03  0.10566000000E+00 0.  1.
<mgrwt>
<rscale>  1 0.80889303E+03</rscale>
<asrwt>0</asrwt>
<pdfrwt beam="2">  1       21 0.12116938E+00 0.10580660E+04</pdfrwt>
<pdfrwt beam="1">  1       -4 0.12846970E+00 0.10580660E+04</pdfrwt>
<totfact> 0.83305856E+00</totfact>
</mgrwt>
</event>
<event>
 6    2  0.2379986E-005  0.1128171E+04  0.7818608E-02  0.9391637E-01
         -4   -1    0    0    0  501 -0.00000000000E+00  0.00000000000E+00  0.82643033337E+03  0.82643033337E+03  0.00000000000E+00 0. -1.
         21   -1    0    0  501  502  0.00000000000E+00 -0.00000000000E+00 -0.97365572719E+03  0.97365572719E+03  0.00000000000E+00 0. -1.
   -9000010    2    1    2    0  502  0.37253299861E+03  0.35669701565E+03 -0.43540125353E+03  0.12092739641E+04  0.10033721506E+04 0.  0.
         13    1    3    3    0    0 -0.33420823397E+03  0.22663093020E+03 -0.98676583961E+02  0.41568473819E+03  0.10566000000E+00 0. -1.
         -4    1    3    3    0  502  0.70674123258E+03  0.13006608544E+03 -0.33672466957E+03  0.79358922593E+03  0.00000000000E+00 0. -1.
        -13    1    1    2    0    0 -0.37253299861E+03 -0.35669701565E+03  0.28817585971E+03  0.59081209645E+03  0.10566000000E+00 0.  1.
<mgrwt>
<rscale>  1 0.92767128E+03</rscale>
<asrwt>0</asrwt>
<pdfrwt beam="2">  1       21 0.14979319E+00 0.11281708E+04</pdfrwt>
<pdfrwt beam="1">  1       -4 0.12714313E+00 0.11281708E+04</pdfrwt>
<totfact> 0.47896795E+00</totfact>
</mgrwt>
</event>
<event>
 6    2  0.2379986E-005  0.1214642E+04  0.7818608E-02  0.9249745E-01
         -4   -1    0    0    0  501 -0.00000000000E+00  0.00000000000E+00  0.23387370214E+04  0.23387370214E+04  0.00000000000E+00 0. -1.
         21   -1    0    0  501  502  0.00000000000E+00 -0.00000000000E+00 -0.39372707255E+03  0.39372707255E+03  0.00000000000E+00 0.  1.
   -9000010    2    1    2    0  502 -0.14332265637E+03  0.67745755617E+03  0.10880667814E+04  0.16307192380E+04  0.99793075316E+03 0.  0.
         13    1    3    3    0    0 -0.25823551146E+03  0.84274750920E+03  0.11217448770E+04  0.14266115533E+04  0.10566000000E+00 0. -1.
         -4    1    3    3    0  502  0.11491285508E+03 -0.16528995303E+03 -0.33678095614E+02  0.20410768471E+03  0.00000000000E+00 0. -1.
        -13    1    1    2    0    0  0.14332265637E+03 -0.67745755617E+03  0.85694316740E+03  0.11017448559E+04  0.10566000000E+00 0.  1.
<mgrwt>
<rscale>  1 0.10554405E+04</rscale>
<asrwt>0</asrwt>
<pdfrwt beam="2">  1       21 0.60573397E-01 0.12146423E+04</pdfrwt>
<pdfrwt beam="1">  1       -4 0.35980569E+00 0.12146423E+04</pdfrwt>
<totfact> 0.12384371E+00</totfact>
</mgrwt>
</event>
<event>
 6    2  0.2379986E-005  0.9949711E+03  0.7818608E-02  0.9857978E-01
         21   -1    0    0  501  502  0.00000000000E+00  0.00000000000E+00  0.95967484939E+03  0.95967484939E+03  0.00000000000E+00 0. -1.
         -4   -1    0    0    0  501 -0.00000000000E+00 -0.00000000000E+00 -0.40658572013E+03  0.40658572013E+03  0.00000000000E+00 0. -1.
   -9000010    2    1    2    0  502  0.14917233542E+03  0.35553039238E+02  0.64662934198E+03  0.11866326574E+04  0.98308247539E+03 0.  0.
         13    1    3    3    0    0  0.11660206315E+03 -0.46894214756E+03  0.24996651743E+03  0.54404599979E+03  0.10566000000E+00 0. -1.
         -4    1    3    3    0  502  0.32570272269E+02  0.50449518680E+03  0.39666282455E+03  0.64258665760E+03  0.00000000000E+00 0. -1.
        -13    1    1    2    0    0 -0.14917233542E+03 -0.35553039238E+02 -0.93540212725E+02  0.17962791212E+03  0.10566000000E+00 0.  1.
<mgrwt>
<rscale>  1 0.62341788E+03</rscale>
<asrwt>0</asrwt>
<pdfrwt beam="1">  1       21 0.14764228E+00 0.99497113E+03</pdfrwt>
<pdfrwt beam="2">  1       -4 0.62551649E-01 0.99497113E+03</pdfrwt>
<totfact> 0.26992396E+01</totfact>
</mgrwt>
</event>
<event>
 6    2  0.2379986E-005  0.1292091E+04  0.7818608E-02  0.9150637E-01
         21   -1    0    0  501  502  0.00000000000E+00  0.00000000000E+00  0.75476383025E+03  0.75476383025E+03  0.00000000000E+00 0.  1.
         -4   -1    0    0    0  501 -0.00000000000E+00 -0.00000000000E+00 -0.19874784363E+04  0.19874784363E+04  0.00000000000E+00 0. -1.
   -9000010    2    1    2    0  502 -0.16902645627E+03  0.81562724250E+03 -0.46680355880E+02  0.12929338124E+04  0.98776568370E+03 0.  0.
         13    1    3    3    0    0  0.20083190394E+03 -0.97985342003E+02 -0.19452629656E+03  0.29626858103E+03  0.10566000000E+00 0. -1.
         -4    1    3    3    0  502 -0.36985836021E+03  0.91361258450E+03  0.14784594068E+03  0.99666523134E+03  0.00000000000E+00 0. -1.
        -13    1    1    2    0    0  0.16902645627E+03 -0.81562724250E+03 -0.11860342502E+04  0.14493084542E+04  0.10566000000E+00 0.  1.
<mgrwt>
<rscale>  1 0.11577785E+04</rscale>
<asrwt>0</asrwt>
<pdfrwt beam="1">  1       21 0.11611751E+00 0.12920909E+04</pdfrwt>
<pdfrwt beam="2">  1       -4 0.30576592E+00 0.12920909E+04</pdfrwt>
<totfact> 0.57053268E-01</totfact>
</mgrwt>
</event>
<event>
 6    2  0.2379986E-005  0.1041862E+04  0.7818608E-02  0.9659376E-01
         21   -1    0    0  501  502  0.00000000000E+00  0.00000000000E+00  0.54752125290E+03  0.54752125290E+03  0.00000000000E+00 0. -1.
         -4   -1    0    0    0  501 -0.00000000000E+00 -0.00000000000E+00 -0.92253070516E+03  0.92253070516E+03  0.00000000000E+00 0. -1.
   -9000010    2    1    2    0  502  0.18948209774E+03 -0.17493746043E+03 -0.33881508298E+02  0.10424132487E+04  0.10094408571E+04 0.  0.
         13    1    3    3    0    0  0.23429474906E+03 -0.54946064404E+03 -0.20046790006E+03  0.63007016982E+03  0.10566000000E+00 0. -1.
         -4    1    3    3    0  502 -0.44812651317E+02  0.37452318361E+03  0.16658639176E+03  0.41234307888E+03  0.00000000000E+00 0. -1.
        -13    1    1    2    0    0 -0.18948209774E+03  0.17493746043E+03 -0.34112794396E+03  0.42763870935E+03  0.10566000000E+00 0.  1.
<mgrwt>
<rscale>  1 0.73487908E+03</rscale>
<asrwt>0</asrwt>
<pdfrwt beam="1">  1       21 0.84234040E-01 0.10418625E+04</pdfrwt>
<pdfrwt beam="2">  1       -4 0.14192780E+00 0.10418625E+04</pdfrwt>
<totfact> 0.15911276E+01</totfact>
</mgrwt>
</event>
<event>
 6    2  0.2379986E-005  0.1031936E+04  0.7818608E-02  0.9656157E-01
         21   -1    0    0  501  502  0.00000000000E+00  0.00000000000E+00  0.61596435470E+03  0.61596435470E+03  0.00000000000E+00 0. -1.
         -4   -1    0    0    0  501 -0.00000000000E+00 -0.00000000000E+00 -0.77428602776E+03  0.77428602776E+03  0.00000000000E+00 0. -1.
   -9000010    2    1    2    0  502  0.23752958948E+03 -0.12477726773E+03  0.75032974336E+02  0.10346606258E+04  0.99644517708E+03 0.  0.
         13    1    3    3    0    0 -0.37874169445E+03 -0.11947083083E+03  0.12499672705E+03  0.41634450095E+03  0.10566000000E+00 0. -1.
         -4    1    3    3    0  502  0.61627128393E+03 -0.53064369045E+01 -0.49963752717E+02  0.61831612485E+03  0.00000000000E+00 0. -1.
        -13    1    1    2    0    0 -0.23752958948E+03  0.12477726773E+03 -0.23335464740E+03  0.35558975666E+03  0.10566000000E+00 0.  1.
<mgrwt>
<rscale>  1 0.73688289E+03</rscale>
<asrwt>0</asrwt>
<pdfrwt beam="1">  1       21 0.94763747E-01 0.10319364E+04</pdfrwt>
<pdfrwt beam="2">  1       -4 0.11912093E+00 0.10319364E+04</pdfrwt>
<totfact> 0.18819390E+01</totfact>
</mgrwt>
</event>
<event>
 6    2  0.2379986E-005  0.1013947E+04  0.7818608E-02  0.9818526E-01
         -4   -1    0    0    0  501 -0.00000000000E+00  0.00000000000E+00  0.18632465650E+04  0.18632465650E+04  0.00000000000E+00 0. -1.
         21   -1    0    0  501  502  0.00000000000E+00 -0.00000000000E+00 -0.20435735191E+03  0.20435735191E+03  0.00000000000E+00 0. -1.
   -9000010    2    1    2    0  502  0.32413821910E+02 -0.16155733079E+03  0.11522956356E+04  0.15348858950E+04  0.10004689159E+04 0.  0.
         13    1    3    3    0    0 -0.28756494125E+03  0.23180231494E+03  0.89084719983E+03  0.96438304281E+03  0.10566000000E+00 0. -1.
         -4    1    3    3    0  502  0.31997876316E+03 -0.39335964572E+03  0.26144843578E+03  0.57050285217E+03  0.00000000000E+00 0. -1.
        -13    1    1    2    0    0 -0.32413821910E+02  0.16155733079E+03  0.50659357745E+03  0.53271802190E+03  0.10566000000E+00 0.  1.
<mgrwt>
<rscale>  1 0.64377736E+03</rscale>
<asrwt>0</asrwt>
<pdfrwt beam="2">  1       21 0.31439594E-01 0.10139475E+04</pdfrwt>
<pdfrwt beam="1">  1       -4 0.28665331E+00 0.10139475E+04</pdfrwt>
<totfact> 0.14905279E+01</totfact>
</mgrwt>
</event>
<event>
 6    2  0.2379986E-005  0.1057381E+04  0.7818608E-02  0.9573899E-01
         21   -1    0    0  501  502  0.00000000000E+00  0.00000000000E+00  0.25659123260E+04  0.25659123260E+04  0.00000000000E+00 0. -1.
         -4   -1    0    0    0  501 -0.00000000000E+00 -0.00000000000E+00 -0.19521870586E+03  0.19521870586E+03  0.00000000000E+00 0. -1.
   -9000010    2    1    2    0  502  0.13018644040E+03 -0.30352948704E+03  0.15484220499E+04  0.18750107211E+04  0.10044778250E+04 0.  0.
         13    1    3    3    0    0  0.50793373503E+02  0.34421153144E+03  0.27272864204E+03  0.44208875639E+03  0.10566000000E+00 0. -1.
         -4    1    3    3    0  502  0.79393066902E+02 -0.64774101848E+03  0.12756934079E+04  0.14329219647E+04  0.00000000000E+00 0. -1.
        -13    1    1    2    0    0 -0.13018644040E+03  0.30352948704E+03  0.82227157026E+03  0.88612031079E+03  0.10566000000E+00 0.  1.
<mgrwt>
<rscale>  1 0.79048044E+03</rscale>
<asrwt>0</asrwt>
<pdfrwt beam="1">  1       21 0.39475572E+00 0.10573809E+04</pdfrwt>
<pdfrwt beam="2">  1       -4 0.30033649E-01 0.10573809E+04</pdfrwt>
<totfact> 0.28447017E+00</totfact>
</mgrwt>
</event>
<event>
 6    2  0.2379986E-005  0.1054060E+04  0.7818608E-02  0.9581880E-01
         21   -1    0    0  501  502  0.00000000000E+00  0.00000000000E+00  0.11704930525E+04  0.11704930525E+04  0.00000000000E+00 0. -1.
         -4   -1    0    0    0  501 -0.00000000000E+00 -0.00000000000E+00 -0.53320198926E+03  0.53320198926E+03  0.00000000000E+00 0. -1.
   -9000010    2    1    2    0  502 -0.10324134490E+02 -0.32420600195E+03  0.81631938111E+03  0.13331990644E+04  0.10029089161E+04 0.  0.
         13    1    3    3    0    0  0.20008086031E+03  0.17423093526E+03  0.74086422030E+03  0.78693619408E+03  0.10566000000E+00 0. -1.
         -4    1    3    3    0  502 -0.21040499480E+03 -0.49843693721E+03  0.75455160802E+02  0.54626287033E+03  0.00000000000E+00 0. -1.
        -13    1    1    2    0    0  0.10324134490E+02  0.32420600195E+03 -0.17902831788E+03  0.37049597734E+03  0.10566000000E+00 0.  1.
<mgrwt>
<rscale>  1 0.78507162E+03</rscale>
<asrwt>0</asrwt>
<pdfrwt beam="1">  1       21 0.18007585E+00 0.10540600E+04</pdfrwt>
<pdfrwt beam="2">  1       -4 0.82031076E-01 0.10540600E+04</pdfrwt>
<totfact> 0.82120698E+00</totfact>
</mgrwt>
</event>
<event>
 6    2  0.2379986E-005  0.1011914E+04  0.7818608E-02  0.9908412E-01
         21   -1    0    0  501  502  0.00000000000E+00  0.00000000000E+00  0.10507688203E+04  0.10507688203E+04  0.00000000000E+00 0. -1.
         -4   -1    0    0    0  501 -0.00000000000E+00 -0.00000000000E+00 -0.39166978544E+03  0.39166978544E+03  0.00000000000E+00 0. -1.
   -9000010    2    1    2    0  502  0.86390791547E+02 -0.88777309944E+02  0.77360477180E+03  0.12737484917E+04  0.10043037875E+04 0.  0.
         13    1    3    3    0    0  0.29250981565E+03  0.35365219105E+03  0.15209285317E+03  0.48349158383E+03  0.10566000000E+00 0. -1.
         -4    1    3    3    0  502 -0.20611902410E+03 -0.44242950099E+03  0.62151191863E+03  0.79025690788E+03  0.00000000000E+00 0. -1.
        -13    1    1    2    0    0 -0.86390791547E+02  0.88777309944E+02 -0.11450573693E+03  0.16869011405E+03  0.10566000000E+00 0.  1.
<mgrwt>
<rscale>  1 0.59855350E+03</rscale>
<asrwt>0</asrwt>
<pdfrwt beam="1">  1       21 0.16165674E+00 0.10119145E+04</pdfrwt>
<pdfrwt beam="2">  1       -4 0.60256891E-01 0.10119145E+04</pdfrwt>
<totfact> 0.22641194E+01</totfact>
</mgrwt>
</event>
<event>
 6    2  0.2379986E-005  0.1005369E+04  0.7818608E-02  0.9836066E-01
         -4   -1    0    0    0  501 -0.00000000000E+00  0.00000000000E+00  0.20546896946E+04  0.20546896946E+04  0.00000000000E+00 0. -1.
         21   -1    0    0  501  502  0.00000000000E+00 -0.00000000000E+00 -0.16524164625E+03  0.16524164625E+03  0.00000000000E+00 0. -1.
   -9000010    2    1    2    0  502  0.93983026705E+02 -0.12902002662E+03  0.16106924975E+04  0.18987092294E+04  0.99261646157E+03 0.  0.
         13    1    3    3    0    0  0.54305033159E+03 -0.11837082232E+03  0.91644952415E+03  0.10718185741E+04  0.10566000000E+00 0. -1.
         -4    1    3    3    0  502 -0.44906730489E+03 -0.10649204300E+02  0.69424297338E+03  0.82689065538E+03  0.00000000000E+00 0. -1.
        -13    1    1    2    0    0 -0.93983026705E+02  0.12902002662E+03  0.27875555078E+03  0.32122211137E+03  0.10566000000E+00 0.  1.
<mgrwt>
<rscale>  1 0.63462448E+03</rscale>
<asrwt>0</asrwt>
<pdfrwt beam="2">  1       21 0.25421793E-01 0.10053688E+04</pdfrwt>
<pdfrwt beam="1">  1       -4 0.31610609E+00 0.10053688E+04</pdfrwt>
<totfact> 0.14999007E+01</totfact>
</mgrwt>
</event>
<event>
 6    2  0.2379986E-005  0.1009266E+04  0.7818608E-02  0.9965631E-01
         21   -1    0    0  501  502  0.00000000000E+00  0.00000000000E+00  0.58257227289E+03  0.58257227289E+03  0.00000000000E+00 0. -1.
         -4   -1    0    0    0  501 -0.00000000000E+00 -0.00000000000E+00 -0.72514286450E+03  0.72514286450E+03  0.00000000000E+00 0. -1.
   -9000010    2    1    2    0  502  0.97939826685E+02 -0.35001515139E+02  0.12846499899E+03  0.10174090605E+04  0.10038927357E+04 0.  0.
         13    1    3    3    0    0  0.12842855063E+03  0.46598099784E+03  0.17334179932E+03  0.51349739388E+03  0.10566000000E+00 0. -1.
         -4    1    3    3    0  502 -0.30488723949E+02 -0.50098251298E+03 -0.44876800332E+02  0.50391166667E+03  0.00000000000E+00 0. -1.
        -13    1    1    2    0    0 -0.97939826685E+02  0.35001515139E+02 -0.27103559060E+03  0.29030607684E+03  0.10566000000E+00 0.  1.
<mgrwt>
<rscale>  1 0.57183303E+03</rscale>
<asrwt>0</asrwt>
<pdfrwt beam="1">  1       21 0.89626503E-01 0.10092660E+04</pdfrwt>
<pdfrwt beam="2">  1       -4 0.11156044E+00 0.10092660E+04</pdfrwt>
<totfact> 0.25413113E+01</totfact>
</mgrwt>
</event>
<event>
 6    2  0.2379986E-005  0.1175419E+04  0.7818608E-02  0.9378776E-01
         -4   -1    0    0    0  501 -0.00000000000E+00  0.00000000000E+00  0.14992409090E+04  0.14992409090E+04  0.00000000000E+00 0. -1.
         21   -1    0    0  501  502  0.00000000000E+00 -0.00000000000E+00 -0.56796087170E+03  0.56796087170E+03  0.00000000000E+00 0. -1.
   -9000010    2    1    2    0  502 -0.43541854197E+03 -0.19615595462E+03  0.19778904635E+03  0.11919443842E+04  0.10740318631E+04 0.  0.
         13    1    3    3    0    0  0.10083065052E+03 -0.37103970843E+03 -0.26113280697E+03  0.46478773581E+03  0.10566000000E+00 0. -1.
         -4    1    3    3    0  502 -0.53624919249E+03  0.17488375382E+03  0.45892185332E+03  0.72715664836E+03  0.00000000000E+00 0. -1.
        -13    1    1    2    0    0  0.43541854197E+03  0.19615595462E+03  0.73349099098E+03  0.87525739656E+03  0.10566000000E+00 0.  1.
<mgrwt>
<rscale>  1 0.93843099E+03</rscale>
<asrwt>0</asrwt>
<pdfrwt beam="2">  1       21 0.87378596E-01 0.11754195E+04</pdfrwt>
<pdfrwt beam="1">  1       -4 0.23065245E+00 0.11754195E+04</pdfrwt>
<totfact> 0.34541644E+00</totfact>
</mgrwt>
</event>
<event>
 6    2  0.2379986E-005  0.1026642E+04  0.7818608E-02  0.9805955E-01
         21   -1    0    0  501  502  0.00000000000E+00  0.00000000000E+00  0.28325564829E+04  0.28325564829E+04  0.00000000000E+00 0. -1.
         -4   -1    0    0    0  501 -0.00000000000E+00 -0.00000000000E+00 -0.13809342763E+03  0.13809342763E+03  0.00000000000E+00 0. -1.
   -9000010    2    1    2    0  502  0.14836594656E+03 -0.73137274866E+02  0.25575917111E+04  0.27559517710E+04  0.10132291393E+04 0.  0.
         13    1    3    3    0    0  0.53412989891E+03 -0.26100452187E+03  0.15893919656E+04  0.16969339825E+04  0.10566000000E+00 0. -1.
         -4    1    3    3    0  502 -0.38576395235E+03  0.18786724700E+03  0.96819974547E+03  0.10590177886E+04  0.00000000000E+00 0. -1.
        -13    1    1    2    0    0 -0.14836594656E+03  0.73137274866E+02  0.13687134423E+03  0.21469813951E+03  0.10566000000E+00 0.  1.
<mgrwt>
<rscale>  1 0.65043959E+03</rscale>
<asrwt>0</asrwt>
<pdfrwt beam="1">  1       21 0.43577788E+00 0.10266425E+04</pdfrwt>
<pdfrwt beam="2">  1       -4 0.21245145E-01 0.10266425E+04</pdfrwt>
<totfact> 0.29637543E+00</totfact>
</mgrwt>
</event>
<event>
 6    2  0.2379986E-005  0.1047018E+04  0.7818608E-02  0.9564405E-01
         -4   -1    0    0    0  501 -0.00000000000E+00  0.00000000000E+00  0.48957771545E+03  0.48957771545E+03  0.00000000000E+00 0. -1.
         21   -1    0    0  501  502  0.00000000000E+00 -0.00000000000E+00 -0.10196603941E+04  0.10196603941E+04  0.00000000000E+00 0. -1.
   -9000010    2    1    2    0  502  0.15804431187E+03  0.31395753142E+03 -0.48825070058E+03  0.11552645772E+04  0.98625562647E+03 0.  0.
         13    1    3    3    0    0 -0.31473744858E+03  0.17375108685E+03  0.11374302531E+03  0.37707636984E+03  0.10566000000E+00 0. -1.
         -4    1    3    3    0  502  0.47278176045E+03  0.14020644457E+03 -0.60199372589E+03  0.77818820740E+03  0.00000000000E+00 0. -1.
        -13    1    1    2    0    0 -0.15804431187E+03 -0.31395753142E+03 -0.41831978120E+02  0.35397353236E+03  0.10566000000E+00 0.  1.
<mgrwt>
<rscale>  1 0.79697539E+03</rscale>
<asrwt>0</asrwt>
<pdfrwt beam="2">  1       21 0.15687083E+00 0.10470184E+04</pdfrwt>
<pdfrwt beam="1">  1       -4 0.75319650E-01 0.10470184E+04</pdfrwt>
<totfact> 0.14959313E+01</totfact>
</mgrwt>
</event>
<event>
 6    2  0.2379986E-005  0.1081782E+04  0.7818608E-02  0.9479643E-01
         -4   -1    0    0    0  501 -0.00000000000E+00  0.00000000000E+00  0.11225618199E+04  0.11225618199E+04  0.00000000000E+00 0. -1.
         21   -1    0    0  501  502  0.00000000000E+00 -0.00000000000E+00 -0.90201257197E+03  0.90201257197E+03  0.00000000000E+00 0. -1.
   -9000010    2    1    2    0  502  0.77381176260E+02  0.42106288028E+03 -0.49584586475E+03  0.11900063813E+04  0.99346377408E+03 0.  0.
         13    1    3    3    0    0  0.27785013746E+03  0.44949501330E+03 -0.71665658042E+03  0.89041739162E+03  0.10566000000E+00 0. -1.
         -4    1    3    3    0  502 -0.20046896120E+03 -0.28432133021E+02  0.22081071567E+03  0.29958898970E+03  0.00000000000E+00 0. -1.
        -13    1    1    2    0    0 -0.77381176260E+02 -0.42106288028E+03  0.71639511265E+03  0.83456801052E+03  0.10566000000E+00 0.  1.
<mgrwt>
<rscale>  1 0.85801465E+03</rscale>
<asrwt>0</asrwt>
<pdfrwt beam="2">  1       21 0.13877116E+00 0.10817819E+04</pdfrwt>
<pdfrwt beam="1">  1       -4 0.17270182E+00 0.10817819E+04</pdfrwt>
<totfact> 0.26117996E+00</totfact>
</mgrwt>
</event>
<event>
 6    2  0.2379986E-005  0.1062026E+04  0.7818608E-02  0.9491011E-01
         -4   -1    0    0    0  501 -0.00000000000E+00  0.00000000000E+00  0.36087136378E+03  0.36087136378E+03  0.00000000000E+00 0. -1.
         21   -1    0    0  501  502  0.00000000000E+00 -0.00000000000E+00 -0.29729829596E+04  0.29729829596E+04  0.00000000000E+00 0. -1.
   -9000010    2    1    2    0  502 -0.26407284047E+03  0.34536379018E+03 -0.26901092041E+04  0.28921595751E+04  0.96896277807E+03 0.  0.
         13    1    3    3    0    0 -0.14520367192E+03  0.42261593421E+03 -0.27121260348E+04  0.27486935031E+04  0.10566000000E+00 0. -1.
         -4    1    3    3    0  502 -0.11886916855E+03 -0.77252144037E+02  0.22016830683E+02  0.14346607203E+03  0.00000000000E+00 0. -1.
        -13    1    1    2    0    0  0.26407284047E+03 -0.34536379018E+03  0.77997608223E+02  0.44169474832E+03  0.10566000000E+00 0.  1.
<mgrwt>
<rscale>  1 0.84949764E+03</rscale>
<asrwt>0</asrwt>
<pdfrwt beam="2">  1       21 0.45738198E+00 0.10620261E+04</pdfrwt>
<pdfrwt beam="1">  1       -4 0.55518673E-01 0.10620261E+04</pdfrwt>
<totfact> 0.30584653E-01</totfact>
</mgrwt>
</event>
<event>
 6    2  0.2379986E-005  0.1014936E+04  0.7818608E-02  0.9838984E-01
         -4   -1    0    0    0  501 -0.00000000000E+00  0.00000000000E+00  0.97099675145E+03  0.97099675145E+03  0.00000000000E+00 0. -1.
         21   -1    0    0  501  502  0.00000000000E+00 -0.00000000000E+00 -0.36230123807E+03  0.36230123807E+03  0.00000000000E+00 0. -1.
   -9000010    2    1    2    0  502 -0.53168534796E+02  0.14419104394E+03  0.44329886158E+03  0.11075237354E+04  0.10032332697E+04 0.  0.
         13    1    3    3    0    0  0.17067933431E+03 -0.23147929304E+03  0.58163831850E+03  0.64885841520E+03  0.10566000000E+00 0. -1.
         -4    1    3    3    0  502 -0.22384786911E+03  0.37567033698E+03 -0.13833945692E+03  0.45866532018E+03  0.00000000000E+00 0. -1.
        -13    1    1    2    0    0  0.53168534796E+02 -0.14419104394E+03  0.16539665180E+03  0.22577425415E+03  0.10566000000E+00 0.  1.
<mgrwt>
<rscale>  1 0.63311743E+03</rscale>
<asrwt>0</asrwt>
<pdfrwt beam="2">  1       21 0.55738653E-01 0.10149359E+04</pdfrwt>
<pdfrwt beam="1">  1       -4 0.14938411E+00 0.10149359E+04</pdfrwt>
<totfact> 0.35771747E+01</totfact>
</mgrwt>
</event>
<event>
 6    2  0.2379986E-005  0.1052930E+04  0.7818608E-02  0.9697290E-01
         21   -1    0    0  501  502  0.00000000000E+00  0.00000000000E+00  0.19693076762E+04  0.19693076762E+04  0.00000000000E+00 0. -1.
         -4   -1    0    0    0  501 -0.00000000000E+00 -0.00000000000E+00 -0.23700891350E+03  0.23700891350E+03  0.00000000000E+00 0. -1.
   -9000010    2    1    2    0  502  0.20884204468E+03  0.68805137696E+02  0.16760621170E+04  0.19793546588E+04  0.10297142801E+04 0.  0.
         13    1    3    3    0    0  0.41522289314E+03 -0.34874170879E+03  0.61108239214E+03  0.81697768121E+03  0.10566000000E+00 0. -1.
         -4    1    3    3    0  502 -0.20638084845E+03  0.41754684649E+03  0.10649797249E+04  0.11623769776E+04  0.00000000000E+00 0. -1.
        -13    1    1    2    0    0 -0.20884204468E+03 -0.68805137696E+02  0.56236645694E+02  0.22696193091E+03  0.10566000000E+00 0.  1.
<mgrwt>
<rscale>  1 0.71178380E+03</rscale>
<asrwt>0</asrwt>
<pdfrwt beam="1">  1       21 0.30297040E+00 0.10529296E+04</pdfrwt>
<pdfrwt beam="2">  1       -4 0.36462911E-01 0.10529296E+04</pdfrwt>
<totfact> 0.74027488E+00</totfact>
</mgrwt>
</event>
<event>
 6    2  0.2379986E-005  0.1044758E+04  0.7818608E-02  0.9649727E-01
         -4   -1    0    0    0  501 -0.00000000000E+00  0.00000000000E+00  0.11226972193E+04  0.11226972193E+04  0.00000000000E+00 0. -1.
         21   -1    0    0  501  502  0.00000000000E+00 -0.00000000000E+00 -0.39368098219E+03  0.39368098219E+03  0.00000000000E+00 0. -1.
   -9000010    2    1    2    0  502 -0.62176308690E+02  0.25682413387E+03  0.68288340013E+03  0.12481380499E+04  0.10107889613E+04 0.  0.
         13    1    3    3    0    0 -0.17193145645E+02 -0.95212895712E+01 -0.26336156481E+03  0.26409389276E+03  0.10566000000E+00 0. -1.
         -4    1    3    3    0  502 -0.44983163046E+02  0.26634542344E+03  0.94624496494E+03  0.98404415715E+03  0.00000000000E+00 0. -1.
        -13    1    1    2    0    0  0.62176308690E+02 -0.25682413387E+03  0.46132836956E+02  0.26824015156E+03  0.10566000000E+00 0.  1.
<mgrwt>
<rscale>  1 0.74090543E+03</rscale>
<asrwt>0</asrwt>
<pdfrwt beam="2">  1       21 0.60566305E-01 0.10447578E+04</pdfrwt>
<pdfrwt beam="1">  1       -4 0.17272265E+00 0.10447578E+04</pdfrwt>
<totfact> 0.19882547E+01</totfact>
</mgrwt>
</event>
<event>
 6    2  0.2379986E-005  0.1049632E+04  0.7818608E-02  0.9584424E-01
         21   -1    0    0  501  502  0.00000000000E+00  0.00000000000E+00  0.12464259952E+04  0.12464259952E+04  0.00000000000E+00 0. -1.
         -4   -1    0    0    0  501 -0.00000000000E+00 -0.00000000000E+00 -0.42706587579E+03  0.42706587579E+03  0.00000000000E+00 0. -1.
   -9000010    2    1    2    0  502 -0.32500638700E+03 -0.20192201265E+02  0.84408029245E+03  0.13469218560E+04  0.99784270777E+03 0.  0.
         13    1    3    3    0    0 -0.66509777139E+03  0.12718174224E+03  0.50700906374E+03  0.84592460830E+03  0.10566000000E+00 0. -1.
         -4    1    3    3    0  502  0.34009138438E+03 -0.14737394351E+03  0.33707122871E+03  0.50099724768E+03  0.00000000000E+00 0. -1.
        -13    1    1    2    0    0  0.32500638700E+03  0.20192201265E+02 -0.24720173043E+02  0.32657001501E+03  0.10566000000E+00 0.  1.
<mgrwt>
<rscale>  1 0.78335724E+03</rscale>
<asrwt>0</asrwt>
<pdfrwt beam="1">  1       21 0.19175784E+00 0.10496318E+04</pdfrwt>
<pdfrwt beam="2">  1       -4 0.65702443E-01 0.10496318E+04</pdfrwt>
<totfact> 0.11202982E+01</totfact>
</mgrwt>
</event>
<event>
 6    2  0.2379986E-005  0.1132110E+04  0.7818608E-02  0.9368238E-01
         -4   -1    0    0    0  501 -0.00000000000E+00  0.00000000000E+00  0.14786750503E+04  0.14786750503E+04  0.00000000000E+00 0. -1.
         21   -1    0    0  501  502  0.00000000000E+00 -0.00000000000E+00 -0.48135856940E+03  0.48135856940E+03  0.00000000000E+00 0. -1.
   -9000010    2    1    2    0  502  0.27454994412E+03 -0.48249161032E+03  0.65982738392E+03  0.13103608347E+04  0.98665977656E+03 0.  0.
         13    1    3    3    0    0 -0.34312872413E+03 -0.18891940373E+03  0.44651233793E+03  0.59397065711E+03  0.10566000000E+00 0. -1.
         -4    1    3    3    0  502  0.61767866824E+03 -0.29357220659E+03  0.21331504599E+03  0.71639017758E+03  0.00000000000E+00 0. -1.
        -13    1    1    2    0    0 -0.27454994412E+03  0.48249161032E+03  0.33748909699E+03  0.64967278502E+03  0.10566000000E+00 0.  1.
<mgrwt>
<rscale>  1 0.94736280E+03</rscale>
<asrwt>0</asrwt>
<pdfrwt beam="2">  1       21 0.74055165E-01 0.11321101E+04</pdfrwt>
<pdfrwt beam="1">  1       -4 0.22748847E+00 0.11321101E+04</pdfrwt>
<totfact> 0.53749830E+00</totfact>
</mgrwt>
</event>
<event>
 6    2  0.2379986E-005  0.1011165E+04  0.7818608E-02  0.9760963E-01
         -4   -1    0    0    0  501 -0.00000000000E+00  0.00000000000E+00  0.17410387198E+04  0.17410387198E+04  0.00000000000E+00 0. -1.
         21   -1    0    0  501  502  0.00000000000E+00 -0.00000000000E+00 -0.31103168408E+03  0.31103168408E+03  0.00000000000E+00 0. -1.
   -9000010    2    1    2    0  502 -0.18910317114E+03 -0.67520232702E+02  0.55326948000E+03  0.11526329442E+04  0.99102804971E+03 0.  0.
         13    1    3    3    0    0 -0.11929155835E+03  0.39672165542E+03  0.54309664242E+03  0.68306114071E+03  0.10566000000E+00 0. -1.
         -4    1    3    3    0  502 -0.69811612791E+02 -0.46424188813E+03  0.10172837578E+02  0.46957180345E+03  0.00000000000E+00 0. -1.
        -13    1    1    2    0    0  0.18910317114E+03  0.67520232702E+02  0.87673755573E+03  0.89943745972E+03  0.10566000000E+00 0.  1.
<mgrwt>
<rscale>  1 0.67500252E+03</rscale>
<asrwt>0</asrwt>
<pdfrwt beam="2">  1       21 0.47851029E-01 0.10111655E+04</pdfrwt>
<pdfrwt beam="1">  1       -4 0.26785210E+00 0.10111655E+04</pdfrwt>
<totfact> 0.81027750E+00</totfact>
</mgrwt>
</event>
<event>
 6    2  0.2379986E-005  0.1050128E+04  0.7818608E-02  0.9566751E-01
         -4   -1    0    0    0  501 -0.00000000000E+00  0.00000000000E+00  0.74149564800E+03  0.74149564800E+03  0.00000000000E+00 0. -1.
         21   -1    0    0  501  502  0.00000000000E+00 -0.00000000000E+00 -0.68616800762E+03  0.68616800762E+03  0.00000000000E+00 0. -1.
   -9000010    2    1    2    0  502  0.60100912522E+02 -0.34030586850E+03 -0.87439283082E+02  0.10537617842E+04  0.99163908046E+03 0.  0.
         13    1    3    3    0    0  0.47885331643E+03 -0.82141006574E+02 -0.23565330961E+03  0.53998160813E+03  0.10566000000E+00 0. -1.
         -4    1    3    3    0  502 -0.41875240391E+03 -0.25816486192E+03  0.14821402653E+03  0.51378017612E+03  0.00000000000E+00 0. -1.
        -13    1    1    2    0    0 -0.60100912522E+02  0.34030586850E+03  0.14276692347E+03  0.37390187138E+03  0.10566000000E+00 0.  1.
<mgrwt>
<rscale>  1 0.79536473E+03</rscale>
<asrwt>0</asrwt>
<pdfrwt beam="2">  1       21 0.10556431E+00 0.10501277E+04</pdfrwt>
<pdfrwt beam="1">  1       -4 0.11407625E+00 0.10501277E+04</pdfrwt>
<totfact> 0.16006110E+01</totfact>
</mgrwt>
</event>
<event>
 6    2  0.2379986E-005  0.9840408E+03  0.7818608E-02  0.1009129E+00
         -4   -1    0    0    0  501 -0.00000000000E+00  0.00000000000E+00  0.29087553402E+03  0.29087553402E+03  0.00000000000E+00 0. -1.
         21   -1    0    0  501  502  0.00000000000E+00 -0.00000000000E+00 -0.13577531684E+04  0.13577531684E+04  0.00000000000E+00 0. -1.
   -9000010    2    1    2    0  502  0.14656892101E+02  0.74255311518E+02 -0.11648248251E+04  0.15248452661E+04  0.98112564774E+03 0.  0.
         13    1    3    3    0    0  0.17184550719E+03 -0.41668607063E+03 -0.40065841325E+03  0.60306329276E+03  0.10566000000E+00 0. -1.
         -4    1    3    3    0  502 -0.15718861509E+03  0.49094138215E+03 -0.76416641186E+03  0.92178197337E+03  0.00000000000E+00 0. -1.
        -13    1    1    2    0    0 -0.14656892101E+02 -0.74255311518E+02  0.97947190706E+02  0.12378343631E+03  0.10566000000E+00 0.  1.
<mgrwt>
<rscale>  1 0.51822302E+03</rscale>
<asrwt>0</asrwt>
<pdfrwt beam="2">  1       21 0.20888511E+00 0.98404076E+03</pdfrwt>
<pdfrwt beam="1">  1       -4 0.44750081E-01 0.98404076E+03</pdfrwt>
<totfact> 0.19603426E+01</totfact>
</mgrwt>
</event>
<event>
 6    2  0.2379986E-005  0.1055647E+04  0.7818608E-02  0.9624234E-01
         21   -1    0    0  501  502  0.00000000000E+00  0.00000000000E+00  0.28545905691E+03  0.28545905691E+03  0.00000000000E+00 0. -1.
         -4   -1    0    0    0  501 -0.00000000000E+00 -0.00000000000E+00 -0.20847346042E+04  0.20847346042E+04  0.00000000000E+00 0. -1.
   -9000010    2    1    2    0  502  0.23035871198E+03  0.15799106964E+03 -0.77788412677E+03  0.13112948183E+04  0.10180196813E+04 0.  0.
         13    1    3    3    0    0  0.36950431935E+02 -0.36745367657E+03 -0.63314402296E+03  0.73297947026E+03  0.10566000000E+00 0. -1.
         -4    1    3    3    0  502  0.19340828005E+03  0.52544474621E+03 -0.14474010381E+03  0.57831534803E+03  0.00000000000E+00 0. -1.
        -13    1    1    2    0    0 -0.23035871198E+03 -0.15799106964E+03 -0.10213914206E+04  0.10588988429E+04  0.10566000000E+00 0.  1.
<mgrwt>
<rscale>  1 0.75712773E+03</rscale>
<asrwt>0</asrwt>
<pdfrwt beam="1">  1       21 0.43916779E-01 0.10556469E+04</pdfrwt>
<pdfrwt beam="2">  1       -4 0.32072839E+00 0.10556469E+04</pdfrwt>
<totfact> 0.45502240E+00</totfact>
</mgrwt>
</event>
<event>
 6    2  0.2379986E-005  0.1017809E+04  0.7818608E-02  0.1002417E+00
         -4   -1    0    0    0  501 -0.00000000000E+00  0.00000000000E+00  0.99153943868E+03  0.99153943868E+03  0.00000000000E+00 0. -1.
         21   -1    0    0  501  502  0.00000000000E+00 -0.00000000000E+00 -0.33014606104E+03  0.33014606104E+03  0.00000000000E+00 0. -1.
   -9000010    2    1    2    0  502 -0.83145138023E+02 -0.13950458893E+02  0.48771880225E+03  0.11286295530E+04  0.10143112483E+04 0.  0.
         13    1    3    3    0    0 -0.38173946053E+03 -0.38059467905E+03  0.19904678978E+03  0.57462767175E+03  0.10566000000E+00 0. -1.
         -4    1    3    3    0  502  0.29859432251E+03  0.36664422016E+03  0.28867201247E+03  0.55400188122E+03  0.00000000000E+00 0. -1.
        -13    1    1    2    0    0  0.83145138023E+02  0.13950458893E+02  0.17367457538E+03  0.19305594676E+03  0.10566000000E+00 0.  1.
<mgrwt>
<rscale>  1 0.54602954E+03</rscale>
<asrwt>0</asrwt>
<pdfrwt beam="2">  1       21 0.50791702E-01 0.10178089E+04</pdfrwt>
<pdfrwt beam="1">  1       -4 0.15254453E+00 0.10178089E+04</pdfrwt>
<totfact> 0.41412373E+01</totfact>
</mgrwt>
</event>
<event>
 6    2  0.2379986E-005  0.9958471E+03  0.7818608E-02  0.1042793E+00
         21   -1    0    0  501  502  0.00000000000E+00  0.00000000000E+00  0.24822982373E+03  0.24822982373E+03  0.00000000000E+00 0. -1.
         -4   -1    0    0    0  501 -0.00000000000E+00 -0.00000000000E+00 -0.10564434430E+04  0.10564434430E+04  0.00000000000E+00 0. -1.
   -9000010    2    1    2    0  502  0.26148497070E+02 -0.52551208110E+01 -0.77384243957E+03  0.12611675274E+04  0.99548985470E+03 0.  0.
         13    1    3    3    0    0 -0.97814003319E+02 -0.39952866524E+03 -0.73980760065E+03  0.84646679246E+03  0.10566000000E+00 0. -1.
         -4    1    3    3    0  502  0.12396250039E+03  0.39427354443E+03 -0.34034838922E+02  0.41470073499E+03  0.00000000000E+00 0. -1.
        -13    1    1    2    0    0 -0.26148497070E+02  0.52551208110E+01 -0.34371179716E+02  0.43505739310E+02  0.10566000000E+00 0.  1.
<mgrwt>
<rscale>  1 0.40286222E+03</rscale>
<asrwt>0</asrwt>
<pdfrwt beam="1">  1       21 0.38189204E-01 0.99584708E+03</pdfrwt>
<pdfrwt beam="2">  1       -4 0.16252976E+00 0.99584708E+03</pdfrwt>
<totfact> 0.63898440E+01</totfact>
</mgrwt>
</event>
<event>
 6    2  0.2379986E-005  0.1004215E+04  0.7818608E-02  0.9672452E-01
         -4   -1    0    0    0  501 -0.00000000000E+00  0.00000000000E+00  0.20186483326E+03  0.20186483326E+03  0.00000000000E+00 0. -1.
         21   -1    0    0  501  502  0.00000000000E+00 -0.00000000000E+00 -0.21655788490E+04  0.21655788490E+04  0.00000000000E+00 0. -1.
   -9000010    2    1    2    0  502 -0.23083796115E+03 -0.15047392731E+03 -0.17541386678E+04  0.20212495103E+04  0.96567000044E+03 0.  0.
         13    1    3    3    0    0 -0.16763880551E+03  0.40353582144E+03 -0.63403412974E+03  0.77002806257E+03  0.10566000000E+00 0. -1.
         -4    1    3    3    0  502 -0.63199155645E+02 -0.55400974875E+03 -0.11201045381E+04  0.12512214477E+04  0.00000000000E+00 0. -1.
        -13    1    1    2    0    0  0.23083796115E+03  0.15047392731E+03 -0.20957534798E+03  0.34619417204E+03  0.10566000000E+00 0.  1.
<mgrwt>
<rscale>  1 0.72680948E+03</rscale>
<asrwt>0</asrwt>
<pdfrwt beam="2">  1       21 0.33316598E+00 0.10042147E+04</pdfrwt>
<pdfrwt beam="1">  1       -4 0.31056128E-01 0.10042147E+04</pdfrwt>
<totfact> 0.66587855E+00</totfact>
</mgrwt>
</event>
<event>
 6    2  0.2379986E-005  0.1203537E+04  0.7818608E-02  0.9258504E-01
         21   -1    0    0  501  502  0.00000000000E+00  0.00000000000E+00  0.10545312434E+04  0.10545312434E+04  0.00000000000E+00 0. -1.
         -4   -1    0    0    0  501 -0.00000000000E+00 -0.00000000000E+00 -0.10439975280E+04  0.10439975280E+04  0.00000000000E+00 0. -1.
   -9000010    2    1    2    0  502 -0.62844241898E+03 -0.28283296807E+03  0.44577588479E+03  0.12834397462E+04  0.98669502932E+03 0.  0.
         13    1    3    3    0    0  0.16766052341E+03 -0.15390099340E+03  0.41864538634E+03  0.47650764689E+03  0.10566000000E+00 0. -1.
         -4    1    3    3    0  502 -0.79610294239E+03 -0.12893197466E+03  0.27130498459E+02  0.80693209932E+03  0.00000000000E+00 0. -1.
        -13    1    1    2    0    0  0.62844241898E+03  0.28283296807E+03 -0.43524216941E+03  0.81508902520E+03  0.10566000000E+00 0.  1.
<mgrwt>
<rscale>  1 0.10469448E+04</rscale>
<asrwt>0</asrwt>
<pdfrwt beam="1">  1       21 0.16223558E+00 0.12035371E+04</pdfrwt>
<pdfrwt beam="2">  1       -4 0.16061500E+00 0.12035371E+04</pdfrwt>
<totfact> 0.20332445E+00</totfact>
</mgrwt>
</event>
<event>
 6    2  0.2379986E-005  0.1023730E+04  0.7818608E-02  0.9763566E-01
         21   -1    0    0  501  502  0.00000000000E+00  0.00000000000E+00  0.71638075446E+03  0.71638075446E+03  0.00000000000E+00 0.  1.
         -4   -1    0    0    0  501 -0.00000000000E+00 -0.00000000000E+00 -0.51969063875E+03  0.51969063875E+03  0.00000000000E+00 0. -1.
   -9000010    2    1    2    0  502  0.17064192494E+03  0.87641513473E+02  0.20502176656E+03  0.10440580369E+04  0.10055961208E+04 0.  0.
         13    1    3    3    0    0  0.40455731751E+03 -0.30741601134E+03  0.27799034098E+03  0.57918034153E+03  0.10566000000E+00 0. -1.
         -4    1    3    3    0  502 -0.23391539257E+03  0.39505752482E+03 -0.72968574423E+02  0.46487769536E+03  0.00000000000E+00 0. -1.
        -13    1    1    2    0    0 -0.17064192494E+03 -0.87641513473E+02 -0.83316508501E+01  0.19201335631E+03  0.10566000000E+00 0.  1.
<mgrwt>
<rscale>  1 0.67354970E+03</rscale>
<asrwt>0</asrwt>
<pdfrwt beam="1">  1       21 0.11021242E+00 0.10237301E+04</pdfrwt>
<pdfrwt beam="2">  1       -4 0.79952405E-01 0.10237301E+04</pdfrwt>
<totfact> 0.33630863E+01</totfact>
</mgrwt>
</event>
<event>
 6    2  0.2379986E-005  0.1068865E+04  0.7818608E-02  0.9525928E-01
         21   -1    0    0  501  502  0.00000000000E+00  0.00000000000E+00  0.81664695941E+03  0.81664695941E+03  0.00000000000E+00 0. -1.
         -4   -1    0    0    0  501 -0.00000000000E+00 -0.00000000000E+00 -0.64133779283E+03  0.64133779283E+03  0.00000000000E+00 0. -1.
   -9000010    2    1    2    0  502 -0.29820649694E+03  0.23147343053E+03  0.10521402690E+03  0.10740311045E+04  0.99998287889E+03 0.  0.
         13    1    3    3    0    0  0.23383265182E+03  0.53711207443E+00  0.36901115768E+03  0.43686066795E+03  0.10566000000E+00 0. -1.
         -4    1    3    3    0  502 -0.53203914876E+03  0.23093631845E+03 -0.26379713077E+03  0.63717043654E+03  0.00000000000E+00 0. -1.
        -13    1    1    2    0    0  0.29820649694E+03 -0.23147343053E+03  0.70095139673E+02  0.38395364776E+03  0.10566000000E+00 0.  1.
<mgrwt>
<rscale>  1 0.82398975E+03</rscale>
<asrwt>0</asrwt>
<pdfrwt beam="1">  1       21 0.12563799E+00 0.10688652E+04</pdfrwt>
<pdfrwt beam="2">  1       -4 0.98667353E-01 0.10688652E+04</pdfrwt>
<totfact> 0.14566813E+01</totfact>
</mgrwt>
</event>
<event>
 6    2  0.2379986E-005  0.1006988E+04  0.7818608E-02  0.9852613E-01
         -4   -1    0    0    0  501 -0.00000000000E+00  0.00000000000E+00  0.69351031315E+03  0.69351031315E+03  0.00000000000E+00 0. -1.
         21   -1    0    0  501  502  0.00000000000E+00 -0.00000000000E+00 -0.52490632243E+03  0.52490632243E+03  0.00000000000E+00 0. -1.
   -9000010    2    1    2    0  502  0.15052484459E+03 -0.41189409425E-01  0.20426109155E+02  0.10071953623E+04  0.99567441534E+03 0.  0.
         13    1    3    3    0    0  0.13684291678E+02  0.16535930231E+03 -0.45567063933E+03  0.48493989464E+03  0.10566000000E+00 0. -1.
         -4    1    3    3    0  502  0.13684055291E+03 -0.16540049172E+03  0.47609674848E+03  0.52225546766E+03  0.00000000000E+00 0. -1.
        -13    1    1    2    0    0 -0.15052484459E+03  0.41189409425E-01  0.14817788157E+03  0.21122127328E+03  0.10566000000E+00 0.  1.
<mgrwt>
<rscale>  1 0.62613844E+03</rscale>
<asrwt>0</asrwt>
<pdfrwt beam="2">  1       21 0.80754819E-01 0.10069882E+04</pdfrwt>
<pdfrwt beam="1">  1       -4 0.10669389E+00 0.10069882E+04</pdfrwt>
<totfact> 0.36367996E+01</totfact>
</mgrwt>
</event>
<event>
 6    2  0.2379986E-005  0.1039622E+04  0.7818608E-02  0.9657901E-01
         -4   -1    0    0    0  501 -0.00000000000E+00  0.00000000000E+00  0.13997456511E+04  0.13997456511E+04  0.00000000000E+00 0. -1.
         21   -1    0    0  501  502  0.00000000000E+00 -0.00000000000E+00 -0.61688964783E+03  0.61688964783E+03  0.00000000000E+00 0. -1.
   -9000010    2    1    2    0  502 -0.12212212076E+03 -0.23050593881E+03 -0.14783261191E+03  0.10500805360E+04  0.10063636771E+04 0.  0.
         13    1    3    3    0    0  0.50798782955E+01 -0.62215704821E+03 -0.14234845654E+03  0.63825409677E+03  0.10566000000E+00 0. -1.
         -4    1    3    3    0  502 -0.12720199905E+03  0.39165110940E+03 -0.54841553749E+01  0.41182643919E+03  0.00000000000E+00 0. -1.
        -13    1    1    2    0    0  0.12212212076E+03  0.23050593881E+03  0.93068861520E+03  0.96655476298E+03  0.10566000000E+00 0.  1.
<mgrwt>
<rscale>  1 0.73579644E+03</rscale>
<asrwt>0</asrwt>
<pdfrwt beam="2">  1       21 0.94906100E-01 0.10396224E+04</pdfrwt>
<pdfrwt beam="1">  1       -4 0.21534548E+00 0.10396224E+04</pdfrwt>
<totfact> 0.35993008E+00</totfact>
</mgrwt>
</event>
<event>
 6    2  0.2379986E-005  0.1088148E+04  0.7818608E-02  0.9512859E-01
         -4   -1    0    0    0  501 -0.00000000000E+00  0.00000000000E+00  0.11402390091E+04  0.11402390091E+04  0.00000000000E+00 0. -1.
         21   -1    0    0  501  502  0.00000000000E+00 -0.00000000000E+00 -0.61598549564E+03  0.61598549564E+03  0.00000000000E+00 0. -1.
   -9000010    2    1    2    0  502 -0.30790749571E+03 -0.21309521405E+03 -0.28565707228E+02  0.10885227015E+04  0.10216893245E+04 0.  0.
         13    1    3    3    0    0  0.10892518350E+03 -0.29859351608E+03 -0.40883674669E+03  0.51785160042E+03  0.10566000000E+00 0. -1.
         -4    1    3    3    0  502 -0.41683267922E+03  0.85498302033E+02  0.38027103946E+03  0.57067110104E+03  0.00000000000E+00 0. -1.
        -13    1    1    2    0    0  0.30790749571E+03  0.21309521405E+03  0.55281922066E+03  0.66770180325E+03  0.10566000000E+00 0.  1.
<mgrwt>
<rscale>  1 0.83342371E+03</rscale>
<asrwt>0</asrwt>
<pdfrwt beam="2">  1       21 0.94766999E-01 0.10881478E+04</pdfrwt>
<pdfrwt beam="1">  1       -4 0.17542139E+00 0.10881478E+04</pdfrwt>
<totfact> 0.66611498E+00</totfact>
</mgrwt>
</event>
<event>
 6    2  0.2379986E-005  0.1147124E+04  0.7818608E-02  0.9350538E-01
         21   -1    0    0  501  502  0.00000000000E+00  0.00000000000E+00  0.59081734548E+03  0.59081734548E+03  0.00000000000E+00 0. -1.
         -4   -1    0    0    0  501 -0.00000000000E+00 -0.00000000000E+00 -0.12932077032E+04  0.12932077032E+04  0.00000000000E+00 0. -1.
   -9000010    2    1    2    0  502 -0.43227539437E+03 -0.36969157326E+03 -0.63525785711E+03  0.13112767098E+04  0.99617277051E+03 0.  0.
         13    1    3    3    0    0 -0.43955590901E+03  0.68576408606E+02 -0.73740138269E+03  0.86120434934E+03  0.10566000000E+00 0. -1.
         -4    1    3    3    0  502  0.72805146408E+01 -0.43826798187E+03  0.10214352558E+03  0.45007236045E+03  0.00000000000E+00 0. -1.
        -13    1    1    2    0    0  0.43227539437E+03  0.36969157326E+03 -0.67132500622E+02  0.57274833891E+03  0.10566000000E+00 0.  1.
<mgrwt>
<rscale>  1 0.96260447E+03</rscale>
<asrwt>0</asrwt>
<pdfrwt beam="1">  1       21 0.90894976E-01 0.11471243E+04</pdfrwt>
<pdfrwt beam="2">  1       -4 0.19895503E+00 0.11471243E+04</pdfrwt>
<totfact> 0.50508719E+00</totfact>
</mgrwt>
</event>
<event>
 6    2  0.2379986E-005  0.1020353E+04  0.7818608E-02  0.9725824E-01
         -4   -1    0    0    0  501 -0.00000000000E+00  0.00000000000E+00  0.26686004866E+03  0.26686004866E+03  0.00000000000E+00 0. -1.
         21   -1    0    0  501  502  0.00000000000E+00 -0.00000000000E+00 -0.14649797621E+04  0.14649797621E+04  0.00000000000E+00 0. -1.
   -9000010    2    1    2    0  502  0.14541059452E+03 -0.16459407904E+03 -0.89327821719E+03  0.13561220964E+04  0.99643650841E+03 0.  0.
         13    1    3    3    0    0  0.85307966208E+02 -0.57744800684E+03 -0.64807373236E+03  0.87219448717E+03  0.10566000000E+00 0. -1.
         -4    1    3    3    0  502  0.60102628315E+02  0.41285392781E+03 -0.24520448483E+03  0.48392760927E+03  0.00000000000E+00 0. -1.
        -13    1    1    2    0    0 -0.14541059452E+03  0.16459407904E+03 -0.30484149620E+03  0.37571771428E+03  0.10566000000E+00 0.  1.
<mgrwt>
<rscale>  1 0.69499846E+03</rscale>
<asrwt>0</asrwt>
<pdfrwt beam="2">  1       21 0.22538150E+00 0.10203535E+04</pdfrwt>
<pdfrwt beam="1">  1       -4 0.41055392E-01 0.10203535E+04</pdfrwt>
<totfact> 0.18103327E+01</totfact>
</mgrwt>
</event>
<event>
 6    2  0.2379986E-005  0.9941906E+03  0.7818608E-02  0.9807886E-01
         21   -1    0    0  501  502  0.00000000000E+00  0.00000000000E+00  0.59617274263E+03  0.59617274263E+03  0.00000000000E+00 0. -1.
         -4   -1    0    0    0  501 -0.00000000000E+00 -0.00000000000E+00 -0.57973422827E+03  0.57973422827E+03  0.00000000000E+00 0. -1.
   -9000010    2    1    2    0  502  0.28702395085E+02  0.17870551359E+03  0.27529116750E+02  0.99457164424E+03  0.97757629635E+03 0.  0.
         13    1    3    3    0    0  0.14045885743E+03 -0.12241997564E+03 -0.41084612684E+03  0.45112070687E+03  0.10566000000E+00 0. -1.
         -4    1    3    3    0  502 -0.11175646235E+03  0.30112548923E+03  0.43837524359E+03  0.54345093737E+03  0.00000000000E+00 0. -1.
        -13    1    1    2    0    0 -0.28702395085E+02 -0.17870551359E+03 -0.11090602384E+02  0.18133532666E+03  0.10566000000E+00 0.  1.
<mgrwt>
<rscale>  1 0.64941062E+03</rscale>
<asrwt>0</asrwt>
<pdfrwt beam="1">  1       21 0.91718884E-01 0.99419058E+03</pdfrwt>
<pdfrwt beam="2">  1       -4 0.89189881E-01 0.99419058E+03</pdfrwt>
<totfact> 0.41269048E+01</totfact>
</mgrwt>
</event>
<event>
 6    2  0.2379986E-005  0.1013191E+04  0.7818608E-02  0.9816862E-01
         21   -1    0    0  501  502  0.00000000000E+00  0.00000000000E+00  0.54960778900E+03  0.54960778900E+03  0.00000000000E+00 0.  1.
         -4   -1    0    0    0  501 -0.00000000000E+00 -0.00000000000E+00 -0.71233213008E+03  0.71233213008E+03  0.00000000000E+00 0. -1.
   -9000010    2    1    2    0  502  0.15780212002E+03 -0.51675677931E+02 -0.28869270768E+03  0.10535174507E+04  0.99949169818E+03 0.  0.
         13    1    3    3    0    0 -0.41965439333E+03 -0.17004679220E+02 -0.33802712950E+02  0.42135686007E+03  0.10566000000E+00 0. -1.
         -4    1    3    3    0  502  0.57745651335E+03 -0.34670998711E+02 -0.25488999473E+03  0.63216059065E+03  0.00000000000E+00 0. -1.
        -13    1    1    2    0    0 -0.15780212002E+03  0.51675677931E+02  0.12596836660E+03  0.20842246836E+03  0.10566000000E+00 0.  1.
<mgrwt>
<rscale>  1 0.64465418E+03</rscale>
<asrwt>0</asrwt>
<pdfrwt beam="1">  1       21 0.84555044E-01 0.10131908E+04</pdfrwt>
<pdfrwt beam="2">  1       -4 0.10958956E+00 0.10131908E+04</pdfrwt>
<totfact> 0.30522241E+01</totfact>
</mgrwt>
</event>
<event>
 6    2  0.2379986E-005  0.1028955E+04  0.7818608E-02  0.9661540E-01
         21   -1    0    0  501  502  0.00000000000E+00  0.00000000000E+00  0.71013340493E+03  0.71013340493E+03  0.00000000000E+00 0. -1.
         -4   -1    0    0    0  501 -0.00000000000E+00 -0.00000000000E+00 -0.91495323813E+03  0.91495323813E+03  0.00000000000E+00 0. -1.
   -9000010    2    1    2    0  502  0.26570667428E+03 -0.55084117479E+01  0.28510244352E+03  0.10677230026E+04  0.99404156229E+03 0.  0.
         13    1    3    3    0    0  0.15461389304E+03  0.38249449695E+03  0.46863313894E+03  0.62435929255E+03  0.10566000000E+00 0. -1.
         -4    1    3    3    0  502  0.11109278124E+03 -0.38800290870E+03 -0.18353069541E+03  0.44336371002E+03  0.00000000000E+00 0. -1.
        -13    1    1    2    0    0 -0.26570667428E+03  0.55084117479E+01 -0.48992227672E+03  0.55736364050E+03  0.10566000000E+00 0.  1.
<mgrwt>
<rscale>  1 0.73353583E+03</rscale>
<asrwt>0</asrwt>
<pdfrwt beam="1">  1       21 0.10925129E+00 0.10289553E+04</pdfrwt>
<pdfrwt beam="2">  1       -4 0.14076204E+00 0.10289553E+04</pdfrwt>
<totfact> 0.85976466E+00</totfact>
</mgrwt>
</event>
<event>
 6    2  0.2379986E-005  0.9337602E+03  0.7818608E-02  0.9882984E-01
         -4   -1    0    0    0  501 -0.00000000000E+00  0.00000000000E+00  0.14258781681E+04  0.14258781681E+04  0.00000000000E+00 0. -1.
         21   -1    0    0  501  502  0.00000000000E+00 -0.00000000000E+00 -0.23049657026E+03  0.23049657026E+03  0.00000000000E+00 0. -1.
   -9000010    2    1    2    0  502 -0.16616582820E+03 -0.40814166137E+02  0.81550029968E+03  0.12397373775E+04  0.91794942548E+03 0.  0.
         13    1    3    3    0    0 -0.48916378643E+03  0.12869678974E+03  0.68672456063E+03  0.85289782915E+03  0.10566000000E+00 0. -1.
         -4    1    3    3    0  502  0.32299795823E+03 -0.16951095587E+03  0.12877573905E+03  0.38683954833E+03  0.00000000000E+00 0. -1.
        -13    1    1    2    0    0  0.16616582820E+03  0.40814166137E+02  0.37988129815E+03  0.41663736087E+03  0.10566000000E+00 0.  1.
<mgrwt>
<rscale>  1 0.61093094E+03</rscale>
<asrwt>0</asrwt>
<pdfrwt beam="2">  1       21 0.35461012E-01 0.93376015E+03</pdfrwt>
<pdfrwt beam="1">  1       -4 0.21936587E+00 0.93376015E+03</pdfrwt>
<totfact> 0.30760619E+01</totfact>
</mgrwt>
</event>
<event>
 6    2  0.2379986E-005  0.1119531E+04  0.7818608E-02  0.9409408E-01
         -4   -1    0    0    0  501 -0.00000000000E+00  0.00000000000E+00  0.55727016850E+03  0.55727016850E+03  0.00000000000E+00 0. -1.
         21   -1    0    0  501  502  0.00000000000E+00 -0.00000000000E+00 -0.17312089006E+04  0.17312089006E+04  0.00000000000E+00 0. -1.
   -9000010    2    1    2    0  502 -0.44201062584E+03  0.22351604897E+03 -0.13580883398E+04  0.17600437309E+04  0.10040005870E+04 0.  0.
         13    1    3    3    0    0 -0.54852538497E+03  0.52760467945E+03 -0.73229318165E+03  0.10561723869E+04  0.10566000000E+00 0. -1.
         -4    1    3    3    0  502  0.10651475914E+03 -0.30408863047E+03 -0.62579515810E+03  0.70387134407E+03  0.00000000000E+00 0. -1.
        -13    1    1    2    0    0  0.44201062584E+03 -0.22351604897E+03  0.18414960762E+03  0.52843533820E+03  0.10566000000E+00 0.  1.
<mgrwt>
<rscale>  1 0.91305428E+03</rscale>
<asrwt>0</asrwt>
<pdfrwt beam="2">  1       21 0.26633982E+00 0.11195312E+04</pdfrwt>
<pdfrwt beam="1">  1       -4 0.85733874E-01 0.11195312E+04</pdfrwt>
<totfact> 0.19576662E+00</totfact>
</mgrwt>
</event>
<event>
 6    2  0.2379986E-005  0.1082076E+04  0.7818608E-02  0.9870523E-01
         -4   -1    0    0    0  501 -0.00000000000E+00  0.00000000000E+00  0.80180059973E+03  0.80180059973E+03  0.00000000000E+00 0. -1.
         21   -1    0    0  501  502  0.00000000000E+00 -0.00000000000E+00 -0.10897476694E+04  0.10897476694E+04  0.00000000000E+00 0. -1.
   -9000010    2    1    2    0  502  0.15570989166E+01 -0.11445846022E+03 -0.81344428007E+03  0.13537281384E+04  0.10760042342E+04 0.  0.
         13    1    3    3    0    0  0.17604658743E+03 -0.97328021076E+02  0.22429255305E+03  0.30128442567E+03  0.10566000000E+00 0. -1.
         -4    1    3    3    0  502 -0.17448948852E+03 -0.17130439146E+02 -0.10377368331E+04  0.10524437127E+04  0.00000000000E+00 0. -1.
        -13    1    1    2    0    0 -0.15570989166E+01  0.11445846022E+03  0.52549721044E+03  0.53782013073E+03  0.10566000000E+00 0.  1.
<mgrwt>
<rscale>  1 0.61711395E+03</rscale>
<asrwt>0</asrwt>
<pdfrwt beam="2">  1       21 0.16765349E+00 0.10820759E+04</pdfrwt>
<pdfrwt beam="1">  1       -4 0.12335394E+00 0.10820759E+04</pdfrwt>
<totfact> 0.37720451E+00</totfact>
</mgrwt>
</event>
<event>
 6    2  0.2379986E-005  0.1010411E+04  0.7818608E-02  0.1031533E+00
         -4   -1    0    0    0  501 -0.00000000000E+00  0.00000000000E+00  0.23181609715E+03  0.23181609715E+03  0.00000000000E+00 0. -1.
         21   -1    0    0  501  502  0.00000000000E+00 -0.00000000000E+00 -0.13271764039E+04  0.13271764039E+04  0.00000000000E+00 0. -1.
   -9000010    2    1    2    0  502 -0.33995666921E+02  0.10218991789E+02 -0.11254401902E+04  0.15124635454E+04  0.10097872158E+04 0.  0.
         13    1    3    3    0    0 -0.23193647979E+03 -0.13265702865E+03 -0.12213086026E+04  0.12501948376E+04  0.10566000000E+00 0. -1.
         -4    1    3    3    0  502  0.19794081287E+03  0.14287602044E+03  0.95868412368E+02  0.26226870783E+03  0.00000000000E+00 0. -1.
        -13    1    1    2    0    0  0.33995666921E+02 -0.10218991789E+02  0.30079883468E+02  0.46528955673E+02  0.10566000000E+00 0.  1.
<mgrwt>
<rscale>  1 0.43744764E+03</rscale>
<asrwt>0</asrwt>
<pdfrwt beam="2">  1       21 0.20418098E+00 0.10104110E+04</pdfrwt>
<pdfrwt beam="1">  1       -4 0.35664016E-01 0.10104110E+04</pdfrwt>
<totfact> 0.33395539E+01</totfact>
</mgrwt>
</event>
<event>
 6    2  0.2379986E-005  0.9883250E+03  0.7818608E-02  0.9845909E-01
         21   -1    0    0  501  502  0.00000000000E+00  0.00000000000E+00  0.59216468497E+03  0.59216468497E+03  0.00000000000E+00 0. -1.
         -4   -1    0    0    0  501 -0.00000000000E+00 -0.00000000000E+00 -0.59817896998E+03  0.59817896998E+03  0.00000000000E+00 0. -1.
   -9000010    2    1    2    0  502 -0.11807506627E+02 -0.16229353622E+03  0.10420963065E+03  0.99380375605E+03  0.97483724247E+03 0.  0.
         13    1    3    3    0    0  0.21369937296E+03 -0.27608687582E+02 -0.38348352983E+03  0.43987417570E+03  0.10566000000E+00 0. -1.
         -4    1    3    3    0  502 -0.22550687959E+03 -0.13468484864E+03  0.48769316049E+03  0.55392958034E+03  0.00000000000E+00 0. -1.
        -13    1    1    2    0    0  0.11807506627E+02  0.16229353622E+03 -0.11022391566E+03  0.19653989890E+03  0.10566000000E+00 0.  1.
<mgrwt>
<rscale>  1 0.62955945E+03</rscale>
<asrwt>0</asrwt>
<pdfrwt beam="1">  1       21 0.91102259E-01 0.98832498E+03</pdfrwt>
<pdfrwt beam="2">  1       -4 0.92027534E-01 0.98832498E+03</pdfrwt>
<totfact> 0.38985349E+01</totfact>
</mgrwt>
</event>
<event>
 6    2  0.2379986E-005  0.1003796E+04  0.7818608E-02  0.9983943E-01
         -4   -1    0    0    0  501 -0.00000000000E+00  0.00000000000E+00  0.84358192787E+03  0.84358192787E+03  0.00000000000E+00 0. -1.
         21   -1    0    0  501  502  0.00000000000E+00 -0.00000000000E+00 -0.43526926880E+03  0.43526926880E+03  0.00000000000E+00 0. -1.
   -9000010    2    1    2    0  502 -0.32079163987E+02  0.94458791468E+02  0.16681758037E+03  0.10175631942E+04  0.99882691842E+03 0.  0.
         13    1    3    3    0    0 -0.28249451914E+03  0.38889539903E+03  0.34528041710E+03  0.59182882857E+03  0.10566000000E+00 0. -1.
         -4    1    3    3    0  502  0.25041535515E+03 -0.29443660756E+03 -0.17846283672E+03  0.42573436561E+03  0.00000000000E+00 0. -1.
        -13    1    1    2    0    0  0.32079163987E+02 -0.94458791468E+02  0.24149507870E+03  0.26128800249E+03  0.10566000000E+00 0.  1.
<mgrwt>
<rscale>  1 0.56359934E+03</rscale>
<asrwt>0</asrwt>
<pdfrwt beam="2">  1       21 0.66964503E-01 0.10037962E+04</pdfrwt>
<pdfrwt beam="1">  1       -4 0.12978183E+00 0.10037962E+04</pdfrwt>
<totfact> 0.34356900E+01</totfact>
</mgrwt>
</event>
<event>
 6    2  0.2379986E-005  0.1064774E+04  0.7818608E-02  0.9531423E-01
         21   -1    0    0  501  502  0.00000000000E+00  0.00000000000E+00  0.83756289394E+03  0.83756289394E+03  0.00000000000E+00 0. -1.
         -4   -1    0    0    0  501 -0.00000000000E+00 -0.00000000000E+00 -0.68396373807E+03  0.68396373807E+03  0.00000000000E+00 0. -1.
   -9000010    2    1    2    0  502 -0.31713211215E+03 -0.19945666904E+03 -0.99486478659E+02  0.10694115040E+04  0.99668834956E+03 0.  0.
         13    1    3    3    0    0  0.11152151609E+03  0.33026643219E+03 -0.16340822428E+03  0.38498730331E+03  0.10566000000E+00 0. -1.
         -4    1    3    3    0  502 -0.42865362824E+03 -0.52972310123E+03  0.63921745621E+02  0.68442420073E+03  0.00000000000E+00 0. -1.
        -13    1    1    2    0    0  0.31713211215E+03  0.19945666904E+03  0.25308563453E+03  0.45211512798E+03  0.10566000000E+00 0.  1.
<mgrwt>
<rscale>  1 0.82006235E+03</rscale>
<asrwt>0</asrwt>
<pdfrwt beam="1">  1       21 0.12885583E+00 0.10647739E+04</pdfrwt>
<pdfrwt beam="2">  1       -4 0.10522519E+00 0.10647739E+04</pdfrwt>
<totfact> 0.11658174E+01</totfact>
</mgrwt>
</event>
<event>
 6    2  0.2379986E-005  0.1022336E+04  0.7818608E-02  0.9776129E-01
         21   -1    0    0  501  502  0.00000000000E+00  0.00000000000E+00  0.67405713922E+03  0.67405713922E+03  0.00000000000E+00 0. -1.
         -4   -1    0    0    0  501 -0.00000000000E+00 -0.00000000000E+00 -0.63570455590E+03  0.63570455590E+03  0.00000000000E+00 0. -1.
   -9000010    2    1    2    0  502 -0.24456427477E+02  0.18315914004E+03  0.22533815986E+03  0.10468757799E+04  0.10054979984E+04 0.  0.
         13    1    3    3    0    0  0.61735596824E+02 -0.15019027346E+03 -0.34463670310E+03  0.38097620719E+03  0.10566000000E+00 0. -1.
         -4    1    3    3    0  502 -0.86192024302E+02  0.33334941350E+03  0.56997486296E+03  0.66589957271E+03  0.00000000000E+00 0. -1.
        -13    1    1    2    0    0  0.24456427477E+02 -0.18315914004E+03 -0.18698557654E+03  0.26288591523E+03  0.10566000000E+00 0.  1.
<mgrwt>
<rscale>  1 0.66659473E+03</rscale>
<asrwt>0</asrwt>
<pdfrwt beam="1">  1       21 0.10370110E+00 0.10223363E+04</pdfrwt>
<pdfrwt beam="2">  1       -4 0.97800702E-01 0.10223363E+04</pdfrwt>
<totfact> 0.24446933E+01</totfact>
</mgrwt>
</event>
<event>
 6    2  0.2379986E-005  0.1087917E+04  0.7818608E-02  0.1000985E+00
         21   -1    0    0  501  502  0.00000000000E+00  0.00000000000E+00  0.85837758129E+03  0.85837758129E+03  0.00000000000E+00 0. -1.
         -4   -1    0    0    0  501 -0.00000000000E+00 -0.00000000000E+00 -0.46562883735E+03  0.46562883735E+03  0.00000000000E+00 0. -1.
   -9000010    2    1    2    0  502  0.68729149834E+02  0.22155732838E+02  0.49790580655E+03  0.11964423504E+04  0.10855180943E+04 0.  0.
         13    1    3    3    0    0  0.10152863733E+03  0.24326789716E+03  0.78759486729E+03  0.83053778971E+03  0.10566000000E+00 0. -1.
         -4    1    3    3    0  502 -0.32799487493E+02 -0.22111216432E+03 -0.28968906074E+03  0.36590456065E+03  0.00000000000E+00 0. -1.
        -13    1    1    2    0    0 -0.68729149834E+02 -0.22155732838E+02 -0.10515706262E+03  0.12756406828E+03  0.10566000000E+00 0.  1.
<mgrwt>
<rscale>  1 0.55220378E+03</rscale>
<asrwt>0</asrwt>
<pdfrwt beam="1">  1       21 0.13205809E+00 0.10879173E+04</pdfrwt>
<pdfrwt beam="2">  1       -4 0.71635206E-01 0.10879173E+04</pdfrwt>
<totfact> 0.26811882E+01</totfact>
</mgrwt>
</event>
<event>
 6    2  0.2379986E-005  0.1010984E+04  0.7818608E-02  0.9806175E-01
         21   -1    0    0  501  502  0.00000000000E+00  0.00000000000E+00  0.49476024035E+03  0.49476024035E+03  0.00000000000E+00 0. -1.
         -4   -1    0    0    0  501 -0.00000000000E+00 -0.00000000000E+00 -0.74035578132E+03  0.74035578132E+03  0.00000000000E+00 0. -1.
   -9000010    2    1    2    0  502 -0.73610764036E+02 -0.15666149622E+03 -0.11341642254E+03  0.10173255272E+04  0.99605550767E+03 0.  0.
         13    1    3    3    0    0  0.91124204182E+02 -0.55627503147E+03 -0.15069328164E+03  0.58348436785E+03  0.10566000000E+00 0. -1.
         -4    1    3    3    0  502 -0.16473496822E+03  0.39961353525E+03  0.37276859102E+02  0.43384115933E+03  0.00000000000E+00 0. -1.
        -13    1    1    2    0    0  0.73610764036E+02  0.15666149622E+03 -0.13217911843E+03  0.21779049450E+03  0.10566000000E+00 0.  1.
<mgrwt>
<rscale>  1 0.65032182E+03</rscale>
<asrwt>0</asrwt>
<pdfrwt beam="1">  1       21 0.76116960E-01 0.10109837E+04</pdfrwt>
<pdfrwt beam="2">  1       -4 0.11390089E+00 0.10109837E+04</pdfrwt>
<totfact> 0.35551813E+01</totfact>
</mgrwt>
</event>
<event>
 6    2  0.2379986E-005  0.1023544E+04  0.7818608E-02  0.9695333E-01
         -4   -1    0    0    0  501 -0.00000000000E+00  0.00000000000E+00  0.10352176486E+04  0.10352176486E+04  0.00000000000E+00 0. -1.
         21   -1    0    0  501  502  0.00000000000E+00 -0.00000000000E+00 -0.39738021881E+03  0.39738021881E+03  0.00000000000E+00 0. -1.
   -9000010    2    1    2    0  502  0.16872365440E+03 -0.17201317765E+03  0.41524558752E+03  0.11045683806E+04  0.99477947534E+03 0.  0.
         13    1    3    3    0    0 -0.62191423051E+02 -0.52549479683E+03  0.25205552689E+02  0.52976210288E+03  0.10566000000E+00 0. -1.
         -4    1    3    3    0  502  0.23091507745E+03  0.35348161919E+03  0.39004003483E+03  0.57480627768E+03  0.00000000000E+00 0. -1.
        -13    1    1    2    0    0 -0.16872365440E+03  0.17201317765E+03  0.22259184228E+03  0.32802948686E+03  0.10566000000E+00 0.  1.
<mgrwt>
<rscale>  1 0.71295315E+03</rscale>
<asrwt>0</asrwt>
<pdfrwt beam="2">  1       21 0.61135419E-01 0.10235440E+04</pdfrwt>
<pdfrwt beam="1">  1       -4 0.15926425E+00 0.10235440E+04</pdfrwt>
<totfact> 0.24470583E+01</totfact>
</mgrwt>
</event>
<event>
 6    2  0.2379986E-005  0.9794893E+03  0.7818608E-02  0.9906684E-01
         21   -1    0    0  501  502  0.00000000000E+00  0.00000000000E+00  0.10816164744E+04  0.10816164744E+04  0.00000000000E+00 0. -1.
         -4   -1    0    0    0  501 -0.00000000000E+00 -0.00000000000E+00 -0.50560124575E+03  0.50560124575E+03  0.00000000000E+00 0. -1.
   -9000010    2    1    2    0  502 -0.47592003332E+02 -0.12883879939E+03  0.83953935841E+03  0.12900487226E+04  0.96981180506E+03 0.  0.
         13    1    3    3    0    0 -0.10478524424E+03 -0.94730428454E+02  0.10550602854E+04  0.10644745269E+04  0.10566000000E+00 0. -1.
         -4    1    3    3    0  502  0.57193240913E+02 -0.34108370940E+02 -0.21552092697E+03  0.22557419564E+03  0.00000000000E+00 0. -1.
        -13    1    1    2    0    0  0.47592003332E+02  0.12883879939E+03 -0.26352412976E+03  0.29716899761E+03  0.10566000000E+00 0.  1.
<mgrwt>
<rscale>  1 0.59938420E+03</rscale>
<asrwt>0</asrwt>
<pdfrwt beam="1">  1       21 0.16640253E+00 0.97948934E+03</pdfrwt>
<pdfrwt beam="2">  1       -4 0.77784807E-01 0.97948934E+03</pdfrwt>
<totfact> 0.11827994E+01</totfact>
</mgrwt>
</event>
<event>
 6    2  0.2379986E-005  0.9431279E+03  0.7818608E-02  0.1000500E+00
         -4   -1    0    0    0  501 -0.00000000000E+00  0.00000000000E+00  0.88556906174E+03  0.88556906174E+03  0.00000000000E+00 0. -1.
         21   -1    0    0  501  502  0.00000000000E+00 -0.00000000000E+00 -0.32417604656E+03  0.32417604656E+03  0.00000000000E+00 0. -1.
   -9000010    2    1    2    0  502 -0.25565111853E+02 -0.10960008562E+03  0.42937915346E+03  0.10362705437E+04  0.93638903700E+03 0.  0.
         13    1    3    3    0    0 -0.17967619510E+03  0.35783018552E+03  0.36146228060E+03  0.53942651791E+03  0.10566000000E+00 0. -1.
         -4    1    3    3    0  502  0.15411108325E+03 -0.46743027114E+03  0.67916872858E+02  0.49684402580E+03  0.00000000000E+00 0. -1.
        -13    1    1    2    0    0  0.25565111853E+02  0.10960008562E+03  0.13201386171E+03  0.17347456459E+03  0.10566000000E+00 0.  1.
<mgrwt>
<rscale>  1 0.55431530E+03</rscale>
<asrwt>0</asrwt>
<pdfrwt beam="2">  1       21 0.49873238E-01 0.94312787E+03</pdfrwt>
<pdfrwt beam="1">  1       -4 0.13624139E+00 0.94312787E+03</pdfrwt>
<totfact> 0.58498285E+01</totfact>
</mgrwt>
</event>
<event>
 6    2  0.2379986E-005  0.1409217E+04  0.7818608E-02  0.9040754E-01
         -4   -1    0    0    0  501 -0.00000000000E+00  0.00000000000E+00  0.20100031975E+04  0.20100031975E+04  0.00000000000E+00 0. -1.
         21   -1    0    0  501  502  0.00000000000E+00 -0.00000000000E+00 -0.78947109607E+03  0.78947109607E+03  0.00000000000E+00 0. -1.
   -9000010    2    1    2    0  502 -0.95123828298E+03  0.22401802247E+03  0.26737657387E+03  0.14343575160E+04  0.10153092662E+04 0.  0.
         13    1    3    3    0    0 -0.22109375783E+03 -0.22012191242E+02 -0.37188890279E+03  0.43320705615E+03  0.10566000000E+00 0. -1.
         -4    1    3    3    0  502 -0.73014452515E+03  0.24603021371E+03  0.63926547666E+03  0.10011504599E+04  0.00000000000E+00 0. -1.
        -13    1    1    2    0    0  0.95123828298E+03 -0.22401802247E+03  0.95315552754E+03  0.13651167775E+04  0.10566000000E+00 0.  1.
<mgrwt>
<rscale>  1 0.12859850E+04</rscale>
<asrwt>0</asrwt>
<pdfrwt beam="2">  1       21 0.12145709E+00 0.14092165E+04</pdfrwt>
<pdfrwt beam="1">  1       -4 0.30923126E+00 0.14092165E+04</pdfrwt>
<totfact> 0.47492876E-01</totfact>
</mgrwt>
</event>
<event>
 6    2  0.2379986E-005  0.1003986E+04  0.7818608E-02  0.9885656E-01
         -4   -1    0    0    0  501 -0.00000000000E+00  0.00000000000E+00  0.82743052247E+03  0.82743052247E+03  0.00000000000E+00 0. -1.
         21   -1    0    0  501  502  0.00000000000E+00 -0.00000000000E+00 -0.41061556783E+03  0.41061556783E+03  0.00000000000E+00 0. -1.
   -9000010    2    1    2    0  502 -0.28611876643E+02 -0.13343767248E+03  0.27442119802E+03  0.10408146399E+04  0.99466771782E+03 0.  0.
         13    1    3    3    0    0  0.15066181284E+03 -0.50729258311E+03  0.32823279311E+03  0.62272106465E+03  0.10566000000E+00 0. -1.
         -4    1    3    3    0  502 -0.17927368948E+03  0.37385491062E+03 -0.53811595089E+02  0.41809357530E+03  0.00000000000E+00 0. -1.
        -13    1    1    2    0    0  0.28611876643E+02  0.13343767248E+03  0.14239375661E+03  0.19723145036E+03  0.10566000000E+00 0.  1.
<mgrwt>
<rscale>  1 0.60961503E+03</rscale>
<asrwt>0</asrwt>
<pdfrwt beam="2">  1       21 0.63171626E-01 0.10039861E+04</pdfrwt>
<pdfrwt beam="1">  1       -4 0.12729700E+00 0.10039861E+04</pdfrwt>
<totfact> 0.41188023E+01</totfact>
</mgrwt>
</event>
<event>
 6    2  0.2379986E-005  0.1069122E+04  0.7818608E-02  0.9542649E-01
         -4   -1    0    0    0  501 -0.00000000000E+00  0.00000000000E+00  0.18870221581E+04  0.18870221581E+04  0.00000000000E+00 0. -1.
         21   -1    0    0  501  502  0.00000000000E+00 -0.00000000000E+00 -0.27037303859E+03  0.27037303859E+03  0.00000000000E+00 0. -1.
   -9000010    2    1    2    0  502  0.34580924980E+03 -0.84334652189E+02  0.11454981180E+04  0.15669041737E+04  0.10081301406E+04 0.  0.
         13    1    3    3    0    0 -0.13096379062E+03 -0.26180354624E+02  0.10728542180E+04  0.10811351024E+04  0.10566000000E+00 0. -1.
         -4    1    3    3    0  502  0.47677304042E+03 -0.58154297565E+02  0.72643899960E+02  0.48576907127E+03  0.00000000000E+00 0. -1.
        -13    1    1    2    0    0 -0.34580924980E+03  0.84334652189E+02  0.47115100150E+03  0.59049102295E+03  0.10566000000E+00 0.  1.
<mgrwt>
<rscale>  1 0.81211233E+03</rscale>
<asrwt>0</asrwt>
<pdfrwt beam="2">  1       21 0.41595853E-01 0.10691224E+04</pdfrwt>
<pdfrwt beam="1">  1       -4 0.29031109E+00 0.10691224E+04</pdfrwt>
<totfact> 0.78806468E+00</totfact>
</mgrwt>
</event>
<event>
 6    2  0.2379986E-005  0.1138566E+04  0.7818608E-02  0.9368038E-01
         -4   -1    0    0    0  501 -0.00000000000E+00  0.00000000000E+00  0.51959564777E+03  0.51959564777E+03  0.00000000000E+00 0. -1.
         21   -1    0    0  501  502  0.00000000000E+00 -0.00000000000E+00 -0.19278111487E+04  0.19278111487E+04  0.00000000000E+00 0. -1.
   -9000010    2    1    2    0  502 -0.52831816821E+03 -0.13838000776E+03 -0.15107295226E+04  0.18917286080E+04  0.99903169237E+03 0.  0.
         13    1    3    3    0    0  0.44996104811E+02  0.82845972256E+02 -0.11989385511E+04  0.12026394992E+04  0.10566000000E+00 0. -1.
         -4    1    3    3    0  502 -0.57331427302E+03 -0.22122598001E+03 -0.31179097145E+03  0.68908910872E+03  0.00000000000E+00 0. -1.
        -13    1    1    2    0    0  0.52831816821E+03  0.13838000776E+03  0.10251402163E+03  0.55567818853E+03  0.10566000000E+00 0.  1.
<mgrwt>
<rscale>  1 0.94753401E+03</rscale>
<asrwt>0</asrwt>
<pdfrwt beam="2">  1       21 0.29658633E+00 0.11385664E+04</pdfrwt>
<pdfrwt beam="1">  1       -4 0.79937793E-01 0.11385664E+04</pdfrwt>
<totfact> 0.14834708E+00</totfact>
</mgrwt>
</event>
<event>
 6    2  0.2379986E-005  0.9628476E+03  0.7818608E-02  0.1003668E+00
         -4   -1    0    0    0  501 -0.00000000000E+00  0.00000000000E+00  0.91638859643E+03  0.91638859643E+03  0.00000000000E+00 0. -1.
         21   -1    0    0  501  502  0.00000000000E+00 -0.00000000000E+00 -0.31011274639E+03  0.31011274639E+03  0.00000000000E+00 0. -1.
   -9000010    2    1    2    0  502 -0.51421760182E+02  0.80781388979E+02  0.59037005170E+03  0.11294300504E+04  0.95807390666E+03 0.  0.
         13    1    3    3    0    0  0.62881288146E+02 -0.34375473751E+03  0.59467620144E+03  0.68975442854E+03  0.10566000000E+00 0. -1.
         -4    1    3    3    0  502 -0.11430304833E+03  0.42453612649E+03 -0.43061497461E+01  0.43967562188E+03  0.00000000000E+00 0. -1.
        -13    1    1    2    0    0  0.51421760182E+02 -0.80781388979E+02  0.15905798344E+02  0.97071292412E+02  0.10566000000E+00 0.  1.
<mgrwt>
<rscale>  1 0.54070880E+03</rscale>
<asrwt>0</asrwt>
<pdfrwt beam="2">  1       21 0.47709654E-01 0.96284757E+03</pdfrwt>
<pdfrwt beam="1">  1       -4 0.14098286E+00 0.96284757E+03</pdfrwt>
<totfact> 0.58745770E+01</totfact>
</mgrwt>
</event>
<event>
 6    2  0.2379986E-005  0.1184931E+04  0.7818608E-02  0.9234346E-01
         21   -1    0    0  501  502  0.00000000000E+00  0.00000000000E+00  0.24524809166E+04  0.24524809166E+04  0.00000000000E+00 0.  1.
         -4   -1    0    0    0  501 -0.00000000000E+00 -0.00000000000E+00 -0.39774207896E+03  0.39774207896E+03  0.00000000000E+00 0. -1.
   -9000010    2    1    2    0  502  0.24826268518E+03  0.74955187773E+03  0.11938013839E+04  0.16820296516E+04  0.88351549316E+03 0.  0.
         13    1    3    3    0    0 -0.23190413926E+03 -0.36802373906E+02  0.40955057231E+03  0.47208646134E+03  0.10566000000E+00 0. -1.
         -4    1    3    3    0  502  0.48016682444E+03  0.78635425163E+03  0.78425081156E+03  0.12099431903E+04  0.00000000000E+00 0. -1.
        -13    1    1    2    0    0 -0.24826268518E+03 -0.74955187773E+03  0.86093745374E+03  0.11681933439E+04  0.10566000000E+00 0.  1.
<mgrwt>
<rscale>  1 0.10705851E+04</rscale>
<asrwt>0</asrwt>
<pdfrwt beam="1">  1       21 0.37730475E+00 0.11849312E+04</pdfrwt>
<pdfrwt beam="2">  1       -4 0.61191090E-01 0.11849312E+04</pdfrwt>
<totfact> 0.82782418E-01</totfact>
</mgrwt>
</event>
<event>
 6    2  0.2379986E-005  0.7069660E+03  0.7818608E-02  0.1041434E+00
         -4   -1    0    0    0  501 -0.00000000000E+00  0.00000000000E+00  0.50438042097E+03  0.50438042097E+03  0.00000000000E+00 0. -1.
         21   -1    0    0  501  502  0.00000000000E+00 -0.00000000000E+00 -0.30667294164E+03  0.30667294164E+03  0.00000000000E+00 0. -1.
   -9000010    2    1    2    0  502  0.33080630960E+02 -0.70129443856E+02  0.19542652390E+03  0.73347964952E+03  0.70270079193E+03 0.  0.
         13    1    3    3    0    0  0.21791632928E+03 -0.32354711962E+03  0.14294573422E+03  0.41545608586E+03  0.10566000000E+00 0. -1.
         -4    1    3    3    0  502 -0.18483569832E+03  0.25341767576E+03  0.52480789684E+02  0.31802356367E+03  0.00000000000E+00 0. -1.
        -13    1    1    2    0    0 -0.33080630960E+02  0.70129443856E+02  0.22809554216E+01  0.77573713086E+02  0.10566000000E+00 0.  1.
<mgrwt>
<rscale>  1 0.40684654E+03</rscale>
<asrwt>0</asrwt>
<pdfrwt beam="2">  1       21 0.47180452E-01 0.70696596E+03</pdfrwt>
<pdfrwt beam="1">  1       -4 0.77596988E-01 0.70696596E+03</pdfrwt>
<totfact> 0.26199105E+02</totfact>
</mgrwt>
</event>
<event>
 6    2  0.2379986E-005  0.1018729E+04  0.7818608E-02  0.9689782E-01
         -4   -1    0    0    0  501 -0.00000000000E+00  0.00000000000E+00  0.10360582007E+04  0.10360582007E+04  0.00000000000E+00 0. -1.
         21   -1    0    0  501  502  0.00000000000E+00 -0.00000000000E+00 -0.73063254077E+03  0.73063254077E+03  0.00000000000E+00 0. -1.
   -9000010    2    1    2    0  502  0.24881890891E+03 -0.89782002453E+01 -0.34074994095E+03  0.10742065353E+04  0.98783485494E+03 0.  0.
         13    1    3    3    0    0 -0.36793463058E+03 -0.12586545966E+03 -0.16425258611E+03  0.42213378154E+03  0.10566000000E+00 0. -1.
         -4    1    3    3    0  502  0.61675353948E+03  0.11688725941E+03 -0.17649735484E+03  0.65207275372E+03  0.00000000000E+00 0. -1.
        -13    1    1    2    0    0 -0.24881890891E+03  0.89782002453E+01  0.64617560083E+03  0.69248420616E+03  0.10566000000E+00 0.  1.
<mgrwt>
<rscale>  1 0.71628450E+03</rscale>
<asrwt>0</asrwt>
<pdfrwt beam="2">  1       21 0.11240501E+00 0.10187292E+04</pdfrwt>
<pdfrwt beam="1">  1       -4 0.15939357E+00 0.10187292E+04</pdfrwt>
<totfact> 0.57330993E+00</totfact>
</mgrwt>
</event>
<event>
 6    2  0.2379986E-005  0.9984516E+03  0.7818608E-02  0.1001545E+00
         21   -1    0    0  501  502  0.00000000000E+00  0.00000000000E+00  0.22084966534E+03  0.22084966534E+03  0.00000000000E+00 0. -1.
         -4   -1    0    0    0  501 -0.00000000000E+00 -0.00000000000E+00 -0.13569843939E+04  0.13569843939E+04  0.00000000000E+00 0. -1.
   -9000010    2    1    2    0  502  0.41572678342E+02 -0.81830813891E+02 -0.10771657243E+04  0.14687381183E+04  0.99422386466E+03 0.  0.
         13    1    3    3    0    0  0.15400632440E+03 -0.46399096332E+03 -0.91741017995E+03  0.10395417315E+04  0.10566000000E+00 0. -1.
         -4    1    3    3    0  502 -0.11243364606E+03  0.38216014942E+03 -0.15975554430E+03  0.42919638688E+03  0.00000000000E+00 0. -1.
        -13    1    1    2    0    0 -0.41572678342E+02  0.81830813891E+02 -0.58969004293E+02  0.10909594089E+03  0.10566000000E+00 0.  1.
<mgrwt>
<rscale>  1 0.54977991E+03</rscale>
<asrwt>0</asrwt>
<pdfrwt beam="1">  1       21 0.33976871E-01 0.99845163E+03</pdfrwt>
<pdfrwt beam="2">  1       -4 0.20876683E+00 0.99845163E+03</pdfrwt>
<totfact> 0.39048127E+01</totfact>
</mgrwt>
</event>
<event>
 6    2  0.2379986E-005  0.9897837E+03  0.7818608E-02  0.1027871E+00
         21   -1    0    0  501  502  0.00000000000E+00  0.00000000000E+00  0.11213721461E+04  0.11213721461E+04  0.00000000000E+00 0. -1.
         -4   -1    0    0    0  501 -0.00000000000E+00 -0.00000000000E+00 -0.26721265065E+03  0.26721265065E+03  0.00000000000E+00 0. -1.
   -9000010    2    1    2    0  502 -0.16425333502E+02 -0.38765651370E+02  0.89167028241E+03  0.13321965212E+04  0.98888781534E+03 0.  0.
         13    1    3    3    0    0  0.38337151244E+03 -0.60951359964E+01  0.84555412758E+03  0.92842482790E+03  0.10566000000E+00 0. -1.
         -4    1    3    3    0  502 -0.39979684594E+03 -0.32670515374E+02  0.46116154831E+02  0.40377169333E+03  0.00000000000E+00 0. -1.
        -13    1    1    2    0    0  0.16425333502E+02  0.38765651370E+02 -0.37510786999E+02  0.56388275485E+02  0.10566000000E+00 0.  1.
<mgrwt>
<rscale>  1 0.44950124E+03</rscale>
<asrwt>0</asrwt>
<pdfrwt beam="1">  1       21 0.17251879E+00 0.98978365E+03</pdfrwt>
<pdfrwt beam="2">  1       -4 0.41109639E-01 0.98978365E+03</pdfrwt>
<totfact> 0.42107478E+01</totfact>
</mgrwt>
</event>
<event>
 6    2  0.2379986E-005  0.1050332E+04  0.7818608E-02  0.9595729E-01
         21   -1    0    0  501  502  0.00000000000E+00  0.00000000000E+00  0.52797103976E+03  0.52797103976E+03  0.00000000000E+00 0. -1.
         -4   -1    0    0    0  501 -0.00000000000E+00 -0.00000000000E+00 -0.92403581047E+03  0.92403581047E+03  0.00000000000E+00 0. -1.
   -9000010    2    1    2    0  502  0.75371386033E+02  0.30339209091E+03 -0.16487698188E+03  0.10631940270E+04  0.10027310273E+04 0.  0.
         13    1    3    3    0    0  0.40541352038E+03  0.40939231335E+03 -0.34601115353E+03  0.67207582777E+03  0.10566000000E+00 0. -1.
         -4    1    3    3    0  502 -0.33004213435E+03 -0.10600022244E+03  0.18113417165E+03  0.39111819920E+03  0.00000000000E+00 0. -1.
        -13    1    1    2    0    0 -0.75371386033E+02 -0.30339209091E+03 -0.23118778883E+03  0.38881282325E+03  0.10566000000E+00 0.  1.
<mgrwt>
<rscale>  1 0.77579519E+03</rscale>
<asrwt>0</asrwt>
<pdfrwt beam="1">  1       21 0.81226315E-01 0.10503319E+04</pdfrwt>
<pdfrwt beam="2">  1       -4 0.14215935E+00 0.10503319E+04</pdfrwt>
<totfact> 0.17255410E+01</totfact>
</mgrwt>
</event>
<event>
 6    2  0.2379986E-005  0.1061988E+04  0.7818608E-02  0.9581189E-01
         21   -1    0    0  501  502  0.00000000000E+00  0.00000000000E+00  0.10681650606E+04  0.10681650606E+04  0.00000000000E+00 0. -1.
         -4   -1    0    0    0  501 -0.00000000000E+00 -0.00000000000E+00 -0.44877984664E+03  0.44877984664E+03  0.00000000000E+00 0. -1.
   -9000010    2    1    2    0  502  0.18942365126E+03  0.25532019911E+03  0.42214181515E+03  0.11428129877E+04  0.10132857884E+04 0.  0.
         13    1    3    3    0    0  0.59562302393E+03  0.90224702904E+02  0.35499125517E+03  0.69923249786E+03  0.10566000000E+00 0. -1.
         -4    1    3    3    0  502 -0.40619937267E+03  0.16509549621E+03  0.67150559984E+02  0.44358048980E+03  0.00000000000E+00 0. -1.
        -13    1    1    2    0    0 -0.18942365126E+03 -0.25532019911E+03  0.19724339885E+03  0.37413191963E+03  0.10566000000E+00 0.  1.
<mgrwt>
<rscale>  1 0.78553819E+03</rscale>
<asrwt>0</asrwt>
<pdfrwt beam="1">  1       21 0.16433309E+00 0.10619877E+04</pdfrwt>
<pdfrwt beam="2">  1       -4 0.69043054E-01 0.10619877E+04</pdfrwt>
<totfact> 0.15901800E+01</totfact>
</mgrwt>
</event>
<event>
 6    2  0.2379986E-005  0.1053131E+04  0.7818608E-02  0.9613291E-01
         21   -1    0    0  501  502  0.00000000000E+00  0.00000000000E+00  0.19709998872E+04  0.19709998872E+04  0.00000000000E+00 0. -1.
         -4   -1    0    0    0  501 -0.00000000000E+00 -0.00000000000E+00 -0.23841437325E+03  0.23841437325E+03  0.00000000000E+00 0. -1.
   -9000010    2    1    2    0  502  0.21365692037E+03 -0.19909314947E+03  0.15156762018E+04  0.18456327015E+04  0.10118292140E+04 0.  0.
         13    1    3    3    0    0  0.24818912168E+03  0.17537021819E+03  0.14273557007E+04  0.14593480945E+04  0.10566000000E+00 0. -1.
         -4    1    3    3    0  502 -0.34532201309E+02 -0.37446336766E+03  0.88320501124E+02  0.38628460695E+03  0.00000000000E+00 0. -1.
        -13    1    1    2    0    0 -0.21365692037E+03  0.19909314947E+03  0.21690931213E+03  0.36378155897E+03  0.10566000000E+00 0.  1.
<mgrwt>
<rscale>  1 0.76422723E+03</rscale>
<asrwt>0</asrwt>
<pdfrwt beam="1">  1       21 0.30323074E+00 0.10531314E+04</pdfrwt>
<pdfrwt beam="2">  1       -4 0.36679136E-01 0.10531314E+04</pdfrwt>
<totfact> 0.72876512E+00</totfact>
</mgrwt>
</event>
<event>
 6    2  0.2379986E-005  0.1031268E+04  0.7818608E-02  0.9636284E-01
         21   -1    0    0  501  502  0.00000000000E+00  0.00000000000E+00  0.85525162390E+03  0.85525162390E+03  0.00000000000E+00 0. -1.
         -4   -1    0    0    0  501 -0.00000000000E+00 -0.00000000000E+00 -0.87036423603E+03  0.87036423603E+03  0.00000000000E+00 0. -1.
   -9000010    2    1    2    0  502  0.22167918450E+03 -0.18318874431E+03  0.49201466302E+03  0.11426254130E+04  0.99036085790E+03 0.  0.
         13    1    3    3    0    0  0.41468042967E+03 -0.26106889128E+03 -0.11294642846E+03  0.50286552040E+03  0.10566000000E+00 0. -1.
         -4    1    3    3    0  502 -0.19300124517E+03  0.77880146971E+02  0.60496109149E+03  0.63975989257E+03  0.00000000000E+00 0. -1.
        -13    1    1    2    0    0 -0.22167918450E+03  0.18318874431E+03 -0.50712727515E+03  0.58299044696E+03  0.10566000000E+00 0.  1.
<mgrwt>
<rscale>  1 0.74940540E+03</rscale>
<asrwt>0</asrwt>
<pdfrwt beam="1">  1       21 0.13157717E+00 0.10312683E+04</pdfrwt>
<pdfrwt beam="2">  1       -4 0.13390219E+00 0.10312683E+04</pdfrwt>
<totfact> 0.60431537E+00</totfact>
</mgrwt>
</event>
<event>
 6    2  0.2379986E-005  0.9508347E+03  0.7818608E-02  0.1020730E+00
         -4   -1    0    0    0  501 -0.00000000000E+00  0.00000000000E+00  0.99276658971E+03  0.99276658971E+03  0.00000000000E+00 0. -1.
         21   -1    0    0  501  502  0.00000000000E+00 -0.00000000000E+00 -0.27021167755E+03  0.27021167755E+03  0.00000000000E+00 0. -1.
   -9000010    2    1    2    0  502  0.56347270144E+02 -0.16948936487E+02  0.59276132511E+03  0.11204697843E+04  0.94901225902E+03 0.  0.
         13    1    3    3    0    0  0.16404363646E+03  0.17538429224E+03 -0.19065907808E+03  0.30662821110E+03  0.10566000000E+00 0. -1.
         -4    1    3    3    0  502 -0.10769636631E+03 -0.19233322873E+03  0.78342040319E+03  0.81384157324E+03  0.00000000000E+00 0. -1.
        -13    1    1    2    0    0 -0.56347270144E+02  0.16948936487E+02  0.12979358705E+03  0.14250848292E+03  0.10566000000E+00 0.  1.
<mgrwt>
<rscale>  1 0.47424114E+03</rscale>
<asrwt>0</asrwt>
<pdfrwt beam="2">  1       21 0.41571028E-01 0.95083466E+03</pdfrwt>
<pdfrwt beam="1">  1       -4 0.15273332E+00 0.95083466E+03</pdfrwt>
<totfact> 0.63651021E+01</totfact>
</mgrwt>
</event>
<event>
 6    2  0.2379986E-005  0.1110578E+04  0.7818608E-02  0.9421889E-01
         -4   -1    0    0    0  501 -0.00000000000E+00  0.00000000000E+00  0.25262499754E+03  0.25262499754E+03  0.00000000000E+00 0. -1.
         21   -1    0    0  501  502  0.00000000000E+00 -0.00000000000E+00 -0.25433405689E+04  0.25433405689E+04  0.00000000000E+00 0.  1.
   -9000010    2    1    2    0  502 -0.22846293248E+03  0.42817942447E+03 -0.17122615272E+04  0.20408880715E+04  0.99892524828E+03 0.  0.
         13    1    3    3    0    0 -0.93932892152E+02  0.74253836316E+03 -0.98357937929E+03  0.12359672389E+04  0.10566000000E+00 0. -1.
         -4    1    3    3    0  502 -0.13453004033E+03 -0.31435893869E+03 -0.72868214790E+03  0.80492083260E+03  0.00000000000E+00 0. -1.
        -13    1    1    2    0    0  0.22846293248E+03 -0.42817942447E+03 -0.57845404421E+03  0.75507749502E+03  0.10566000000E+00 0.  1.
<mgrwt>
<rscale>  1 0.90295977E+03</rscale>
<asrwt>0</asrwt>
<pdfrwt beam="2">  1       21 0.39128315E+00 0.11105785E+04</pdfrwt>
<pdfrwt beam="1">  1       -4 0.38865386E-01 0.11105785E+04</pdfrwt>
<totfact> 0.17738953E+00</totfact>
</mgrwt>
</event>
<event>
 6    2  0.2379986E-005  0.1053806E+04  0.7818608E-02  0.9510917E-01
         -4   -1    0    0    0  501 -0.00000000000E+00  0.00000000000E+00  0.11267732587E+04  0.11267732587E+04  0.00000000000E+00 0. -1.
         21   -1    0    0  501  502  0.00000000000E+00 -0.00000000000E+00 -0.76516210258E+03  0.76516210258E+03  0.00000000000E+00 0.  1.
   -9000010    2    1    2    0  502 -0.26911533139E+03  0.31601009523E+03 -0.31348504180E+03  0.10994454058E+04  0.96861854572E+03 0.  0.
         13    1    3    3    0    0 -0.22951213638E+03  0.34568449847E+03 -0.64353316286E+03  0.76570786603E+03  0.10566000000E+00 0. -1.
         -4    1    3    3    0  502 -0.39603195017E+02 -0.29674403241E+02  0.33004812106E+03  0.33373753981E+03  0.00000000000E+00 0. -1.
        -13    1    1    2    0    0  0.26911533139E+03 -0.31601009523E+03  0.67509619796E+03  0.79248995549E+03  0.10566000000E+00 0.  1.
<mgrwt>
<rscale>  1 0.83483685E+03</rscale>
<asrwt>0</asrwt>
<pdfrwt beam="2">  1       21 0.11771725E+00 0.10538061E+04</pdfrwt>
<pdfrwt beam="1">  1       -4 0.17334973E+00 0.10538061E+04</pdfrwt>
<totfact> 0.40114201E+00</totfact>
</mgrwt>
</event>
<event>
 6    2  0.2379986E-005  0.1025396E+04  0.7818608E-02  0.9708043E-01
         21   -1    0    0  501  502  0.00000000000E+00  0.00000000000E+00  0.86563833019E+03  0.86563833019E+03  0.00000000000E+00 0. -1.
         -4   -1    0    0    0  501 -0.00000000000E+00 -0.00000000000E+00 -0.55313784073E+03  0.55313784073E+03  0.00000000000E+00 0. -1.
   -9000010    2    1    2    0  502  0.19307058955E+03  0.12434916527E+03  0.48231058689E+03  0.11331637626E+04  0.99934860941E+03 0.  0.
         13    1    3    3    0    0  0.40800771233E+03 -0.11345753776E+03 -0.12917755341E+03  0.44275247901E+03  0.10566000000E+00 0. -1.
         -4    1    3    3    0  502 -0.21493712278E+03  0.23780670303E+03  0.61148814029E+03  0.69041128357E+03  0.00000000000E+00 0. -1.
        -13    1    1    2    0    0 -0.19307058955E+03 -0.12434916527E+03 -0.16981009742E+03  0.28561240835E+03  0.10566000000E+00 0.  1.
<mgrwt>
<rscale>  1 0.70539946E+03</rscale>
<asrwt>0</asrwt>
<pdfrwt beam="1">  1       21 0.13317513E+00 0.10253958E+04</pdfrwt>
<pdfrwt beam="2">  1       -4 0.85098130E-01 0.10253958E+04</pdfrwt>
<totfact> 0.17783621E+01</totfact>
</mgrwt>
</event>
<event>
 6    2  0.2379986E-005  0.1040389E+04  0.7818608E-02  0.9920858E-01
         -4   -1    0    0    0  501 -0.00000000000E+00  0.00000000000E+00  0.10661733929E+04  0.10661733929E+04  0.00000000000E+00 0. -1.
         21   -1    0    0  501  502  0.00000000000E+00 -0.00000000000E+00 -0.32197546344E+03  0.32197546344E+03  0.00000000000E+00 0. -1.
   -9000010    2    1    2    0  502  0.97076505006E+02 -0.50699656026E+02  0.58104770665E+03  0.11916487054E+04  0.10346090550E+04 0.  0.
         13    1    3    3    0    0  0.73657452879E+02  0.36106161450E+03  0.67465462027E+03  0.76873257876E+03  0.10566000000E+00 0. -1.
         -4    1    3    3    0  502  0.23419052126E+02 -0.41176127053E+03 -0.93606913623E+02  0.42291612666E+03  0.00000000000E+00 0. -1.
        -13    1    1    2    0    0 -0.97076505006E+02  0.50699656026E+02  0.16315022278E+03  0.19650015089E+03  0.10566000000E+00 0.  1.
<mgrwt>
<rscale>  1 0.59260987E+03</rscale>
<asrwt>0</asrwt>
<pdfrwt beam="2">  1       21 0.49534687E-01 0.10403894E+04</pdfrwt>
<pdfrwt beam="1">  1       -4 0.16402667E+00 0.10403894E+04</pdfrwt>
<totfact> 0.35761762E+01</totfact>
</mgrwt>
</event>
<event>
 6    2  0.2379986E-005  0.1157174E+04  0.7818608E-02  0.9328645E-01
         -4   -1    0    0    0  501 -0.00000000000E+00  0.00000000000E+00  0.16813305715E+04  0.16813305715E+04  0.00000000000E+00 0. -1.
         21   -1    0    0  501  502  0.00000000000E+00 -0.00000000000E+00 -0.47090667220E+03  0.47090667220E+03  0.00000000000E+00 0. -1.
   -9000010    2    1    2    0  502 -0.43604671454E+03 -0.41191405763E+03  0.63002134229E+03  0.13175654115E+04  0.98956646755E+03 0.  0.
         13    1    3    3    0    0 -0.39332585362E+03 -0.72831251990E+03  0.53049553282E+03  0.98314285599E+03  0.10566000000E+00 0. -1.
         -4    1    3    3    0  502 -0.42720860921E+02  0.31639846227E+03  0.99525809464E+02  0.33442255551E+03  0.00000000000E+00 0. -1.
        -13    1    1    2    0    0  0.43604671454E+03  0.41191405763E+03  0.58040255707E+03  0.83467183225E+03  0.10566000000E+00 0.  1.
<mgrwt>
<rscale>  1 0.98187941E+03</rscale>
<asrwt>0</asrwt>
<pdfrwt beam="2">  1       21 0.72447181E-01 0.11571740E+04</pdfrwt>
<pdfrwt beam="1">  1       -4 0.25866624E+00 0.11571740E+04</pdfrwt>
<totfact> 0.36000245E+00</totfact>
</mgrwt>
</event>
<event>
 6    2  0.2379986E-005  0.1027243E+04  0.7818608E-02  0.9556244E-01
         -4   -1    0    0    0  501 -0.00000000000E+00  0.00000000000E+00  0.61359097981E+03  0.61359097981E+03  0.00000000000E+00 0. -1.
         21   -1    0    0  501  502  0.00000000000E+00 -0.00000000000E+00 -0.81149680341E+03  0.81149680341E+03  0.00000000000E+00 0. -1.
   -9000010    2    1    2    0  502 -0.16212049212E+03 -0.34680559287E+03 -0.11787177905E+03  0.10339834076E+04  0.95324223448E+03 0.  0.
         13    1    3    3    0    0 -0.34942163871E+02  0.77454337000E+02  0.36732842808E+03  0.37702826734E+03  0.10566000000E+00 0. -1.
         -4    1    3    3    0  502 -0.12717832825E+03 -0.42425992987E+03 -0.48520020713E+03  0.65695514022E+03  0.00000000000E+00 0. -1.
        -13    1    1    2    0    0  0.16212049212E+03  0.34680559287E+03 -0.80034044545E+02  0.39110437566E+03  0.10566000000E+00 0.  1.
<mgrwt>
<rscale>  1 0.80261228E+03</rscale>
<asrwt>0</asrwt>
<pdfrwt beam="2">  1       21 0.12484566E+00 0.10272429E+04</pdfrwt>
<pdfrwt beam="1">  1       -4 0.94398612E-01 0.10272429E+04</pdfrwt>
<totfact> 0.16534010E+01</totfact>
</mgrwt>
</event>
<event>
 6    2  0.2379986E-005  0.8955623E+03  0.7818608E-02  0.9957479E-01
         21   -1    0    0  501  502  0.00000000000E+00  0.00000000000E+00  0.15453134146E+04  0.15453134146E+04  0.00000000000E+00 0. -1.
         -4   -1    0    0    0  501 -0.00000000000E+00 -0.00000000000E+00 -0.19345804596E+03  0.19345804596E+03  0.00000000000E+00 0. -1.
   -9000010    2    1    2    0  502  0.15069870588E+03 -0.25064314493E+02  0.12976267790E+04  0.15766632531E+04  0.88243608063E+03 0.  0.
         13    1    3    3    0    0  0.29586647379E+03  0.31434148010E+03  0.10413458263E+04  0.11272748900E+04  0.10566000000E+00 0. -1.
         -4    1    3    3    0  502 -0.14516776790E+03 -0.33940579459E+03  0.25628095270E+03  0.44938836317E+03  0.00000000000E+00 0. -1.
        -13    1    1    2    0    0 -0.15069870588E+03  0.25064314493E+02  0.54228589628E+02  0.16210820742E+03  0.10566000000E+00 0.  1.
<mgrwt>
<rscale>  1 0.57554669E+03</rscale>
<asrwt>0</asrwt>
<pdfrwt beam="1">  1       21 0.23774052E+00 0.89556226E+03</pdfrwt>
<pdfrwt beam="2">  1       -4 0.29762777E-01 0.89556226E+03</pdfrwt>
<totfact> 0.29128478E+01</totfact>
</mgrwt>
</event>
<event>
 6    2  0.2379986E-005  0.9112045E+03  0.7818608E-02  0.1003885E+00
         -4   -1    0    0    0  501 -0.00000000000E+00  0.00000000000E+00  0.14645492777E+03  0.14645492777E+03  0.00000000000E+00 0. -1.
         21   -1    0    0  501  502  0.00000000000E+00 -0.00000000000E+00 -0.17886222976E+04  0.17886222976E+04  0.00000000000E+00 0. -1.
   -9000010    2    1    2    0  502 -0.94327060471E+01 -0.11181980348E+03 -0.14497600842E+04  0.17123369751E+04  0.90426819582E+03 0.  0.
         13    1    3    3    0    0 -0.33459765825E+03  0.10299570576E+03 -0.19993124350E+03  0.40315781228E+03  0.10566000000E+00 0. -1.
         -4    1    3    3    0  502  0.32516495221E+03 -0.21481550924E+03 -0.12498288407E+04  0.13091791628E+04  0.00000000000E+00 0. -1.
        -13    1    1    2    0    0  0.94327060471E+01  0.11181980348E+03 -0.19240728562E+03  0.22274025033E+03  0.10566000000E+00 0.  1.
<mgrwt>
<rscale>  1 0.53979220E+03</rscale>
<asrwt>0</asrwt>
<pdfrwt beam="2">  1       21 0.27517266E+00 0.91120449E+03</pdfrwt>
<pdfrwt beam="1">  1       -4 0.22531527E-01 0.91120449E+03</pdfrwt>
<totfact> 0.28791993E+01</totfact>
</mgrwt>
</event>
<event>
 6    2  0.2379986E-005  0.1063801E+04  0.7818608E-02  0.9531969E-01
         -4   -1    0    0    0  501 -0.00000000000E+00  0.00000000000E+00  0.86135884702E+03  0.86135884702E+03  0.00000000000E+00 0. -1.
         21   -1    0    0  501  502  0.00000000000E+00 -0.00000000000E+00 -0.61693139471E+03  0.61693139471E+03  0.00000000000E+00 0. -1.
   -9000010    2    1    2    0  502 -0.12261225591E+03 -0.35434456913E+03  0.73868189380E+02  0.10663626846E+04  0.99552952080E+03 0.  0.
         13    1    3    3    0    0 -0.26863451898E+03 -0.84757480104E+02  0.48057084068E+03  0.55704279845E+03  0.10566000000E+00 0. -1.
         -4    1    3    3    0  502  0.14602226307E+03 -0.26958708902E+03 -0.40670265130E+03  0.50931988618E+03  0.00000000000E+00 0. -1.
        -13    1    1    2    0    0  0.12261225591E+03  0.35434456913E+03  0.17055926292E+03  0.41192755710E+03  0.10566000000E+00 0.  1.
<mgrwt>
<rscale>  1 0.81967394E+03</rscale>
<asrwt>0</asrwt>
<pdfrwt beam="2">  1       21 0.94912522E-01 0.10638011E+04</pdfrwt>
<pdfrwt beam="1">  1       -4 0.13251675E+00 0.10638011E+04</pdfrwt>
<totfact> 0.14239642E+01</totfact>
</mgrwt>
</event>
<event>
 6    2  0.2379986E-005  0.1027810E+04  0.7818608E-02  0.9699527E-01
         -4   -1    0    0    0  501 -0.00000000000E+00  0.00000000000E+00  0.71536021211E+03  0.71536021211E+03  0.00000000000E+00 0. -1.
         21   -1    0    0  501  502  0.00000000000E+00 -0.00000000000E+00 -0.58357727513E+03  0.58357727513E+03  0.00000000000E+00 0. -1.
   -9000010    2    1    2    0  502 -0.22277977186E+03 -0.73641184033E+02 -0.40539548194E+01  0.10278184671E+04  0.10006700336E+04 0.  0.
         13    1    3    3    0    0 -0.10589537531E+03  0.30669474008E+02  0.49376908655E+03  0.50592723701E+03  0.10566000000E+00 0. -1.
         -4    1    3    3    0  502 -0.11688439656E+03 -0.10431065804E+03 -0.49782304137E+03  0.52189123010E+03  0.00000000000E+00 0. -1.
        -13    1    1    2    0    0  0.22277977186E+03  0.73641184033E+02  0.13583689179E+03  0.27111902013E+03  0.10566000000E+00 0.  1.
<mgrwt>
<rscale>  1 0.71044956E+03</rscale>
<asrwt>0</asrwt>
<pdfrwt beam="2">  1       21 0.89781118E-01 0.10278105E+04</pdfrwt>
<pdfrwt beam="1">  1       -4 0.11005542E+00 0.10278105E+04</pdfrwt>
<totfact> 0.26124430E+01</totfact>
</mgrwt>
</event>
<event>
 6    2  0.2379986E-005  0.1064139E+04  0.7818608E-02  0.9689679E-01
         -4   -1    0    0    0  501 -0.00000000000E+00  0.00000000000E+00  0.99016112832E+03  0.99016112832E+03  0.00000000000E+00 0. -1.
         21   -1    0    0  501  502  0.00000000000E+00 -0.00000000000E+00 -0.42590152913E+03  0.42590152913E+03  0.00000000000E+00 0.  1.
   -9000010    2    1    2    0  502  0.17289747282E+03 -0.13363710193E+03  0.54795566245E+03  0.11969320100E+04  0.10414597532E+04 0.  0.
         13    1    3    3    0    0 -0.24485583209E+03 -0.73954651466E+02  0.70243147480E+03  0.74755177542E+03  0.10566000000E+00 0. -1.
         -4    1    3    3    0  502  0.41775330492E+03 -0.59682450461E+02 -0.15447581235E+03  0.44938023461E+03  0.00000000000E+00 0. -1.
        -13    1    1    2    0    0 -0.17289747282E+03  0.13363710193E+03  0.16303936743E+02  0.21913064742E+03  0.10566000000E+00 0.  1.
<mgrwt>
<rscale>  1 0.71634644E+03</rscale>
<asrwt>0</asrwt>
<pdfrwt beam="2">  1       21 0.65523313E-01 0.10641385E+04</pdfrwt>
<pdfrwt beam="1">  1       -4 0.15233248E+00 0.10641385E+04</pdfrwt>
<totfact> 0.23547418E+01</totfact>
</mgrwt>
</event>
<event>
 6    2  0.2379986E-005  0.1023367E+04  0.7818608E-02  0.9738397E-01
         21   -1    0    0  501  502  0.00000000000E+00  0.00000000000E+00  0.66266800480E+03  0.66266800480E+03  0.00000000000E+00 0. -1.
         -4   -1    0    0    0  501 -0.00000000000E+00 -0.00000000000E+00 -0.60589565194E+03  0.60589565194E+03  0.00000000000E+00 0. -1.
   -9000010    2    1    2    0  502  0.12419466611E+03  0.16780192919E+03  0.15979015795E+03  0.10357665737E+04  0.10018471431E+04 0.  0.
         13    1    3    3    0    0 -0.15886766953E+03 -0.10585795826E+03  0.48747606433E+03  0.52352437213E+03  0.10566000000E+00 0. -1.
         -4    1    3    3    0  502  0.28306233564E+03  0.27365988745E+03 -0.32768590639E+03  0.51224220161E+03  0.00000000000E+00 0. -1.
        -13    1    1    2    0    0 -0.12419466611E+03 -0.16780192919E+03 -0.10301780508E+03  0.23279708301E+03  0.10566000000E+00 0.  1.
<mgrwt>
<rscale>  1 0.68775956E+03</rscale>
<asrwt>0</asrwt>
<pdfrwt beam="1">  1       21 0.10194892E+00 0.10233667E+04</pdfrwt>
<pdfrwt beam="2">  1       -4 0.93214715E-01 0.10233667E+04</pdfrwt>
<totfact> 0.28603719E+01</totfact>
</mgrwt>
</event>
<event>
 6    2  0.2379986E-005  0.9765793E+03  0.7818608E-02  0.9967302E-01
         21   -1    0    0  501  502  0.00000000000E+00  0.00000000000E+00  0.58333271183E+03  0.58333271183E+03  0.00000000000E+00 0. -1.
         -4   -1    0    0    0  501 -0.00000000000E+00 -0.00000000000E+00 -0.54487923329E+03  0.54487923329E+03  0.00000000000E+00 0. -1.
   -9000010    2    1    2    0  502  0.10038201464E+03 -0.54443859587E+02  0.12551738924E+03  0.98461243809E+03  0.96987955723E+03 0.  0.
         13    1    3    3    0    0 -0.19412128280E+03 -0.42179463120E+03 -0.79512315285E+02  0.47107961407E+03  0.10566000000E+00 0. -1.
         -4    1    3    3    0  502  0.29450329745E+03  0.36735077161E+03  0.20502970453E+03  0.51353282402E+03  0.00000000000E+00 0. -1.
        -13    1    1    2    0    0 -0.10038201464E+03  0.54443859587E+02 -0.87063910696E+02  0.14359950703E+03  0.10566000000E+00 0.  1.
<mgrwt>
<rscale>  1 0.57107508E+03</rscale>
<asrwt>0</asrwt>
<pdfrwt beam="1">  1       21 0.89743494E-01 0.97657925E+03</pdfrwt>
<pdfrwt beam="2">  1       -4 0.83827574E-01 0.97657925E+03</pdfrwt>
<totfact> 0.50343985E+01</totfact>
</mgrwt>
</event>
<event>
 6    2  0.2379986E-005  0.1000942E+04  0.7818608E-02  0.1026847E+00
         -4   -1    0    0    0  501 -0.00000000000E+00  0.00000000000E+00  0.88225198160E+03  0.88225198160E+03  0.00000000000E+00 0. -1.
         21   -1    0    0  501  502  0.00000000000E+00 -0.00000000000E+00 -0.36068948061E+03  0.36068948061E+03  0.00000000000E+00 0. -1.
   -9000010    2    1    2    0  502  0.27908025249E+02  0.31348981296E+02  0.34079884262E+03  0.10573690293E+04  0.10000618963E+04 0.  0.
         13    1    3    3    0    0  0.11687634200E+03 -0.69979279724E+02 -0.33846501339E+03  0.36485031912E+03  0.10566000000E+00 0. -1.
         -4    1    3    3    0  502 -0.88968316751E+02  0.10132826102E+03  0.67926385601E+03  0.69251871018E+03  0.00000000000E+00 0. -1.
        -13    1    1    2    0    0 -0.27908025249E+02 -0.31348981296E+02  0.18076365837E+03  0.18557243290E+03  0.10566000000E+00 0.  1.
<mgrwt>
<rscale>  1 0.45294559E+03</rscale>
<asrwt>0</asrwt>
<pdfrwt beam="2">  1       21 0.55490689E-01 0.10009423E+04</pdfrwt>
<pdfrwt beam="1">  1       -4 0.13573107E+00 0.10009423E+04</pdfrwt>
<totfact> 0.46598549E+01</totfact>
</mgrwt>
</event>
<event>
 6    2  0.2379986E-005  0.1025597E+04  0.7818608E-02  0.9894644E-01
         -4   -1    0    0    0  501 -0.00000000000E+00  0.00000000000E+00  0.13385676429E+04  0.13385676429E+04  0.00000000000E+00 0. -1.
         21   -1    0    0  501  502  0.00000000000E+00 -0.00000000000E+00 -0.26946474073E+03  0.26946474073E+03  0.00000000000E+00 0. -1.
   -9000010    2    1    2    0  502 -0.20795531163E+02 -0.12261751958E+03  0.76500379914E+03  0.12794843874E+04  0.10180284743E+04 0.  0.
         13    1    3    3    0    0  0.46912738558E+03  0.55272073085E+02  0.52324690537E+03  0.70492754316E+03  0.10566000000E+00 0. -1.
         -4    1    3    3    0  502 -0.48992291674E+03 -0.17788959267E+03  0.24175689377E+03  0.57455684420E+03  0.00000000000E+00 0. -1.
        -13    1    1    2    0    0  0.20795531163E+02  0.12261751958E+03  0.30409910306E+03  0.32854799630E+03  0.10566000000E+00 0.  1.
<mgrwt>
<rscale>  1 0.60521571E+03</rscale>
<asrwt>0</asrwt>
<pdfrwt beam="2">  1       21 0.41456115E-01 0.10255971E+04</pdfrwt>
<pdfrwt beam="1">  1       -4 0.20593348E+00 0.10255971E+04</pdfrwt>
<totfact> 0.26891426E+01</totfact>
</mgrwt>
</event>
<event>
 6    2  0.2379986E-005  0.9988701E+03  0.7818608E-02  0.1010039E+00
         21   -1    0    0  501  502  0.00000000000E+00  0.00000000000E+00  0.17477956934E+04  0.17477956934E+04  0.00000000000E+00 0. -1.
         -4   -1    0    0    0  501 -0.00000000000E+00 -0.00000000000E+00 -0.17774651066E+03  0.17774651066E+03  0.00000000000E+00 0. -1.
   -9000010    2    1    2    0  502  0.65572522333E+02 -0.25505918904E+02  0.15628871594E+04  0.18548201189E+04  0.99638902689E+03 0.  0.
         13    1    3    3    0    0  0.47547121527E+03 -0.22419405470E+03  0.10086423629E+04  0.11374072613E+04  0.10566000000E+00 0. -1.
         -4    1    3    3    0  502 -0.40989869294E+03  0.19868813580E+03  0.55424479651E+03  0.71741285760E+03  0.00000000000E+00 0. -1.
        -13    1    1    2    0    0 -0.65572522333E+02  0.25505918904E+02  0.71620233373E+01  0.70722085140E+02  0.10566000000E+00 0.  1.
<mgrwt>
<rscale>  1 0.51458947E+03</rscale>
<asrwt>0</asrwt>
<pdfrwt beam="1">  1       21 0.26889163E+00 0.99887006E+03</pdfrwt>
<pdfrwt beam="2">  1       -4 0.27345618E-01 0.99887006E+03</pdfrwt>
<totfact> 0.21484536E+01</totfact>
</mgrwt>
</event>
<event>
 6    2  0.2379986E-005  0.1058320E+04  0.7818608E-02  0.9562538E-01
         -4   -1    0    0    0  501 -0.00000000000E+00  0.00000000000E+00  0.55956548097E+03  0.55956548097E+03  0.00000000000E+00 0. -1.
         21   -1    0    0  501  502  0.00000000000E+00 -0.00000000000E+00 -0.12256381288E+04  0.12256381288E+04  0.00000000000E+00 0. -1.
   -9000010    2    1    2    0  502 -0.34094825338E+03  0.33116676063E+02 -0.88421813253E+03  0.13790879989E+04  0.10013488788E+04 0.  0.
         13    1    3    3    0    0 -0.64442802796E+03  0.94991292333E+01 -0.28033997202E+03  0.70282873288E+03  0.10566000000E+00 0. -1.
         -4    1    3    3    0  502  0.30347977458E+03  0.23617546830E+02 -0.60387816051E+03  0.67625926600E+03  0.00000000000E+00 0. -1.
        -13    1    1    2    0    0  0.34094825338E+03 -0.33116676063E+02  0.21814548474E+03  0.40611561087E+03  0.10566000000E+00 0.  1.
<mgrwt>
<rscale>  1 0.79826071E+03</rscale>
<asrwt>0</asrwt>
<pdfrwt beam="2">  1       21 0.18855971E+00 0.10583204E+04</pdfrwt>
<pdfrwt beam="1">  1       -4 0.86086997E-01 0.10583204E+04</pdfrwt>
<totfact> 0.63780818E+00</totfact>
</mgrwt>
</event>
<event>
 6    2  0.2379986E-005  0.1024482E+04  0.7818608E-02  0.9820742E-01
         21   -1    0    0  501  502  0.00000000000E+00  0.00000000000E+00  0.19112552855E+04  0.19112552855E+04  0.00000000000E+00 0. -1.
         -4   -1    0    0    0  501 -0.00000000000E+00 -0.00000000000E+00 -0.18534432720E+03  0.18534432720E+03  0.00000000000E+00 0. -1.
   -9000010    2    1    2    0  502  0.15858068937E+03 -0.19451509475E+01  0.15663164014E+04  0.18716061630E+04  0.10121318794E+04 0.  0.
         13    1    3    3    0    0  0.41707873277E+03  0.24184981821E+03  0.32750450355E+03  0.58284235853E+03  0.10566000000E+00 0. -1.
         -4    1    3    3    0  502 -0.25849804340E+03 -0.24379496916E+03  0.12388118978E+04  0.12887638044E+04  0.00000000000E+00 0. -1.
        -13    1    1    2    0    0 -0.15858068937E+03  0.19451509475E+01  0.15959455692E+03  0.22499344972E+03  0.10566000000E+00 0.  1.
<mgrwt>
<rscale>  1 0.64261209E+03</rscale>
<asrwt>0</asrwt>
<pdfrwt beam="1">  1       21 0.29403926E+00 0.10244816E+04</pdfrwt>
<pdfrwt beam="2">  1       -4 0.28514513E-01 0.10244816E+04</pdfrwt>
<totfact> 0.13747775E+01</totfact>
</mgrwt>
</event>
<event>
 6    2  0.2379986E-005  0.1015750E+04  0.7818608E-02  0.9804919E-01
         21   -1    0    0  501  502  0.00000000000E+00  0.00000000000E+00  0.43772193620E+03  0.43772193620E+03  0.00000000000E+00 0. -1.
         -4   -1    0    0    0  501 -0.00000000000E+00 -0.00000000000E+00 -0.93986109462E+03  0.93986109462E+03  0.00000000000E+00 0. -1.
   -9000010    2    1    2    0  502  0.91582133234E+02  0.14484926917E+03 -0.20749727003E+03  0.10367275608E+04  0.10011894527E+04 0.  0.
         13    1    3    3    0    0  0.31221950747E+03  0.23595427136E+03  0.28855435294E+03  0.48622943636E+03  0.10566000000E+00 0. -1.
         -4    1    3    3    0  502 -0.22063737423E+03 -0.91105002193E+02 -0.49605162297E+03  0.55049812441E+03  0.00000000000E+00 0. -1.
        -13    1    1    2    0    0 -0.91582133234E+02 -0.14484926917E+03 -0.29464188839E+03  0.34085547005E+03  0.10566000000E+00 0.  1.
<mgrwt>
<rscale>  1 0.65099204E+03</rscale>
<asrwt>0</asrwt>
<pdfrwt beam="1">  1       21 0.67341838E-01 0.10157504E+04</pdfrwt>
<pdfrwt beam="2">  1       -4 0.14459401E+00 0.10157504E+04</pdfrwt>
<totfact> 0.25555532E+01</totfact>
</mgrwt>
</event>
<event>
 6    2  0.2379986E-005  0.1009742E+04  0.7818608E-02  0.9851977E-01
         -4   -1    0    0    0  501 -0.00000000000E+00  0.00000000000E+00  0.73179200790E+03  0.73179200790E+03  0.00000000000E+00 0. -1.
         21   -1    0    0  501  502  0.00000000000E+00 -0.00000000000E+00 -0.46323662848E+03  0.46323662848E+03  0.00000000000E+00 0. -1.
   -9000010    2    1    2    0  502 -0.14960405379E+03 -0.70451546131E+00  0.27073329428E+03  0.10454070346E+04  0.99859775788E+03 0.  0.
         13    1    3    3    0    0  0.16822273856E+03 -0.18220184630E+03 -0.28637930714E+03  0.37882650552E+03  0.10566000000E+00 0. -1.
         -4    1    3    3    0  502 -0.31782679236E+03  0.18149733084E+03  0.55711260142E+03  0.66658052904E+03  0.00000000000E+00 0. -1.
        -13    1    1    2    0    0  0.14960405379E+03  0.70451546131E+00 -0.21779148599E+01  0.14962160182E+03  0.10566000000E+00 0.  1.
<mgrwt>
<rscale>  1 0.62646240E+03</rscale>
<asrwt>0</asrwt>
<pdfrwt beam="2">  1       21 0.71267174E-01 0.10097422E+04</pdfrwt>
<pdfrwt beam="1">  1       -4 0.11258339E+00 0.10097422E+04</pdfrwt>
<totfact> 0.42616252E+01</totfact>
</mgrwt>
</event>
<event>
 6    2  0.2379986E-005  0.1087463E+04  0.7818608E-02  0.9485360E-01
         -4   -1    0    0    0  501 -0.00000000000E+00  0.00000000000E+00  0.31491268894E+03  0.31491268894E+03  0.00000000000E+00 0. -1.
         21   -1    0    0  501  502  0.00000000000E+00 -0.00000000000E+00 -0.17881478218E+04  0.17881478218E+04  0.00000000000E+00 0. -1.
   -9000010    2    1    2    0  502  0.38887705991E+03  0.13926487025E+03 -0.10859808656E+04  0.15368574108E+04  0.10059603315E+04 0.  0.
         13    1    3    3    0    0  0.36615998126E+03  0.41115269125E+03 -0.16268850308E+03  0.57409687997E+03  0.10566000000E+00 0. -1.
         -4    1    3    3    0  502  0.22717078647E+02 -0.27188782100E+03 -0.92329236255E+03  0.96276053078E+03  0.00000000000E+00 0. -1.
        -13    1    1    2    0    0 -0.38887705991E+03 -0.13926487025E+03 -0.38725426725E+03  0.56620310002E+03  0.10566000000E+00 0.  1.
<mgrwt>
<rscale>  1 0.85371852E+03</rscale>
<asrwt>0</asrwt>
<pdfrwt beam="2">  1       21 0.27509966E+00 0.10874632E+04</pdfrwt>
<pdfrwt beam="1">  1       -4 0.48448106E-01 0.10874632E+04</pdfrwt>
<totfact> 0.61258202E+00</totfact>
</mgrwt>
</event>
<event>
 6    2  0.2379986E-005  0.1010454E+04  0.7818608E-02  0.9684535E-01
         -4   -1    0    0    0  501 -0.00000000000E+00  0.00000000000E+00  0.18309061078E+04  0.18309061078E+04  0.00000000000E+00 0. -1.
         21   -1    0    0  501  502  0.00000000000E+00 -0.00000000000E+00 -0.28136635189E+03  0.28136635189E+03  0.00000000000E+00 0. -1.
   -9000010    2    1    2    0  502 -0.25898233994E+03  0.19151759799E+02  0.71387880822E+03  0.12371908218E+04  0.97651397041E+03 0.  0.
         13    1    3    3    0    0 -0.31390511730E+03  0.13673550404E+03  0.92669506242E+03  0.98792548839E+03  0.10566000000E+00 0. -1.
         -4    1    3    3    0  502  0.54922777361E+02 -0.11758374424E+03 -0.21281625421E+03  0.24926533340E+03  0.00000000000E+00 0. -1.
        -13    1    1    2    0    0  0.25898233994E+03 -0.19151759799E+02  0.83566094766E+03  0.87508163786E+03  0.10566000000E+00 0.  1.
<mgrwt>
<rscale>  1 0.71945091E+03</rscale>
<asrwt>0</asrwt>
<pdfrwt beam="2">  1       21 0.43287132E-01 0.10104544E+04</pdfrwt>
<pdfrwt beam="1">  1       -4 0.28167786E+00 0.10104544E+04</pdfrwt>
<totfact> 0.82500353E+00</totfact>
</mgrwt>
</event>
<event>
 6    2  0.2379986E-005  0.1034684E+04  0.7818608E-02  0.9675570E-01
         -4   -1    0    0    0  501 -0.00000000000E+00  0.00000000000E+00  0.55784188925E+03  0.55784188925E+03  0.00000000000E+00 0. -1.
         21   -1    0    0  501  502  0.00000000000E+00 -0.00000000000E+00 -0.77990106918E+03  0.77990106918E+03  0.00000000000E+00 0. -1.
   -9000010    2    1    2    0  502  0.19161065234E+02 -0.24854512747E+03 -0.52023438077E+02  0.10359914191E+04  0.10042061320E+04 0.  0.
         13    1    3    3    0    0  0.79167411553E+02  0.16920733961E+03  0.38532108002E+03  0.42821834232E+03  0.10566000000E+00 0. -1.
         -4    1    3    3    0  502 -0.60006346319E+02 -0.41775246708E+03 -0.43734451809E+03  0.60777307678E+03  0.00000000000E+00 0. -1.
        -13    1    1    2    0    0 -0.19161065234E+02  0.24854512747E+03 -0.17003574185E+03  0.30175153932E+03  0.10566000000E+00 0.  1.
<mgrwt>
<rscale>  1 0.72490148E+03</rscale>
<asrwt>0</asrwt>
<pdfrwt beam="2">  1       21 0.11998478E+00 0.10346844E+04</pdfrwt>
<pdfrwt beam="1">  1       -4 0.85821829E-01 0.10346844E+04</pdfrwt>
<totfact> 0.22940749E+01</totfact>
</mgrwt>
</event>
<event>
 6    2  0.2379986E-005  0.1022434E+04  0.7818608E-02  0.9802653E-01
         21   -1    0    0  501  502  0.00000000000E+00  0.00000000000E+00  0.82514700478E+03  0.82514700478E+03  0.00000000000E+00 0. -1.
         -4   -1    0    0    0  501 -0.00000000000E+00 -0.00000000000E+00 -0.43304065176E+03  0.43304065176E+03  0.00000000000E+00 0. -1.
   -9000010    2    1    2    0  502 -0.14081239299E+03  0.93970216856E+02  0.37065167345E+03  0.10875452054E+04  0.10083220612E+04 0.  0.
         13    1    3    3    0    0 -0.53153190060E+03  0.21661343749E+03  0.67288798011E+02  0.57790599249E+03  0.10566000000E+00 0. -1.
         -4    1    3    3    0  502  0.39071950761E+03 -0.12264322063E+03  0.30336287544E+03  0.50963921296E+03  0.00000000000E+00 0. -1.
        -13    1    1    2    0    0  0.14081239299E+03 -0.93970216856E+02  0.21454679566E+02  0.17064245109E+03  0.10566000000E+00 0.  1.
<mgrwt>
<rscale>  1 0.65220380E+03</rscale>
<asrwt>0</asrwt>
<pdfrwt beam="1">  1       21 0.12694569E+00 0.10224343E+04</pdfrwt>
<pdfrwt beam="2">  1       -4 0.66621639E-01 0.10224343E+04</pdfrwt>
<totfact> 0.35233195E+01</totfact>
</mgrwt>
</event>
<event>
 6    2  0.2379986E-005  0.1195351E+04  0.7818608E-02  0.9302434E-01
         21   -1    0    0  501  502  0.00000000000E+00  0.00000000000E+00  0.13694214934E+04  0.13694214934E+04  0.00000000000E+00 0. -1.
         -4   -1    0    0    0  501 -0.00000000000E+00 -0.00000000000E+00 -0.76030304935E+03  0.76030304935E+03  0.00000000000E+00 0. -1.
   -9000010    2    1    2    0  502  0.24059593695E+03  0.54821350222E+03  0.86821004650E+03  0.14773803709E+04  0.10346205230E+04 0.  0.
         13    1    3    3    0    0 -0.17949088378E+02  0.73091486772E+03  0.23251680858E+03  0.76721756437E+03  0.10566000000E+00 0. -1.
         -4    1    3    3    0  502  0.25854502532E+03 -0.18270136551E+03  0.63569323792E+03  0.71016280656E+03  0.00000000000E+00 0. -1.
        -13    1    1    2    0    0 -0.24059593695E+03 -0.54821350222E+03 -0.25909160245E+03  0.65234417182E+03  0.10566000000E+00 0.  1.
<mgrwt>
<rscale>  1 0.10055908E+04</rscale>
<asrwt>0</asrwt>
<pdfrwt beam="1">  1       21 0.21068023E+00 0.11953510E+04</pdfrwt>
<pdfrwt beam="2">  1       -4 0.11696970E+00 0.11953510E+04</pdfrwt>
<totfact> 0.20987665E+00</totfact>
</mgrwt>
</event>
<event>
 6    2  0.2379986E-005  0.1001608E+04  0.7818608E-02  0.9933237E-01
         21   -1    0    0  501  502  0.00000000000E+00  0.00000000000E+00  0.66749341309E+03  0.66749341309E+03  0.00000000000E+00 0. -1.
         -4   -1    0    0    0  501 -0.00000000000E+00 -0.00000000000E+00 -0.49409797687E+03  0.49409797687E+03  0.00000000000E+00 0. -1.
   -9000010    2    1    2    0  502  0.18088165206E+02 -0.11657851644E+03  0.23455827774E+03  0.10287055872E+04  0.99463554498E+03 0.  0.
         13    1    3    3    0    0 -0.36035665637E+02  0.43442678617E+03  0.24725667980E+02  0.43661948143E+03  0.10566000000E+00 0. -1.
         -4    1    3    3    0  502  0.54123830844E+02 -0.55100530262E+03  0.20983260976E+03  0.59208610581E+03  0.00000000000E+00 0. -1.
        -13    1    1    2    0    0 -0.18088165206E+02  0.11657851644E+03 -0.61162841520E+02  0.13288580272E+03  0.10566000000E+00 0.  1.
<mgrwt>
<rscale>  1 0.58677186E+03</rscale>
<asrwt>0</asrwt>
<pdfrwt beam="1">  1       21 0.10269129E+00 0.10016075E+04</pdfrwt>
<pdfrwt beam="2">  1       -4 0.76015074E-01 0.10016075E+04</pdfrwt>
<totfact> 0.45191000E+01</totfact>
</mgrwt>
</event>
<event>
 6    2  0.2379986E-005  0.1014574E+04  0.7818608E-02  0.9819094E-01
         -4   -1    0    0    0  501 -0.00000000000E+00  0.00000000000E+00  0.35258397167E+03  0.35258397167E+03  0.00000000000E+00 0. -1.
         21   -1    0    0  501  502  0.00000000000E+00 -0.00000000000E+00 -0.14135682191E+04  0.14135682191E+04  0.00000000000E+00 0. -1.
   -9000010    2    1    2    0  502  0.16017778083E+03 -0.35968584396E+02 -0.11853030749E+04  0.15602254014E+04  0.10012039070E+04 0.  0.
         13    1    3    3    0    0 -0.17365419150E+03  0.22312882945E+03  0.19548759629E+02  0.28341562752E+03  0.10566000000E+00 0. -1.
         -4    1    3    3    0  502  0.33383197233E+03 -0.25909741385E+03 -0.12048518345E+04  0.12768097739E+04  0.00000000000E+00 0. -1.
        -13    1    1    2    0    0 -0.16017778083E+03  0.35968584396E+02  0.12431882747E+03  0.20592678933E+03  0.10566000000E+00 0.  1.
<mgrwt>
<rscale>  1 0.64347832E+03</rscale>
<asrwt>0</asrwt>
<pdfrwt beam="2">  1       21 0.21747204E+00 0.10145738E+04</pdfrwt>
<pdfrwt beam="1">  1       -4 0.54243687E-01 0.10145738E+04</pdfrwt>
<totfact> 0.11404838E+01</totfact>
</mgrwt>
</event>
<event>
 6    2  0.2379986E-005  0.1020892E+04  0.7818608E-02  0.9750980E-01
         -4   -1    0    0    0  501 -0.00000000000E+00  0.00000000000E+00  0.80550442896E+03  0.80550442896E+03  0.00000000000E+00 0. -1.
         21   -1    0    0  501  502  0.00000000000E+00 -0.00000000000E+00 -0.47185807478E+03  0.47185807478E+03  0.00000000000E+00 0. -1.
   -9000010    2    1    2    0  502 -0.95856852676E+02 -0.17743779666E+03  0.21470189624E+03  0.10432247171E+04  0.10007737997E+04 0.  0.
         13    1    3    3    0    0  0.28905547386E+03  0.18216523882E+03 -0.17888712620E+03  0.38566547199E+03  0.10566000000E+00 0. -1.
         -4    1    3    3    0  502 -0.38491232653E+03 -0.35960303548E+03  0.39358902244E+03  0.65755924511E+03  0.00000000000E+00 0. -1.
        -13    1    1    2    0    0  0.95856852676E+02  0.17743779666E+03  0.11894445794E+03  0.23413778663E+03  0.10566000000E+00 0.  1.
<mgrwt>
<rscale>  1 0.68060921E+03</rscale>
<asrwt>0</asrwt>
<pdfrwt beam="2">  1       21 0.72593550E-01 0.10208922E+04</pdfrwt>
<pdfrwt beam="1">  1       -4 0.12392376E+00 0.10208922E+04</pdfrwt>
<totfact> 0.32086760E+01</totfact>
</mgrwt>
</event>
<event>
 6    2  0.2379986E-005  0.1026120E+04  0.7818608E-02  0.9877032E-01
         -4   -1    0    0    0  501 -0.00000000000E+00  0.00000000000E+00  0.12102437209E+04  0.12102437209E+04  0.00000000000E+00 0. -1.
         21   -1    0    0  501  502  0.00000000000E+00 -0.00000000000E+00 -0.27998855524E+03  0.27998855524E+03  0.00000000000E+00 0. -1.
   -9000010    2    1    2    0  502 -0.78050196348E+02  0.10575547294E+03  0.87146692708E+03  0.13462457443E+04  0.10176674043E+04 0.  0.
         13    1    3    3    0    0 -0.38358109095E+03  0.19497958053E+02 -0.35119863986E+02  0.38567867417E+03  0.10566000000E+00 0. -1.
         -4    1    3    3    0  502  0.30553089460E+03  0.86257514886E+02  0.90658679107E+03  0.96056707011E+03  0.00000000000E+00 0. -1.
        -13    1    1    2    0    0  0.78050196348E+02 -0.10575547294E+03  0.58788238627E+02  0.14398653191E+03  0.10566000000E+00 0.  1.
<mgrwt>
<rscale>  1 0.61387421E+03</rscale>
<asrwt>0</asrwt>
<pdfrwt beam="2">  1       21 0.43075163E-01 0.10261204E+04</pdfrwt>
<pdfrwt beam="1">  1       -4 0.18619134E+00 0.10261204E+04</pdfrwt>
<totfact> 0.33613246E+01</totfact>
</mgrwt>
</event>
<event>
 6    2  0.2379986E-005  0.1007518E+04  0.7818608E-02  0.9830816E-01
         21   -1    0    0  501  502  0.00000000000E+00  0.00000000000E+00  0.10067300657E+04  0.10067300657E+04  0.00000000000E+00 0. -1.
         -4   -1    0    0    0  501 -0.00000000000E+00 -0.00000000000E+00 -0.37995694565E+03  0.37995694565E+03  0.00000000000E+00 0. -1.
   -9000010    2    1    2    0  502 -0.14698469659E+03  0.66531217372E+02  0.68145012630E+03  0.12163329973E+04  0.99451535021E+03 0.  0.
         13    1    3    3    0    0 -0.29243104482E+03 -0.40828317344E+03  0.42244581515E+03  0.65625569985E+03  0.10566000000E+00 0. -1.
         -4    1    3    3    0  502  0.14544634823E+03  0.47481439081E+03  0.25900431115E+03  0.56007729746E+03  0.00000000000E+00 0. -1.
        -13    1    1    2    0    0  0.14698469659E+03 -0.66531217372E+02 -0.54677006272E+02  0.17035401403E+03  0.10566000000E+00 0.  1.
<mgrwt>
<rscale>  1 0.63734657E+03</rscale>
<asrwt>0</asrwt>
<pdfrwt beam="1">  1       21 0.15488155E+00 0.10075176E+04</pdfrwt>
<pdfrwt beam="2">  1       -4 0.58454915E-01 0.10075176E+04</pdfrwt>
<totfact> 0.27338804E+01</totfact>
</mgrwt>
</event>
<event>
 6    2  0.2379986E-005  0.9902192E+03  0.7818608E-02  0.9806734E-01
         -4   -1    0    0    0  501 -0.00000000000E+00  0.00000000000E+00  0.53277412723E+03  0.53277412723E+03  0.00000000000E+00 0. -1.
         21   -1    0    0  501  502  0.00000000000E+00 -0.00000000000E+00 -0.67581818644E+03  0.67581818644E+03  0.00000000000E+00 0. -1.
   -9000010    2    1    2    0  502 -0.25154787443E+02 -0.18214672343E+03 -0.21120000422E+03  0.10124917369E+04  0.97299737070E+03 0.  0.
         13    1    3    3    0    0  0.33215895112E+03 -0.27563001634E+03 -0.40804392299E+03  0.59397081491E+03  0.10566000000E+00 0. -1.
         -4    1    3    3    0  502 -0.35731373856E+03  0.93483292905E+02  0.19684391876E+03  0.41852092203E+03  0.00000000000E+00 0. -1.
        -13    1    1    2    0    0  0.25154787443E+02  0.18214672343E+03  0.68155945018E+02  0.19610057673E+03  0.10566000000E+00 0.  1.
<mgrwt>
<rscale>  1 0.65002413E+03</rscale>
<asrwt>0</asrwt>
<pdfrwt beam="2">  1       21 0.10397203E+00 0.99021921E+03</pdfrwt>
<pdfrwt beam="1">  1       -4 0.81965250E-01 0.99021921E+03</pdfrwt>
<totfact> 0.36898867E+01</totfact>
</mgrwt>
</event>
<event>
 6    2  0.2379986E-005  0.1057152E+04  0.7818608E-02  0.9521959E-01
         21   -1    0    0  501  502  0.00000000000E+00  0.00000000000E+00  0.80620339491E+03  0.80620339491E+03  0.00000000000E+00 0. -1.
         -4   -1    0    0    0  501 -0.00000000000E+00 -0.00000000000E+00 -0.75290938419E+03  0.75290938419E+03  0.00000000000E+00 0. -1.
   -9000010    2    1    2    0  502  0.34909277442E+03  0.18613644290E+03  0.29241000043E+03  0.10968476947E+04  0.98033602226E+03 0.  0.
         13    1    3    3    0    0 -0.69088235770E+02  0.41088138553E+03  0.43381161649E+03  0.60148917452E+03  0.10566000000E+00 0. -1.
         -4    1    3    3    0  502  0.41818101019E+03 -0.22474494263E+03 -0.14140161606E+03  0.49535852021E+03  0.00000000000E+00 0. -1.
        -13    1    1    2    0    0 -0.34909277442E+03 -0.18613644290E+03 -0.23911598972E+03  0.46226508437E+03  0.10566000000E+00 0.  1.
<mgrwt>
<rscale>  1 0.82684072E+03</rscale>
<asrwt>0</asrwt>
<pdfrwt beam="1">  1       21 0.12403129E+00 0.10571524E+04</pdfrwt>
<pdfrwt beam="2">  1       -4 0.11583221E+00 0.10571524E+04</pdfrwt>
<totfact> 0.10184597E+01</totfact>
</mgrwt>
</event>
<event>
 6    2  0.2379986E-005  0.9852556E+03  0.7818608E-02  0.9784103E-01
         21   -1    0    0  501  502  0.00000000000E+00  0.00000000000E+00  0.25100219114E+04  0.25100219114E+04  0.00000000000E+00 0. -1.
         -4   -1    0    0    0  501 -0.00000000000E+00 -0.00000000000E+00 -0.21698438497E+03  0.21698438497E+03  0.00000000000E+00 0. -1.
   -9000010    2    1    2    0  502  0.18101212201E+03 -0.87577451210E+02  0.23233726063E+04  0.25236459598E+04  0.96451721809E+03 0.  0.
         13    1    3    3    0    0  0.40042896473E+03  0.16983514234E+03  0.20294707054E+04  0.20755574400E+04  0.10566000000E+00 0. -1.
         -4    1    3    3    0  502 -0.21941684272E+03 -0.25741259355E+03  0.29390190096E+03  0.44808851980E+03  0.00000000000E+00 0. -1.
        -13    1    1    2    0    0 -0.18101212201E+03  0.87577451210E+02 -0.30335079907E+02  0.20336033662E+03  0.10566000000E+00 0.  1.
<mgrwt>
<rscale>  1 0.66222665E+03</rscale>
<asrwt>0</asrwt>
<pdfrwt beam="1">  1       21 0.38615720E+00 0.98525563E+03</pdfrwt>
<pdfrwt beam="2">  1       -4 0.33382215E-01 0.98525563E+03</pdfrwt>
<totfact> 0.26670519E+00</totfact>
</mgrwt>
</event>
<event>
 6    2  0.2379986E-005  0.1002720E+04  0.7818608E-02  0.9902831E-01
         -4   -1    0    0    0  501 -0.00000000000E+00  0.00000000000E+00  0.36195101803E+03  0.36195101803E+03  0.00000000000E+00 0. -1.
         21   -1    0    0  501  502  0.00000000000E+00 -0.00000000000E+00 -0.14656896591E+04  0.14656896591E+04  0.00000000000E+00 0. -1.
   -9000010    2    1    2    0  502 -0.95434833377E+02  0.87707562364E+02 -0.12691695042E+04  0.16174792974E+04  0.99430760988E+03 0.  0.
         13    1    3    3    0    0 -0.16249520996E+03 -0.38694372377E+03 -0.95821753857E+03  0.10460932086E+04  0.10566000000E+00 0. -1.
         -4    1    3    3    0  502  0.67060376587E+02  0.47465128613E+03 -0.31095196565E+03  0.57138608880E+03  0.00000000000E+00 0. -1.
        -13    1    1    2    0    0  0.95434833377E+02 -0.87707562364E+02  0.16543086312E+03  0.21016137979E+03  0.10566000000E+00 0.  1.
<mgrwt>
<rscale>  1 0.60124286E+03</rscale>
<asrwt>0</asrwt>
<pdfrwt beam="2">  1       21 0.22549071E+00 0.10027203E+04</pdfrwt>
<pdfrwt beam="1">  1       -4 0.55684773E-01 0.10027203E+04</pdfrwt>
<totfact> 0.95617108E+00</totfact>
</mgrwt>
</event>
<event>
 6    2  0.2379986E-005  0.1044131E+04  0.7818608E-02  0.9689205E-01
         21   -1    0    0  501  502  0.00000000000E+00  0.00000000000E+00  0.64841325227E+03  0.64841325227E+03  0.00000000000E+00 0. -1.
         -4   -1    0    0    0  501 -0.00000000000E+00 -0.00000000000E+00 -0.63594325331E+03  0.63594325331E+03  0.00000000000E+00 0. -1.
   -9000010    2    1    2    0  502  0.14156726318E+02  0.23126328058E+03 -0.46868869787E+02  0.10451824469E+04  0.10180994738E+04 0.  0.
         13    1    3    3    0    0  0.10308055547E+03 -0.85394745307E+02  0.43872068718E+03  0.45868694768E+03  0.10566000000E+00 0. -1.
         -4    1    3    3    0  502 -0.88923829155E+02  0.31665802589E+03 -0.48558955697E+03  0.58649549921E+03  0.00000000000E+00 0. -1.
        -13    1    1    2    0    0 -0.14156726318E+02 -0.23126328058E+03  0.59338868752E+02  0.23917405870E+03  0.10566000000E+00 0.  1.
<mgrwt>
<rscale>  1 0.71663174E+03</rscale>
<asrwt>0</asrwt>
<pdfrwt beam="1">  1       21 0.99755885E-01 0.10441311E+04</pdfrwt>
<pdfrwt beam="2">  1       -4 0.97837424E-01 0.10441311E+04</pdfrwt>
<totfact> 0.26854410E+01</totfact>
</mgrwt>
</event>
<event>
 6    2  0.2379986E-005  0.1023057E+04  0.7818608E-02  0.9931896E-01
         21   -1    0    0  501  502  0.00000000000E+00  0.00000000000E+00  0.88277240277E+03  0.88277240277E+03  0.00000000000E+00 0. -1.
         -4   -1    0    0    0  501 -0.00000000000E+00 -0.00000000000E+00 -0.40469085540E+03  0.40469085540E+03  0.00000000000E+00 0. -1.
   -9000010    2    1    2    0  502 -0.10715708836E+03  0.29647531847E+02  0.54349862991E+03  0.11584631668E+04  0.10169978025E+04 0.  0.
         13    1    3    3    0    0  0.11649578573E+03  0.40743325477E+03 -0.42902782726E+02  0.42592697158E+03  0.10566000000E+00 0. -1.
         -4    1    3    3    0  502 -0.22365287409E+03 -0.37778572292E+03  0.58640141263E+03  0.73253619520E+03  0.00000000000E+00 0. -1.
        -13    1    1    2    0    0  0.10715708836E+03 -0.29647531847E+02 -0.65417082532E+02  0.12900009140E+03  0.10566000000E+00 0.  1.
<mgrwt>
<rscale>  1 0.58740064E+03</rscale>
<asrwt>0</asrwt>
<pdfrwt beam="1">  1       21 0.13581114E+00 0.10230573E+04</pdfrwt>
<pdfrwt beam="2">  1       -4 0.62260132E-01 0.10230573E+04</pdfrwt>
<totfact> 0.34176603E+01</totfact>
</mgrwt>
</event>
<event>
 6    2  0.2379986E-005  0.8631061E+03  0.7818608E-02  0.9844102E-01
         -4   -1    0    0    0  501 -0.00000000000E+00  0.00000000000E+00  0.37726066802E+03  0.37726066802E+03  0.00000000000E+00 0. -1.
         21   -1    0    0  501  502  0.00000000000E+00 -0.00000000000E+00 -0.11477694850E+04  0.11477694850E+04  0.00000000000E+00 0. -1.
   -9000010    2    1    2    0  502 -0.24575685788E+03 -0.76750140687E+00 -0.90022477167E+03  0.12471394149E+04  0.82737842523E+03 0.  0.
         13    1    3    3    0    0 -0.41626195177E+03  0.29969963427E+03 -0.60074895810E+03  0.78993240540E+03  0.10566000000E+00 0. -1.
         -4    1    3    3    0  502  0.17050509389E+03 -0.30046713568E+03 -0.29947581356E+03  0.45720700954E+03  0.00000000000E+00 0. -1.
        -13    1    1    2    0    0  0.24575685788E+03  0.76750140687E+00  0.12971595467E+03  0.27789073808E+03  0.10566000000E+00 0.  1.
<mgrwt>
<rscale>  1 0.63048546E+03</rscale>
<asrwt>0</asrwt>
<pdfrwt beam="2">  1       21 0.17657992E+00 0.86310607E+03</pdfrwt>
<pdfrwt beam="1">  1       -4 0.58040103E-01 0.86310607E+03</pdfrwt>
<totfact> 0.19330415E+01</totfact>
</mgrwt>
</event>
<event>
 6    2  0.2379986E-005  0.1013991E+04  0.7818608E-02  0.9955089E-01
         21   -1    0    0  501  502  0.00000000000E+00  0.00000000000E+00  0.46074898905E+03  0.46074898905E+03  0.00000000000E+00 0. -1.
         -4   -1    0    0    0  501 -0.00000000000E+00 -0.00000000000E+00 -0.68091939204E+03  0.68091939204E+03  0.00000000000E+00 0. -1.
   -9000010    2    1    2    0  502  0.59418094906E+02  0.87844518939E+02 -0.19307181956E+03  0.10322082792E+04  0.10084294892E+04 0.  0.
         13    1    3    3    0    0 -0.22151093572E+03 -0.27626803897E+03  0.21761999742E+03  0.41563156575E+03  0.10566000000E+00 0. -1.
         -4    1    3    3    0  502  0.28092903063E+03  0.36411255791E+03 -0.41069181698E+03  0.61657671349E+03  0.00000000000E+00 0. -1.
        -13    1    1    2    0    0 -0.59418094906E+02 -0.87844518939E+02 -0.27098583436E+02  0.10946010185E+03  0.10566000000E+00 0.  1.
<mgrwt>
<rscale>  1 0.57664157E+03</rscale>
<asrwt>0</asrwt>
<pdfrwt beam="1">  1       21 0.70884460E-01 0.10139907E+04</pdfrwt>
<pdfrwt beam="2">  1       -4 0.10475683E+00 0.10139907E+04</pdfrwt>
<totfact> 0.51482986E+01</totfact>
</mgrwt>
</event>
<event>
 6    2  0.2379986E-005  0.1082315E+04  0.7818608E-02  0.9481566E-01
         21   -1    0    0  501  502  0.00000000000E+00  0.00000000000E+00  0.10221825236E+04  0.10221825236E+04  0.00000000000E+00 0.  1.
         -4   -1    0    0    0  501 -0.00000000000E+00 -0.00000000000E+00 -0.56728549900E+03  0.56728549900E+03  0.00000000000E+00 0. -1.
   -9000010    2    1    2    0  502 -0.30146144159E+03  0.29901259105E+03  0.42847793326E+03  0.11640441047E+04  0.99554899826E+03 0.  0.
         13    1    3    3    0    0 -0.24235267008E+01  0.58823613743E+03  0.46012337661E+03  0.74682070119E+03  0.10566000000E+00 0. -1.
         -4    1    3    3    0  502 -0.29903791489E+03 -0.28922354638E+03 -0.31645443350E+02  0.41722340347E+03  0.00000000000E+00 0. -1.
        -13    1    1    2    0    0  0.30146144159E+03 -0.29901259105E+03  0.26419091302E+02  0.42542391790E+03  0.10566000000E+00 0.  1.
<mgrwt>
<rscale>  1 0.85656616E+03</rscale>
<asrwt>0</asrwt>
<pdfrwt beam="1">  1       21 0.15725885E+00 0.10823148E+04</pdfrwt>
<pdfrwt beam="2">  1       -4 0.87274692E-01 0.10823148E+04</pdfrwt>
<totfact> 0.10534783E+01</totfact>
</mgrwt>
</event>
<event>
 6    2  0.2379986E-005  0.1027654E+04  0.7818608E-02  0.9890000E-01
         -4   -1    0    0    0  501 -0.00000000000E+00  0.00000000000E+00  0.82884192583E+03  0.82884192583E+03  0.00000000000E+00 0. -1.
         21   -1    0    0  501  502  0.00000000000E+00 -0.00000000000E+00 -0.51190544716E+03  0.51190544716E+03  0.00000000000E+00 0. -1.
   -9000010    2    1    2    0  502 -0.12248618148E+03 -0.27278040241E+02  0.30587765820E+02  0.10281093192E+04  0.10199638252E+04 0.  0.
         13    1    3    3    0    0  0.15729826190E+03 -0.32586803965E+03  0.35425266625E+03  0.50638689277E+03  0.10566000000E+00 0. -1.
         -4    1    3    3    0  502 -0.27978444338E+03  0.29858999941E+03 -0.32366490043E+03  0.52172242647E+03  0.00000000000E+00 0. -1.
        -13    1    1    2    0    0  0.12248618148E+03  0.27278040241E+02  0.28634871285E+03  0.31263805375E+03  0.10566000000E+00 0.  1.
<mgrwt>
<rscale>  1 0.60748403E+03</rscale>
<asrwt>0</asrwt>
<pdfrwt beam="2">  1       21 0.78754684E-01 0.10276542E+04</pdfrwt>
<pdfrwt beam="1">  1       -4 0.12751414E+00 0.10276542E+04</pdfrwt>
<totfact> 0.24666229E+01</totfact>
</mgrwt>
</event>
<event>
 6    2  0.2379986E-005  0.1026958E+04  0.7818608E-02  0.9742059E-01
         -4   -1    0    0    0  501 -0.00000000000E+00  0.00000000000E+00  0.83566232950E+03  0.83566232950E+03  0.00000000000E+00 0. -1.
         21   -1    0    0  501  502  0.00000000000E+00 -0.00000000000E+00 -0.61311126021E+03  0.61311126021E+03  0.00000000000E+00 0. -1.
   -9000010    2    1    2    0  502 -0.16379191579E+03  0.12174016095E+03 -0.13628705365E+03  0.10359621702E+04  0.10064765266E+04 0.  0.
         13    1    3    3    0    0  0.28465049613E+03 -0.12108539111E+03  0.24876684858E+03  0.39695406914E+03  0.10566000000E+00 0. -1.
         -4    1    3    3    0  502 -0.44844241193E+03  0.24282555206E+03 -0.38505390224E+03  0.63900810103E+03  0.00000000000E+00 0. -1.
        -13    1    1    2    0    0  0.16379191579E+03 -0.12174016095E+03  0.35883812294E+03  0.41281141954E+03  0.10566000000E+00 0.  1.
<mgrwt>
<rscale>  1 0.68566898E+03</rscale>
<asrwt>0</asrwt>
<pdfrwt beam="2">  1       21 0.94324809E-01 0.10269584E+04</pdfrwt>
<pdfrwt beam="1">  1       -4 0.12856344E+00 0.10269584E+04</pdfrwt>
<totfact> 0.15686612E+01</totfact>
</mgrwt>
</event>
<event>
 6    2  0.2379986E-005  0.9713496E+03  0.7818608E-02  0.9785101E-01
         21   -1    0    0  501  502  0.00000000000E+00  0.00000000000E+00  0.14113684556E+03  0.14113684556E+03  0.00000000000E+00 0. -1.
         -4   -1    0    0    0  501 -0.00000000000E+00 -0.00000000000E+00 -0.24697698680E+04  0.24697698680E+04  0.00000000000E+00 0. -1.
   -9000010    2    1    2    0  502 -0.56636068550E+02 -0.20134296033E+03 -0.19381177228E+04  0.21679068915E+04  0.94856383591E+03 0.  0.
         13    1    3    3    0    0 -0.67443721761E+02 -0.58399014381E+03 -0.12130864273E+04  0.13480251611E+04  0.10566000000E+00 0. -1.
         -4    1    3    3    0  502  0.10807653211E+02  0.38264718347E+03 -0.72503129551E+03  0.81988173041E+03  0.00000000000E+00 0. -1.
        -13    1    1    2    0    0  0.56636068550E+02  0.20134296033E+03 -0.39051529959E+03  0.44299982202E+03  0.10566000000E+00 0.  1.
<mgrwt>
<rscale>  1 0.66168274E+03</rscale>
<asrwt>0</asrwt>
<pdfrwt beam="1">  1       21 0.21713359E-01 0.97134957E+03</pdfrwt>
<pdfrwt beam="2">  1       -4 0.37996462E+00 0.97134957E+03</pdfrwt>
<totfact> 0.79356200E+00</totfact>
</mgrwt>
</event>
<event>
 6    2  0.2379986E-005  0.1031430E+04  0.7818608E-02  0.9735446E-01
         21   -1    0    0  501  502  0.00000000000E+00  0.00000000000E+00  0.10536390414E+04  0.10536390414E+04  0.00000000000E+00 0. -1.
         -4   -1    0    0    0  501 -0.00000000000E+00 -0.00000000000E+00 -0.38509332094E+03  0.38509332094E+03  0.00000000000E+00 0. -1.
   -9000010    2    1    2    0  502 -0.75529903900E+02 -0.19156446624E+03  0.67507883600E+03  0.12327119656E+04  0.10106659410E+04 0.  0.
         13    1    3    3    0    0 -0.38136995500E+02 -0.59440450788E+03  0.54608992492E+03  0.80807509965E+03  0.10566000000E+00 0. -1.
         -4    1    3    3    0  502 -0.37392908399E+02  0.40284004164E+03  0.12898891109E+03  0.42463686596E+03  0.00000000000E+00 0. -1.
        -13    1    1    2    0    0  0.75529903900E+02  0.19156446624E+03 -0.65331155422E+01  0.20602039674E+03  0.10566000000E+00 0.  1.
<mgrwt>
<rscale>  1 0.68944985E+03</rscale>
<asrwt>0</asrwt>
<pdfrwt beam="1">  1       21 0.16209831E+00 0.10314298E+04</pdfrwt>
<pdfrwt beam="2">  1       -4 0.59245127E-01 0.10314298E+04</pdfrwt>
<totfact> 0.23258296E+01</totfact>
</mgrwt>
</event>
<event>
 6    2  0.2379986E-005  0.1023989E+04  0.7818608E-02  0.9647445E-01
         -4   -1    0    0    0  501 -0.00000000000E+00  0.00000000000E+00  0.17865078938E+03  0.17865078938E+03  0.00000000000E+00 0. -1.
         21   -1    0    0  501  502  0.00000000000E+00 -0.00000000000E+00 -0.23958987909E+04  0.23958987909E+04  0.00000000000E+00 0. -1.
   -9000010    2    1    2    0  502 -0.25623248965E+03 -0.11973946996E+03 -0.17892078755E+04  0.20615086560E+04  0.98415470699E+03 0.  0.
         13    1    3    3    0    0 -0.42364261475E+02 -0.51956603468E+03 -0.12662118586E+04  0.13693195672E+04  0.10566000000E+00 0. -1.
         -4    1    3    3    0  502 -0.21386822817E+03  0.39982656473E+03 -0.52299601693E+03  0.69218908876E+03  0.00000000000E+00 0. -1.
        -13    1    1    2    0    0  0.25623248965E+03  0.11973946996E+03 -0.42804012592E+03  0.51304092427E+03  0.10566000000E+00 0.  1.
<mgrwt>
<rscale>  1 0.74233967E+03</rscale>
<asrwt>0</asrwt>
<pdfrwt beam="2">  1       21 0.36859979E+00 0.10239888E+04</pdfrwt>
<pdfrwt beam="1">  1       -4 0.27484739E-01 0.10239888E+04</pdfrwt>
<totfact> 0.50246859E+00</totfact>
</mgrwt>
</event>
<event>
 6    2  0.2379986E-005  0.9693925E+03  0.7818608E-02  0.9982211E-01
         21   -1    0    0  501  502  0.00000000000E+00  0.00000000000E+00  0.57950561986E+03  0.57950561986E+03  0.00000000000E+00 0. -1.
         -4   -1    0    0    0  501 -0.00000000000E+00 -0.00000000000E+00 -0.51842630093E+03  0.51842630093E+03  0.00000000000E+00 0. -1.
   -9000010    2    1    2    0  502 -0.93919607228E+02 -0.59849912145E+02  0.11130540914E+03  0.97576164655E+03  0.96297403504E+03 0.  0.
         13    1    3    3    0    0  0.63594598562E+02  0.12459191434E+02 -0.41583775472E+03  0.42085692798E+03  0.10566000000E+00 0. -1.
         -4    1    3    3    0  502 -0.15751420579E+03 -0.72309103579E+02  0.52714316386E+03  0.55490471857E+03  0.00000000000E+00 0. -1.
        -13    1    1    2    0    0  0.93919607228E+02  0.59849912145E+02 -0.50226090207E+02  0.12217027424E+03  0.10566000000E+00 0.  1.
<mgrwt>
<rscale>  1 0.56437170E+03</rscale>
<asrwt>0</asrwt>
<pdfrwt beam="1">  1       21 0.89154710E-01 0.96939254E+03</pdfrwt>
<pdfrwt beam="2">  1       -4 0.79757893E-01 0.96939254E+03</pdfrwt>
<totfact> 0.57403829E+01</totfact>
</mgrwt>
</event>
<event>
 6    2  0.2379986E-005  0.1037846E+04  0.7818608E-02  0.9588029E-01
         -4   -1    0    0    0  501 -0.00000000000E+00  0.00000000000E+00  0.19719141129E+04  0.19719141129E+04  0.00000000000E+00 0. -1.
         21   -1    0    0  501  502  0.00000000000E+00 -0.00000000000E+00 -0.25414880574E+03  0.25414880574E+03  0.00000000000E+00 0. -1.
   -9000010    2    1    2    0  502 -0.28709163443E+03 -0.16814591324E+03  0.10307599368E+04  0.14627339956E+04  0.98307173688E+03 0.  0.
         13    1    3    3    0    0 -0.43285718118E+02 -0.41490569691E+03  0.10349082781E+04  0.11158205706E+04  0.10566000000E+00 0. -1.
         -4    1    3    3    0  502 -0.24380591631E+03  0.24675978367E+03 -0.41483412811E+01  0.34691342493E+03  0.00000000000E+00 0. -1.
        -13    1    1    2    0    0  0.28709163443E+03  0.16814591324E+03  0.68700537042E+03  0.76332892310E+03  0.10566000000E+00 0.  1.
<mgrwt>
<rscale>  1 0.78093625E+03</rscale>
<asrwt>0</asrwt>
<pdfrwt beam="2">  1       21 0.39099818E-01 0.10378462E+04</pdfrwt>
<pdfrwt beam="1">  1       -4 0.30337139E+00 0.10378462E+04</pdfrwt>
<totfact> 0.74780099E+00</totfact>
</mgrwt>
</event>
<event>
 6    2  0.2379986E-005  0.1057205E+04  0.7818608E-02  0.9605029E-01
         21   -1    0    0  501  502  0.00000000000E+00  0.00000000000E+00  0.43190898099E+03  0.43190898099E+03  0.00000000000E+00 0. -1.
         -4   -1    0    0    0  501 -0.00000000000E+00 -0.00000000000E+00 -0.10703969459E+04  0.10703969459E+04  0.00000000000E+00 0. -1.
   -9000010    2    1    2    0  502  0.27751871280E+03 -0.10564324118E+03 -0.43989661831E+03  0.11450725795E+04  0.10146452815E+04 0.  0.
         13    1    3    3    0    0 -0.22666432530E+02 -0.59593686605E+02  0.32023363603E+03  0.32651916859E+03  0.10566000000E+00 0. -1.
         -4    1    3    3    0  502  0.30018514533E+03 -0.46049554578E+02 -0.76013025435E+03  0.81855341092E+03  0.00000000000E+00 0. -1.
        -13    1    1    2    0    0 -0.27751871280E+03  0.10564324118E+03 -0.19859134660E+03  0.35723334737E+03  0.10566000000E+00 0.  1.
<mgrwt>
<rscale>  1 0.76964220E+03</rscale>
<asrwt>0</asrwt>
<pdfrwt beam="1">  1       21 0.66447535E-01 0.10572049E+04</pdfrwt>
<pdfrwt beam="2">  1       -4 0.16467645E+00 0.10572049E+04</pdfrwt>
<totfact> 0.18428554E+01</totfact>
</mgrwt>
</event>
<event>
 6    2  0.2379986E-005  0.1038335E+04  0.7818608E-02  0.9662434E-01
         21   -1    0    0  501  502  0.00000000000E+00  0.00000000000E+00  0.39548361945E+03  0.39548361945E+03  0.00000000000E+00 0. -1.
         -4   -1    0    0    0  501 -0.00000000000E+00 -0.00000000000E+00 -0.10620928975E+04  0.10620928975E+04  0.00000000000E+00 0. -1.
   -9000010    2    1    2    0  502  0.23211407938E+02 -0.25679867149E+03 -0.53792360919E+03  0.11694023688E+04  0.10058109980E+04 0.  0.
         13    1    3    3    0    0 -0.35159788505E+03  0.65366853696E+02  0.91481396758E+02  0.36913785427E+03  0.10566000000E+00 0. -1.
         -4    1    3    3    0  502  0.37480929299E+03 -0.32216552518E+03 -0.62940500595E+03  0.80026451455E+03  0.00000000000E+00 0. -1.
        -13    1    1    2    0    0 -0.23211407938E+02  0.25679867149E+03 -0.12868566891E+03  0.28817414818E+03  0.10566000000E+00 0.  1.
<mgrwt>
<rscale>  1 0.73298177E+03</rscale>
<asrwt>0</asrwt>
<pdfrwt beam="1">  1       21 0.60843634E-01 0.10383352E+04</pdfrwt>
<pdfrwt beam="2">  1       -4 0.16339891E+00 0.10383352E+04</pdfrwt>
<totfact> 0.23010253E+01</totfact>
</mgrwt>
</event>
<event>
 6    2  0.2379986E-005  0.1005782E+04  0.7818608E-02  0.1012340E+00
         -4   -1    0    0    0  501 -0.00000000000E+00  0.00000000000E+00  0.13236500300E+04  0.13236500300E+04  0.00000000000E+00 0. -1.
         21   -1    0    0  501  502  0.00000000000E+00 -0.00000000000E+00 -0.24846084948E+03  0.24846084948E+03  0.00000000000E+00 0. -1.
   -9000010    2    1    2    0  502 -0.24870599268E+02 -0.59188088428E+02  0.11109661601E+04  0.14986140772E+04  0.10037313221E+04 0.  0.
         13    1    3    3    0    0  0.21802721533E+03 -0.10606531290E+03  0.12085885701E+04  0.12326686741E+04  0.10566000000E+00 0. -1.
         -4    1    3    3    0  502 -0.24289781460E+03  0.46877224476E+02 -0.97622409937E+02  0.26594540311E+03  0.00000000000E+00 0. -1.
        -13    1    1    2    0    0  0.24870599268E+02  0.59188088428E+02 -0.35776979566E+02  0.73496802316E+02  0.10566000000E+00 0.  1.
<mgrwt>
<rscale>  1 0.50554963E+03</rscale>
<asrwt>0</asrwt>
<pdfrwt beam="2">  1       21 0.38224747E-01 0.10057825E+04</pdfrwt>
<pdfrwt beam="1">  1       -4 0.20363846E+00 0.10057825E+04</pdfrwt>
<totfact> 0.33053046E+01</totfact>
</mgrwt>
</event>
<event>
 6    2  0.2379986E-005  0.1180497E+04  0.7818608E-02  0.9307761E-01
         21   -1    0    0  501  502  0.00000000000E+00  0.00000000000E+00  0.27537549511E+04  0.27537549511E+04  0.00000000000E+00 0.  1.
         -4   -1    0    0    0  501 -0.00000000000E+00 -0.00000000000E+00 -0.29107850827E+03  0.29107850827E+03  0.00000000000E+00 0. -1.
   -9000010    2    1    2    0  502  0.21260248233E+03 -0.57132758121E+03  0.15898358973E+04  0.19801900216E+04  0.10109200367E+04 0.  0.
         13    1    3    3    0    0 -0.13591595192E+03  0.16519180475E+03  0.24290654750E+02  0.21529404408E+03  0.10566000000E+00 0. -1.
         -4    1    3    3    0  502  0.34851843425E+03 -0.73651938596E+03  0.15655452426E+04  0.17648959775E+04  0.00000000000E+00 0. -1.
        -13    1    1    2    0    0 -0.21260248233E+03  0.57132758121E+03  0.87284054547E+03  0.10646434377E+04  0.10566000000E+00 0.  1.
<mgrwt>
<rscale>  1 0.10007152E+04</rscale>
<asrwt>0</asrwt>
<pdfrwt beam="1">  1       21 0.42365459E+00 0.11804975E+04</pdfrwt>
<pdfrwt beam="2">  1       -4 0.44781311E-01 0.11804975E+04</pdfrwt>
<totfact> 0.79817614E-01</totfact>
</mgrwt>
</event>
<event>
 6    2  0.2379986E-005  0.1039746E+04  0.7818608E-02  0.9655162E-01
         21   -1    0    0  501  502  0.00000000000E+00  0.00000000000E+00  0.81347414134E+03  0.81347414134E+03  0.00000000000E+00 0. -1.
         -4   -1    0    0    0  501 -0.00000000000E+00 -0.00000000000E+00 -0.53661424876E+03  0.53661424876E+03  0.00000000000E+00 0. -1.
   -9000010    2    1    2    0  502 -0.82986429232E+02 -0.24976724373E+03  0.12767737370E+03  0.10475559810E+04  0.10058834913E+04 0.  0.
         13    1    3    3    0    0  0.45012097991E+03 -0.22557129506E+03  0.99069005981E+02  0.51313349610E+03  0.10566000000E+00 0. -1.
         -4    1    3    3    0  502 -0.53310740915E+03 -0.24195948672E+02  0.28608367723E+02  0.53442248486E+03  0.00000000000E+00 0. -1.
        -13    1    1    2    0    0  0.82986429232E+02  0.24976724373E+03  0.14918251888E+03  0.30253240914E+03  0.10566000000E+00 0.  1.
<mgrwt>
<rscale>  1 0.73750340E+03</rscale>
<asrwt>0</asrwt>
<pdfrwt beam="1">  1       21 0.12514987E+00 0.10397461E+04</pdfrwt>
<pdfrwt beam="2">  1       -4 0.82556038E-01 0.10397461E+04</pdfrwt>
<totfact> 0.22467099E+01</totfact>
</mgrwt>
</event>
<event>
 6    2  0.2379986E-005  0.1021652E+04  0.7818608E-02  0.9838666E-01
         -4   -1    0    0    0  501 -0.00000000000E+00  0.00000000000E+00  0.38142957984E+03  0.38142957984E+03  0.00000000000E+00 0. -1.
         21   -1    0    0  501  502  0.00000000000E+00 -0.00000000000E+00 -0.96295255766E+03  0.96295255766E+03  0.00000000000E+00 0. -1.
   -9000010    2    1    2    0  502 -0.70417220946E+02 -0.13337945390E+03 -0.61140275442E+03  0.11906242891E+04  0.10104574241E+04 0.  0.
         13    1    3    3    0    0  0.88963784878E+02 -0.52644543742E+03 -0.54205321600E+03  0.76084233172E+03  0.10566000000E+00 0. -1.
         -4    1    3    3    0  502 -0.15938100582E+03  0.39306598352E+03 -0.69349538416E+02  0.42978195739E+03  0.00000000000E+00 0. -1.
        -13    1    1    2    0    0  0.70417220946E+02  0.13337945390E+03  0.29879776599E+02  0.15375784839E+03  0.10566000000E+00 0.  1.
<mgrwt>
<rscale>  1 0.63328145E+03</rscale>
<asrwt>0</asrwt>
<pdfrwt beam="2">  1       21 0.14814655E+00 0.10216520E+04</pdfrwt>
<pdfrwt beam="1">  1       -4 0.58681475E-01 0.10216520E+04</pdfrwt>
<totfact> 0.30652259E+01</totfact>
</mgrwt>
</event>
<event>
 6    2  0.2379986E-005  0.1016280E+04  0.7818608E-02  0.9619184E-01
         -4   -1    0    0    0  501 -0.00000000000E+00  0.00000000000E+00  0.36007849659E+03  0.36007849659E+03  0.00000000000E+00 0. -1.
         21   -1    0    0  501  502  0.00000000000E+00 -0.00000000000E+00 -0.12753667475E+04  0.12753667475E+04  0.00000000000E+00 0. -1.
   -9000010    2    1    2    0  502  0.30267499250E+03 -0.99158065558E+02 -0.81129659337E+03  0.13003948761E+04  0.96508041032E+03 0.  0.
         13    1    3    3    0    0  0.45169532359E+03  0.22716254151E+03 -0.11709750878E+03  0.51898297019E+03  0.10566000000E+00 0. -1.
         -4    1    3    3    0  502 -0.14902033109E+03 -0.32632060707E+03 -0.69419908459E+03  0.78141190593E+03  0.00000000000E+00 0. -1.
        -13    1    1    2    0    0 -0.30267499250E+03  0.99158065558E+02 -0.10399165749E+03  0.33505036792E+03  0.10566000000E+00 0.  1.
<mgrwt>
<rscale>  1 0.76039374E+03</rscale>
<asrwt>0</asrwt>
<pdfrwt beam="2">  1       21 0.19621027E+00 0.10162798E+04</pdfrwt>
<pdfrwt beam="1">  1       -4 0.55396690E-01 0.10162798E+04</pdfrwt>
<totfact> 0.15192759E+01</totfact>
</mgrwt>
</event>
<event>
 6    2  0.2379986E-005  0.1011584E+04  0.7818608E-02  0.9850609E-01
         -4   -1    0    0    0  501 -0.00000000000E+00  0.00000000000E+00  0.33294436813E+03  0.33294436813E+03  0.00000000000E+00 0. -1.
         21   -1    0    0  501  502  0.00000000000E+00 -0.00000000000E+00 -0.15655049488E+04  0.15655049488E+04  0.00000000000E+00 0. -1.
   -9000010    2    1    2    0  502  0.25367044068E+02  0.14728404264E+03 -0.13648501928E+04  0.16988581629E+04  0.10004833495E+04 0.  0.
         13    1    3    3    0    0  0.16997728147E+03  0.24950112135E+03 -0.14647473703E+04  0.14955360095E+04  0.10566000000E+00 0. -1.
         -4    1    3    3    0  502 -0.14461023740E+03 -0.10221707871E+03  0.99897177548E+02  0.20332215330E+03  0.00000000000E+00 0. -1.
        -13    1    1    2    0    0 -0.25367044068E+02 -0.14728404264E+03  0.13228961213E+03  0.19959115407E+03  0.10566000000E+00 0.  1.
<mgrwt>
<rscale>  1 0.62715874E+03</rscale>
<asrwt>0</asrwt>
<pdfrwt beam="2">  1       21 0.24084691E+00 0.10115844E+04</pdfrwt>
<pdfrwt beam="1">  1       -4 0.51222211E-01 0.10115844E+04</pdfrwt>
<totfact> 0.90758313E+00</totfact>
</mgrwt>
</event>
<event>
 6    2  0.2379986E-005  0.1009656E+04  0.7818608E-02  0.9985336E-01
         21   -1    0    0  501  502  0.00000000000E+00  0.00000000000E+00  0.51182969882E+03  0.51182969882E+03  0.00000000000E+00 0. -1.
         -4   -1    0    0    0  501 -0.00000000000E+00 -0.00000000000E+00 -0.10257292856E+04  0.10257292856E+04  0.00000000000E+00 0. -1.
   -9000010    2    1    2    0  502  0.51325560290E+02 -0.83014400302E+02  0.48904949518E+01  0.10096680261E+04  0.10049278095E+04 0.  0.
         13    1    3    3    0    0  0.15743239652E+03  0.27341597789E+02 -0.47752166583E+03  0.50354689449E+03  0.10566000000E+00 0. -1.
         -4    1    3    3    0  502 -0.10610683623E+03 -0.11035599809E+03  0.48241216079E+03  0.50612113163E+03  0.00000000000E+00 0. -1.
        -13    1    1    2    0    0 -0.51325560290E+02  0.83014400302E+02 -0.51879008176E+03  0.52789095833E+03  0.10566000000E+00 0.  1.
<mgrwt>
<rscale>  1 0.56297917E+03</rscale>
<asrwt>0</asrwt>
<pdfrwt beam="1">  1       21 0.78743030E-01 0.10096562E+04</pdfrwt>
<pdfrwt beam="2">  1       -4 0.15780451E+00 0.10096562E+04</pdfrwt>
<totfact> 0.14079003E+01</totfact>
</mgrwt>
</event>
<event>
 6    2  0.2379986E-005  0.1035468E+04  0.7818608E-02  0.9644339E-01
         21   -1    0    0  501  502  0.00000000000E+00  0.00000000000E+00  0.54369403374E+03  0.54369403374E+03  0.00000000000E+00 0. -1.
         -4   -1    0    0    0  501 -0.00000000000E+00 -0.00000000000E+00 -0.13409391003E+04  0.13409391003E+04  0.00000000000E+00 0. -1.
   -9000010    2    1    2    0  502 -0.14912005919E+03  0.23275176583E+03  0.56524473137E+01  0.10354837918E+04  0.99789005221E+03 0.  0.
         13    1    3    3    0    0  0.15180641457E+03  0.27018230271E+03  0.42003842089E+03  0.52199228959E+03  0.10566000000E+00 0. -1.
         -4    1    3    3    0  502 -0.30092647377E+03 -0.37430536879E+02 -0.41438597358E+03  0.51349150217E+03  0.00000000000E+00 0. -1.
        -13    1    1    2    0    0  0.14912005919E+03 -0.23275176583E+03 -0.80289751389E+03  0.84914934230E+03  0.10566000000E+00 0.  1.
<mgrwt>
<rscale>  1 0.74429746E+03</rscale>
<asrwt>0</asrwt>
<pdfrwt beam="1">  1       21 0.83645237E-01 0.10354684E+04</pdfrwt>
<pdfrwt beam="2">  1       -4 0.20629832E+00 0.10354684E+04</pdfrwt>
<totfact> 0.55895392E+00</totfact>
</mgrwt>
</event>
<event>
 6    2  0.2379986E-005  0.1026893E+04  0.7818608E-02  0.9675179E-01
         -4   -1    0    0    0  501 -0.00000000000E+00  0.00000000000E+00  0.49910478208E+03  0.49910478208E+03  0.00000000000E+00 0. -1.
         21   -1    0    0  501  502  0.00000000000E+00 -0.00000000000E+00 -0.17237359372E+04  0.17237359372E+04  0.00000000000E+00 0. -1.
   -9000010    2    1    2    0  502 -0.58289546715E+02  0.24859378775E+03 -0.15187609301E+04  0.18333424802E+04  0.99464231974E+03 0.  0.
         13    1    3    3    0    0  0.13150153667E+03 -0.23684627085E+02 -0.14946060032E+04  0.15005668035E+04  0.10566000000E+00 0. -1.
         -4    1    3    3    0  502 -0.18979108339E+03  0.27227841484E+03 -0.24154926927E+02  0.33277567672E+03  0.00000000000E+00 0. -1.
        -13    1    1    2    0    0  0.58289546715E+02 -0.24859378775E+03  0.29412977499E+03  0.38949823910E+03  0.10566000000E+00 0.  1.
<mgrwt>
<rscale>  1 0.72514036E+03</rscale>
<asrwt>0</asrwt>
<pdfrwt beam="2">  1       21 0.26519014E+00 0.10268933E+04</pdfrwt>
<pdfrwt beam="1">  1       -4 0.76785353E-01 0.10268933E+04</pdfrwt>
<totfact> 0.26066502E+00</totfact>
</mgrwt>
</event>
<event>
 6    2  0.2379986E-005  0.9985735E+03  0.7818608E-02  0.9715366E-01
         -4   -1    0    0    0  501 -0.00000000000E+00  0.00000000000E+00  0.95933167425E+03  0.95933167425E+03  0.00000000000E+00 0. -1.
         21   -1    0    0  501  502  0.00000000000E+00 -0.00000000000E+00 -0.81029491678E+03  0.81029491678E+03  0.00000000000E+00 0. -1.
   -9000010    2    1    2    0  502 -0.99595316415E+02 -0.22125652166E+03 -0.47079783274E+03  0.11039926031E+04  0.96864616505E+03 0.  0.
         13    1    3    3    0    0 -0.45012272581E+03 -0.28190111772E+03 -0.22347078811E+02  0.53158076673E+03  0.10566000000E+00 0. -1.
         -4    1    3    3    0  502  0.35052740940E+03  0.60644596059E+02 -0.44845075393E+03  0.57241183642E+03  0.00000000000E+00 0. -1.
        -13    1    1    2    0    0  0.99595316415E+02  0.22125652166E+03  0.61983459022E+03  0.66563398788E+03  0.10566000000E+00 0.  1.
<mgrwt>
<rscale>  1 0.70109228E+03</rscale>
<asrwt>0</asrwt>
<pdfrwt beam="2">  1       21 0.12466076E+00 0.99857352E+03</pdfrwt>
<pdfrwt beam="1">  1       -4 0.14758949E+00 0.99857352E+03</pdfrwt>
<totfact> 0.54179995E+00</totfact>
</mgrwt>
</event>
<event>
 6    2  0.2379986E-005  0.8309662E+03  0.7818608E-02  0.1010524E+00
         -4   -1    0    0    0  501 -0.00000000000E+00  0.00000000000E+00  0.26291967447E+03  0.26291967447E+03  0.00000000000E+00 0. -1.
         21   -1    0    0  501  502  0.00000000000E+00 -0.00000000000E+00 -0.86549542108E+03  0.86549542108E+03  0.00000000000E+00 0. -1.
   -9000010    2    1    2    0  502 -0.10034550670E+03  0.66521635871E+02 -0.55334133663E+03  0.99834439538E+03  0.82219860631E+03 0.  0.
         13    1    3    3    0    0  0.28232609440E+03 -0.18410566852E+03 -0.38307332303E+03  0.51024318001E+03  0.10566000000E+00 0. -1.
         -4    1    3    3    0  502 -0.38267160110E+03  0.25062730439E+03 -0.17026801359E+03  0.48810121537E+03  0.00000000000E+00 0. -1.
        -13    1    1    2    0    0  0.10034550670E+03 -0.66521635871E+02 -0.49234409982E+02  0.13007070017E+03  0.10566000000E+00 0.  1.
<mgrwt>
<rscale>  1 0.51266942E+03</rscale>
<asrwt>0</asrwt>
<pdfrwt beam="2">  1       21 0.13315314E+00 0.83096624E+03</pdfrwt>
<pdfrwt beam="1">  1       -4 0.40449180E-01 0.83096624E+03</pdfrwt>
<totfact> 0.91236648E+01</totfact>
</mgrwt>
</event>
<event>
 6    2  0.2379986E-005  0.1037119E+04  0.7818608E-02  0.9705826E-01
         21   -1    0    0  501  502  0.00000000000E+00  0.00000000000E+00  0.10746366160E+04  0.10746366160E+04  0.00000000000E+00 0. -1.
         -4   -1    0    0    0  501 -0.00000000000E+00 -0.00000000000E+00 -0.63280917971E+03  0.63280917971E+03  0.00000000000E+00 0. -1.
   -9000010    2    1    2    0  502  0.12862998791E+03 -0.18290109290E+03  0.78301794331E+03  0.12995126434E+04  0.10127277656E+04 0.  0.
         13    1    3    3    0    0  0.57292027070E+03 -0.10915795073E+03  0.38841490625E+03  0.70072765419E+03  0.10566000000E+00 0. -1.
         -4    1    3    3    0  502 -0.44429028279E+03 -0.73743142169E+02  0.39460303706E+03  0.59878498917E+03  0.00000000000E+00 0. -1.
        -13    1    1    2    0    0 -0.12862998791E+03  0.18290109290E+03 -0.34119050700E+03  0.40793315237E+03  0.10566000000E+00 0.  1.
<mgrwt>
<rscale>  1 0.70670976E+03</rscale>
<asrwt>0</asrwt>
<pdfrwt beam="1">  1       21 0.16532871E+00 0.10371191E+04</pdfrwt>
<pdfrwt beam="2">  1       -4 0.97355258E-01 0.10371191E+04</pdfrwt>
<totfact> 0.70808840E+00</totfact>
</mgrwt>
</event>
<event>
 6    2  0.2379986E-005  0.1151919E+04  0.7818608E-02  0.9345657E-01
         21   -1    0    0  501  502  0.00000000000E+00  0.00000000000E+00  0.71780590075E+03  0.71780590075E+03  0.00000000000E+00 0. -1.
         -4   -1    0    0    0  501 -0.00000000000E+00 -0.00000000000E+00 -0.10592614941E+04  0.10592614941E+04  0.00000000000E+00 0. -1.
   -9000010    2    1    2    0  502 -0.49356843866E+03 -0.28855609272E+03 -0.99370903913E+02  0.11561974968E+04  0.10000218261E+04 0.  0.
         13    1    3    3    0    0 -0.71639380716E+03 -0.45746034455E+02  0.16160803857E+03  0.73581924132E+03  0.10566000000E+00 0. -1.
         -4    1    3    3    0  502  0.22282536850E+03 -0.24281005827E+03 -0.26097894248E+03  0.42037825546E+03  0.00000000000E+00 0. -1.
        -13    1    1    2    0    0  0.49356843866E+03  0.28855609272E+03 -0.24208468940E+03  0.62086989804E+03  0.10566000000E+00 0.  1.
<mgrwt>
<rscale>  1 0.96686126E+03</rscale>
<asrwt>0</asrwt>
<pdfrwt beam="1">  1       21 0.11043168E+00 0.11519193E+04</pdfrwt>
<pdfrwt beam="2">  1       -4 0.16296331E+00 0.11519193E+04</pdfrwt>
<totfact> 0.55538276E+00</totfact>
</mgrwt>
</event>
<event>
 6    2  0.2379986E-005  0.1004353E+04  0.7818608E-02  0.1023019E+00
         -4   -1    0    0    0  501 -0.00000000000E+00  0.00000000000E+00  0.56467236900E+03  0.56467236900E+03  0.00000000000E+00 0. -1.
         21   -1    0    0  501  502  0.00000000000E+00 -0.00000000000E+00 -0.52631051143E+03  0.52631051143E+03  0.00000000000E+00 0. -1.
   -9000010    2    1    2    0  502  0.21905704884E+02  0.41126145482E+02 -0.33985865563E+02  0.10049281074E+04  0.10032717689E+04 0.  0.
         13    1    3    3    0    0 -0.45097955693E+02  0.48221776930E+03  0.17142010999E+03  0.51376324110E+03  0.10566000000E+00 0. -1.
         -4    1    3    3    0  502  0.67003660577E+02 -0.44109162382E+03 -0.20540597555E+03  0.49116486634E+03  0.00000000000E+00 0. -1.
        -13    1    1    2    0    0 -0.21905704884E+02 -0.41126145482E+02  0.72347723130E+02  0.86054772992E+02  0.10566000000E+00 0.  1.
<mgrwt>
<rscale>  1 0.46612578E+03</rscale>
<asrwt>0</asrwt>
<pdfrwt beam="2">  1       21 0.80970848E-01 0.10043533E+04</pdfrwt>
<pdfrwt beam="1">  1       -4 0.86872672E-01 0.10043533E+04</pdfrwt>
<totfact> 0.59084415E+01</totfact>
</mgrwt>
</event>
<event>
 6    2  0.2379986E-005  0.9989014E+03  0.7818608E-02  0.9761918E-01
         21   -1    0    0  501  502  0.00000000000E+00  0.00000000000E+00  0.16616800446E+04  0.16616800446E+04  0.00000000000E+00 0. -1.
         -4   -1    0    0    0  501 -0.00000000000E+00 -0.00000000000E+00 -0.32010739846E+03  0.32010739846E+03  0.00000000000E+00 0. -1.
   -9000010    2    1    2    0  502  0.18028702983E+03 -0.10298019981E+03  0.50396785746E+03  0.11188331407E+04  0.97708528840E+03 0.  0.
         13    1    3    3    0    0  0.35909132841E+03 -0.46926022291E+03  0.31410645510E+03  0.66918952118E+03  0.10566000000E+00 0. -1.
         -4    1    3    3    0  502 -0.17880429858E+03  0.36628002311E+03  0.18986140235E+03  0.44964361957E+03  0.00000000000E+00 0. -1.
        -13    1    1    2    0    0 -0.18028702983E+03  0.10298019981E+03  0.83760478864E+03  0.86295430227E+03  0.10566000000E+00 0.  1.
<mgrwt>
<rscale>  1 0.67446930E+03</rscale>
<asrwt>0</asrwt>
<pdfrwt beam="1">  1       21 0.25564308E+00 0.99890139E+03</pdfrwt>
<pdfrwt beam="2">  1       -4 0.49247293E-01 0.99890139E+03</pdfrwt>
<totfact> 0.79542948E+00</totfact>
</mgrwt>
</event>
<event>
 6    2  0.2379986E-005  0.1019631E+04  0.7818608E-02  0.9773526E-01
         21   -1    0    0  501  502  0.00000000000E+00  0.00000000000E+00  0.44446714026E+03  0.44446714026E+03  0.00000000000E+00 0. -1.
         -4   -1    0    0    0  501 -0.00000000000E+00 -0.00000000000E+00 -0.94573250919E+03  0.94573250919E+03  0.00000000000E+00 0. -1.
   -9000010    2    1    2    0  502 -0.10091721046E+03 -0.15846040623E+03 -0.20599681381E+03  0.10402317730E+04  0.10021743714E+04 0.  0.
         13    1    3    3    0    0 -0.49006875119E+03 -0.25007954779E+03 -0.30402152009E+03  0.62859864537E+03  0.10566000000E+00 0. -1.
         -4    1    3    3    0  502  0.38915154073E+03  0.91619141557E+02  0.98024706283E+02  0.41163312767E+03  0.00000000000E+00 0. -1.
        -13    1    1    2    0    0  0.10091721046E+03  0.15846040623E+03 -0.29526855512E+03  0.34996787641E+03  0.10566000000E+00 0.  1.
<mgrwt>
<rscale>  1 0.66802834E+03</rscale>
<asrwt>0</asrwt>
<pdfrwt beam="1">  1       21 0.68379561E-01 0.10196310E+04</pdfrwt>
<pdfrwt beam="2">  1       -4 0.14549731E+00 0.10196310E+04</pdfrwt>
<totfact> 0.24266045E+01</totfact>
</mgrwt>
</event>
<event>
 6    2  0.2379986E-005  0.1006226E+04  0.7818608E-02  0.9791161E-01
         21   -1    0    0  501  502  0.00000000000E+00  0.00000000000E+00  0.40586261319E+03  0.40586261319E+03  0.00000000000E+00 0. -1.
         -4   -1    0    0    0  501 -0.00000000000E+00 -0.00000000000E+00 -0.94792207534E+03  0.94792207534E+03  0.00000000000E+00 0. -1.
   -9000010    2    1    2    0  502 -0.83213819410E+02  0.16459760805E+03 -0.58567398932E+03  0.11642612059E+04  0.98917805351E+03 0.  0.
         13    1    3    3    0    0  0.44045939239E+03  0.17864221286E+03 -0.21006584057E+03  0.51965871983E+03  0.10566000000E+00 0. -1.
         -4    1    3    3    0  502 -0.52367321180E+03 -0.14044604818E+02 -0.37560814874E+03  0.64460248609E+03  0.00000000000E+00 0. -1.
        -13    1    1    2    0    0  0.83213819410E+02 -0.16459760805E+03  0.43614527171E+02  0.18952348261E+03  0.10566000000E+00 0.  1.
<mgrwt>
<rscale>  1 0.65839039E+03</rscale>
<asrwt>0</asrwt>
<pdfrwt beam="1">  1       21 0.62440403E-01 0.10062257E+04</pdfrwt>
<pdfrwt beam="2">  1       -4 0.14583416E+00 0.10062257E+04</pdfrwt>
<totfact> 0.29660325E+01</totfact>
</mgrwt>
</event>
<event>
 6    2  0.2379986E-005  0.1031271E+04  0.7818608E-02  0.9708685E-01
         -4   -1    0    0    0  501 -0.00000000000E+00  0.00000000000E+00  0.14867141910E+04  0.14867141910E+04  0.00000000000E+00 0. -1.
         21   -1    0    0  501  502  0.00000000000E+00 -0.00000000000E+00 -0.45285594345E+03  0.45285594345E+03  0.00000000000E+00 0. -1.
   -9000010    2    1    2    0  502  0.97053051739E+02 -0.20328254456E+03  0.16797082707E+03  0.10448611740E+04  0.10063685142E+04 0.  0.
         13    1    3    3    0    0  0.47345808542E+02 -0.49019883689E+03  0.42950723769E+03  0.65346232001E+03  0.10566000000E+00 0. -1.
         -4    1    3    3    0  502  0.49707243197E+02  0.28691629233E+03 -0.26153641063E+03  0.39139885400E+03  0.00000000000E+00 0. -1.
        -13    1    1    2    0    0 -0.97053051739E+02  0.20328254456E+03  0.86588742049E+03  0.89470896044E+03  0.10566000000E+00 0.  1.
<mgrwt>
<rscale>  1 0.70502067E+03</rscale>
<asrwt>0</asrwt>
<pdfrwt beam="2">  1       21 0.69670146E-01 0.10312714E+04</pdfrwt>
<pdfrwt beam="1">  1       -4 0.22872526E+00 0.10312714E+04</pdfrwt>
<totfact> 0.61511580E+00</totfact>
</mgrwt>
</event>
<event>
 6    2  0.2379986E-005  0.1024506E+04  0.7818608E-02  0.9640858E-01
         -4   -1    0    0    0  501 -0.00000000000E+00  0.00000000000E+00  0.85598992358E+03  0.85598992358E+03  0.00000000000E+00 0. -1.
         21   -1    0    0  501  502  0.00000000000E+00 -0.00000000000E+00 -0.62391835892E+03  0.62391835892E+03  0.00000000000E+00 0. -1.
   -9000010    2    1    2    0  502  0.50775466299E+02  0.28428594544E+03 -0.11211099240E+03  0.10306218588E+04  0.98296281441E+03 0.  0.
         13    1    3    3    0    0  0.22634485790E+03  0.51564881485E+03 -0.34319038762E+03  0.65947353873E+03  0.10566000000E+00 0. -1.
         -4    1    3    3    0  502 -0.17556939160E+03 -0.23136286942E+03  0.23107939523E+03  0.37114832010E+03  0.00000000000E+00 0. -1.
        -13    1    1    2    0    0 -0.50775466299E+02 -0.28428594544E+03  0.34418255706E+03  0.44928642367E+03  0.10566000000E+00 0.  1.
<mgrwt>
<rscale>  1 0.74649939E+03</rscale>
<asrwt>0</asrwt>
<pdfrwt beam="2">  1       21 0.95987439E-01 0.10245060E+04</pdfrwt>
<pdfrwt beam="1">  1       -4 0.13169076E+00 0.10245060E+04</pdfrwt>
<totfact> 0.14133664E+01</totfact>
</mgrwt>
</event>
<event>
 6    2  0.2379986E-005  0.1037269E+04  0.7818608E-02  0.9618206E-01
         -4   -1    0    0    0  501 -0.00000000000E+00  0.00000000000E+00  0.25393543951E+03  0.25393543951E+03  0.00000000000E+00 0. -1.
         21   -1    0    0  501  502  0.00000000000E+00 -0.00000000000E+00 -0.20292665039E+04  0.20292665039E+04  0.00000000000E+00 0. -1.
   -9000010    2    1    2    0  502 -0.23524852913E+03 -0.18706476674E+03 -0.16676816948E+04  0.19639473501E+04  0.99276979276E+03 0.  0.
         13    1    3    3    0    0 -0.50799926951E+03 -0.12435586961E+03 -0.38069403642E+03  0.64688144251E+03  0.10566000000E+00 0. -1.
         -4    1    3    3    0  502  0.27275074038E+03 -0.62708897138E+02 -0.12869876583E+04  0.13170659076E+04  0.00000000000E+00 0. -1.
        -13    1    1    2    0    0  0.23524852913E+03  0.18706476674E+03 -0.10764936961E+03  0.31925459333E+03  0.10566000000E+00 0.  1.
<mgrwt>
<rscale>  1 0.76102797E+03</rscale>
<asrwt>0</asrwt>
<pdfrwt beam="2">  1       21 0.31219484E+00 0.10372690E+04</pdfrwt>
<pdfrwt beam="1">  1       -4 0.39066992E-01 0.10372690E+04</pdfrwt>
<totfact> 0.56559744E+00</totfact>
</mgrwt>
</event>
<event>
 6    2  0.2379986E-005  0.1038447E+04  0.7818608E-02  0.9645353E-01
         21   -1    0    0  501  502  0.00000000000E+00  0.00000000000E+00  0.18727345403E+04  0.18727345403E+04  0.00000000000E+00 0. -1.
         -4   -1    0    0    0  501 -0.00000000000E+00 -0.00000000000E+00 -0.39820066997E+03  0.39820066997E+03  0.00000000000E+00 0. -1.
   -9000010    2    1    2    0  502 -0.25997112370E+03 -0.83697398723E+02  0.16476390454E+04  0.19475845453E+04  0.10018886653E+04 0.  0.
         13    1    3    3    0    0 -0.48930711872E+03 -0.39354492965E+03  0.12181479925E+04  0.13704683910E+04  0.10566000000E+00 0. -1.
         -4    1    3    3    0  502  0.22933599502E+03  0.30984753093E+03  0.42949105290E+03  0.57711615430E+03  0.00000000000E+00 0. -1.
        -13    1    1    2    0    0  0.25997112370E+03  0.83697398723E+02 -0.17310517505E+03  0.32335066492E+03  0.10566000000E+00 0.  1.
<mgrwt>
<rscale>  1 0.74365817E+03</rscale>
<asrwt>0</asrwt>
<pdfrwt beam="1">  1       21 0.28811300E+00 0.10384465E+04</pdfrwt>
<pdfrwt beam="2">  1       -4 0.61261643E-01 0.10384465E+04</pdfrwt>
<totfact> 0.30960415E+00</totfact>
</mgrwt>
</event>
<event>
 6    2  0.2379986E-005  0.9880169E+03  0.7818608E-02  0.9791130E-01
         21   -1    0    0  501  502  0.00000000000E+00  0.00000000000E+00  0.48740781398E+03  0.48740781398E+03  0.00000000000E+00 0. -1.
         -4   -1    0    0    0  501 -0.00000000000E+00 -0.00000000000E+00 -0.77915997776E+03  0.77915997776E+03  0.00000000000E+00 0. -1.
   -9000010    2    1    2    0  502 -0.10972987073E+03  0.16100679681E+03 -0.99783225062E+02  0.99304280615E+03  0.96861421097E+03 0.  0.
         13    1    3    3    0    0 -0.19135443131E+03 -0.16077001556E+03 -0.44733835954E+03  0.51242085766E+03  0.10566000000E+00 0. -1.
         -4    1    3    3    0  502  0.81624560580E+02  0.32177681237E+03  0.34755513448E+03  0.48062194849E+03  0.00000000000E+00 0. -1.
        -13    1    1    2    0    0  0.10972987073E+03 -0.16100679681E+03 -0.19196893872E+03  0.27352498560E+03  0.10566000000E+00 0.  1.
<mgrwt>
<rscale>  1 0.65840715E+03</rscale>
<asrwt>0</asrwt>
<pdfrwt beam="1">  1       21 0.74985817E-01 0.98801686E+03</pdfrwt>
<pdfrwt beam="2">  1       -4 0.11987077E+00 0.98801686E+03</pdfrwt>
<totfact> 0.32475786E+01</totfact>
</mgrwt>
</event>
<event>
 6    2  0.2379986E-005  0.1059367E+04  0.7818608E-02  0.9566540E-01
         21   -1    0    0  501  502  0.00000000000E+00  0.00000000000E+00  0.19362861780E+04  0.19362861780E+04  0.00000000000E+00 0. -1.
         -4   -1    0    0    0  501 -0.00000000000E+00 -0.00000000000E+00 -0.34844610939E+03  0.34844610939E+03  0.00000000000E+00 0. -1.
   -9000010    2    1    2    0  502 -0.26161198013E+03 -0.21220341959E+03  0.16312895085E+04  0.19450869070E+04  0.10043836399E+04 0.  0.
         13    1    3    3    0    0  0.61866885801E+02 -0.57080216452E+03  0.94926311902E+03  0.11093886167E+04  0.10566000000E+00 0. -1.
         -4    1    3    3    0  502 -0.32347886593E+03  0.35859874494E+03  0.68202638943E+03  0.83569829033E+03  0.00000000000E+00 0. -1.
        -13    1    1    2    0    0  0.26161198013E+03  0.21220341959E+03 -0.43449439817E+02  0.33964538038E+03  0.10566000000E+00 0.  1.
<mgrwt>
<rscale>  1 0.79550952E+03</rscale>
<asrwt>0</asrwt>
<pdfrwt beam="1">  1       21 0.29789018E+00 0.10593666E+04</pdfrwt>
<pdfrwt beam="2">  1       -4 0.53607095E-01 0.10593666E+04</pdfrwt>
<totfact> 0.35779629E+00</totfact>
</mgrwt>
</event>
<event>
 6    2  0.2379986E-005  0.1081373E+04  0.7818608E-02  0.9511153E-01
         21   -1    0    0  501  502  0.00000000000E+00  0.00000000000E+00  0.19594452989E+04  0.19594452989E+04  0.00000000000E+00 0. -1.
         -4   -1    0    0    0  501 -0.00000000000E+00 -0.00000000000E+00 -0.44300746552E+03  0.44300746552E+03  0.00000000000E+00 0. -1.
   -9000010    2    1    2    0  502  0.30996276628E+03 -0.22635718273E+03  0.16696013652E+04  0.19892051760E+04  0.10109668753E+04 0.  0.
         13    1    3    3    0    0 -0.30083276378E+03  0.40621291885E+02  0.99720773166E+03  0.10423884652E+04  0.10566000000E+00 0. -1.
         -4    1    3    3    0  502  0.61079553006E+03 -0.26697847462E+03  0.67239363356E+03  0.94681671083E+03  0.00000000000E+00 0. -1.
        -13    1    1    2    0    0 -0.30996276628E+03  0.22635718273E+03 -0.15316353186E+03  0.41324758839E+03  0.10566000000E+00 0.  1.
<mgrwt>
<rscale>  1 0.83466550E+03</rscale>
<asrwt>0</asrwt>
<pdfrwt beam="1">  1       21 0.30145312E+00 0.10813734E+04</pdfrwt>
<pdfrwt beam="2">  1       -4 0.68154996E-01 0.10813734E+04</pdfrwt>
<totfact> 0.20051078E+00</totfact>
</mgrwt>
</event>
<event>
 6    2  0.2379986E-005  0.9776100E+03  0.7818608E-02  0.9976226E-01
         -4   -1    0    0    0  501 -0.00000000000E+00  0.00000000000E+00  0.31339428071E+03  0.31339428071E+03  0.00000000000E+00 0. -1.
         21   -1    0    0  501  502  0.00000000000E+00 -0.00000000000E+00 -0.99231490618E+03  0.99231490618E+03  0.00000000000E+00 0. -1.
   -9000010    2    1    2    0  502  0.95571481193E+02 -0.55783081588E+02 -0.68683692958E+03  0.11947662320E+04  0.97132678386E+03 0.  0.
         13    1    3    3    0    0 -0.24794640003E+03 -0.24715115765E+03  0.55743277927E+02  0.35449744175E+03  0.10566000000E+00 0. -1.
         -4    1    3    3    0  502  0.34351788122E+03  0.19136807606E+03 -0.74258020750E+03  0.84026879023E+03  0.00000000000E+00 0. -1.
        -13    1    1    2    0    0 -0.95571481193E+02  0.55783081588E+02  0.79163041151E+01  0.11094295491E+03  0.10566000000E+00 0.  1.
<mgrwt>
<rscale>  1 0.56705093E+03</rscale>
<asrwt>0</asrwt>
<pdfrwt beam="2">  1       21 0.15266383E+00 0.97761004E+03</pdfrwt>
<pdfrwt beam="1">  1       -4 0.48214505E-01 0.97761004E+03</pdfrwt>
<totfact> 0.43056774E+01</totfact>
</mgrwt>
</event>
<event>
 6    2  0.2379986E-005  0.1020920E+04  0.7818608E-02  0.9872613E-01
         -4   -1    0    0    0  501 -0.00000000000E+00  0.00000000000E+00  0.64107774099E+03  0.64107774099E+03  0.00000000000E+00 0. -1.
         21   -1    0    0  501  502  0.00000000000E+00 -0.00000000000E+00 -0.62188950690E+03  0.62188950690E+03  0.00000000000E+00 0. -1.
   -9000010    2    1    2    0  502 -0.12649889574E+03 -0.48220875896E+02 -0.16521908718E+03  0.10342025330E+04  0.10119042983E+04 0.  0.
         13    1    3    3    0    0 -0.43494207210E+02 -0.41061612069E+03 -0.41569580162E+03  0.58591838619E+03  0.10566000000E+00 0. -1.
         -4    1    3    3    0  502 -0.83004688528E+02  0.36239524479E+03  0.25047671445E+03  0.44828414677E+03  0.00000000000E+00 0. -1.
        -13    1    1    2    0    0  0.12649889574E+03  0.48220875896E+02  0.18440732126E+03  0.22876471492E+03  0.10566000000E+00 0.  1.
<mgrwt>
<rscale>  1 0.61607117E+03</rscale>
<asrwt>0</asrwt>
<pdfrwt beam="2">  1       21 0.95675309E-01 0.10209199E+04</pdfrwt>
<pdfrwt beam="1">  1       -4 0.98627344E-01 0.10209199E+04</pdfrwt>
<totfact> 0.29255772E+01</totfact>
</mgrwt>
</event>
<event>
 6    2  0.2379986E-005  0.1263696E+04  0.7818608E-02  0.9182363E-01
         -4   -1    0    0    0  501 -0.00000000000E+00  0.00000000000E+00  0.18335370931E+04  0.18335370931E+04  0.00000000000E+00 0. -1.
         21   -1    0    0  501  502  0.00000000000E+00 -0.00000000000E+00 -0.58443940079E+03  0.58443940079E+03  0.00000000000E+00 0.  1.
   -9000010    2    1    2    0  502  0.55584103013E+03  0.56162653153E+03  0.61805849339E+03  0.14067425480E+04  0.98617680123E+03 0.  0.
         13    1    3    3    0    0  0.68240335576E+03  0.59105094832E+03  0.78420254205E+03  0.11958215593E+04  0.10566000000E+00 0. -1.
         -4    1    3    3    0  502 -0.12656232563E+03 -0.29424416784E+02 -0.16614404865E+03  0.21092098870E+03  0.00000000000E+00 0. -1.
        -13    1    1    2    0    0 -0.55584103013E+03 -0.56162653153E+03  0.63103919897E+03  0.10112339460E+04  0.10566000000E+00 0.  1.
<mgrwt>
<rscale>  1 0.11237339E+04</rscale>
<asrwt>0</asrwt>
<pdfrwt beam="2">  1       21 0.89913755E-01 0.12636963E+04</pdfrwt>
<pdfrwt beam="1">  1       -4 0.28208263E+00 0.12636963E+04</pdfrwt>
<totfact> 0.15257064E+00</totfact>
</mgrwt>
</event>
<event>
 6    2  0.2379986E-005  0.1029039E+04  0.7818608E-02  0.9689809E-01
         -4   -1    0    0    0  501 -0.00000000000E+00  0.00000000000E+00  0.33644191853E+03  0.33644191853E+03  0.00000000000E+00 0. -1.
         21   -1    0    0  501  502  0.00000000000E+00 -0.00000000000E+00 -0.13371164488E+04  0.13371164488E+04  0.00000000000E+00 0.  1.
   -9000010    2    1    2    0  502 -0.21745593237E+03 -0.10516350860E+03 -0.99578388594E+03  0.14319587489E+04  0.10002868914E+04 0.  0.
         13    1    3    3    0    0  0.18345083113E+03  0.33714753449E+03 -0.61157051981E+03  0.72203959678E+03  0.10566000000E+00 0. -1.
         -4    1    3    3    0  502 -0.40090676351E+03 -0.44231104309E+03 -0.38421336614E+03  0.70991915214E+03  0.00000000000E+00 0. -1.
        -13    1    1    2    0    0  0.21745593237E+03  0.10516350860E+03 -0.48906443576E+01  0.24159961844E+03  0.10566000000E+00 0.  1.
<mgrwt>
<rscale>  1 0.71626799E+03</rscale>
<asrwt>0</asrwt>
<pdfrwt beam="2">  1       21 0.20571022E+00 0.10290385E+04</pdfrwt>
<pdfrwt beam="1">  1       -4 0.51760296E-01 0.10290385E+04</pdfrwt>
<totfact> 0.15088614E+01</totfact>
</mgrwt>
</event>
<event>
 6    2  0.2379986E-005  0.1032819E+04  0.7818608E-02  0.9723143E-01
         -4   -1    0    0    0  501 -0.00000000000E+00  0.00000000000E+00  0.17248961383E+04  0.17248961383E+04  0.00000000000E+00 0. -1.
         21   -1    0    0  501  502  0.00000000000E+00 -0.00000000000E+00 -0.24373759802E+03  0.24373759802E+03  0.00000000000E+00 0. -1.
   -9000010    2    1    2    0  502 -0.49205998858E+02  0.20792897206E+03  0.97974992092E+03  0.14235958454E+04  0.10104749061E+04 0.  0.
         13    1    3    3    0    0 -0.88421048469E+02  0.32562643513E+03 -0.87966718264E+02  0.34869615965E+03  0.10566000000E+00 0. -1.
         -4    1    3    3    0  502  0.39215049612E+02 -0.11769746307E+03  0.10677166392E+04  0.10748996858E+04  0.00000000000E+00 0. -1.
        -13    1    1    2    0    0  0.49205998858E+02 -0.20792897206E+03  0.50140861931E+03  0.54503789082E+03  0.10566000000E+00 0.  1.
<mgrwt>
<rscale>  1 0.69655443E+03</rscale>
<asrwt>0</asrwt>
<pdfrwt beam="2">  1       21 0.37498093E-01 0.10328191E+04</pdfrwt>
<pdfrwt beam="1">  1       -4 0.26536863E+00 0.10328191E+04</pdfrwt>
<totfact> 0.14008408E+01</totfact>
</mgrwt>
</event>
<event>
 6    2  0.2379986E-005  0.1007198E+04  0.7818608E-02  0.9883123E-01
         21   -1    0    0  501  502  0.00000000000E+00  0.00000000000E+00  0.10124965159E+04  0.10124965159E+04  0.00000000000E+00 0. -1.
         -4   -1    0    0    0  501 -0.00000000000E+00 -0.00000000000E+00 -0.32494329027E+03  0.32494329027E+03  0.00000000000E+00 0. -1.
   -9000010    2    1    2    0  502  0.69430959417E+02 -0.11726550992E+03  0.56899291679E+03  0.11568064318E+04  0.99793603167E+03 0.  0.
         13    1    3    3    0    0 -0.22959609961E+03 -0.45779878468E+03  0.13571853383E+03  0.52982414799E+03  0.10566000000E+00 0. -1.
         -4    1    3    3    0  502  0.29902705902E+03  0.34053327476E+03  0.43327438296E+03  0.62698228378E+03  0.00000000000E+00 0. -1.
        -13    1    1    2    0    0 -0.69430959417E+02  0.11726550992E+03  0.11856030881E+03  0.18063337435E+03  0.10566000000E+00 0.  1.
<mgrwt>
<rscale>  1 0.61086214E+03</rscale>
<asrwt>0</asrwt>
<pdfrwt beam="1">  1       21 0.15576869E+00 0.10071982E+04</pdfrwt>
<pdfrwt beam="2">  1       -4 0.49991276E-01 0.10071982E+04</pdfrwt>
<totfact> 0.37590638E+01</totfact>
</mgrwt>
</event>
<event>
 6    2  0.2379986E-005  0.1017009E+04  0.7818608E-02  0.9598376E-01
         21   -1    0    0  501  502  0.00000000000E+00  0.00000000000E+00  0.73846730765E+03  0.73846730765E+03  0.00000000000E+00 0. -1.
         -4   -1    0    0    0  501 -0.00000000000E+00 -0.00000000000E+00 -0.11958648037E+04  0.11958648037E+04  0.00000000000E+00 0. -1.
   -9000010    2    1    2    0  502 -0.91054179263E+02 -0.32887868287E+03  0.33566183421E+03  0.10709694042E+04  0.95804725678E+03 0.  0.
         13    1    3    3    0    0 -0.26928575778E+03 -0.44079563222E+02  0.58969579623E+03  0.64976839758E+03  0.10566000000E+00 0. -1.
         -4    1    3    3    0  502  0.17823157851E+03 -0.28479911964E+03 -0.25403396202E+03  0.42120100664E+03  0.00000000000E+00 0. -1.
        -13    1    1    2    0    0  0.91054179263E+02  0.32887868287E+03 -0.79305933024E+03  0.86336270713E+03  0.10566000000E+00 0.  1.
<mgrwt>
<rscale>  1 0.77403729E+03</rscale>
<asrwt>0</asrwt>
<pdfrwt beam="1">  1       21 0.11361036E+00 0.10170087E+04</pdfrwt>
<pdfrwt beam="2">  1       -4 0.18397920E+00 0.10170087E+04</pdfrwt>
<totfact> 0.37179780E+00</totfact>
</mgrwt>
</event>
<event>
 6    2  0.2379986E-005  0.1007041E+04  0.7818608E-02  0.1024256E+00
         -4   -1    0    0    0  501 -0.00000000000E+00  0.00000000000E+00  0.74499038167E+03  0.74499038167E+03  0.00000000000E+00 0. -1.
         21   -1    0    0  501  502  0.00000000000E+00 -0.00000000000E+00 -0.51630048260E+03  0.51630048260E+03  0.00000000000E+00 0. -1.
   -9000010    2    1    2    0  502 -0.26878200336E+02 -0.35513431187E+02 -0.21397519850E+02  0.10072684839E+04  0.10060558153E+04 0.  0.
         13    1    3    3    0    0 -0.51186852860E+03  0.49126444838E+01  0.54224037894E+02  0.51475604134E+03  0.10566000000E+00 0. -1.
         -4    1    3    3    0  502  0.48499032827E+03 -0.40426075670E+02 -0.75621557745E+02  0.49251244259E+03  0.00000000000E+00 0. -1.
        -13    1    1    2    0    0  0.26878200336E+02  0.35513431187E+02  0.25008741892E+03  0.25402238034E+03  0.10566000000E+00 0.  1.
<mgrwt>
<rscale>  1 0.46181563E+03</rscale>
<asrwt>0</asrwt>
<pdfrwt beam="2">  1       21 0.79430843E-01 0.10070412E+04</pdfrwt>
<pdfrwt beam="1">  1       -4 0.11461391E+00 0.10070412E+04</pdfrwt>
<totfact> 0.31696047E+01</totfact>
</mgrwt>
</event>
<event>
 6    2  0.2379986E-005  0.1081746E+04  0.7818608E-02  0.9499818E-01
         21   -1    0    0  501  502  0.00000000000E+00  0.00000000000E+00  0.26094181608E+04  0.26094181608E+04  0.00000000000E+00 0. -1.
         -4   -1    0    0    0  501 -0.00000000000E+00 -0.00000000000E+00 -0.23652063706E+03  0.23652063706E+03  0.00000000000E+00 0. -1.
   -9000010    2    1    2    0  502 -0.29067414211E+02 -0.39785088413E+03  0.21011500612E+04  0.23632619545E+04  0.10055074566E+04 0.  0.
         13    1    3    3    0    0 -0.24627780412E+03 -0.30678181311E+03  0.20908169315E+04  0.21275063549E+04  0.10566000000E+00 0. -1.
         -4    1    3    3    0  502  0.21721038990E+03 -0.91069071020E+02  0.10333129651E+02  0.23575559961E+03  0.00000000000E+00 0. -1.
        -13    1    1    2    0    0  0.29067414211E+02  0.39785088413E+03  0.27174746259E+03  0.48267684341E+03  0.10566000000E+00 0.  1.
<mgrwt>
<rscale>  1 0.84297213E+03</rscale>
<asrwt>0</asrwt>
<pdfrwt beam="1">  1       21 0.40144893E+00 0.10817465E+04</pdfrwt>
<pdfrwt beam="2">  1       -4 0.36387792E-01 0.10817465E+04</pdfrwt>
<totfact> 0.17481496E+00</totfact>
</mgrwt>
</event>
<event>
 6    2  0.2379986E-005  0.1008993E+04  0.7818608E-02  0.9754062E-01
         21   -1    0    0  501  502  0.00000000000E+00  0.00000000000E+00  0.32549122255E+03  0.32549122255E+03  0.00000000000E+00 0. -1.
         -4   -1    0    0    0  501 -0.00000000000E+00 -0.00000000000E+00 -0.12149702051E+04  0.12149702051E+04  0.00000000000E+00 0. -1.
   -9000010    2    1    2    0  502  0.10944024409E+03  0.17543236818E+03 -0.56701563183E+03  0.11573996747E+04  0.98757966642E+03 0.  0.
         13    1    3    3    0    0  0.26112592437E+03 -0.34204678136E+03 -0.94873063376E+02  0.44066274898E+03  0.10566000000E+00 0. -1.
         -4    1    3    3    0  502 -0.15168568028E+03  0.51747914954E+03 -0.47214256845E+03  0.71673692576E+03  0.00000000000E+00 0. -1.
        -13    1    1    2    0    0 -0.10944024409E+03 -0.17543236818E+03 -0.32246335075E+03  0.38306175294E+03  0.10566000000E+00 0.  1.
<mgrwt>
<rscale>  1 0.67887198E+03</rscale>
<asrwt>0</asrwt>
<pdfrwt beam="1">  1       21 0.50075573E-01 0.10089932E+04</pdfrwt>
<pdfrwt beam="2">  1       -4 0.18691849E+00 0.10089932E+04</pdfrwt>
<totfact> 0.24115054E+01</totfact>
</mgrwt>
</event>
<event>
 6    2  0.2379986E-005  0.1197859E+04  0.7818608E-02  0.9486689E-01
         -4   -1    0    0    0  501 -0.00000000000E+00  0.00000000000E+00  0.66954851130E+03  0.66954851130E+03  0.00000000000E+00 0. -1.
         21   -1    0    0  501  502  0.00000000000E+00 -0.00000000000E+00 -0.16108357319E+04  0.16108357319E+04  0.00000000000E+00 0. -1.
   -9000010    2    1    2    0  502  0.30134116234E+03 -0.61837979359E+02 -0.13265699821E+04  0.17873596502E+04  0.11576856957E+04 0.  0.
         13    1    3    3    0    0 -0.98708834954E+02 -0.62723022312E+02  0.18769068831E+03  0.22114569240E+03  0.10566000000E+00 0. -1.
         -4    1    3    3    0  502  0.40004999730E+03  0.88504295250E+00 -0.15142606704E+04  0.15662139578E+04  0.00000000000E+00 0. -1.
        -13    1    1    2    0    0 -0.30134116234E+03  0.61837979359E+02  0.38528276151E+03  0.49302459299E+03  0.10566000000E+00 0.  1.
<mgrwt>
<rscale>  1 0.85272340E+03</rscale>
<asrwt>0</asrwt>
<pdfrwt beam="2">  1       21 0.24782088E+00 0.11978592E+04</pdfrwt>
<pdfrwt beam="1">  1       -4 0.10300746E+00 0.11978592E+04</pdfrwt>
<totfact> 0.16374516E+00</totfact>
</mgrwt>
</event>
<event>
 6    2  0.2379986E-005  0.1005924E+04  0.7818608E-02  0.9947172E-01
         -4   -1    0    0    0  501 -0.00000000000E+00  0.00000000000E+00  0.17019263100E+04  0.17019263100E+04  0.00000000000E+00 0. -1.
         21   -1    0    0  501  502  0.00000000000E+00 -0.00000000000E+00 -0.22434326181E+03  0.22434326181E+03  0.00000000000E+00 0. -1.
   -9000010    2    1    2    0  502  0.68007891104E+02  0.88227913778E+02  0.93831431327E+03  0.13756153994E+04  0.99973733472E+03 0.  0.
         13    1    3    3    0    0  0.53035993443E+02 -0.38234694422E+03  0.76401715385E+02  0.39349616978E+03  0.10566000000E+00 0. -1.
         -4    1    3    3    0  502  0.14971897660E+02  0.47057485800E+03  0.86191259789E+03  0.98211922958E+03  0.00000000000E+00 0. -1.
        -13    1    1    2    0    0 -0.68007891104E+02 -0.88227913778E+02  0.53926873487E+03  0.55065417241E+03  0.10566000000E+00 0.  1.
<mgrwt>
<rscale>  1 0.58028615E+03</rscale>
<asrwt>0</asrwt>
<pdfrwt beam="2">  1       21 0.34514349E-01 0.10059244E+04</pdfrwt>
<pdfrwt beam="1">  1       -4 0.26183481E+00 0.10059244E+04</pdfrwt>
<totfact> 0.17530576E+01</totfact>
</mgrwt>
</event>
<event>
 6    2  0.2379986E-005  0.1087040E+04  0.7818608E-02  0.9467073E-01
         21   -1    0    0  501  502  0.00000000000E+00  0.00000000000E+00  0.85069458459E+03  0.85069458459E+03  0.00000000000E+00 0.  1.
         -4   -1    0    0    0  501 -0.00000000000E+00 -0.00000000000E+00 -0.75043806928E+03  0.75043806928E+03  0.00000000000E+00 0. -1.
   -9000010    2    1    2    0  502 -0.29212361357E+03  0.33038946220E+03 -0.14474351122E+03  0.10966344611E+04  0.99356079578E+03 0.  0.
         13    1    3    3    0    0 -0.55506943995E+03  0.42350493366E+03 -0.31913368140E+03  0.76766192413E+03  0.10566000000E+00 0. -1.
         -4    1    3    3    0  502  0.26294582637E+03 -0.93115471459E+02  0.17439017018E+03  0.32897253698E+03  0.00000000000E+00 0. -1.
        -13    1    1    2    0    0  0.29212361357E+03 -0.33038946220E+03  0.24500002653E+03  0.50449819277E+03  0.10566000000E+00 0.  1.
<mgrwt>
<rscale>  1 0.86755572E+03</rscale>
<asrwt>0</asrwt>
<pdfrwt beam="1">  1       21 0.13087609E+00 0.10870402E+04</pdfrwt>
<pdfrwt beam="2">  1       -4 0.11545201E+00 0.10870402E+04</pdfrwt>
<totfact> 0.88782168E+00</totfact>
</mgrwt>
</event>
<event>
 6    2  0.2379986E-005  0.9997250E+03  0.7818608E-02  0.1019176E+00
         21   -1    0    0  501  502  0.00000000000E+00  0.00000000000E+00  0.41081266707E+03  0.41081266707E+03  0.00000000000E+00 0. -1.
         -4   -1    0    0    0  501 -0.00000000000E+00 -0.00000000000E+00 -0.69831234401E+03  0.69831234401E+03  0.00000000000E+00 0. -1.
   -9000010    2    1    2    0  502  0.48011607461E+02  0.22593946503E+02 -0.22066690308E+03  0.10237890181E+04  0.99831581708E+03 0.  0.
         13    1    3    3    0    0  0.25986009652E+03 -0.20103719359E+03  0.28284268462E+03  0.43352418430E+03  0.10566000000E+00 0. -1.
         -4    1    3    3    0  502 -0.21184848906E+03  0.22363114010E+03 -0.50350958770E+03  0.59026483382E+03  0.00000000000E+00 0. -1.
        -13    1    1    2    0    0 -0.48011607461E+02 -0.22593946503E+02 -0.66832773854E+02  0.85335992961E+02  0.10566000000E+00 0.  1.
<mgrwt>
<rscale>  1 0.47985168E+03</rscale>
<asrwt>0</asrwt>
<pdfrwt beam="1">  1       21 0.63201950E-01 0.99972500E+03</pdfrwt>
<pdfrwt beam="2">  1       -4 0.10743267E+00 0.99972500E+03</pdfrwt>
<totfact> 0.62891280E+01</totfact>
</mgrwt>
</event>
<event>
 6    2  0.2379986E-005  0.1097045E+04  0.7818608E-02  0.9459324E-01
         -4   -1    0    0    0  501 -0.00000000000E+00  0.00000000000E+00  0.11123459426E+04  0.11123459426E+04  0.00000000000E+00 0. -1.
         21   -1    0    0  501  502  0.00000000000E+00 -0.00000000000E+00 -0.66013174839E+03  0.66013174839E+03  0.00000000000E+00 0.  1.
   -9000010    2    1    2    0  502  0.23597241326E+03  0.37249029135E+03  0.66501515630E+03  0.12828694215E+04  0.10045281467E+04 0.  0.
         13    1    3    3    0    0  0.37020114825E+02  0.61275232180E+03  0.74056311586E+03  0.96190937021E+03  0.10566000000E+00 0. -1.
         -4    1    3    3    0  502  0.19895229843E+03 -0.24026203044E+03 -0.75547959563E+02  0.32096005128E+03  0.00000000000E+00 0. -1.
        -13    1    1    2    0    0 -0.23597241326E+03 -0.37249029135E+03 -0.21280096205E+03  0.48960826952E+03  0.10566000000E+00 0.  1.
<mgrwt>
<rscale>  1 0.87350320E+03</rscale>
<asrwt>0</asrwt>
<pdfrwt beam="2">  1       21 0.10155873E+00 0.10970455E+04</pdfrwt>
<pdfrwt beam="1">  1       -4 0.17113014E+00 0.10970455E+04</pdfrwt>
<totfact> 0.60182205E+00</totfact>
</mgrwt>
</event>
<event>
 6    2  0.2379986E-005  0.1037444E+04  0.7818608E-02  0.9630348E-01
         21   -1    0    0  501  502  0.00000000000E+00  0.00000000000E+00  0.33269092787E+03  0.33269092787E+03  0.00000000000E+00 0.  1.
         -4   -1    0    0    0  501 -0.00000000000E+00 -0.00000000000E+00 -0.16706967828E+04  0.16706967828E+04  0.00000000000E+00 0. -1.
   -9000010    2    1    2    0  502  0.13696811978E+03 -0.25360786938E+03 -0.57141324903E+03  0.11843996449E+04  0.99660032134E+03 0.  0.
         13    1    3    3    0    0  0.35804851051E+03  0.99266677036E+02 -0.66117738113E+03  0.75842478172E+03  0.10566000000E+00 0. -1.
         -4    1    3    3    0  502 -0.22108039072E+03 -0.35287454642E+03  0.89764132099E+02  0.42597486321E+03  0.00000000000E+00 0. -1.
        -13    1    1    2    0    0 -0.13696811978E+03  0.25360786938E+03 -0.76659260595E+03  0.81898806579E+03  0.10566000000E+00 0.  1.
<mgrwt>
<rscale>  1 0.75319712E+03</rscale>
<asrwt>0</asrwt>
<pdfrwt beam="1">  1       21 0.51183219E-01 0.10374437E+04</pdfrwt>
<pdfrwt beam="2">  1       -4 0.25703028E+00 0.10374437E+04</pdfrwt>
<totfact> 0.81422882E+00</totfact>
</mgrwt>
</event>
<event>
 6    2  0.2379986E-005  0.1117638E+04  0.7818608E-02  0.9428031E-01
         -4   -1    0    0    0  501 -0.00000000000E+00  0.00000000000E+00  0.45187903033E+03  0.45187903033E+03  0.00000000000E+00 0. -1.
         21   -1    0    0  501  502  0.00000000000E+00 -0.00000000000E+00 -0.16647802271E+04  0.16647802271E+04  0.00000000000E+00 0. -1.
   -9000010    2    1    2    0  502  0.24737730007E+03  0.39479096865E+03 -0.12148679395E+04  0.16507630064E+04  0.10159030245E+04 0.  0.
         13    1    3    3    0    0  0.16397218354E+03  0.48191299298E+03 -0.86953440057E+02  0.51641835917E+03  0.10566000000E+00 0. -1.
         -4    1    3    3    0  502  0.83405116531E+02 -0.87122024333E+02 -0.11279144994E+04  0.11343446472E+04  0.00000000000E+00 0. -1.
        -13    1    1    2    0    0 -0.24737730007E+03 -0.39479096865E+03  0.19667427298E+01  0.46589625107E+03  0.10566000000E+00 0.  1.
<mgrwt>
<rscale>  1 0.89804307E+03</rscale>
<asrwt>0</asrwt>
<pdfrwt beam="2">  1       21 0.25612003E+00 0.11176379E+04</pdfrwt>
<pdfrwt beam="1">  1       -4 0.69519852E-01 0.11176379E+04</pdfrwt>
<totfact> 0.36695783E+00</totfact>
</mgrwt>
</event>
<event>
 6    2  0.2379986E-005  0.1098124E+04  0.7818608E-02  0.9430580E-01
         21   -1    0    0  501  502  0.00000000000E+00  0.00000000000E+00  0.15815321375E+04  0.15815321375E+04  0.00000000000E+00 0.  1.
         -4   -1    0    0    0  501 -0.00000000000E+00 -0.00000000000E+00 -0.39708337524E+03  0.39708337524E+03  0.00000000000E+00 0. -1.
   -9000010    2    1    2    0  502  0.31760250782E+03 -0.36884888217E+03  0.81271715738E+03  0.13661571484E+04  0.98435528409E+03 0.  0.
         13    1    3    3    0    0  0.94317674014E+01 -0.59463246810E+03  0.78262400635E+03  0.98294306897E+03  0.10566000000E+00 0. -1.
         -4    1    3    3    0  502  0.30817074042E+03  0.22578358592E+03  0.30093151032E+02  0.38321407942E+03  0.00000000000E+00 0. -1.
        -13    1    1    2    0    0 -0.31760250782E+03  0.36884888217E+03  0.37173160492E+03  0.61245836440E+03  0.10566000000E+00 0.  1.
<mgrwt>
<rscale>  1 0.89601233E+03</rscale>
<asrwt>0</asrwt>
<pdfrwt beam="1">  1       21 0.24331263E+00 0.10981239E+04</pdfrwt>
<pdfrwt beam="2">  1       -4 0.61089751E-01 0.10981239E+04</pdfrwt>
<totfact> 0.59139424E+00</totfact>
</mgrwt>
</event>
<event>
 6    2  0.2379986E-005  0.1087591E+04  0.7818608E-02  0.9482665E-01
         21   -1    0    0  501  502  0.00000000000E+00  0.00000000000E+00  0.22546252232E+03  0.22546252232E+03  0.00000000000E+00 0.  1.
         -4   -1    0    0    0  501 -0.00000000000E+00 -0.00000000000E+00 -0.26970882443E+04  0.26970882443E+04  0.00000000000E+00 0. -1.
   -9000010    2    1    2    0  502 -0.22833642112E+03 -0.34873991793E+03 -0.14007171837E+04  0.17733762106E+04  0.10045384533E+04 0.  0.
         13    1    3    3    0    0 -0.43456399020E+03  0.19386509992E+03 -0.84503723206E+03  0.96980280123E+03  0.10566000000E+00 0. -1.
         -4    1    3    3    0  502  0.20622756908E+03 -0.54260501786E+03 -0.55567995160E+03  0.80357340938E+03  0.00000000000E+00 0. -1.
        -13    1    1    2    0    0  0.22833642112E+03  0.34873991793E+03 -0.10709085384E+04  0.11491745560E+04  0.10566000000E+00 0.  1.
<mgrwt>
<rscale>  1 0.85574045E+03</rscale>
<asrwt>0</asrwt>
<pdfrwt beam="1">  1       21 0.34686540E-01 0.10875912E+04</pdfrwt>
<pdfrwt beam="2">  1       -4 0.41493667E+00 0.10875912E+04</pdfrwt>
<totfact> 0.17531914E+00</totfact>
</mgrwt>
</event>
<event>
 6    2  0.2379986E-005  0.1058501E+04  0.7818608E-02  0.9564030E-01
         -4   -1    0    0    0  501 -0.00000000000E+00  0.00000000000E+00  0.79733226555E+03  0.79733226555E+03  0.00000000000E+00 0. -1.
         21   -1    0    0  501  502  0.00000000000E+00 -0.00000000000E+00 -0.93954430563E+03  0.93954430563E+03  0.00000000000E+00 0. -1.
   -9000010    2    1    2    0  502 -0.89878644980E+02 -0.32854687981E+03 -0.56026165743E+03  0.11976301370E+04  0.10021993800E+04 0.  0.
         13    1    3    3    0    0 -0.65511046052E+02 -0.56364197015E+03 -0.71674361378E+03  0.91416923309E+03  0.10566000000E+00 0. -1.
         -4    1    3    3    0  502 -0.24367598928E+02  0.23509509034E+03  0.15648195635E+03  0.28346090390E+03  0.00000000000E+00 0. -1.
        -13    1    1    2    0    0  0.89878644980E+02  0.32854687981E+03  0.41804961735E+03  0.53924643419E+03  0.10566000000E+00 0.  1.
<mgrwt>
<rscale>  1 0.79723380E+03</rscale>
<asrwt>0</asrwt>
<pdfrwt beam="2">  1       21 0.14454528E+00 0.10585012E+04</pdfrwt>
<pdfrwt beam="1">  1       -4 0.12266650E+00 0.10585012E+04</pdfrwt>
<totfact> 0.58428211E+00</totfact>
</mgrwt>
</event>
<event>
 6    2  0.2379986E-005  0.9954476E+03  0.7818608E-02  0.1059827E+00
         -4   -1    0    0    0  501 -0.00000000000E+00  0.00000000000E+00  0.12277040619E+04  0.12277040619E+04  0.00000000000E+00 0. -1.
         21   -1    0    0  501  502  0.00000000000E+00 -0.00000000000E+00 -0.21936432185E+03  0.21936432185E+03  0.00000000000E+00 0. -1.
   -9000010    2    1    2    0  502  0.70271095516E+01  0.14867106985E+02  0.10212681939E+04  0.14261502762E+04  0.99531174779E+03 0.  0.
         13    1    3    3    0    0  0.21862869905E+03 -0.18708661727E+03  0.10886042502E+04  0.11259925112E+04  0.10566000000E+00 0. -1.
         -4    1    3    3    0  502 -0.21160158950E+03  0.20195372426E+03 -0.67336056349E+02  0.30015776503E+03  0.00000000000E+00 0. -1.
        -13    1    1    2    0    0 -0.70271095516E+01 -0.14867106985E+02 -0.12928453873E+02  0.20918107523E+02  0.10566000000E+00 0.  1.
<mgrwt>
<rscale>  1 0.35687750E+03</rscale>
<asrwt>0</asrwt>
<pdfrwt beam="2">  1       21 0.33748358E-01 0.99544758E+03</pdfrwt>
<pdfrwt beam="1">  1       -4 0.18887754E+00 0.99544758E+03</pdfrwt>
<totfact> 0.53677485E+01</totfact>
</mgrwt>
</event>
<event>
 6    2  0.2379986E-005  0.1077178E+04  0.7818608E-02  0.9511421E-01
         21   -1    0    0  501  502  0.00000000000E+00  0.00000000000E+00  0.52487939873E+03  0.52487939873E+03  0.00000000000E+00 0. -1.
         -4   -1    0    0    0  501 -0.00000000000E+00 -0.00000000000E+00 -0.15898847677E+04  0.15898847677E+04  0.00000000000E+00 0. -1.
   -9000010    2    1    2    0  502 -0.22495129994E+03 -0.31607909536E+03 -0.10856279878E+03  0.10826345800E+04  0.10048893824E+04 0.  0.
         13    1    3    3    0    0  0.22885655227E+03 -0.23892357358E+03  0.31520082598E+03  0.45695882461E+03  0.10566000000E+00 0. -1.
         -4    1    3    3    0  502 -0.45380785220E+03 -0.77155521783E+02 -0.42376362477E+03  0.62567575543E+03  0.00000000000E+00 0. -1.
        -13    1    1    2    0    0  0.22495129994E+03  0.31607909536E+03 -0.95644257015E+03  0.10321295864E+04  0.10566000000E+00 0.  1.
<mgrwt>
<rscale>  1 0.83447024E+03</rscale>
<asrwt>0</asrwt>
<pdfrwt beam="1">  1       21 0.80750677E-01 0.10771777E+04</pdfrwt>
<pdfrwt beam="2">  1       -4 0.24459765E+00 0.10771777E+04</pdfrwt>
<totfact> 0.34508888E+00</totfact>
</mgrwt>
</event>
<event>
 6    2  0.2379986E-005  0.1018050E+04  0.7818608E-02  0.9793906E-01
         21   -1    0    0  501  502  0.00000000000E+00  0.00000000000E+00  0.65630119671E+03  0.65630119671E+03  0.00000000000E+00 0. -1.
         -4   -1    0    0    0  501 -0.00000000000E+00 -0.00000000000E+00 -0.54355088261E+03  0.54355088261E+03  0.00000000000E+00 0. -1.
   -9000010    2    1    2    0  502 -0.13081519394E+03 -0.11846538026E+03  0.94517123737E+02  0.10224285136E+04  0.10026364832E+04 0.  0.
         13    1    3    3    0    0  0.24423655795E+03 -0.22439709103E+03 -0.31477963383E+03  0.45726554620E+03  0.10566000000E+00 0. -1.
         -4    1    3    3    0  502 -0.37505175189E+03  0.10593171077E+03  0.40929675757E+03  0.56516296738E+03  0.00000000000E+00 0. -1.
        -13    1    1    2    0    0  0.13081519394E+03  0.11846538026E+03  0.18233190362E+02  0.17742356574E+03  0.10566000000E+00 0.  1.
<mgrwt>
<rscale>  1 0.65690636E+03</rscale>
<asrwt>0</asrwt>
<pdfrwt beam="1">  1       21 0.10096941E+00 0.10180504E+04</pdfrwt>
<pdfrwt beam="2">  1       -4 0.83623213E-01 0.10180504E+04</pdfrwt>
<totfact> 0.37812718E+01</totfact>
</mgrwt>
</event>
<event>
 6    2  0.2379986E-005  0.1041788E+04  0.7818608E-02  0.9563782E-01
         21   -1    0    0  501  502  0.00000000000E+00  0.00000000000E+00  0.46308459200E+03  0.46308459200E+03  0.00000000000E+00 0. -1.
         -4   -1    0    0    0  501 -0.00000000000E+00 -0.00000000000E+00 -0.12450030101E+04  0.12450030101E+04  0.00000000000E+00 0. -1.
   -9000010    2    1    2    0  502  0.20362732156E+03 -0.29394147141E+03 -0.25712533134E+03  0.10730494381E+04  0.97849679910E+03 0.  0.
         13    1    3    3    0    0 -0.34212709439E+03  0.56584032424E+02  0.58553272981E+02  0.35168337803E+03  0.10566000000E+00 0. -1.
         -4    1    3    3    0  502  0.54575441595E+03 -0.35052550383E+03 -0.31567860432E+03  0.72136606005E+03  0.00000000000E+00 0. -1.
        -13    1    1    2    0    0 -0.20362732156E+03  0.29394147141E+03 -0.52479308678E+03  0.63503816404E+03  0.10566000000E+00 0.  1.
<mgrwt>
<rscale>  1 0.79740449E+03</rscale>
<asrwt>0</asrwt>
<pdfrwt beam="1">  1       21 0.71243783E-01 0.10417877E+04</pdfrwt>
<pdfrwt beam="2">  1       -4 0.19153893E+00 0.10417877E+04</pdfrwt>
<totfact> 0.10187938E+01</totfact>
</mgrwt>
</event>
<event>
 6    2  0.2379986E-005  0.1077217E+04  0.7818608E-02  0.9494149E-01
         21   -1    0    0  501  502  0.00000000000E+00  0.00000000000E+00  0.68302748976E+03  0.68302748976E+03  0.00000000000E+00 0. -1.
         -4   -1    0    0    0  501 -0.00000000000E+00 -0.00000000000E+00 -0.10963149336E+04  0.10963149336E+04  0.00000000000E+00 0. -1.
   -9000010    2    1    2    0  502 -0.40829266928E+03  0.55620653365E+02  0.14342195627E+03  0.10867228105E+04  0.99528892707E+03 0.  0.
         13    1    3    3    0    0 -0.61803104935E+03  0.30427688869E+03  0.26690722746E+03  0.73877349857E+03  0.10566000000E+00 0. -1.
         -4    1    3    3    0  502  0.20973838008E+03 -0.24865623532E+03 -0.12348527119E+03  0.34794931188E+03  0.00000000000E+00 0. -1.
        -13    1    1    2    0    0  0.40829266928E+03 -0.55620653365E+02 -0.55670940015E+03  0.69261961295E+03  0.10566000000E+00 0.  1.
<mgrwt>
<rscale>  1 0.84716603E+03</rscale>
<asrwt>0</asrwt>
<pdfrwt beam="1">  1       21 0.10508115E+00 0.10772171E+04</pdfrwt>
<pdfrwt beam="2">  1       -4 0.16866383E+00 0.10772171E+04</pdfrwt>
<totfact> 0.57688206E+00</totfact>
</mgrwt>
</event>
<event>
 6    2  0.2379986E-005  0.1083384E+04  0.7818608E-02  0.9446810E-01
         21   -1    0    0  501  502  0.00000000000E+00  0.00000000000E+00  0.12731453808E+04  0.12731453808E+04  0.00000000000E+00 0. -1.
         -4   -1    0    0    0  501 -0.00000000000E+00 -0.00000000000E+00 -0.51064249645E+03  0.51064249645E+03  0.00000000000E+00 0. -1.
   -9000010    2    1    2    0  502 -0.36834165573E+03  0.30549215937E+03  0.72539869291E+03  0.13038110372E+04  0.97196652322E+03 0.  0.
         13    1    3    3    0    0 -0.28898699135E+03  0.59246217223E+03  0.18144269037E+03  0.68370049565E+03  0.10566000000E+00 0. -1.
         -4    1    3    3    0  502 -0.79354664379E+02 -0.28697001286E+03  0.54395600254E+03  0.62011054155E+03  0.00000000000E+00 0. -1.
        -13    1    1    2    0    0  0.36834165573E+03 -0.30549215937E+03  0.37104191427E+02  0.47997684003E+03  0.10566000000E+00 0.  1.
<mgrwt>
<rscale>  1 0.88321486E+03</rscale>
<asrwt>0</asrwt>
<pdfrwt beam="1">  1       21 0.19586852E+00 0.10833836E+04</pdfrwt>
<pdfrwt beam="2">  1       -4 0.78560384E-01 0.10833836E+04</pdfrwt>
<totfact> 0.69795710E+00</totfact>
</mgrwt>
</event>
<event>
 6    2  0.2379986E-005  0.1002032E+04  0.7818608E-02  0.9972955E-01
         -4   -1    0    0    0  501 -0.00000000000E+00  0.00000000000E+00  0.19087509917E+03  0.19087509917E+03  0.00000000000E+00 0. -1.
         21   -1    0    0  501  502  0.00000000000E+00 -0.00000000000E+00 -0.17938768410E+04  0.17938768410E+04  0.00000000000E+00 0. -1.
   -9000010    2    1    2    0  502 -0.41217005512E+02  0.95304098773E+02 -0.15909631463E+04  0.18802213144E+04  0.99663772019E+03 0.  0.
         13    1    3    3    0    0 -0.22635170803E+03  0.49223483239E+03 -0.10720737831E+04  0.12011962511E+04  0.10566000000E+00 0. -1.
         -4    1    3    3    0  502  0.18513470252E+03 -0.39693073362E+03 -0.51888936320E+03  0.67902506332E+03  0.00000000000E+00 0. -1.
        -13    1    1    2    0    0  0.41217005512E+02 -0.95304098773E+02 -0.12038595533E+02  0.10453062581E+03  0.10566000000E+00 0.  1.
<mgrwt>
<rscale>  1 0.56852200E+03</rscale>
<asrwt>0</asrwt>
<pdfrwt beam="2">  1       21 0.27598106E+00 0.10020322E+04</pdfrwt>
<pdfrwt beam="1">  1       -4 0.29365399E-01 0.10020322E+04</pdfrwt>
<totfact> 0.16881988E+01</totfact>
</mgrwt>
</event>
<event>
 6    2  0.2379986E-005  0.1087420E+04  0.7818608E-02  0.9471869E-01
         -4   -1    0    0    0  501 -0.00000000000E+00  0.00000000000E+00  0.20901380857E+03  0.20901380857E+03  0.00000000000E+00 0. -1.
         21   -1    0    0  501  502  0.00000000000E+00 -0.00000000000E+00 -0.29239278642E+04  0.29239278642E+04  0.00000000000E+00 0. -1.
   -9000010    2    1    2    0  502  0.35460969624E+03 -0.24877667582E+03 -0.22409520008E+04  0.24908529627E+04  0.99741903958E+03 0.  0.
         13    1    3    3    0    0 -0.25044650821E+03 -0.18755064073E+03 -0.22558581579E+03  0.38573004519E+03  0.10566000000E+00 0. -1.
         -4    1    3    3    0  502  0.60505620445E+03 -0.61226035090E+02 -0.20153661850E+04  0.21051229175E+04  0.00000000000E+00 0. -1.
        -13    1    1    2    0    0 -0.35460969624E+03  0.24877667582E+03 -0.47396205483E+03  0.64208871014E+03  0.10566000000E+00 0.  1.
<mgrwt>
<rscale>  1 0.86389926E+03</rscale>
<asrwt>0</asrwt>
<pdfrwt beam="2">  1       21 0.44983503E+00 0.10874202E+04</pdfrwt>
<pdfrwt beam="1">  1       -4 0.32155972E-01 0.10874202E+04</pdfrwt>
<totfact> 0.10562987E+00</totfact>
</mgrwt>
</event>
<event>
 6    2  0.2379986E-005  0.1068593E+04  0.7818608E-02  0.9541060E-01
         21   -1    0    0  501  502  0.00000000000E+00  0.00000000000E+00  0.75148255603E+03  0.75148255603E+03  0.00000000000E+00 0. -1.
         -4   -1    0    0    0  501 -0.00000000000E+00 -0.00000000000E+00 -0.90766773507E+03  0.90766773507E+03  0.00000000000E+00 0. -1.
   -9000010    2    1    2    0  502  0.30900440090E+03  0.18165365991E+03  0.27009363070E+03  0.11021984020E+04  0.10066821624E+04 0.  0.
         13    1    3    3    0    0 -0.31513466328E+03 -0.68869944113E+02 -0.95892508410E+02  0.33652386176E+03  0.10566000000E+00 0. -1.
         -4    1    3    3    0  502  0.62413906418E+03  0.25052360403E+03  0.36598613911E+03  0.76567454027E+03  0.00000000000E+00 0. -1.
        -13    1    1    2    0    0 -0.30900440090E+03 -0.18165365991E+03 -0.42627880974E+03  0.55695188906E+03  0.10566000000E+00 0.  1.
<mgrwt>
<rscale>  1 0.81323189E+03</rscale>
<asrwt>0</asrwt>
<pdfrwt beam="1">  1       21 0.11561270E+00 0.10685929E+04</pdfrwt>
<pdfrwt beam="2">  1       -4 0.13964119E+00 0.10685929E+04</pdfrwt>
<totfact> 0.75682598E+00</totfact>
</mgrwt>
</event>
<event>
 6    2  0.2379986E-005  0.9689959E+03  0.7818608E-02  0.9899211E-01
         21   -1    0    0  501  502  0.00000000000E+00  0.00000000000E+00  0.65190512067E+03  0.65190512067E+03  0.00000000000E+00 0. -1.
         -4   -1    0    0    0  501 -0.00000000000E+00 -0.00000000000E+00 -0.48555031328E+03  0.48555031328E+03  0.00000000000E+00 0. -1.
   -9000010    2    1    2    0  502  0.14152304083E+03  0.32950067639E+02  0.19732530699E+03  0.98888336036E+03  0.95803890609E+03 0.  0.
         13    1    3    3    0    0  0.40778999657E+03 -0.32182883635E+03  0.51913468954E+02  0.52207422905E+03  0.10566000000E+00 0. -1.
         -4    1    3    3    0  502 -0.26626695574E+03  0.35477890399E+03  0.14541183803E+03  0.46680913132E+03  0.00000000000E+00 0. -1.
        -13    1    1    2    0    0 -0.14152304083E+03 -0.32950067639E+02 -0.30970499591E+02  0.14857207359E+03  0.10566000000E+00 0.  1.
<mgrwt>
<rscale>  1 0.60299543E+03</rscale>
<asrwt>0</asrwt>
<pdfrwt beam="1">  1       21 0.10029310E+00 0.96899588E+03</pdfrwt>
<pdfrwt beam="2">  1       -4 0.74700048E-01 0.96899588E+03</pdfrwt>
<totfact> 0.50011434E+01</totfact>
</mgrwt>
</event>
<event>
 6    2  0.2379986E-005  0.1010658E+04  0.7818608E-02  0.9870583E-01
         21   -1    0    0  501  502  0.00000000000E+00  0.00000000000E+00  0.52205897826E+03  0.52205897826E+03  0.00000000000E+00 0. -1.
         -4   -1    0    0    0  501 -0.00000000000E+00 -0.00000000000E+00 -0.65584528969E+03  0.65584528969E+03  0.00000000000E+00 0. -1.
   -9000010    2    1    2    0  502 -0.60450797535E+02 -0.12679006642E+03 -0.18678752985E+03  0.10277737908E+04  0.10008493212E+04 0.  0.
         13    1    3    3    0    0 -0.31440923587E+03  0.38883275302E+02 -0.49994644825E+03  0.59187121824E+03  0.10566000000E+00 0. -1.
         -4    1    3    3    0  502  0.25395843833E+03 -0.16567334172E+03  0.31315891840E+03  0.43590257252E+03  0.00000000000E+00 0. -1.
        -13    1    1    2    0    0  0.60450797535E+02  0.12679006642E+03  0.53001218420E+02  0.15013047720E+03  0.10566000000E+00 0.  1.
<mgrwt>
<rscale>  1 0.61708381E+03</rscale>
<asrwt>0</asrwt>
<pdfrwt beam="1">  1       21 0.80316766E-01 0.10106579E+04</pdfrwt>
<pdfrwt beam="2">  1       -4 0.10089928E+00 0.10106579E+04</pdfrwt>
<totfact> 0.42193083E+01</totfact>
</mgrwt>
</event>
<event>
 6    2  0.2379986E-005  0.1010603E+04  0.7818608E-02  0.1010415E+00
         21   -1    0    0  501  502  0.00000000000E+00  0.00000000000E+00  0.12367977832E+04  0.12367977832E+04  0.00000000000E+00 0. -1.
         -4   -1    0    0    0  501 -0.00000000000E+00 -0.00000000000E+00 -0.39372908956E+03  0.39372908956E+03  0.00000000000E+00 0. -1.
   -9000010    2    1    2    0  502  0.66941515458E+02  0.53275085746E+01  0.10232859915E+04  0.14382046577E+04  0.10083694106E+04 0.  0.
         13    1    3    3    0    0 -0.33657307691E+03  0.33942750637E+03  0.58277198441E+03  0.75373447922E+03  0.10566000000E+00 0. -1.
         -4    1    3    3    0  502  0.40351459237E+03 -0.33409999780E+03  0.44051400706E+03  0.68447017846E+03  0.00000000000E+00 0. -1.
        -13    1    1    2    0    0 -0.66941515458E+02 -0.53275085746E+01 -0.18021729780E+03  0.19232221512E+03  0.10566000000E+00 0.  1.
<mgrwt>
<rscale>  1 0.51310023E+03</rscale>
<asrwt>0</asrwt>
<pdfrwt beam="1">  1       21 0.19027658E+00 0.10106030E+04</pdfrwt>
<pdfrwt beam="2">  1       -4 0.60573707E-01 0.10106030E+04</pdfrwt>
<totfact> 0.13787267E+01</totfact>
</mgrwt>
</event>
<event>
 6    2  0.2379986E-005  0.1067382E+04  0.7818608E-02  0.9549122E-01
         21   -1    0    0  501  502  0.00000000000E+00  0.00000000000E+00  0.65912745557E+03  0.65912745557E+03  0.00000000000E+00 0. -1.
         -4   -1    0    0    0  501 -0.00000000000E+00 -0.00000000000E+00 -0.10199045191E+04  0.10199045191E+04  0.00000000000E+00 0. -1.
   -9000010    2    1    2    0  502 -0.34822119603E+03  0.32724175140E+02  0.13118519556E+03  0.10754130978E+04  0.10084517353E+04 0.  0.
         13    1    3    3    0    0  0.14415653121E+03 -0.38678607114E+03  0.11440651589E+03  0.42833798846E+03  0.10566000000E+00 0. -1.
         -4    1    3    3    0  502 -0.49237772723E+03  0.41951024628E+03  0.16778679663E+02  0.64707510932E+03  0.00000000000E+00 0. -1.
        -13    1    1    2    0    0  0.34822119603E+03 -0.32724175140E+02 -0.49196225908E+03  0.60361887688E+03  0.10566000000E+00 0.  1.
<mgrwt>
<rscale>  1 0.80757144E+03</rscale>
<asrwt>0</asrwt>
<pdfrwt beam="1">  1       21 0.10140422E+00 0.10673817E+04</pdfrwt>
<pdfrwt beam="2">  1       -4 0.15690839E+00 0.10673817E+04</pdfrwt>
<totfact> 0.77170638E+00</totfact>
</mgrwt>
</event>
<event>
 6    2  0.2379986E-005  0.1056025E+04  0.7818608E-02  0.9611920E-01
         -4   -1    0    0    0  501 -0.00000000000E+00  0.00000000000E+00  0.20789332272E+04  0.20789332272E+04  0.00000000000E+00 0. -1.
         21   -1    0    0  501  502  0.00000000000E+00 -0.00000000000E+00 -0.23598295132E+03  0.23598295132E+03  0.00000000000E+00 0. -1.
   -9000010    2    1    2    0  502 -0.12277791790E+03 -0.26383646526E+03  0.11391991828E+04  0.15533718858E+04  0.10151380892E+04 0.  0.
         13    1    3    3    0    0  0.58381927437E+02 -0.43787380427E+03  0.60577915294E+02  0.44588295875E+03  0.10566000000E+00 0. -1.
         -4    1    3    3    0  502 -0.18115984534E+03  0.17403733901E+03  0.10786212675E+04  0.11074889271E+04  0.00000000000E+00 0. -1.
        -13    1    1    2    0    0  0.12277791790E+03  0.26383646526E+03  0.70375109312E+03  0.76154429271E+03  0.10566000000E+00 0.  1.
<mgrwt>
<rscale>  1 0.76512252E+03</rscale>
<asrwt>0</asrwt>
<pdfrwt beam="2">  1       21 0.36305071E-01 0.10560253E+04</pdfrwt>
<pdfrwt beam="1">  1       -4 0.31983587E+00 0.10560253E+04</pdfrwt>
<totfact> 0.68678126E+00</totfact>
</mgrwt>
</event>
<event>
 6    2  0.2379986E-005  0.1128133E+04  0.7818608E-02  0.9408852E-01
         21   -1    0    0  501  502  0.00000000000E+00  0.00000000000E+00  0.71422875235E+03  0.71422875235E+03  0.00000000000E+00 0. -1.
         -4   -1    0    0    0  501 -0.00000000000E+00 -0.00000000000E+00 -0.98948532733E+03  0.98948532733E+03  0.00000000000E+00 0. -1.
   -9000010    2    1    2    0  502 -0.14406636265E+02  0.48481556766E+03  0.33710929752E+02  0.11286361580E+04  0.10185428143E+04 0.  0.
         13    1    3    3    0    0 -0.37716825062E+03  0.29229646974E+03  0.36518119841E+03  0.60087472433E+03  0.10566000000E+00 0. -1.
         -4    1    3    3    0  502  0.36276161435E+03  0.19251909792E+03 -0.33147026866E+03  0.52776143371E+03  0.00000000000E+00 0. -1.
        -13    1    1    2    0    0  0.14406636265E+02 -0.48481556766E+03 -0.30896750473E+03  0.57507792164E+03  0.10566000000E+00 0.  1.
<mgrwt>
<rscale>  1 0.91350761E+03</rscale>
<asrwt>0</asrwt>
<pdfrwt beam="1">  1       21 0.10988135E+00 0.11281326E+04</pdfrwt>
<pdfrwt beam="2">  1       -4 0.15222851E+00 0.11281326E+04</pdfrwt>
<totfact> 0.67992416E+00</totfact>
</mgrwt>
</event>
<event>
 6    2  0.2379986E-005  0.1059725E+04  0.7818608E-02  0.9560415E-01
         -4   -1    0    0    0  501 -0.00000000000E+00  0.00000000000E+00  0.42891509174E+03  0.42891509174E+03  0.00000000000E+00 0. -1.
         21   -1    0    0  501  502  0.00000000000E+00 -0.00000000000E+00 -0.11604837796E+04  0.11604837796E+04  0.00000000000E+00 0. -1.
   -9000010    2    1    2    0  502  0.31874870691E+03 -0.12857342844E+03 -0.62137088232E+03  0.12284619902E+04  0.10024396357E+04 0.  0.
         13    1    3    3    0    0 -0.21931862826E+03 -0.21905225939E+03 -0.60825257010E+03  0.68268276179E+03  0.10566000000E+00 0. -1.
         -4    1    3    3    0  502  0.53806733518E+03  0.90478830950E+02 -0.13118312223E+02  0.54577922840E+03  0.00000000000E+00 0. -1.
        -13    1    1    2    0    0 -0.31874870691E+03  0.12857342844E+03 -0.11019780552E+03  0.36093688114E+03  0.10566000000E+00 0.  1.
<mgrwt>
<rscale>  1 0.79972519E+03</rscale>
<asrwt>0</asrwt>
<pdfrwt beam="2">  1       21 0.17853596E+00 0.10597250E+04</pdfrwt>
<pdfrwt beam="1">  1       -4 0.65986938E-01 0.10597250E+04</pdfrwt>
<totfact> 0.13781324E+01</totfact>
</mgrwt>
</event>
<event>
 6    2  0.2379986E-005  0.1097395E+04  0.7818608E-02  0.9488227E-01
         -4   -1    0    0    0  501 -0.00000000000E+00  0.00000000000E+00  0.13035778247E+04  0.13035778247E+04  0.00000000000E+00 0. -1.
         21   -1    0    0  501  502  0.00000000000E+00 -0.00000000000E+00 -0.42944676526E+03  0.42944676526E+03  0.00000000000E+00 0. -1.
   -9000010    2    1    2    0  502 -0.28687453231E+03  0.27576549978E+03  0.61184902875E+03  0.12564372602E+04  0.10227080456E+04 0.  0.
         13    1    3    3    0    0 -0.45457431294E+03  0.25706411946E+03  0.83001237477E+03  0.98063261262E+03  0.10566000000E+00 0. -1.
         -4    1    3    3    0  502  0.16769978063E+03  0.18701380317E+02 -0.21816334602E+03  0.27580464753E+03  0.00000000000E+00 0. -1.
        -13    1    1    2    0    0  0.28687453231E+03 -0.27576549978E+03  0.26228203070E+03  0.47658732982E+03  0.10566000000E+00 0.  1.
<mgrwt>
<rscale>  1 0.85157371E+03</rscale>
<asrwt>0</asrwt>
<pdfrwt beam="2">  1       21 0.66068734E-01 0.10973948E+04</pdfrwt>
<pdfrwt beam="1">  1       -4 0.20055043E+00 0.10973948E+04</pdfrwt>
<totfact> 0.10471819E+01</totfact>
</mgrwt>
</event>
<event>
 6    2  0.2379986E-005  0.1056324E+04  0.7818608E-02  0.9735972E-01
         -4   -1    0    0    0  501 -0.00000000000E+00  0.00000000000E+00  0.53019035398E+03  0.53019035398E+03  0.00000000000E+00 0. -1.
         21   -1    0    0  501  502  0.00000000000E+00 -0.00000000000E+00 -0.73793151072E+03  0.73793151072E+03  0.00000000000E+00 0. -1.
   -9000010    2    1    2    0  502  0.19135387667E+03 -0.19431897139E+01 -0.20876254615E+03  0.10767553668E+04  0.10388456272E+04 0.  0.
         13    1    3    3    0    0  0.34502661257E+03 -0.10317146156E+03 -0.56833897368E+03  0.67282755148E+03  0.10566000000E+00 0. -1.
         -4    1    3    3    0  502 -0.15367273590E+03  0.10122827184E+03  0.35957642753E+03  0.40392781535E+03  0.00000000000E+00 0. -1.
        -13    1    1    2    0    0 -0.19135387667E+03  0.19431897139E+01  0.10213894075E+01  0.19136649786E+03  0.10566000000E+00 0.  1.
<mgrwt>
<rscale>  1 0.68914844E+03</rscale>
<asrwt>0</asrwt>
<pdfrwt beam="2">  1       21 0.11352792E+00 0.10563240E+04</pdfrwt>
<pdfrwt beam="1">  1       -4 0.81567747E-01 0.10563240E+04</pdfrwt>
<totfact> 0.29697062E+01</totfact>
</mgrwt>
</event>
<event>
 6    2  0.2379986E-005  0.9989683E+03  0.7818608E-02  0.1045414E+00
         21   -1    0    0  501  502  0.00000000000E+00  0.00000000000E+00  0.14388085267E+04  0.14388085267E+04  0.00000000000E+00 0. -1.
         -4   -1    0    0    0  501 -0.00000000000E+00 -0.00000000000E+00 -0.25177757768E+03  0.25177757768E+03  0.00000000000E+00 0. -1.
   -9000010    2    1    2    0  502 -0.13209923034E+02  0.20629904959E+02  0.12632605663E+04  0.16105170044E+04  0.99866794685E+03 0.  0.
         13    1    3    3    0    0 -0.45692569845E+03 -0.19306943453E+03  0.74992078827E+03  0.89913185924E+03  0.10566000000E+00 0. -1.
         -4    1    3    3    0  502  0.44371577542E+03  0.21369933949E+03  0.51333977802E+03  0.71138514516E+03  0.00000000000E+00 0. -1.
        -13    1    1    2    0    0  0.13209923034E+02 -0.20629904959E+02 -0.76229617316E+02  0.80069099941E+02  0.10566000000E+00 0.  1.
<mgrwt>
<rscale>  1 0.39531411E+03</rscale>
<asrwt>0</asrwt>
<pdfrwt beam="1">  1       21 0.22135515E+00 0.99896835E+03</pdfrwt>
<pdfrwt beam="2">  1       -4 0.38735013E-01 0.99896835E+03</pdfrwt>
<totfact> 0.21723590E+01</totfact>
</mgrwt>
</event>
<event>
 6    2  0.2379986E-005  0.1028752E+04  0.7818608E-02  0.9717921E-01
         21   -1    0    0  501  502  0.00000000000E+00  0.00000000000E+00  0.18483854872E+04  0.18483854872E+04  0.00000000000E+00 0. -1.
         -4   -1    0    0    0  501 -0.00000000000E+00 -0.00000000000E+00 -0.35717142747E+03  0.35717142747E+03  0.00000000000E+00 0. -1.
   -9000010    2    1    2    0  502 -0.21386319513E+03  0.51681070105E+02  0.16428310403E+04  0.19383563922E+04  0.10049493903E+04 0.  0.
         13    1    3    3    0    0 -0.20973334495E+03 -0.40324370903E+03  0.12741060049E+04  0.13527526337E+04  0.10566000000E+00 0. -1.
         -4    1    3    3    0  502 -0.41298501799E+01  0.45492477914E+03  0.36872503536E+03  0.58560375856E+03  0.00000000000E+00 0. -1.
        -13    1    1    2    0    0  0.21386319513E+03 -0.51681070105E+02 -0.15161698058E+03  0.26720052246E+03  0.10566000000E+00 0.  1.
<mgrwt>
<rscale>  1 0.69959754E+03</rscale>
<asrwt>0</asrwt>
<pdfrwt beam="1">  1       21 0.28436699E+00 0.10287525E+04</pdfrwt>
<pdfrwt beam="2">  1       -4 0.54949451E-01 0.10287525E+04</pdfrwt>
<totfact> 0.41419911E+00</totfact>
</mgrwt>
</event>
<event>
 6    2  0.2379986E-005  0.1162614E+04  0.7818608E-02  0.9310902E-01
         21   -1    0    0  501  502  0.00000000000E+00  0.00000000000E+00  0.10514686415E+04  0.10514686415E+04  0.00000000000E+00 0.  1.
         -4   -1    0    0    0  501 -0.00000000000E+00 -0.00000000000E+00 -0.78529756393E+03  0.78529756393E+03  0.00000000000E+00 0. -1.
   -9000010    2    1    2    0  502 -0.32810390649E+03  0.53887254873E+03  0.29663124337E+02  0.11629918958E+04  0.97654208891E+03 0.  0.
         13    1    3    3    0    0 -0.35966796370E+03 -0.19625596148E+03  0.10605333242E+03  0.42323133983E+03  0.10566000000E+00 0. -1.
         -4    1    3    3    0  502  0.31564057209E+02  0.73512851020E+03 -0.76390208086E+02  0.73976055593E+03  0.00000000000E+00 0. -1.
        -13    1    1    2    0    0  0.32810390649E+03 -0.53887254873E+03  0.23650795319E+03  0.67377430963E+03  0.10566000000E+00 0.  1.
<mgrwt>
<rscale>  1 0.99785366E+03</rscale>
<asrwt>0</asrwt>
<pdfrwt beam="1">  1       21 0.16176441E+00 0.11626135E+04</pdfrwt>
<pdfrwt beam="2">  1       -4 0.12081501E+00 0.11626135E+04</pdfrwt>
<totfact> 0.43674537E+00</totfact>
</mgrwt>
</event>
<event>
 6    2  0.2379986E-005  0.9947056E+03  0.7818608E-02  0.9904904E-01
         21   -1    0    0  501  502  0.00000000000E+00  0.00000000000E+00  0.63568140711E+03  0.63568140711E+03  0.00000000000E+00 0. -1.
         -4   -1    0    0    0  501 -0.00000000000E+00 -0.00000000000E+00 -0.51375795526E+03  0.51375795526E+03  0.00000000000E+00 0. -1.
   -9000010    2    1    2    0  502  0.50518358171E+02  0.12183449755E+03  0.42784346437E+02  0.99562532376E+03  0.98592268242E+03 0.  0.
         13    1    3    3    0    0 -0.20168110903E+03 -0.36385605139E+03 -0.10440069949E+03  0.42891259377E+03  0.10566000000E+00 0. -1.
         -4    1    3    3    0  502  0.25219946720E+03  0.48569054894E+03  0.14718504593E+03  0.56671272999E+03  0.00000000000E+00 0. -1.
        -13    1    1    2    0    0 -0.50518358171E+02 -0.12183449755E+03  0.79139105416E+02  0.15381403862E+03  0.10566000000E+00 0.  1.
<mgrwt>
<rscale>  1 0.60024204E+03</rscale>
<asrwt>0</asrwt>
<pdfrwt beam="1">  1       21 0.97797139E-01 0.99470563E+03</pdfrwt>
<pdfrwt beam="2">  1       -4 0.79039686E-01 0.99470563E+03</pdfrwt>
<totfact> 0.46692339E+01</totfact>
</mgrwt>
</event>
<event>
 6    2  0.2379986E-005  0.1009100E+04  0.7818608E-02  0.9867100E-01
         -4   -1    0    0    0  501 -0.00000000000E+00  0.00000000000E+00  0.10552641206E+04  0.10552641206E+04  0.00000000000E+00 0. -1.
         21   -1    0    0  501  502  0.00000000000E+00 -0.00000000000E+00 -0.42131983150E+03  0.42131983150E+03  0.00000000000E+00 0. -1.
   -9000010    2    1    2    0  502  0.14338158415E+02  0.14199371462E+03  0.21196119170E+03  0.10311206613E+04  0.99895669257E+03 0.  0.
         13    1    3    3    0    0 -0.39793813502E+03 -0.22063175044E+03  0.44968765000E+02  0.45722568781E+03  0.10566000000E+00 0. -1.
         -4    1    3    3    0  502  0.41227629344E+03  0.36262546506E+03  0.16699242670E+03  0.57389497350E+03  0.00000000000E+00 0. -1.
        -13    1    1    2    0    0 -0.14338158415E+02 -0.14199371462E+03  0.42198309744E+03  0.44546329082E+03  0.10566000000E+00 0.  1.
<mgrwt>
<rscale>  1 0.61882608E+03</rscale>
<asrwt>0</asrwt>
<pdfrwt beam="2">  1       21 0.64818436E-01 0.10090997E+04</pdfrwt>
<pdfrwt beam="1">  1       -4 0.16234833E+00 0.10090997E+04</pdfrwt>
<totfact> 0.20375964E+01</totfact>
</mgrwt>
</event>
<event>
 6    2  0.2379986E-005  0.1014839E+04  0.7818608E-02  0.1036935E+00
         21   -1    0    0  501  502  0.00000000000E+00  0.00000000000E+00  0.47282439547E+03  0.47282439547E+03  0.00000000000E+00 0. -1.
         -4   -1    0    0    0  501 -0.00000000000E+00 -0.00000000000E+00 -0.68062058041E+03  0.68062058041E+03  0.00000000000E+00 0. -1.
   -9000010    2    1    2    0  502 -0.28828435197E+02  0.78826943780E+01 -0.75309507729E+02  0.10176291213E+04  0.10143984873E+04 0.  0.
         13    1    3    3    0    0  0.33552840475E+03  0.19005763336E+03 -0.35447677449E+03  0.52378908848E+03  0.10566000000E+00 0. -1.
         -4    1    3    3    0  502 -0.36435683994E+03 -0.18217493898E+03  0.27916726676E+03  0.49384003284E+03  0.00000000000E+00 0. -1.
        -13    1    1    2    0    0  0.28828435197E+02 -0.78826943780E+01 -0.13248667722E+03  0.13581585456E+03  0.10566000000E+00 0.  1.
<mgrwt>
<rscale>  1 0.42040509E+03</rscale>
<asrwt>0</asrwt>
<pdfrwt beam="1">  1       21 0.72742215E-01 0.10148387E+04</pdfrwt>
<pdfrwt beam="2">  1       -4 0.10471086E+00 0.10148387E+04</pdfrwt>
<totfact> 0.48553657E+01</totfact>
</mgrwt>
</event>
<event>
 6    2  0.2379986E-005  0.1103760E+04  0.7818608E-02  0.9430770E-01
         -4   -1    0    0    0  501 -0.00000000000E+00  0.00000000000E+00  0.23288555125E+04  0.23288555125E+04  0.00000000000E+00 0. -1.
         21   -1    0    0  501  502  0.00000000000E+00 -0.00000000000E+00 -0.26893314384E+03  0.26893314384E+03  0.00000000000E+00 0. -1.
   -9000010    2    1    2    0  502 -0.40471478757E+03  0.25622450649E+03  0.14295707412E+04  0.18060890654E+04  0.99440442015E+03 0.  0.
         13    1    3    3    0    0  0.16037441105E+03  0.47200426537E+03  0.66913009087E+03  0.83441180955E+03  0.10566000000E+00 0. -1.
         -4    1    3    3    0  502 -0.56508919862E+03 -0.21577975888E+03  0.76044065036E+03  0.97167725581E+03  0.00000000000E+00 0. -1.
        -13    1    1    2    0    0  0.40471478757E+03 -0.25622450649E+03  0.63035162743E+03  0.79169959099E+03  0.10566000000E+00 0.  1.
<mgrwt>
<rscale>  1 0.89586115E+03</rscale>
<asrwt>0</asrwt>
<pdfrwt beam="2">  1       21 0.41374331E-01 0.11037596E+04</pdfrwt>
<pdfrwt beam="1">  1       -4 0.35828545E+00 0.11037596E+04</pdfrwt>
<totfact> 0.29450174E+00</totfact>
</mgrwt>
</event>
<event>
 6    2  0.2379986E-005  0.1087858E+04  0.7818608E-02  0.9451225E-01
         -4   -1    0    0    0  501 -0.00000000000E+00  0.00000000000E+00  0.76261810975E+03  0.76261810975E+03  0.00000000000E+00 0. -1.
         21   -1    0    0  501  502  0.00000000000E+00 -0.00000000000E+00 -0.15658400622E+04  0.15658400622E+04  0.00000000000E+00 0. -1.
   -9000010    2    1    2    0  502  0.44677848343E+03  0.13010015706E+03 -0.12680426365E+04  0.16707383656E+04  0.98330945995E+03 0.  0.
         13    1    3    3    0    0 -0.28387333990E+03  0.36769821461E+01 -0.63571591874E+03  0.69622721421E+03  0.10566000000E+00 0. -1.
         -4    1    3    3    0  502  0.73065182333E+03  0.12642317492E+03 -0.63232671777E+03  0.97451115135E+03  0.00000000000E+00 0. -1.
        -13    1    1    2    0    0 -0.44677848343E+03 -0.13010015706E+03  0.46482068410E+03  0.65771980634E+03  0.10566000000E+00 0.  1.
<mgrwt>
<rscale>  1 0.87977299E+03</rscale>
<asrwt>0</asrwt>
<pdfrwt beam="2">  1       21 0.24089847E+00 0.10878578E+04</pdfrwt>
<pdfrwt beam="1">  1       -4 0.11732587E+00 0.10878578E+04</pdfrwt>
<totfact> 0.13386421E+00</totfact>
</mgrwt>
</event>
<event>
 6    2  0.2379986E-005  0.1024604E+04  0.7818608E-02  0.9687477E-01
         21   -1    0    0  501  502  0.00000000000E+00  0.00000000000E+00  0.65175683627E+03  0.65175683627E+03  0.00000000000E+00 0. -1.
         -4   -1    0    0    0  501 -0.00000000000E+00 -0.00000000000E+00 -0.70055018742E+03  0.70055018742E+03  0.00000000000E+00 0. -1.
   -9000010    2    1    2    0  502  0.13490832778E+03 -0.20645604642E+03  0.15001452011E+03  0.10355280205E+04  0.99447954681E+03 0.  0.
         13    1    3    3    0    0  0.26130923957E+03 -0.29931666794E+03  0.50785842685E+03  0.64482026897E+03  0.10566000000E+00 0. -1.
         -4    1    3    3    0  502 -0.12640091179E+03  0.92860621513E+02 -0.35784390674E+03  0.39070775155E+03  0.00000000000E+00 0. -1.
        -13    1    1    2    0    0 -0.13490832778E+03  0.20645604642E+03 -0.19880787126E+03  0.31677900317E+03  0.10566000000E+00 0.  1.
<mgrwt>
<rscale>  1 0.71767336E+03</rscale>
<asrwt>0</asrwt>
<pdfrwt beam="1">  1       21 0.10027028E+00 0.10246043E+04</pdfrwt>
<pdfrwt beam="2">  1       -4 0.10777695E+00 0.10246043E+04</pdfrwt>
<totfact> 0.20997018E+01</totfact>
</mgrwt>
</event>
<event>
 6    2  0.2379986E-005  0.1138923E+04  0.7818608E-02  0.9364824E-01
         21   -1    0    0  501  502  0.00000000000E+00  0.00000000000E+00  0.60402774227E+03  0.60402774227E+03  0.00000000000E+00 0.  1.
         -4   -1    0    0    0  501 -0.00000000000E+00 -0.00000000000E+00 -0.12402041428E+04  0.12402041428E+04  0.00000000000E+00 0. -1.
   -9000010    2    1    2    0  502 -0.34459119576E+03  0.43120425488E+03 -0.60915106074E+03  0.12915922359E+04  0.99622552042E+03 0.  0.
         13    1    3    3    0    0 -0.41358012358E+03  0.64986562710E+03 -0.15919647420E+03  0.78658590152E+03  0.10566000000E+00 0. -1.
         -4    1    3    3    0  502  0.68988927829E+02 -0.21866137222E+03 -0.44995458654E+03  0.50500633443E+03  0.00000000000E+00 0. -1.
        -13    1    1    2    0    0  0.34459119576E+03 -0.43120425488E+03 -0.27025339773E+02  0.55263964911E+03  0.10566000000E+00 0.  1.
<mgrwt>
<rscale>  1 0.95027946E+03</rscale>
<asrwt>0</asrwt>
<pdfrwt beam="1">  1       21 0.92927345E-01 0.11389230E+04</pdfrwt>
<pdfrwt beam="2">  1       -4 0.19080064E+00 0.11389230E+04</pdfrwt>
<totfact> 0.54356805E+00</totfact>
</mgrwt>
</event>
<event>
 6    2  0.2379986E-005  0.9902128E+03  0.7818608E-02  0.9678960E-01
         21   -1    0    0  501  502  0.00000000000E+00  0.00000000000E+00  0.10052740671E+04  0.10052740671E+04  0.00000000000E+00 0. -1.
         -4   -1    0    0    0  501 -0.00000000000E+00 -0.00000000000E+00 -0.40337207962E+03  0.40337207962E+03  0.00000000000E+00 0. -1.
   -9000010    2    1    2    0  502  0.27714752005E+03  0.47389899242E+02  0.43388339189E+03  0.10810994935E+04  0.94945498400E+03 0.  0.
         13    1    3    3    0    0  0.19591700091E+03  0.47247707203E+03  0.39562045652E+03  0.64663251668E+03  0.10566000000E+00 0. -1.
         -4    1    3    3    0  502  0.81230519143E+02 -0.42508717279E+03  0.38262935363E+02  0.43446697681E+03  0.00000000000E+00 0. -1.
        -13    1    1    2    0    0 -0.27714752005E+03 -0.47389899242E+02  0.16801859559E+03  0.32754665324E+03  0.10566000000E+00 0.  1.
<mgrwt>
<rscale>  1 0.72283419E+03</rscale>
<asrwt>0</asrwt>
<pdfrwt beam="1">  1       21 0.15465755E+00 0.99021276E+03</pdfrwt>
<pdfrwt beam="2">  1       -4 0.62057243E-01 0.99021276E+03</pdfrwt>
<totfact> 0.24141027E+01</totfact>
</mgrwt>
</event>
<event>
 6    2  0.2379986E-005  0.1056706E+04  0.7818608E-02  0.9546951E-01
         21   -1    0    0  501  502  0.00000000000E+00  0.00000000000E+00  0.78936568301E+03  0.78936568301E+03  0.00000000000E+00 0. -1.
         -4   -1    0    0    0  501 -0.00000000000E+00 -0.00000000000E+00 -0.66771381007E+03  0.66771381007E+03  0.00000000000E+00 0. -1.
   -9000010    2    1    2    0  502  0.30319350568E+03  0.19994003279E+03  0.22308397377E+03  0.10799975380E+04  0.99233356496E+03 0.  0.
         13    1    3    3    0    0  0.56717011679E+03  0.22928311157E+03  0.42623803714E+03  0.74560818269E+03  0.10566000000E+00 0. -1.
         -4    1    3    3    0  502 -0.26397661111E+03 -0.29343078775E+02 -0.20315406337E+03  0.33438935531E+03  0.00000000000E+00 0. -1.
        -13    1    1    2    0    0 -0.30319350568E+03 -0.19994003279E+03 -0.10143210082E+03  0.37708195507E+03  0.10566000000E+00 0.  1.
<mgrwt>
<rscale>  1 0.80909084E+03</rscale>
<asrwt>0</asrwt>
<pdfrwt beam="1">  1       21 0.12144087E+00 0.10567063E+04</pdfrwt>
<pdfrwt beam="2">  1       -4 0.10272520E+00 0.10567063E+04</pdfrwt>
<totfact> 0.14464304E+01</totfact>
</mgrwt>
</event>
<event>
 6    2  0.2379986E-005  0.1096958E+04  0.7818608E-02  0.9450902E-01
         -4   -1    0    0    0  501 -0.00000000000E+00  0.00000000000E+00  0.84383641340E+03  0.84383641340E+03  0.00000000000E+00 0. -1.
         21   -1    0    0  501  502  0.00000000000E+00 -0.00000000000E+00 -0.75530819914E+03  0.75530819914E+03  0.00000000000E+00 0. -1.
   -9000010    2    1    2    0  502 -0.45390358406E+03  0.20545292593E+02 -0.11166823014E+03  0.11026275432E+04  0.99843233754E+03 0.  0.
         13    1    3    3    0    0  0.25734608579E+03 -0.47384960677E+02  0.19375671229E+03  0.32559793779E+03  0.10566000000E+00 0. -1.
         -4    1    3    3    0  502 -0.71124966985E+03  0.67930253270E+02 -0.30542494243E+03  0.77702960537E+03  0.00000000000E+00 0. -1.
        -13    1    1    2    0    0  0.45390358406E+03 -0.20545292593E+02  0.20019644440E+03  0.49651706938E+03  0.10566000000E+00 0.  1.
<mgrwt>
<rscale>  1 0.88002423E+03</rscale>
<asrwt>0</asrwt>
<pdfrwt beam="2">  1       21 0.11620126E+00 0.10969584E+04</pdfrwt>
<pdfrwt beam="1">  1       -4 0.12982099E+00 0.10969584E+04</pdfrwt>
<totfact> 0.90007040E+00</totfact>
</mgrwt>
</event>
<event>
 6    2  0.2379986E-005  0.1088931E+04  0.7818608E-02  0.9480985E-01
         21   -1    0    0  501  502  0.00000000000E+00  0.00000000000E+00  0.13654646824E+04  0.13654646824E+04  0.00000000000E+00 0. -1.
         -4   -1    0    0    0  501 -0.00000000000E+00 -0.00000000000E+00 -0.42672169516E+03  0.42672169516E+03  0.00000000000E+00 0. -1.
   -9000010    2    1    2    0  502  0.37692257581E+03  0.18015275034E+03  0.54327755486E+03  0.12169311638E+04  0.10056069382E+04 0.  0.
         13    1    3    3    0    0  0.49606472858E+03 -0.20828167814E+03 -0.64227743467E+00  0.53801663179E+03  0.10566000000E+00 0. -1.
         -4    1    3    3    0  502 -0.11914215277E+03  0.38843442849E+03  0.54391983230E+03  0.67891453201E+03  0.00000000000E+00 0. -1.
        -13    1    1    2    0    0 -0.37692257581E+03 -0.18015275034E+03  0.39546543242E+03  0.57525521381E+03  0.10566000000E+00 0.  1.
<mgrwt>
<rscale>  1 0.85700384E+03</rscale>
<asrwt>0</asrwt>
<pdfrwt beam="1">  1       21 0.21007149E+00 0.10889311E+04</pdfrwt>
<pdfrwt beam="2">  1       -4 0.65649492E-01 0.10889311E+04</pdfrwt>
<totfact> 0.83543517E+00</totfact>
</mgrwt>
</event>
<event>
 6    2  0.2379986E-005  0.1350261E+04  0.7818608E-02  0.9087733E-01
         21   -1    0    0  501  502  0.00000000000E+00  0.00000000000E+00  0.73873620806E+03  0.73873620806E+03  0.00000000000E+00 0.  1.
         -4   -1    0    0    0  501 -0.00000000000E+00 -0.00000000000E+00 -0.18665192612E+04  0.18665192612E+04  0.00000000000E+00 0. -1.
   -9000010    2    1    2    0  502 -0.92435398441E+03 -0.71676181173E+02 -0.34949340132E+03  0.13947586470E+04  0.98165079448E+03 0.  0.
         13    1    3    3    0    0  0.19514650108E+03  0.85372210309E+02 -0.53408803646E+01  0.21307066279E+03  0.10566000000E+00 0. -1.
         -4    1    3    3    0  502 -0.11195004855E+04 -0.15704839148E+03 -0.34415252096E+03  0.11816879842E+04  0.00000000000E+00 0. -1.
        -13    1    1    2    0    0  0.92435398441E+03  0.71676181173E+02 -0.77828965180E+03  0.12104968223E+04  0.10566000000E+00 0.  1.
<mgrwt>
<rscale>  1 0.12291317E+04</rscale>
<asrwt>0</asrwt>
<pdfrwt beam="1">  1       21 0.11365173E+00 0.13502615E+04</pdfrwt>
<pdfrwt beam="2">  1       -4 0.28715680E+00 0.13502615E+04</pdfrwt>
<totfact> 0.78121696E-01</totfact>
</mgrwt>
</event>
<event>
 6    2  0.2379986E-005  0.1052775E+04  0.7818608E-02  0.9637618E-01
         -4   -1    0    0    0  501 -0.00000000000E+00  0.00000000000E+00  0.36149237788E+03  0.36149237788E+03  0.00000000000E+00 0. -1.
         21   -1    0    0  501  502  0.00000000000E+00 -0.00000000000E+00 -0.13517329302E+04  0.13517329302E+04  0.00000000000E+00 0. -1.
   -9000010    2    1    2    0  502  0.12570150241E+03 -0.23792121890E+03 -0.98852767505E+03  0.14441336523E+04  0.10178053190E+04 0.  0.
         13    1    3    3    0    0 -0.66694423012E+01 -0.52837160490E+03 -0.99307598392E+03  0.11249093098E+04  0.10566000000E+00 0. -1.
         -4    1    3    3    0  502  0.13237094471E+03  0.29045038600E+03  0.45483088671E+01  0.31922434250E+03  0.00000000000E+00 0. -1.
        -13    1    1    2    0    0 -0.12570150241E+03  0.23792121890E+03 -0.17128773175E+01  0.26909165580E+03  0.10566000000E+00 0.  1.
<mgrwt>
<rscale>  1 0.74855636E+03</rscale>
<asrwt>0</asrwt>
<pdfrwt beam="2">  1       21 0.20795891E+00 0.10527749E+04</pdfrwt>
<pdfrwt beam="1">  1       -4 0.55614213E-01 0.10527749E+04</pdfrwt>
<totfact> 0.12457481E+01</totfact>
</mgrwt>
</event>
<event>
 6    2  0.2379986E-005  0.1039346E+04  0.7818608E-02  0.9602245E-01
         21   -1    0    0  501  502  0.00000000000E+00  0.00000000000E+00  0.62597545421E+03  0.62597545421E+03  0.00000000000E+00 0.  1.
         -4   -1    0    0    0  501 -0.00000000000E+00 -0.00000000000E+00 -0.73313632542E+03  0.73313632542E+03  0.00000000000E+00 0. -1.
   -9000010    2    1    2    0  502 -0.27785986532E+03 -0.14946760147E+03 -0.78748632705E+02  0.10423248874E+04  0.99029952794E+03 0.  0.
         13    1    3    3    0    0 -0.48235124738E+03  0.23602568428E+03 -0.22480366527E+03  0.58215766642E+03  0.10566000000E+00 0. -1.
         -4    1    3    3    0  502  0.20449138207E+03 -0.38549328575E+03  0.14605503257E+03  0.46016722095E+03  0.00000000000E+00 0. -1.
        -13    1    1    2    0    0  0.27785986532E+03  0.14946760147E+03 -0.28412238510E+02  0.31678689225E+03  0.10566000000E+00 0.  1.
<mgrwt>
<rscale>  1 0.77147777E+03</rscale>
<asrwt>0</asrwt>
<pdfrwt beam="1">  1       21 0.96303916E-01 0.10393459E+04</pdfrwt>
<pdfrwt beam="2">  1       -4 0.11279020E+00 0.10393459E+04</pdfrwt>
<totfact> 0.20707835E+01</totfact>
</mgrwt>
</event>
<event>
 6    2  0.2379986E-005  0.1016285E+04  0.7818608E-02  0.9899167E-01
         21   -1    0    0  501  502  0.00000000000E+00  0.00000000000E+00  0.14872538852E+04  0.14872538852E+04  0.00000000000E+00 0. -1.
         -4   -1    0    0    0  501 -0.00000000000E+00 -0.00000000000E+00 -0.52919350598E+03  0.52919350598E+03  0.00000000000E+00 0. -1.
   -9000010    2    1    2    0  502 -0.74589207311E+02  0.10151439551E+03  0.13011236854E+04  0.16509871806E+04  0.10084478684E+04 0.  0.
         13    1    3    3    0    0  0.34993240573E+03  0.33845903994E+03  0.88930883178E+03  0.10138428970E+04  0.10566000000E+00 0. -1.
         -4    1    3    3    0  502 -0.42452161304E+03 -0.23694464443E+03  0.41181485362E+03  0.63714428360E+03  0.00000000000E+00 0. -1.
        -13    1    1    2    0    0  0.74589207311E+02 -0.10151439551E+03 -0.34306330617E+03  0.36546021062E+03  0.10566000000E+00 0.  1.
<mgrwt>
<rscale>  1 0.60301695E+03</rscale>
<asrwt>0</asrwt>
<pdfrwt beam="1">  1       21 0.22880829E+00 0.10162853E+04</pdfrwt>
<pdfrwt beam="2">  1       -4 0.81414386E-01 0.10162853E+04</pdfrwt>
<totfact> 0.38986741E+00</totfact>
</mgrwt>
</event>
<event>
 6    2  0.2379986E-005  0.1021017E+04  0.7818608E-02  0.9956393E-01
         21   -1    0    0  501  502  0.00000000000E+00  0.00000000000E+00  0.18423470584E+04  0.18423470584E+04  0.00000000000E+00 0. -1.
         -4   -1    0    0    0  501 -0.00000000000E+00 -0.00000000000E+00 -0.18949470479E+03  0.18949470479E+03  0.00000000000E+00 0. -1.
   -9000010    2    1    2    0  502  0.99647327623E+02  0.27783897536E+02  0.16338840449E+04  0.19266688448E+04  0.10157628810E+04 0.  0.
         13    1    3    3    0    0  0.47201297769E+02 -0.13439156031E+02  0.17723197732E+04  0.17729991436E+04  0.10566000000E+00 0. -1.
         -4    1    3    3    0  502  0.52446029854E+02  0.41223053568E+02 -0.13843572831E+03  0.15366970120E+03  0.00000000000E+00 0. -1.
        -13    1    1    2    0    0 -0.99647327623E+02 -0.27783897536E+02  0.18968308686E+02  0.10517291839E+03  0.10566000000E+00 0.  1.
<mgrwt>
<rscale>  1 0.57604386E+03</rscale>
<asrwt>0</asrwt>
<pdfrwt beam="1">  1       21 0.28343800E+00 0.10210170E+04</pdfrwt>
<pdfrwt beam="2">  1       -4 0.29153033E-01 0.10210170E+04</pdfrwt>
<totfact> 0.15338409E+01</totfact>
</mgrwt>
</event>
<event>
 6    2  0.2379986E-005  0.1028758E+04  0.7818608E-02  0.9698322E-01
         -4   -1    0    0    0  501 -0.00000000000E+00  0.00000000000E+00  0.11477263320E+04  0.11477263320E+04  0.00000000000E+00 0. -1.
         21   -1    0    0  501  502  0.00000000000E+00 -0.00000000000E+00 -0.36030214991E+03  0.36030214991E+03  0.00000000000E+00 0. -1.
   -9000010    2    1    2    0  502 -0.18670779289E+03  0.14260146472E+03  0.52216951333E+03  0.11536910324E+04  0.10015722739E+04 0.  0.
         13    1    3    3    0    0 -0.50137063011E+02  0.49096820284E+03 -0.21166465857E+02  0.49397523392E+03  0.10566000000E+00 0. -1.
         -4    1    3    3    0  502 -0.13657072988E+03 -0.34836673812E+03  0.54333597919E+03  0.65971579848E+03  0.00000000000E+00 0. -1.
        -13    1    1    2    0    0  0.18670779289E+03 -0.14260146472E+03  0.26525466876E+03  0.35433744952E+03  0.10566000000E+00 0.  1.
<mgrwt>
<rscale>  1 0.71116802E+03</rscale>
<asrwt>0</asrwt>
<pdfrwt beam="2">  1       21 0.55431101E-01 0.10287575E+04</pdfrwt>
<pdfrwt beam="1">  1       -4 0.17657328E+00 0.10287575E+04</pdfrwt>
<totfact> 0.22755344E+01</totfact>
</mgrwt>
</event>
<event>
 6    2  0.2379986E-005  0.1309823E+04  0.7818608E-02  0.9131558E-01
         21   -1    0    0  501  502  0.00000000000E+00  0.00000000000E+00  0.10169636127E+04  0.10169636127E+04  0.00000000000E+00 0.  1.
         -4   -1    0    0    0  501 -0.00000000000E+00 -0.00000000000E+00 -0.14540606283E+04  0.14540606283E+04  0.00000000000E+00 0. -1.
   -9000010    2    1    2    0  502  0.84688515333E+03 -0.14643187300E+03  0.29430823108E+03  0.13424807539E+04  0.98842323087E+03 0.  0.
         13    1    3    3    0    0  0.54879007813E+03 -0.54380430413E+03  0.33905758967E+03  0.84371424743E+03  0.10566000000E+00 0. -1.
         -4    1    3    3    0  502  0.29809507520E+03  0.39737243112E+03 -0.44749358583E+02  0.49876650646E+03  0.00000000000E+00 0. -1.
        -13    1    1    2    0    0 -0.84688515333E+03  0.14643187300E+03 -0.73140524666E+03  0.11285434871E+04  0.10566000000E+00 0.  1.
<mgrwt>
<rscale>  1 0.11788672E+04</rscale>
<asrwt>0</asrwt>
<pdfrwt beam="1">  1       21 0.15645594E+00 0.13098234E+04</pdfrwt>
<pdfrwt beam="2">  1       -4 0.22370163E+00 0.13098234E+04</pdfrwt>
<totfact> 0.82472382E-01</totfact>
</mgrwt>
</event>
<event>
 6    2  0.2379986E-005  0.9682868E+03  0.7818608E-02  0.9880821E-01
         21   -1    0    0  501  502  0.00000000000E+00  0.00000000000E+00  0.25408799509E+03  0.25408799509E+03  0.00000000000E+00 0. -1.
         -4   -1    0    0    0  501 -0.00000000000E+00 -0.00000000000E+00 -0.13312666618E+04  0.13312666618E+04  0.00000000000E+00 0. -1.
   -9000010    2    1    2    0  502 -0.85010969323E+02 -0.12903516551E+03 -0.75433326275E+03  0.12274355251E+04  0.95587779462E+03 0.  0.
         13    1    3    3    0    0  0.39348890300E+03 -0.22155739636E+03 -0.51349917423E+03  0.68381474813E+03  0.10566000000E+00 0. -1.
         -4    1    3    3    0  502 -0.47849987232E+03  0.92522230849E+02 -0.24083408852E+03  0.54362077702E+03  0.00000000000E+00 0. -1.
        -13    1    1    2    0    0  0.85010969323E+02  0.12903516551E+03 -0.32284540396E+03  0.35791913174E+03  0.10566000000E+00 0.  1.
<mgrwt>
<rscale>  1 0.61199850E+03</rscale>
<asrwt>0</asrwt>
<pdfrwt beam="1">  1       21 0.39090462E-01 0.96828678E+03</pdfrwt>
<pdfrwt beam="2">  1       -4 0.20481025E+00 0.96828678E+03</pdfrwt>
<totfact> 0.31105289E+01</totfact>
</mgrwt>
</event>
<event>
 6    2  0.2379986E-005  0.1079214E+04  0.7818608E-02  0.9487761E-01
         -4   -1    0    0    0  501 -0.00000000000E+00  0.00000000000E+00  0.96433062251E+03  0.96433062251E+03  0.00000000000E+00 0. -1.
         21   -1    0    0  501  502  0.00000000000E+00 -0.00000000000E+00 -0.58780165291E+03  0.58780165291E+03  0.00000000000E+00 0.  1.
   -9000010    2    1    2    0  502 -0.40840765241E+02  0.41706589166E+03  0.33989615387E+03  0.11314733870E+04  0.99453039364E+03 0.  0.
         13    1    3    3    0    0 -0.35170626067E+03  0.39564878509E+03 -0.15059203806E+03  0.55037553364E+03  0.10566000000E+00 0. -1.
         -4    1    3    3    0  502  0.31086549543E+03  0.21417106568E+02  0.49048819193E+03  0.58109785331E+03  0.00000000000E+00 0. -1.
        -13    1    1    2    0    0  0.40840765241E+02 -0.41706589166E+03  0.36632815742E+02  0.42065888847E+03  0.10566000000E+00 0.  1.
<mgrwt>
<rscale>  1 0.85192224E+03</rscale>
<asrwt>0</asrwt>
<pdfrwt beam="2">  1       21 0.90431023E-01 0.10792139E+04</pdfrwt>
<pdfrwt beam="1">  1       -4 0.14835856E+00 0.10792139E+04</pdfrwt>
<totfact> 0.11880029E+01</totfact>
</mgrwt>
</event>
<event>
 6    2  0.2379986E-005  0.1115045E+04  0.7818608E-02  0.9410739E-01
         -4   -1    0    0    0  501 -0.00000000000E+00  0.00000000000E+00  0.70817760424E+03  0.70817760424E+03  0.00000000000E+00 0. -1.
         21   -1    0    0  501  502  0.00000000000E+00 -0.00000000000E+00 -0.92046234798E+03  0.92046234798E+03  0.00000000000E+00 0. -1.
   -9000010    2    1    2    0  502  0.47725268747E+03 -0.14550448563E+03 -0.12352478296E+03  0.11218658163E+04  0.99718747221E+03 0.  0.
         13    1    3    3    0    0  0.34032801834E+03  0.40846966214E+03  0.24844662479E+02  0.53224796230E+03  0.10566000000E+00 0. -1.
         -4    1    3    3    0  502  0.13692466913E+03 -0.55397414776E+03 -0.14836944543E+03  0.58961785399E+03  0.00000000000E+00 0. -1.
        -13    1    1    2    0    0 -0.47725268747E+03  0.14550448563E+03 -0.88759960789E+02  0.50677413592E+03  0.10566000000E+00 0.  1.
<mgrwt>
<rscale>  1 0.91197188E+03</rscale>
<asrwt>0</asrwt>
<pdfrwt beam="2">  1       21 0.14160959E+00 0.11150446E+04</pdfrwt>
<pdfrwt beam="1">  1       -4 0.10895040E+00 0.11150446E+04</pdfrwt>
<totfact> 0.82554143E+00</totfact>
</mgrwt>
</event>
<event>
 6    2  0.2379986E-005  0.7766595E+03  0.7818608E-02  0.9856637E-01
         -4   -1    0    0    0  501 -0.00000000000E+00  0.00000000000E+00  0.95360007882E+03  0.95360007882E+03  0.00000000000E+00 0. -1.
         21   -1    0    0  501  502  0.00000000000E+00 -0.00000000000E+00 -0.35806336198E+03  0.35806336198E+03  0.00000000000E+00 0. -1.
   -9000010    2    1    2    0  502 -0.26752208335E+03 -0.18247463649E+03  0.20292073694E+03  0.80273085501E+03  0.70592842560E+03 0.  0.
         13    1    3    3    0    0  0.13887737194E+03 -0.82723372800E+02 -0.17545565023E+03  0.23856818146E+03  0.10566000000E+00 0. -1.
         -4    1    3    3    0  502 -0.40639945529E+03 -0.99751263687E+02  0.37837638717E+03  0.56416267355E+03  0.00000000000E+00 0. -1.
        -13    1    1    2    0    0  0.26752208335E+03  0.18247463649E+03  0.39261597990E+03  0.50893258579E+03  0.10566000000E+00 0.  1.
<mgrwt>
<rscale>  1 0.62409666E+03</rscale>
<asrwt>0</asrwt>
<pdfrwt beam="2">  1       21 0.55086672E-01 0.77665951E+03</pdfrwt>
<pdfrwt beam="1">  1       -4 0.14670770E+00 0.77665951E+03</pdfrwt>
<totfact> 0.39409318E+01</totfact>
</mgrwt>
</event>
<event>
 6    2  0.2379986E-005  0.8764968E+03  0.7818608E-02  0.9812894E-01
         21   -1    0    0  501  502  0.00000000000E+00  0.00000000000E+00  0.96395267986E+03  0.96395267986E+03  0.00000000000E+00 0. -1.
         -4   -1    0    0    0  501 -0.00000000000E+00 -0.00000000000E+00 -0.36882249461E+03  0.36882249461E+03  0.00000000000E+00 0. -1.
   -9000010    2    1    2    0  502  0.11895763721E+03 -0.23100578022E+03  0.61720686832E+03  0.10720032798E+04  0.83709743977E+03 0.  0.
         13    1    3    3    0    0 -0.30355772476E+03  0.10976302104E+03  0.15055275698E+03  0.35617601947E+03  0.10566000000E+00 0. -1.
         -4    1    3    3    0  502  0.42251536197E+03 -0.34076880126E+03  0.46665411134E+03  0.71582726033E+03  0.00000000000E+00 0. -1.
        -13    1    1    2    0    0 -0.11895763721E+03  0.23100578022E+03 -0.22076683068E+02  0.26077189466E+03  0.10566000000E+00 0.  1.
<mgrwt>
<rscale>  1 0.64675155E+03</rscale>
<asrwt>0</asrwt>
<pdfrwt beam="1">  1       21 0.14830041E+00 0.87649684E+03</pdfrwt>
<pdfrwt beam="2">  1       -4 0.56741923E-01 0.87649684E+03</pdfrwt>
<totfact> 0.33380800E+01</totfact>
</mgrwt>
</event>
<event>
 6    2  0.2379986E-005  0.1067897E+04  0.7818608E-02  0.9531958E-01
         21   -1    0    0  501  502  0.00000000000E+00  0.00000000000E+00  0.21925873319E+04  0.21925873319E+04  0.00000000000E+00 0. -1.
         -4   -1    0    0    0  501 -0.00000000000E+00 -0.00000000000E+00 -0.26991824621E+03  0.26991824621E+03  0.00000000000E+00 0. -1.
   -9000010    2    1    2    0  502 -0.17921821901E+03  0.32446850878E+03  0.17579321603E+04  0.20568736650E+04  0.10015012781E+04 0.  0.
         13    1    3    3    0    0  0.20760080896E+03 -0.27650645825E+03  0.69105124608E+03  0.77272618255E+03  0.10566000000E+00 0. -1.
         -4    1    3    3    0  502 -0.38681902798E+03  0.60097496703E+03  0.10668809143E+04  0.12841474824E+04  0.00000000000E+00 0. -1.
        -13    1    1    2    0    0  0.17921821901E+03 -0.32446850878E+03  0.16473692536E+03  0.40563191314E+03  0.10566000000E+00 0.  1.
<mgrwt>
<rscale>  1 0.81968113E+03</rscale>
<asrwt>0</asrwt>
<pdfrwt beam="1">  1       21 0.33732112E+00 0.10678969E+04</pdfrwt>
<pdfrwt beam="2">  1       -4 0.41525885E-01 0.10678969E+04</pdfrwt>
<totfact> 0.34582124E+00</totfact>
</mgrwt>
</event>
<event>
 6    2  0.2379986E-005  0.9977774E+03  0.7818608E-02  0.1015992E+00
         -4   -1    0    0    0  501 -0.00000000000E+00  0.00000000000E+00  0.87570277099E+03  0.87570277099E+03  0.00000000000E+00 0. -1.
         21   -1    0    0  501  502  0.00000000000E+00 -0.00000000000E+00 -0.34442043998E+03  0.34442043998E+03  0.00000000000E+00 0. -1.
   -9000010    2    1    2    0  502 -0.57394486673E+02 -0.12781473642E+02  0.39759711773E+03  0.10740778735E+04  0.99604333101E+03 0.  0.
         13    1    3    3    0    0 -0.34152507107E+03  0.33402920935E+03  0.40407391135E+03  0.62569211587E+03  0.10566000000E+00 0. -1.
         -4    1    3    3    0  502  0.28413058440E+03 -0.34681068299E+03 -0.64767936196E+01  0.44838575767E+03  0.00000000000E+00 0. -1.
        -13    1    1    2    0    0  0.57394486673E+02  0.12781473642E+02  0.13368521329E+03  0.14604533743E+03  0.10566000000E+00 0.  1.
<mgrwt>
<rscale>  1 0.49160988E+03</rscale>
<asrwt>0</asrwt>
<pdfrwt beam="2">  1       21 0.52987761E-01 0.99777744E+03</pdfrwt>
<pdfrwt beam="1">  1       -4 0.13472350E+00 0.99777744E+03</pdfrwt>
<totfact> 0.52572171E+01</totfact>
</mgrwt>
</event>
<event>
 6    2  0.2379986E-005  0.1270416E+04  0.7818608E-02  0.9184500E-01
         21   -1    0    0  501  502  0.00000000000E+00  0.00000000000E+00  0.20516374639E+04  0.20516374639E+04  0.00000000000E+00 0. -1.
         -4   -1    0    0    0  501 -0.00000000000E+00 -0.00000000000E+00 -0.60581005109E+03  0.60581005109E+03  0.00000000000E+00 0. -1.
   -9000010    2    1    2    0  502 -0.67645021823E+03  0.37098442765E+03  0.13912460273E+04  0.18840178271E+04  0.10093281532E+04 0.  0.
         13    1    3    3    0    0 -0.19330362426E+03  0.23460891020E+03  0.13460658488E+04  0.13799640982E+04  0.10566000000E+00 0. -1.
         -4    1    3    3    0  502 -0.48314659396E+03  0.13637551745E+03  0.45180178531E+02  0.50405372883E+03  0.00000000000E+00 0. -1.
        -13    1    1    2    0    0  0.67645021823E+03 -0.37098442765E+03  0.54581385428E+02  0.77342968788E+03  0.10566000000E+00 0.  1.
<mgrwt>
<rscale>  1 0.11214857E+04</rscale>
<asrwt>0</asrwt>
<pdfrwt beam="1">  1       21 0.31563653E+00 0.12704163E+04</pdfrwt>
<pdfrwt beam="2">  1       -4 0.93201548E-01 0.12704163E+04</pdfrwt>
<totfact> 0.76967956E-01</totfact>
</mgrwt>
</event>
<event>
 6    2  0.2379986E-005  0.1104616E+04  0.7818608E-02  0.9432605E-01
         21   -1    0    0  501  502  0.00000000000E+00  0.00000000000E+00  0.95475086408E+03  0.95475086408E+03  0.00000000000E+00 0. -1.
         -4   -1    0    0    0  501 -0.00000000000E+00 -0.00000000000E+00 -0.65983036821E+03  0.65983036821E+03  0.00000000000E+00 0. -1.
   -9000010    2    1    2    0  502 -0.12108081477E+03  0.45908852415E+03  0.28003823001E+03  0.11395608857E+04  0.99737393447E+03 0.  0.
         13    1    3    3    0    0  0.15830435007E+03  0.70593777988E+03  0.11789317801E+03  0.73301243434E+03  0.10566000000E+00 0. -1.
         -4    1    3    3    0  502 -0.27938516484E+03 -0.24684925573E+03  0.16214505200E+03  0.40654845132E+03  0.00000000000E+00 0. -1.
        -13    1    1    2    0    0  0.12108081477E+03 -0.45908852415E+03  0.14882265856E+02  0.47502034663E+03  0.10566000000E+00 0.  1.
<mgrwt>
<rscale>  1 0.89440328E+03</rscale>
<asrwt>0</asrwt>
<pdfrwt beam="1">  1       21 0.14688475E+00 0.11046165E+04</pdfrwt>
<pdfrwt beam="2">  1       -4 0.10151237E+00 0.11046165E+04</pdfrwt>
<totfact> 0.88823573E+00</totfact>
</mgrwt>
</event>
<event>
 6    2  0.2379986E-005  0.1016963E+04  0.7818608E-02  0.9997559E-01
         21   -1    0    0  501  502  0.00000000000E+00  0.00000000000E+00  0.11539962166E+04  0.11539962166E+04  0.00000000000E+00 0. -1.
         -4   -1    0    0    0  501 -0.00000000000E+00 -0.00000000000E+00 -0.26851277075E+03  0.26851277075E+03  0.00000000000E+00 0. -1.
   -9000010    2    1    2    0  502  0.85795814051E+02  0.32921856957E+02  0.84449398055E+03  0.13218863368E+04  0.10128023666E+04 0.  0.
         13    1    3    3    0    0 -0.77174632986E+02  0.46469937651E+03  0.68948669973E+03  0.83504093000E+03  0.10566000000E+00 0. -1.
         -4    1    3    3    0  502  0.16297044704E+03 -0.43177751955E+03  0.15500728082E+03  0.48684540678E+03  0.00000000000E+00 0. -1.
        -13    1    1    2    0    0 -0.85795814051E+02 -0.32921856957E+02  0.40989465260E+02  0.10062265053E+03  0.10566000000E+00 0.  1.
<mgrwt>
<rscale>  1 0.55757381E+03</rscale>
<asrwt>0</asrwt>
<pdfrwt beam="1">  1       21 0.17753788E+00 0.10169628E+04</pdfrwt>
<pdfrwt beam="2">  1       -4 0.41309658E-01 0.10169628E+04</pdfrwt>
<totfact> 0.38176294E+01</totfact>
</mgrwt>
</event>
<event>
 6    2  0.2379986E-005  0.1090343E+04  0.7818608E-02  0.9566074E-01
         -4   -1    0    0    0  501 -0.00000000000E+00  0.00000000000E+00  0.10608695519E+04  0.10608695519E+04  0.00000000000E+00 0. -1.
         21   -1    0    0  501  502  0.00000000000E+00 -0.00000000000E+00 -0.59009510551E+03  0.59009510551E+03  0.00000000000E+00 0. -1.
   -9000010    2    1    2    0  502  0.30174582221E+03 -0.68617586807E+02  0.32998278999E+01  0.10903476361E+04  0.10455085673E+04 0.  0.
         13    1    3    3    0    0 -0.24535781282E+03 -0.98916441564E+02  0.35239898396E+03  0.44064722146E+03  0.10566000000E+00 0. -1.
         -4    1    3    3    0  502  0.54710363503E+03  0.30298854757E+02 -0.34909915606E+03  0.64970041467E+03  0.00000000000E+00 0. -1.
        -13    1    1    2    0    0 -0.30174582221E+03  0.68617586807E+02  0.46747461848E+03  0.56061702127E+03  0.10566000000E+00 0.  1.
<mgrwt>
<rscale>  1 0.79582881E+03</rscale>
<asrwt>0</asrwt>
<pdfrwt beam="2">  1       21 0.90783863E-01 0.10903426E+04</pdfrwt>
<pdfrwt beam="1">  1       -4 0.16321070E+00 0.10903426E+04</pdfrwt>
<totfact> 0.90609043E+00</totfact>
</mgrwt>
</event>
<event>
 6    2  0.2379986E-005  0.1268828E+04  0.7818608E-02  0.9183376E-01
         -4   -1    0    0    0  501 -0.00000000000E+00  0.00000000000E+00  0.93288141825E+03  0.93288141825E+03  0.00000000000E+00 0. -1.
         21   -1    0    0  501  502  0.00000000000E+00 -0.00000000000E+00 -0.11235681270E+04  0.11235681270E+04  0.00000000000E+00 0. -1.
   -9000010    2    1    2    0  502  0.32018787849E+03 -0.70869688531E+03 -0.85626431579E+02  0.12717144143E+04  0.10025737444E+04 0.  0.
         13    1    3    3    0    0  0.14972057654E+03 -0.80912554318E+03 -0.38848542868E+03  0.90995677651E+03  0.10566000000E+00 0. -1.
         -4    1    3    3    0  502  0.17046730195E+03  0.10042865786E+03  0.30285899710E+03  0.36175763776E+03  0.00000000000E+00 0. -1.
        -13    1    1    2    0    0 -0.32018787849E+03  0.70869688531E+03 -0.10506027718E+03  0.78473513098E+03  0.10566000000E+00 0.  1.
<mgrwt>
<rscale>  1 0.11226675E+04</rscale>
<asrwt>0</asrwt>
<pdfrwt beam="2">  1       21 0.17285664E+00 0.12688285E+04</pdfrwt>
<pdfrwt beam="1">  1       -4 0.14352022E+00 0.12688285E+04</pdfrwt>
<totfact> 0.22725787E+00</totfact>
</mgrwt>
</event>
<event>
 6    2  0.2379986E-005  0.1172498E+04  0.7818608E-02  0.9305818E-01
         -4   -1    0    0    0  501 -0.00000000000E+00  0.00000000000E+00  0.68871167050E+03  0.68871167050E+03  0.00000000000E+00 0. -1.
         21   -1    0    0  501  502  0.00000000000E+00 -0.00000000000E+00 -0.15384632256E+04  0.15384632256E+04  0.00000000000E+00 0. -1.
   -9000010    2    1    2    0  502 -0.66694142624E+02  0.62302988717E+03 -0.10452826925E+04  0.15707856930E+04  0.99102847447E+03 0.  0.
         13    1    3    3    0    0  0.44401781014E+02  0.85185618398E+03 -0.99658414023E+03  0.13117966443E+04  0.10566000000E+00 0. -1.
         -4    1    3    3    0  502 -0.11109592364E+03 -0.22882629681E+03 -0.48698552301E+02  0.25898904872E+03  0.00000000000E+00 0. -1.
        -13    1    1    2    0    0  0.66694142624E+02 -0.62302988717E+03  0.19553113746E+03  0.65638920302E+03  0.10566000000E+00 0.  1.
<mgrwt>
<rscale>  1 0.10024896E+04</rscale>
<asrwt>0</asrwt>
<pdfrwt beam="2">  1       21 0.23668665E+00 0.11724981E+04</pdfrwt>
<pdfrwt beam="1">  1       -4 0.10595564E+00 0.11724981E+04</pdfrwt>
<totfact> 0.18095831E+00</totfact>
</mgrwt>
</event>
<event>
 6    2  0.2379986E-005  0.1001643E+04  0.7818608E-02  0.9920816E-01
         -4   -1    0    0    0  501 -0.00000000000E+00  0.00000000000E+00  0.10402428165E+04  0.10402428165E+04  0.00000000000E+00 0. -1.
         21   -1    0    0  501  502  0.00000000000E+00 -0.00000000000E+00 -0.57778620677E+03  0.57778620677E+03  0.00000000000E+00 0. -1.
   -9000010    2    1    2    0  502  0.73724805266E+01 -0.12252058284E+03 -0.13265678072E+03  0.10103896521E+04  0.99409445276E+03 0.  0.
         13    1    3    3    0    0  0.35911981748E+03 -0.17443294577E+03  0.26327987806E+03  0.47823655364E+03  0.10566000000E+00 0. -1.
         -4    1    3    3    0  502 -0.35174733696E+03  0.51912362931E+02 -0.39593665878E+03  0.53215309851E+03  0.00000000000E+00 0. -1.
        -13    1    1    2    0    0 -0.73724805266E+01  0.12252058284E+03  0.59511339048E+03  0.60763937116E+03  0.10566000000E+00 0.  1.
<mgrwt>
<rscale>  1 0.59262962E+03</rscale>
<asrwt>0</asrwt>
<pdfrwt beam="2">  1       21 0.88890185E-01 0.10016434E+04</pdfrwt>
<pdfrwt beam="1">  1       -4 0.16003736E+00 0.10016434E+04</pdfrwt>
<totfact> 0.10164870E+01</totfact>
</mgrwt>
</event>
<event>
 6    2  0.2379986E-005  0.1050608E+04  0.7818608E-02  0.9722341E-01
         21   -1    0    0  501  502  0.00000000000E+00  0.00000000000E+00  0.11869655360E+04  0.11869655360E+04  0.00000000000E+00 0. -1.
         -4   -1    0    0    0  501 -0.00000000000E+00 -0.00000000000E+00 -0.33129852310E+03  0.33129852310E+03  0.00000000000E+00 0. -1.
   -9000010    2    1    2    0  502 -0.20196606524E+03 -0.25305709212E+02  0.71331997960E+03  0.12698825794E+04  0.10307015580E+04 0.  0.
         13    1    3    3    0    0 -0.16892602164E+02 -0.30069728133E+03  0.85694621681E+03  0.90832870959E+03  0.10566000000E+00 0. -1.
         -4    1    3    3    0  502 -0.18507346308E+03  0.27539157212E+03 -0.14362623721E+03  0.36155386977E+03  0.00000000000E+00 0. -1.
        -13    1    1    2    0    0  0.20196606524E+03  0.25305709212E+02  0.14234703333E+03  0.24838147977E+03  0.10566000000E+00 0.  1.
<mgrwt>
<rscale>  1 0.69702078E+03</rscale>
<asrwt>0</asrwt>
<pdfrwt beam="1">  1       21 0.18261008E+00 0.10506076E+04</pdfrwt>
<pdfrwt beam="2">  1       -4 0.50969004E-01 0.10506076E+04</pdfrwt>
<totfact> 0.22553201E+01</totfact>
</mgrwt>
</event>
<event>
 6    2  0.2379986E-005  0.1028283E+04  0.7818608E-02  0.9680768E-01
         -4   -1    0    0    0  501 -0.00000000000E+00  0.00000000000E+00  0.75213385776E+03  0.75213385776E+03  0.00000000000E+00 0. -1.
         21   -1    0    0  501  502  0.00000000000E+00 -0.00000000000E+00 -0.69877601817E+03  0.69877601817E+03  0.00000000000E+00 0. -1.
   -9000010    2    1    2    0  502  0.17277970216E+03 -0.18007480452E+03 -0.24985615021E+03  0.10582032482E+04  0.99754010344E+03 0.  0.
         13    1    3    3    0    0 -0.19707271136E+03 -0.21133659878E+03 -0.52289179989E+03  0.59742502216E+03  0.10566000000E+00 0. -1.
         -4    1    3    3    0  502  0.36985241352E+03  0.31261794259E+02  0.27303564969E+03  0.46077822602E+03  0.00000000000E+00 0. -1.
        -13    1    1    2    0    0 -0.17277970216E+03  0.18007480452E+03  0.30321398980E+03  0.39270662775E+03  0.10566000000E+00 0.  1.
<mgrwt>
<rscale>  1 0.72173519E+03</rscale>
<asrwt>0</asrwt>
<pdfrwt beam="2">  1       21 0.10750400E+00 0.10282830E+04</pdfrwt>
<pdfrwt beam="1">  1       -4 0.11571290E+00 0.10282830E+04</pdfrwt>
<totfact> 0.14790014E+01</totfact>
</mgrwt>
</event>
<event>
 6    2  0.2379986E-005  0.9980668E+03  0.7818608E-02  0.1016481E+00
         21   -1    0    0  501  502  0.00000000000E+00  0.00000000000E+00  0.22797790967E+03  0.22797790967E+03  0.00000000000E+00 0. -1.
         -4   -1    0    0    0  501 -0.00000000000E+00 -0.00000000000E+00 -0.14269922162E+04  0.14269922162E+04  0.00000000000E+00 0. -1.
   -9000010    2    1    2    0  502  0.33700264894E+02  0.47058148604E+02 -0.87959072984E+03  0.13303447884E+04  0.99638708687E+03 0.  0.
         13    1    3    3    0    0  0.48996651003E+03 -0.10120027858E+03 -0.32292834107E+03  0.59547577782E+03  0.10566000000E+00 0. -1.
         -4    1    3    3    0  502 -0.45626624514E+03  0.14825842719E+03 -0.55666238877E+03  0.73486901061E+03  0.00000000000E+00 0. -1.
        -13    1    1    2    0    0 -0.33700264894E+02 -0.47058148604E+02 -0.31942357666E+03  0.32462533742E+03  0.10566000000E+00 0.  1.
<mgrwt>
<rscale>  1 0.48978262E+03</rscale>
<asrwt>0</asrwt>
<pdfrwt beam="1">  1       21 0.35073525E-01 0.99806683E+03</pdfrwt>
<pdfrwt beam="2">  1       -4 0.21953726E+00 0.99806683E+03</pdfrwt>
<totfact> 0.31183223E+01</totfact>
</mgrwt>
</event>
<event>
 6    2  0.2379986E-005  0.1095307E+04  0.7818608E-02  0.9441272E-01
         21   -1    0    0  501  502  0.00000000000E+00  0.00000000000E+00  0.26602250700E+04  0.26602250700E+04  0.00000000000E+00 0. -1.
         -4   -1    0    0    0  501 -0.00000000000E+00 -0.00000000000E+00 -0.32869821809E+03  0.32869821809E+03  0.00000000000E+00 0. -1.
   -9000010    2    1    2    0  502  0.44186520078E+03  0.16667181946E+03  0.22597992277E+04  0.25112526753E+04  0.98826772622E+03 0.  0.
         13    1    3    3    0    0  0.34991181240E+03 -0.39000768636E+03  0.12314275553E+04  0.13382668295E+04  0.10566000000E+00 0. -1.
         -4    1    3    3    0  502  0.91953388378E+02  0.55667950582E+03  0.10283716724E+04  0.11729858458E+04  0.00000000000E+00 0. -1.
        -13    1    1    2    0    0 -0.44186520078E+03 -0.16667181946E+03  0.71727624193E+02  0.47767061277E+03  0.10566000000E+00 0.  1.
<mgrwt>
<rscale>  1 0.88755636E+03</rscale>
<asrwt>0</asrwt>
<pdfrwt beam="1">  1       21 0.40926538E+00 0.10953070E+04</pdfrwt>
<pdfrwt beam="2">  1       -4 0.50568958E-01 0.10953070E+04</pdfrwt>
<totfact> 0.78489318E-01</totfact>
</mgrwt>
</event>
<event>
 6    2  0.2379986E-005  0.1080272E+04  0.7818608E-02  0.9480658E-01
         21   -1    0    0  501  502  0.00000000000E+00  0.00000000000E+00  0.46626824186E+03  0.46626824186E+03  0.00000000000E+00 0. -1.
         -4   -1    0    0    0  501 -0.00000000000E+00 -0.00000000000E+00 -0.14750387971E+04  0.14750387971E+04  0.00000000000E+00 0. -1.
   -9000010    2    1    2    0  502 -0.17435310864E+03  0.39129291533E+03 -0.31381654149E+03  0.11249307504E+04  0.99170520796E+03 0.  0.
         13    1    3    3    0    0  0.12076641245E+03  0.62273643193E+03 -0.38663138100E+03  0.74287887705E+03  0.10566000000E+00 0. -1.
         -4    1    3    3    0  502 -0.29511952110E+03 -0.23144351660E+03  0.72814839512E+02  0.38205187339E+03  0.00000000000E+00 0. -1.
        -13    1    1    2    0    0  0.17435310864E+03 -0.39129291533E+03 -0.69495401380E+03  0.81637628857E+03  0.10566000000E+00 0.  1.
<mgrwt>
<rscale>  1 0.85724936E+03</rscale>
<asrwt>0</asrwt>
<pdfrwt beam="1">  1       21 0.71733577E-01 0.10802724E+04</pdfrwt>
<pdfrwt beam="2">  1       -4 0.22692904E+00 0.10802724E+04</pdfrwt>
<totfact> 0.58690610E+00</totfact>
</mgrwt>
</event>
<event>
 6    2  0.2379986E-005  0.1255392E+04  0.7818608E-02  0.9201656E-01
         -4   -1    0    0    0  501 -0.00000000000E+00  0.00000000000E+00  0.85809312822E+03  0.85809312822E+03  0.00000000000E+00 0. -1.
         21   -1    0    0  501  502  0.00000000000E+00 -0.00000000000E+00 -0.12551811245E+04  0.12551811245E+04  0.00000000000E+00 0. -1.
   -9000010    2    1    2    0  502 -0.74982991809E+03  0.15439365406E+01  0.19394408601E+02  0.12555418384E+04  0.10068574254E+04 0.  0.
         13    1    3    3    0    0  0.43379988304E+02 -0.21383171820E+03 -0.30237253198E+03  0.37287395505E+03  0.10566000000E+00 0. -1.
         -4    1    3    3    0  502 -0.79320990639E+03  0.21537565475E+03  0.32176694058E+03  0.88266788336E+03  0.00000000000E+00 0. -1.
        -13    1    1    2    0    0  0.74982991809E+03 -0.15439365406E+01 -0.41648240485E+03  0.85773241429E+03  0.10566000000E+00 0.  1.
<mgrwt>
<rscale>  1 0.11036351E+04</rscale>
<asrwt>0</asrwt>
<pdfrwt beam="2">  1       21 0.19310479E+00 0.12553920E+04</pdfrwt>
<pdfrwt beam="1">  1       -4 0.13201433E+00 0.12553920E+04</pdfrwt>
<totfact> 0.20218312E+00</totfact>
</mgrwt>
</event>
<event>
 6    2  0.2379986E-005  0.1039245E+04  0.7818608E-02  0.9792804E-01
         -4   -1    0    0    0  501 -0.00000000000E+00  0.00000000000E+00  0.98808330453E+03  0.98808330453E+03  0.00000000000E+00 0. -1.
         21   -1    0    0  501  502  0.00000000000E+00 -0.00000000000E+00 -0.37303288568E+03  0.37303288568E+03  0.00000000000E+00 0. -1.
   -9000010    2    1    2    0  502 -0.14680817032E+03  0.78562437900E+02  0.58282973054E+03  0.11915199655E+04  0.10258190083E+04 0.  0.
         13    1    3    3    0    0  0.88716185834E+02 -0.12858178051E+03  0.79671048221E+03  0.81188141962E+03  0.10566000000E+00 0. -1.
         -4    1    3    3    0  502 -0.23552435616E+03  0.20714421841E+03 -0.21388075167E+03  0.37963854585E+03  0.00000000000E+00 0. -1.
        -13    1    1    2    0    0  0.14680817032E+03 -0.78562437900E+02  0.32220688315E+02  0.16959622473E+03  0.10566000000E+00 0.  1.
<mgrwt>
<rscale>  1 0.65750151E+03</rscale>
<asrwt>0</asrwt>
<pdfrwt beam="2">  1       21 0.57389675E-01 0.10392446E+04</pdfrwt>
<pdfrwt beam="1">  1       -4 0.15201281E+00 0.10392446E+04</pdfrwt>
<totfact> 0.31937192E+01</totfact>
</mgrwt>
</event>
<event>
 6    2  0.2379986E-005  0.9979073E+03  0.7818608E-02  0.1002769E+00
         -4   -1    0    0    0  501 -0.00000000000E+00  0.00000000000E+00  0.50986807601E+03  0.50986807601E+03  0.00000000000E+00 0. -1.
         21   -1    0    0  501  502  0.00000000000E+00 -0.00000000000E+00 -0.59155501883E+03  0.59155501883E+03  0.00000000000E+00 0. -1.
   -9000010    2    1    2    0  502 -0.78465084085E+02 -0.40870823857E+02 -0.11983629774E+03  0.10050769579E+04  0.99397774589E+03 0.  0.
         13    1    3    3    0    0 -0.29746537186E+02 -0.24454907597E+03  0.38582355484E+03  0.45776515121E+03  0.10566000000E+00 0. -1.
         -4    1    3    3    0  502 -0.48718546899E+02  0.20367825211E+03 -0.50565985258E+03  0.54731180666E+03  0.00000000000E+00 0. -1.
        -13    1    1    2    0    0  0.78465084085E+02  0.40870823857E+02  0.38149354922E+02  0.96346136966E+02  0.10566000000E+00 0.  1.
<mgrwt>
<rscale>  1 0.54452583E+03</rscale>
<asrwt>0</asrwt>
<pdfrwt beam="2">  1       21 0.91008465E-01 0.99790729E+03</pdfrwt>
<pdfrwt beam="1">  1       -4 0.78441242E-01 0.99790729E+03</pdfrwt>
<totfact> 0.56614904E+01</totfact>
</mgrwt>
</event>
<event>
 6    2  0.2379986E-005  0.1024358E+04  0.7818608E-02  0.9757115E-01
         -4   -1    0    0    0  501 -0.00000000000E+00  0.00000000000E+00  0.17684321549E+04  0.17684321549E+04  0.00000000000E+00 0. -1.
         21   -1    0    0  501  502  0.00000000000E+00 -0.00000000000E+00 -0.21351886403E+03  0.21351886403E+03  0.00000000000E+00 0. -1.
   -9000010    2    1    2    0  502  0.10623756316E+03 -0.16425149877E+03  0.12094874861E+04  0.15849825410E+04  0.10055071863E+04 0.  0.
         13    1    3    3    0    0  0.17974091374E+02  0.17458577753E+03 -0.11839679341E+03  0.21170988056E+03  0.10566000000E+00 0. -1.
         -4    1    3    3    0  502  0.88263471784E+02 -0.33883727629E+03  0.13278842795E+04  0.13732726604E+04  0.00000000000E+00 0. -1.
        -13    1    1    2    0    0 -0.10623756316E+03  0.16425149877E+03  0.34542580480E+03  0.39696847791E+03  0.10566000000E+00 0.  1.
<mgrwt>
<rscale>  1 0.67715653E+03</rscale>
<asrwt>0</asrwt>
<pdfrwt beam="2">  1       21 0.32849057E-01 0.10243582E+04</pdfrwt>
<pdfrwt beam="1">  1       -4 0.27206648E+00 0.10243582E+04</pdfrwt>
<totfact> 0.16743687E+01</totfact>
</mgrwt>
</event>
<event>
 6    2  0.2379986E-005  0.1008846E+04  0.7818608E-02  0.1004747E+00
         21   -1    0    0  501  502  0.00000000000E+00  0.00000000000E+00  0.14483596707E+04  0.14483596707E+04  0.00000000000E+00 0. -1.
         -4   -1    0    0    0  501 -0.00000000000E+00 -0.00000000000E+00 -0.23876408938E+03  0.23876408938E+03  0.00000000000E+00 0. -1.
   -9000010    2    1    2    0  502 -0.71191813729E+02 -0.37548109411E+02  0.12422206146E+04  0.16002759690E+04  0.10056306413E+04 0.  0.
         13    1    3    3    0    0 -0.48907303101E+03 -0.13015123246E+03  0.96693496381E+03  0.10913729923E+04  0.10566000000E+00 0. -1.
         -4    1    3    3    0  502  0.41788121728E+03  0.92603123050E+02  0.27528565080E+03  0.50890297669E+03  0.00000000000E+00 0. -1.
        -13    1    1    2    0    0  0.71191813729E+02  0.37548109411E+02 -0.32625033249E+02  0.86847791112E+02  0.10566000000E+00 0.  1.
<mgrwt>
<rscale>  1 0.53616707E+03</rscale>
<asrwt>0</asrwt>
<pdfrwt beam="1">  1       21 0.22282456E+00 0.10088464E+04</pdfrwt>
<pdfrwt beam="2">  1       -4 0.36732938E-01 0.10088464E+04</pdfrwt>
<totfact> 0.23619602E+01</totfact>
</mgrwt>
</event>
<event>
 6    2  0.2379986E-005  0.1592733E+04  0.7818608E-02  0.8887111E-01
         21   -1    0    0  501  502  0.00000000000E+00  0.00000000000E+00  0.11672993511E+04  0.11672993511E+04  0.00000000000E+00 0.  1.
         -4   -1    0    0    0  501 -0.00000000000E+00 -0.00000000000E+00 -0.18915314338E+04  0.18915314338E+04  0.00000000000E+00 0. -1.
   -9000010    2    1    2    0  502  0.10506082419E+03 -0.12352149801E+04  0.56602096123E+02  0.15937383476E+04  0.10000021498E+04 0.  0.
         13    1    3    3    0    0 -0.15628282187E+03 -0.13096474593E+04  0.77391024210E+02  0.13212078451E+04  0.10566000000E+00 0. -1.
         -4    1    3    3    0  502  0.26134364605E+03  0.74432479236E+02 -0.20788928087E+02  0.27253050257E+03  0.00000000000E+00 0. -1.
        -13    1    1    2    0    0 -0.10506082419E+03  0.12352149801E+04 -0.78083417878E+03  0.14650924372E+04  0.10566000000E+00 0.  1.
<mgrwt>
<rscale>  1 0.14960089E+04</rscale>
<asrwt>0</asrwt>
<pdfrwt beam="1">  1       21 0.17958452E+00 0.15927329E+04</pdfrwt>
<pdfrwt beam="2">  1       -4 0.29100484E+00 0.15927329E+04</pdfrwt>
<totfact> 0.20039019E-01</totfact>
</mgrwt>
</event>
<event>
 6    2  0.2379986E-005  0.1044772E+04  0.7818608E-02  0.9563450E-01
         21   -1    0    0  501  502  0.00000000000E+00  0.00000000000E+00  0.87748153869E+03  0.87748153869E+03  0.00000000000E+00 0. -1.
         -4   -1    0    0    0  501 -0.00000000000E+00 -0.00000000000E+00 -0.55849654105E+03  0.55849654105E+03  0.00000000000E+00 0. -1.
   -9000010    2    1    2    0  502 -0.27307272460E+03  0.22673554666E+03  0.22320353036E+03  0.10683480732E+04  0.98263424966E+03 0.  0.
         13    1    3    3    0    0 -0.36009969368E+03 -0.57136867094E+02  0.52876916617E+03  0.64228751601E+03  0.10566000000E+00 0. -1.
         -4    1    3    3    0  502  0.87026969086E+02  0.28387241376E+03 -0.30556563581E+03  0.42606055723E+03  0.00000000000E+00 0. -1.
        -13    1    1    2    0    0  0.27307272460E+03 -0.22673554666E+03  0.95781467283E+02  0.36763000650E+03  0.10566000000E+00 0.  1.
<mgrwt>
<rscale>  1 0.79763244E+03</rscale>
<asrwt>0</asrwt>
<pdfrwt beam="1">  1       21 0.13499716E+00 0.10447716E+04</pdfrwt>
<pdfrwt beam="2">  1       -4 0.85922545E-01 0.10447716E+04</pdfrwt>
<totfact> 0.16733301E+01</totfact>
</mgrwt>
</event>
<event>
 6    2  0.2379986E-005  0.1016303E+04  0.7818608E-02  0.9802537E-01
         -4   -1    0    0    0  501 -0.00000000000E+00  0.00000000000E+00  0.18882107681E+03  0.18882107681E+03  0.00000000000E+00 0. -1.
         21   -1    0    0  501  502  0.00000000000E+00 -0.00000000000E+00 -0.20604775207E+04  0.20604775207E+04  0.00000000000E+00 0. -1.
   -9000010    2    1    2    0  502 -0.98776124797E+01  0.17215294972E+03 -0.17902599701E+04  0.20586166570E+04  0.10015675587E+04 0.  0.
         13    1    3    3    0    0  0.47321516998E+03  0.23300854664E+03 -0.86757460353E+03  0.10153380145E+04  0.10566000000E+00 0. -1.
         -4    1    3    3    0  502 -0.48309278246E+03 -0.60855596925E+02 -0.92268536657E+03  0.10432786425E+04  0.00000000000E+00 0. -1.
        -13    1    1    2    0    0  0.98776124797E+01 -0.17215294972E+03 -0.81396473787E+02  0.19068194050E+03  0.10566000000E+00 0.  1.
<mgrwt>
<rscale>  1 0.65226559E+03</rscale>
<asrwt>0</asrwt>
<pdfrwt beam="2">  1       21 0.31699654E+00 0.10163030E+04</pdfrwt>
<pdfrwt beam="1">  1       -4 0.29049397E-01 0.10163030E+04</pdfrwt>
<totfact> 0.95552437E+00</totfact>
</mgrwt>
</event>
<event>
 6    2  0.2379986E-005  0.9972022E+03  0.7818608E-02  0.9949858E-01
         21   -1    0    0  501  502  0.00000000000E+00  0.00000000000E+00  0.10444875153E+04  0.10444875153E+04  0.00000000000E+00 0. -1.
         -4   -1    0    0    0  501 -0.00000000000E+00 -0.00000000000E+00 -0.29706474877E+03  0.29706474877E+03  0.00000000000E+00 0. -1.
   -9000010    2    1    2    0  502 -0.11218931236E+03 -0.16328729137E+02  0.70153037183E+03  0.12192444873E+04  0.99073668956E+03 0.  0.
         13    1    3    3    0    0  0.30107532666E+03  0.32972599461E+03  0.41123214927E+03  0.60702345556E+03  0.10566000000E+00 0. -1.
         -4    1    3    3    0  502 -0.41326463902E+03 -0.34605472375E+03  0.29029822256E+03  0.61222103175E+03  0.00000000000E+00 0. -1.
        -13    1    1    2    0    0  0.11218931236E+03  0.16328729137E+02  0.45892394720E+02  0.12230777678E+03  0.10566000000E+00 0.  1.
<mgrwt>
<rscale>  1 0.57904635E+03</rscale>
<asrwt>0</asrwt>
<pdfrwt beam="1">  1       21 0.16069039E+00 0.99720221E+03</pdfrwt>
<pdfrwt beam="2">  1       -4 0.45702270E-01 0.99720221E+03</pdfrwt>
<totfact> 0.41558589E+01</totfact>
</mgrwt>
</event>
<event>
 6    2  0.2379986E-005  0.1022062E+04  0.7818608E-02  0.9913856E-01
         21   -1    0    0  501  502  0.00000000000E+00  0.00000000000E+00  0.44575024090E+03  0.44575024090E+03  0.00000000000E+00 0. -1.
         -4   -1    0    0    0  501 -0.00000000000E+00 -0.00000000000E+00 -0.77234926837E+03  0.77234926837E+03  0.00000000000E+00 0. -1.
   -9000010    2    1    2    0  502 -0.88900147972E+02  0.77804337151E+02 -0.19365044095E+03  0.10402453864E+04  0.10152109237E+04 0.  0.
         13    1    3    3    0    0 -0.14543471653E+03 -0.17801896621E+03 -0.55106575388E+03  0.59708917706E+03  0.10566000000E+00 0. -1.
         -4    1    3    3    0  502  0.56534568559E+02  0.25582330336E+03  0.35741531292E+03  0.44315620936E+03  0.00000000000E+00 0. -1.
        -13    1    1    2    0    0  0.88900147972E+02 -0.77804337151E+02 -0.13294858652E+03  0.17785412284E+03  0.10566000000E+00 0.  1.
<mgrwt>
<rscale>  1 0.59594461E+03</rscale>
<asrwt>0</asrwt>
<pdfrwt beam="1">  1       21 0.68576961E-01 0.10220616E+04</pdfrwt>
<pdfrwt beam="2">  1       -4 0.11882296E+00 0.10220616E+04</pdfrwt>
<totfact> 0.40666531E+01</totfact>
</mgrwt>
</event>
<event>
 6    2  0.2379986E-005  0.1025858E+04  0.7818608E-02  0.9668452E-01
         -4   -1    0    0    0  501 -0.00000000000E+00  0.00000000000E+00  0.13584236144E+04  0.13584236144E+04  0.00000000000E+00 0. -1.
         21   -1    0    0  501  502  0.00000000000E+00 -0.00000000000E+00 -0.32689052784E+03  0.32689052784E+03  0.00000000000E+00 0. -1.
   -9000010    2    1    2    0  502  0.12837756910E+03 -0.22837921928E+03  0.62368713852E+03  0.12005707085E+04  0.99183996256E+03 0.  0.
         13    1    3    3    0    0  0.55508360255E+01  0.36627564266E+02 -0.26373047134E+03  0.26631966304E+03  0.10566000000E+00 0. -1.
         -4    1    3    3    0  502  0.12282673307E+03 -0.26500678354E+03  0.88741760986E+03  0.93425104547E+03  0.00000000000E+00 0. -1.
        -13    1    1    2    0    0 -0.12837756910E+03  0.22837921928E+03  0.40784594806E+03  0.48474343375E+03  0.10566000000E+00 0.  1.
<mgrwt>
<rscale>  1 0.72926585E+03</rscale>
<asrwt>0</asrwt>
<pdfrwt beam="2">  1       21 0.50290851E-01 0.10258579E+04</pdfrwt>
<pdfrwt beam="1">  1       -4 0.20898824E+00 0.10258579E+04</pdfrwt>
<totfact> 0.17005117E+01</totfact>
</mgrwt>
</event>
<event>
 6    2  0.2379986E-005  0.1030232E+04  0.7818608E-02  0.9600533E-01
         21   -1    0    0  501  502  0.00000000000E+00  0.00000000000E+00  0.95502877552E+03  0.95502877552E+03  0.00000000000E+00 0.  1.
         -4   -1    0    0    0  501 -0.00000000000E+00 -0.00000000000E+00 -0.48139670888E+03  0.48139670888E+03  0.00000000000E+00 0. -1.
   -9000010    2    1    2    0  502 -0.10931662216E+03  0.30697844314E+03  0.35974666235E+03  0.10912359931E+04  0.97733947180E+03 0.  0.
         13    1    3    3    0    0 -0.80816639904E+02  0.24725787890E+03  0.69887232117E+03  0.74571463739E+03  0.10566000000E+00 0. -1.
         -4    1    3    3    0  502 -0.28499982255E+02  0.59720564237E+02 -0.33912565882E+03  0.34552135571E+03  0.00000000000E+00 0. -1.
        -13    1    1    2    0    0  0.10931662216E+03 -0.30697844314E+03  0.11388540428E+03  0.34518949130E+03  0.10566000000E+00 0.  1.
<mgrwt>
<rscale>  1 0.77260896E+03</rscale>
<asrwt>0</asrwt>
<pdfrwt beam="1">  1       21 0.14692750E+00 0.10302322E+04</pdfrwt>
<pdfrwt beam="2">  1       -4 0.74061032E-01 0.10302322E+04</pdfrwt>
<totfact> 0.18706282E+01</totfact>
</mgrwt>
</event>
<event>
 6    2  0.2379986E-005  0.1179882E+04  0.7818608E-02  0.9295180E-01
         -4   -1    0    0    0  501 -0.00000000000E+00  0.00000000000E+00  0.55521462165E+03  0.55521462165E+03  0.00000000000E+00 0. -1.
         21   -1    0    0  501  502  0.00000000000E+00 -0.00000000000E+00 -0.14936408692E+04  0.14936408692E+04  0.00000000000E+00 0.  1.
   -9000010    2    1    2    0  502 -0.38395858788E+03  0.51111762410E+03 -0.65591714946E+03  0.13499443201E+04  0.99169397378E+03 0.  0.
         13    1    3    3    0    0  0.10433570260E+03  0.58256672423E+03 -0.89273236222E+02  0.59853124303E+03  0.10566000000E+00 0. -1.
         -4    1    3    3    0  502 -0.48829429049E+03 -0.71449100127E+02 -0.56664391324E+03  0.75141307710E+03  0.00000000000E+00 0. -1.
        -13    1    1    2    0    0  0.38395858788E+03 -0.51111762410E+03 -0.28250909808E+03  0.69891117071E+03  0.10566000000E+00 0.  1.
<mgrwt>
<rscale>  1 0.10122785E+04</rscale>
<asrwt>0</asrwt>
<pdfrwt beam="2">  1       21 0.22979090E+00 0.11798824E+04</pdfrwt>
<pdfrwt beam="1">  1       -4 0.85417637E-01 0.11798824E+04</pdfrwt>
<totfact> 0.33559118E+00</totfact>
</mgrwt>
</event>
<event>
 6    2  0.2379986E-005  0.1341221E+04  0.7818608E-02  0.9105132E-01
         -4   -1    0    0    0  501 -0.00000000000E+00  0.00000000000E+00  0.21331136477E+04  0.21331136477E+04  0.00000000000E+00 0. -1.
         21   -1    0    0  501  502  0.00000000000E+00 -0.00000000000E+00 -0.70843999202E+03  0.70843999202E+03  0.00000000000E+00 0.  1.
   -9000010    2    1    2    0  502  0.79342626136E+03  0.39235277936E+03  0.23967147586E+03  0.13624673971E+04  0.10076750747E+04 0.  0.
         13    1    3    3    0    0  0.16581204803E+03  0.64315863235E+03  0.14712523300E+03  0.68028854686E+03  0.10566000000E+00 0. -1.
         -4    1    3    3    0  502  0.62761421333E+03 -0.25080585299E+03  0.92546242859E+02  0.68217885025E+03  0.00000000000E+00 0. -1.
        -13    1    1    2    0    0 -0.79342626136E+03 -0.39235277936E+03  0.11850021798E+04  0.14790862426E+04  0.10566000000E+00 0.  1.
<mgrwt>
<rscale>  1 0.12088652E+04</rscale>
<asrwt>0</asrwt>
<pdfrwt beam="2">  1       21 0.10899077E+00 0.13412215E+04</pdfrwt>
<pdfrwt beam="1">  1       -4 0.32817133E+00 0.13412215E+04</pdfrwt>
<totfact> 0.48120614E-01</totfact>
</mgrwt>
</event>
<event>
 6    2  0.2379986E-005  0.9526626E+03  0.7818608E-02  0.9965757E-01
         -4   -1    0    0    0  501 -0.00000000000E+00  0.00000000000E+00  0.61522818102E+03  0.61522818102E+03  0.00000000000E+00 0. -1.
         21   -1    0    0  501  502  0.00000000000E+00 -0.00000000000E+00 -0.48909356496E+03  0.48909356496E+03  0.00000000000E+00 0. -1.
   -9000010    2    1    2    0  502  0.43124603514E+01  0.12354387580E+03  0.39713988443E+02  0.95348997678E+03  0.94460798661E+03 0.  0.
         13    1    3    3    0    0 -0.13257000050E+03 -0.34253529740E+03 -0.19293881723E+03  0.41488628967E+03  0.10566000000E+00 0. -1.
         -4    1    3    3    0  502  0.13688246086E+03  0.46607917320E+03  0.23265280567E+03  0.53860368711E+03  0.00000000000E+00 0. -1.
        -13    1    1    2    0    0 -0.43124603514E+01 -0.12354387580E+03  0.86420627616E+02  0.15083176921E+03  0.10566000000E+00 0.  1.
<mgrwt>
<rscale>  1 0.57177580E+03</rscale>
<asrwt>0</asrwt>
<pdfrwt beam="2">  1       21 0.75245164E-01 0.95266255E+03</pdfrwt>
<pdfrwt beam="1">  1       -4 0.94650490E-01 0.95266255E+03</pdfrwt>
<totfact> 0.57550592E+01</totfact>
</mgrwt>
</event>
<event>
 6    2  0.2379986E-005  0.8787261E+03  0.7818608E-02  0.9786513E-01
         21   -1    0    0  501  502  0.00000000000E+00  0.00000000000E+00  0.10152764287E+04  0.10152764287E+04  0.00000000000E+00 0. -1.
         -4   -1    0    0    0  501 -0.00000000000E+00 -0.00000000000E+00 -0.39870971457E+03  0.39870971457E+03  0.00000000000E+00 0. -1.
   -9000010    2    1    2    0  502 -0.25095448347E+03 -0.12687302347E+03  0.69690443123E+03  0.11215325969E+04  0.83251706454E+03 0.  0.
         13    1    3    3    0    0  0.15640871569E+03 -0.30642812119E+03  0.67492514161E+02  0.35059539420E+03  0.10566000000E+00 0. -1.
         -4    1    3    3    0  502 -0.40736319915E+03  0.17955509772E+03  0.62941191707E+03  0.77093720269E+03  0.00000000000E+00 0. -1.
        -13    1    1    2    0    0  0.25095448347E+03  0.12687302347E+03 -0.80337717086E+02  0.29245354641E+03  0.10566000000E+00 0.  1.
<mgrwt>
<rscale>  1 0.66091407E+03</rscale>
<asrwt>0</asrwt>
<pdfrwt beam="1">  1       21 0.15619637E+00 0.87872611E+03</pdfrwt>
<pdfrwt beam="2">  1       -4 0.61339956E-01 0.87872611E+03</pdfrwt>
<totfact> 0.24390819E+01</totfact>
</mgrwt>
</event>
<event>
 6    2  0.2379986E-005  0.1077139E+04  0.7818608E-02  0.9538744E-01
         -4   -1    0    0    0  501 -0.00000000000E+00  0.00000000000E+00  0.65411923644E+03  0.65411923644E+03  0.00000000000E+00 0. -1.
         21   -1    0    0  501  502  0.00000000000E+00 -0.00000000000E+00 -0.88112558757E+03  0.88112558757E+03  0.00000000000E+00 0. -1.
   -9000010    2    1    2    0  502 -0.34920245171E+03 -0.50271862004E+02 -0.39136767504E+03  0.11460350241E+04  0.10177219694E+04 0.  0.
         13    1    3    3    0    0 -0.12812517817E+03  0.19862738145E+03 -0.67090949602E+03  0.71132865889E+03  0.10566000000E+00 0. -1.
         -4    1    3    3    0  502 -0.22107727354E+03 -0.24889924346E+03  0.27954182098E+03  0.43470636520E+03  0.00000000000E+00 0. -1.
        -13    1    1    2    0    0  0.34920245171E+03  0.50271862004E+02  0.16436132390E+03  0.38920979991E+03  0.10566000000E+00 0.  1.
<mgrwt>
<rscale>  1 0.81486680E+03</rscale>
<asrwt>0</asrwt>
<pdfrwt beam="2">  1       21 0.13555778E+00 0.10771386E+04</pdfrwt>
<pdfrwt beam="1">  1       -4 0.10063373E+00 0.10771386E+04</pdfrwt>
<totfact> 0.11335619E+01</totfact>
</mgrwt>
</event>
<event>
 6    2  0.2379986E-005  0.1045568E+04  0.7818608E-02  0.9698311E-01
         21   -1    0    0  501  502  0.00000000000E+00  0.00000000000E+00  0.14156337165E+04  0.14156337165E+04  0.00000000000E+00 0. -1.
         -4   -1    0    0    0  501 -0.00000000000E+00 -0.00000000000E+00 -0.28455243915E+03  0.28455243915E+03  0.00000000000E+00 0. -1.
   -9000010    2    1    2    0  502  0.13456570762E+03  0.17881734812E+03  0.93014740401E+03  0.13994237805E+04  0.10213369428E+04 0.  0.
         13    1    3    3    0    0  0.36917264169E+03 -0.11503112770E+03  0.94713256704E+03  0.10230252736E+04  0.10566000000E+00 0. -1.
         -4    1    3    3    0  502 -0.23460693406E+03  0.29384847583E+03 -0.16985163035E+02  0.37639850693E+03  0.00000000000E+00 0. -1.
        -13    1    1    2    0    0 -0.13456570762E+03 -0.17881734812E+03  0.20093387329E+03  0.30076237507E+03  0.10566000000E+00 0.  1.
<mgrwt>
<rscale>  1 0.71117460E+03</rscale>
<asrwt>0</asrwt>
<pdfrwt beam="1">  1       21 0.21778980E+00 0.10455681E+04</pdfrwt>
<pdfrwt beam="2">  1       -4 0.43777299E-01 0.10455681E+04</pdfrwt>
<totfact> 0.17743316E+01</totfact>
</mgrwt>
</event>
<event>
 6    2  0.2379986E-005  0.9372932E+03  0.7818608E-02  0.1024728E+00
         21   -1    0    0  501  502  0.00000000000E+00  0.00000000000E+00  0.13276099933E+04  0.13276099933E+04  0.00000000000E+00 0. -1.
         -4   -1    0    0    0  501 -0.00000000000E+00 -0.00000000000E+00 -0.20606310429E+03  0.20606310429E+03  0.00000000000E+00 0. -1.
   -9000010    2    1    2    0  502  0.13066322671E+02 -0.52871915306E+02  0.11402958784E+04  0.14760735839E+04  0.93570955241E+03 0.  0.
         13    1    3    3    0    0 -0.30057574674E+03 -0.13217253044E+03  0.41886600413E+02  0.33101337705E+03  0.10566000000E+00 0. -1.
         -4    1    3    3    0  502  0.31364206941E+03  0.79300615133E+02  0.10984092780E+04  0.11450602068E+04  0.00000000000E+00 0. -1.
        -13    1    1    2    0    0 -0.13066322671E+02  0.52871915306E+02 -0.18748989376E+02  0.57599513739E+02  0.10566000000E+00 0.  1.
<mgrwt>
<rscale>  1 0.46018375E+03</rscale>
<asrwt>0</asrwt>
<pdfrwt beam="1">  1       21 0.20424769E+00 0.93729320E+03</pdfrwt>
<pdfrwt beam="2">  1       -4 0.31702017E-01 0.93729320E+03</pdfrwt>
<totfact> 0.42526996E+01</totfact>
</mgrwt>
</event>
<event>
 6    2  0.2379986E-005  0.1012304E+04  0.7818608E-02  0.1003449E+00
         21   -1    0    0  501  502  0.00000000000E+00  0.00000000000E+00  0.23040756371E+03  0.23040756371E+03  0.00000000000E+00 0. -1.
         -4   -1    0    0    0  501 -0.00000000000E+00 -0.00000000000E+00 -0.13019947335E+04  0.13019947335E+04  0.00000000000E+00 0. -1.
   -9000010    2    1    2    0  502  0.81218748798E+02 -0.16930826395E+02 -0.98342632460E+03  0.14113424615E+04  0.10088989393E+04 0.  0.
         13    1    3    3    0    0 -0.20636814500E+03  0.40616008737E+03 -0.67379505832E+03  0.81335946519E+03  0.10566000000E+00 0. -1.
         -4    1    3    3    0  502  0.28758689380E+03 -0.42309091376E+03 -0.30963126628E+03  0.59798299629E+03  0.00000000000E+00 0. -1.
        -13    1    1    2    0    0 -0.81218748798E+02  0.16930826395E+02 -0.88160845193E+02  0.12105983573E+03  0.10566000000E+00 0.  1.
<mgrwt>
<rscale>  1 0.54163503E+03</rscale>
<asrwt>0</asrwt>
<pdfrwt beam="1">  1       21 0.35447318E-01 0.10123044E+04</pdfrwt>
<pdfrwt beam="2">  1       -4 0.20030688E+00 0.10123044E+04</pdfrwt>
<totfact> 0.40617711E+01</totfact>
</mgrwt>
</event>
<event>
 6    2  0.2379986E-005  0.9800266E+03  0.7818608E-02  0.9810927E-01
         21   -1    0    0  501  502  0.00000000000E+00  0.00000000000E+00  0.13119756162E+04  0.13119756162E+04  0.00000000000E+00 0. -1.
         -4   -1    0    0    0  501 -0.00000000000E+00 -0.00000000000E+00 -0.29891866850E+03  0.29891866850E+03  0.00000000000E+00 0. -1.
   -9000010    2    1    2    0  502 -0.18668492739E+03  0.12198341905E+02  0.57911914801E+03  0.11383457826E+04  0.96200419517E+03 0.  0.
         13    1    3    3    0    0 -0.42636814799E+03 -0.29638643531E+03  0.11535582798E+03  0.53192263993E+03  0.10566000000E+00 0. -1.
         -4    1    3    3    0  502  0.23968322061E+03  0.30858477721E+03  0.46376332003E+03  0.60642314268E+03  0.00000000000E+00 0. -1.
        -13    1    1    2    0    0  0.18668492739E+03 -0.12198341905E+02  0.43393779972E+03  0.47254850211E+03  0.10566000000E+00 0.  1.
<mgrwt>
<rscale>  1 0.64779422E+03</rscale>
<asrwt>0</asrwt>
<pdfrwt beam="1">  1       21 0.20184240E+00 0.98002660E+03</pdfrwt>
<pdfrwt beam="2">  1       -4 0.45987488E-01 0.98002660E+03</pdfrwt>
<totfact> 0.20689173E+01</totfact>
</mgrwt>
</event>
<event>
 6    2  0.2379986E-005  0.1029759E+04  0.7818608E-02  0.9716068E-01
         21   -1    0    0  501  502  0.00000000000E+00  0.00000000000E+00  0.76507461154E+03  0.76507461154E+03  0.00000000000E+00 0. -1.
         -4   -1    0    0    0  501 -0.00000000000E+00 -0.00000000000E+00 -0.51806476516E+03  0.51806476516E+03  0.00000000000E+00 0. -1.
   -9000010    2    1    2    0  502  0.65981668045E+02 -0.21064487250E+03  0.25981974118E+03  0.10620309250E+04  0.10058223228E+04 0.  0.
         13    1    3    3    0    0  0.92058659906E+02  0.10939248360E+03 -0.34710648085E+03  0.37539903109E+03  0.10566000000E+00 0. -1.
         -4    1    3    3    0  502 -0.26076991861E+02 -0.32003735610E+03  0.60692622203E+03  0.68663189395E+03  0.00000000000E+00 0. -1.
        -13    1    1    2    0    0 -0.65981668045E+02  0.21064487250E+03 -0.12809894795E+02  0.22110845166E+03  0.10566000000E+00 0.  1.
<mgrwt>
<rscale>  1 0.70068123E+03</rscale>
<asrwt>0</asrwt>
<pdfrwt beam="1">  1       21 0.11770379E+00 0.10297589E+04</pdfrwt>
<pdfrwt beam="2">  1       -4 0.79702271E-01 0.10297589E+04</pdfrwt>
<totfact> 0.28625719E+01</totfact>
</mgrwt>
</event>
<event>
 6    2  0.2379986E-005  0.1137543E+04  0.7818608E-02  0.9374748E-01
         -4   -1    0    0    0  501 -0.00000000000E+00  0.00000000000E+00  0.11208356246E+04  0.11208356246E+04  0.00000000000E+00 0. -1.
         21   -1    0    0  501  502  0.00000000000E+00 -0.00000000000E+00 -0.63219160385E+03  0.63219160385E+03  0.00000000000E+00 0. -1.
   -9000010    2    1    2    0  502 -0.50082329270E+03  0.18687974215E+03  0.23595136519E+03  0.11617560573E+04  0.10041195553E+04 0.  0.
         13    1    3    3    0    0 -0.63860208974E+03 -0.18201757998E+03 -0.63471438334E+02  0.66706196346E+03  0.10566000000E+00 0. -1.
         -4    1    3    3    0  502  0.13777879704E+03  0.36889732213E+03  0.29942280352E+03  0.49469409382E+03  0.00000000000E+00 0. -1.
        -13    1    1    2    0    0  0.50082329270E+03 -0.18687974215E+03  0.25269265559E+03  0.59127117120E+03  0.10566000000E+00 0.  1.
<mgrwt>
<rscale>  1 0.94183272E+03</rscale>
<asrwt>0</asrwt>
<pdfrwt beam="2">  1       21 0.97260247E-01 0.11375430E+04</pdfrwt>
<pdfrwt beam="1">  1       -4 0.17243625E+00 0.11375430E+04</pdfrwt>
<totfact> 0.65277372E+00</totfact>
</mgrwt>
</event>
<event>
 6    2  0.2379986E-005  0.1616999E+04  0.7818608E-02  0.8870811E-01
         -4   -1    0    0    0  501 -0.00000000000E+00  0.00000000000E+00  0.11521249531E+04  0.11521249531E+04  0.00000000000E+00 0. -1.
         21   -1    0    0  501  502  0.00000000000E+00 -0.00000000000E+00 -0.18140362867E+04  0.18140362867E+04  0.00000000000E+00 0.  1.
   -9000010    2    1    2    0  502 -0.12508004765E+04  0.18783891382E+03 -0.25166210579E+03  0.16364658876E+04  0.10074231961E+04 0.  0.
         13    1    3    3    0    0 -0.73630497397E+03  0.18962473119E+03 -0.63841707294E+03  0.99281363989E+03  0.10566000000E+00 0. -1.
         -4    1    3    3    0  502 -0.51449550257E+03 -0.17858173730E+01  0.38675496715E+03  0.64365224766E+03  0.00000000000E+00 0. -1.
        -13    1    1    2    0    0  0.12508004765E+04 -0.18783891382E+03 -0.41024922777E+03  0.13296953522E+04  0.10566000000E+00 0.  1.
<mgrwt>
<rscale>  1 0.15206881E+04</rscale>
<asrwt>0</asrwt>
<pdfrwt beam="2">  1       21 0.27908250E+00 0.16169993E+04</pdfrwt>
<pdfrwt beam="1">  1       -4 0.17724999E+00 0.16169993E+04</pdfrwt>
<totfact> 0.23356780E-01</totfact>
</mgrwt>
</event>
<event>
 6    2  0.2379986E-005  0.1053092E+04  0.7818608E-02  0.9561934E-01
         -4   -1    0    0    0  501 -0.00000000000E+00  0.00000000000E+00  0.81975253426E+03  0.81975253426E+03  0.00000000000E+00 0. -1.
         21   -1    0    0  501  502  0.00000000000E+00 -0.00000000000E+00 -0.94728181918E+03  0.94728181918E+03  0.00000000000E+00 0. -1.
   -9000010    2    1    2    0  502  0.75053205228E+02  0.34022517006E+03 -0.57506064689E+03  0.11998743398E+04  0.99378948162E+03 0.  0.
         13    1    3    3    0    0 -0.21729076300E+03  0.27959990406E+03 -0.76709667567E+03  0.84488383996E+03  0.10566000000E+00 0. -1.
         -4    1    3    3    0  502  0.29234396823E+03  0.60625266001E+02  0.19203602878E+03  0.35499049985E+03  0.00000000000E+00 0. -1.
        -13    1    1    2    0    0 -0.75053205228E+02 -0.34022517006E+03  0.44753136196E+03  0.56716001363E+03  0.10566000000E+00 0.  1.
<mgrwt>
<rscale>  1 0.79867671E+03</rscale>
<asrwt>0</asrwt>
<pdfrwt beam="2">  1       21 0.14573567E+00 0.10530924E+04</pdfrwt>
<pdfrwt beam="1">  1       -4 0.12611577E+00 0.10530924E+04</pdfrwt>
<totfact> 0.53260649E+00</totfact>
</mgrwt>
</event>
<event>
 6    2  0.2379986E-005  0.1179272E+04  0.7818608E-02  0.9290270E-01
         21   -1    0    0  501  502  0.00000000000E+00  0.00000000000E+00  0.62790700835E+03  0.62790700835E+03  0.00000000000E+00 0. -1.
         -4   -1    0    0    0  501 -0.00000000000E+00 -0.00000000000E+00 -0.13606962549E+04  0.13606962549E+04  0.00000000000E+00 0. -1.
   -9000010    2    1    2    0  502 -0.26728678568E+03  0.59455120447E+03 -0.60083513916E+03  0.13235128497E+04  0.98272582052E+03 0.  0.
         13    1    3    3    0    0  0.25903815275E+03  0.57321318984E+03 -0.19502623517E+03  0.65856614638E+03  0.10566000000E+00 0. -1.
         -4    1    3    3    0  502 -0.52632493844E+03  0.21338014631E+02 -0.40580890399E+03  0.66494670331E+03  0.00000000000E+00 0. -1.
        -13    1    1    2    0    0  0.26728678568E+03 -0.59455120447E+03 -0.13195410735E+03  0.66509041351E+03  0.10566000000E+00 0.  1.
<mgrwt>
<rscale>  1 0.10168356E+04</rscale>
<asrwt>0</asrwt>
<pdfrwt beam="1">  1       21 0.96601080E-01 0.11792724E+04</pdfrwt>
<pdfrwt beam="2">  1       -4 0.20933788E+00 0.11792724E+04</pdfrwt>
<totfact> 0.37045383E+00</totfact>
</mgrwt>
</event>
<event>
 6    2  0.2379986E-005  0.1008439E+04  0.7818608E-02  0.9735312E-01
         -4   -1    0    0    0  501 -0.00000000000E+00  0.00000000000E+00  0.30017204483E+03  0.30017204483E+03  0.00000000000E+00 0. -1.
         21   -1    0    0  501  502  0.00000000000E+00 -0.00000000000E+00 -0.12748222271E+04  0.12748222271E+04  0.00000000000E+00 0. -1.
   -9000010    2    1    2    0  502  0.18848548850E+03  0.11427754418E+03 -0.86599404478E+03  0.13292458154E+04  0.98405417320E+03 0.  0.
         13    1    3    3    0    0  0.34790106250E+03  0.96794220208E+02 -0.10350433048E+04  0.10962294123E+04  0.10566000000E+00 0. -1.
         -4    1    3    3    0  502 -0.15941557400E+03  0.17483323972E+02  0.16904926000E+03  0.23301640319E+03  0.00000000000E+00 0. -1.
        -13    1    1    2    0    0 -0.18848548850E+03 -0.11427754418E+03 -0.10865613747E+03  0.24574845646E+03  0.10566000000E+00 0.  1.
<mgrwt>
<rscale>  1 0.68952689E+03</rscale>
<asrwt>0</asrwt>
<pdfrwt beam="2">  1       21 0.19612650E+00 0.10084388E+04</pdfrwt>
<pdfrwt beam="1">  1       -4 0.46180314E-01 0.10084388E+04</pdfrwt>
<totfact> 0.22379060E+01</totfact>
</mgrwt>
</event>
<event>
 6    2  0.2379986E-005  0.1098744E+04  0.7818608E-02  0.9456948E-01
         -4   -1    0    0    0  501 -0.00000000000E+00  0.00000000000E+00  0.21985324977E+04  0.21985324977E+04  0.00000000000E+00 0. -1.
         21   -1    0    0  501  502  0.00000000000E+00 -0.00000000000E+00 -0.33476533788E+03  0.33476533788E+03  0.00000000000E+00 0.  1.
   -9000010    2    1    2    0  502  0.26933606248E+03  0.35121602810E+03  0.17661993491E+04  0.20800715104E+04  0.10056553758E+04 0.  0.
         13    1    3    3    0    0 -0.16843507412E+03 -0.18975817671E+03  0.97045774881E+02  0.27165498966E+03  0.10566000000E+00 0. -1.
         -4    1    3    3    0  502  0.43777113660E+03  0.54097420480E+03  0.16691535742E+04  0.18084165207E+04  0.00000000000E+00 0. -1.
        -13    1    1    2    0    0 -0.26933606248E+03 -0.35121602810E+03  0.97567810729E+02  0.45322632514E+03  0.10566000000E+00 0.  1.
<mgrwt>
<rscale>  1 0.87533666E+03</rscale>
<asrwt>0</asrwt>
<pdfrwt beam="2">  1       21 0.51502361E-01 0.10987435E+04</pdfrwt>
<pdfrwt beam="1">  1       -4 0.33823576E+00 0.10987435E+04</pdfrwt>
<totfact> 0.24865759E+00</totfact>
</mgrwt>
</event>
<event>
 6    2  0.2379986E-005  0.1057020E+04  0.7818608E-02  0.9569492E-01
         21   -1    0    0  501  502  0.00000000000E+00  0.00000000000E+00  0.66674300521E+03  0.66674300521E+03  0.00000000000E+00 0. -1.
         -4   -1    0    0    0  501 -0.00000000000E+00 -0.00000000000E+00 -0.73589995889E+03  0.73589995889E+03  0.00000000000E+00 0. -1.
   -9000010    2    1    2    0  502 -0.27891308407E+03  0.18676382897E+03  0.12867030587E+02  0.10570982037E+04  0.10023062484E+04 0.  0.
         13    1    3    3    0    0  0.23803544069E+03  0.22085455026E+03  0.31912172599E+03  0.45527605972E+03  0.10566000000E+00 0. -1.
         -4    1    3    3    0  502 -0.51694852476E+03 -0.34090721288E+02 -0.30625469541E+03  0.60182214398E+03  0.00000000000E+00 0. -1.
        -13    1    1    2    0    0  0.27891308407E+03 -0.18676382897E+03 -0.82023984269E+02  0.34554476039E+03  0.10566000000E+00 0.  1.
<mgrwt>
<rscale>  1 0.79348728E+03</rscale>
<asrwt>0</asrwt>
<pdfrwt beam="1">  1       21 0.10257585E+00 0.10570199E+04</pdfrwt>
<pdfrwt beam="2">  1       -4 0.11321538E+00 0.10570199E+04</pdfrwt>
<totfact> 0.17516851E+01</totfact>
</mgrwt>
</event>
<event>
 6    2  0.2379986E-005  0.1053313E+04  0.7818608E-02  0.9657992E-01
         -4   -1    0    0    0  501 -0.00000000000E+00  0.00000000000E+00  0.54463145926E+03  0.54463145926E+03  0.00000000000E+00 0. -1.
         21   -1    0    0  501  502  0.00000000000E+00 -0.00000000000E+00 -0.92089646803E+03  0.92089646803E+03  0.00000000000E+00 0. -1.
   -9000010    2    1    2    0  502 -0.21642469575E+03  0.12661505191E+03 -0.52194394053E+03  0.11755393368E+04  0.10230328611E+04 0.  0.
         13    1    3    3    0    0 -0.61315168718E+03 -0.10199018025E+01 -0.42961291553E+03  0.74868104026E+03  0.10566000000E+00 0. -1.
         -4    1    3    3    0  502  0.39672699143E+03  0.12763495371E+03 -0.92331025004E+02  0.42685829653E+03  0.00000000000E+00 0. -1.
        -13    1    1    2    0    0  0.21642469575E+03 -0.12661505191E+03  0.14567893176E+03  0.28998859050E+03  0.10566000000E+00 0.  1.
<mgrwt>
<rscale>  1 0.73573981E+03</rscale>
<asrwt>0</asrwt>
<pdfrwt beam="2">  1       21 0.14167638E+00 0.10533125E+04</pdfrwt>
<pdfrwt beam="1">  1       -4 0.83789456E-01 0.10533125E+04</pdfrwt>
<totfact> 0.15545843E+01</totfact>
</mgrwt>
</event>
<event>
 6    2  0.2379986E-005  0.1001421E+04  0.7818608E-02  0.9906196E-01
         21   -1    0    0  501  502  0.00000000000E+00  0.00000000000E+00  0.10951886434E+04  0.10951886434E+04  0.00000000000E+00 0. -1.
         -4   -1    0    0    0  501 -0.00000000000E+00 -0.00000000000E+00 -0.29939194534E+03  0.29939194534E+03  0.00000000000E+00 0. -1.
   -9000010    2    1    2    0  502  0.12210096452E+03 -0.40751856916E+02  0.77017258006E+03  0.12633328613E+04  0.99311366720E+03 0.  0.
         13    1    3    3    0    0  0.42923115439E+03 -0.96551930165E+02  0.83486488768E+01  0.44003564654E+03  0.10566000000E+00 0. -1.
         -4    1    3    3    0  502 -0.30713018987E+03  0.55800073249E+02  0.76182393118E+03  0.82329721476E+03  0.00000000000E+00 0. -1.
        -13    1    1    2    0    0 -0.12210096452E+03  0.40751856916E+02  0.25624118030E+02  0.13124772748E+03  0.10566000000E+00 0.  1.
<mgrwt>
<rscale>  1 0.59961955E+03</rscale>
<asrwt>0</asrwt>
<pdfrwt beam="1">  1       21 0.16849056E+00 0.10014210E+04</pdfrwt>
<pdfrwt beam="2">  1       -4 0.46060300E-01 0.10014210E+04</pdfrwt>
<totfact> 0.35636912E+01</totfact>
</mgrwt>
</event>
<event>
 6    2  0.2379986E-005  0.1004869E+04  0.7818608E-02  0.9819847E-01
         21   -1    0    0  501  502  0.00000000000E+00  0.00000000000E+00  0.85296431206E+03  0.85296431206E+03  0.00000000000E+00 0. -1.
         -4   -1    0    0    0  501 -0.00000000000E+00 -0.00000000000E+00 -0.42200263209E+03  0.42200263209E+03  0.00000000000E+00 0. -1.
   -9000010    2    1    2    0  502 -0.16808951552E+03 -0.12497967548E+02  0.45789036310E+03  0.11042758502E+04  0.99063176017E+03 0.  0.
         13    1    3    3    0    0 -0.17018269597E+03  0.27382267044E+03 -0.20509302489E+03  0.38210491344E+03  0.10566000000E+00 0. -1.
         -4    1    3    3    0  502  0.20931804491E+01 -0.28632063798E+03  0.66298338799E+03  0.72217093675E+03  0.00000000000E+00 0. -1.
        -13    1    1    2    0    0  0.16808951552E+03  0.12497967548E+02 -0.26928683127E+02  0.17069109396E+03  0.10566000000E+00 0.  1.
<mgrwt>
<rscale>  1 0.64308227E+03</rscale>
<asrwt>0</asrwt>
<pdfrwt beam="1">  1       21 0.13122528E+00 0.10048689E+04</pdfrwt>
<pdfrwt beam="2">  1       -4 0.64923482E-01 0.10048689E+04</pdfrwt>
<totfact> 0.34223750E+01</totfact>
</mgrwt>
</event>
<event>
 6    2  0.2379986E-005  0.1008225E+04  0.7818608E-02  0.9645167E-01
         21   -1    0    0  501  502  0.00000000000E+00  0.00000000000E+00  0.12002507770E+04  0.12002507770E+04  0.00000000000E+00 0. -1.
         -4   -1    0    0    0  501 -0.00000000000E+00 -0.00000000000E+00 -0.36387789887E+03  0.36387789887E+03  0.00000000000E+00 0. -1.
   -9000010    2    1    2    0  502  0.18413526765E+03  0.23507030504E+03  0.73898074104E+03  0.12500441576E+04  0.96299221971E+03 0.  0.
         13    1    3    3    0    0  0.44818599761E+03  0.13685478549E+03  0.83070210479E+03  0.95376407923E+03  0.10566000000E+00 0. -1.
         -4    1    3    3    0  502 -0.26405072995E+03  0.98215519551E+02 -0.91721363749E+02  0.29628007837E+03  0.00000000000E+00 0. -1.
        -13    1    1    2    0    0 -0.18413526765E+03 -0.23507030504E+03  0.97392137141E+02  0.31408451832E+03  0.10566000000E+00 0.  1.
<mgrwt>
<rscale>  1 0.74377527E+03</rscale>
<asrwt>0</asrwt>
<pdfrwt beam="1">  1       21 0.18465396E+00 0.10082251E+04</pdfrwt>
<pdfrwt beam="2">  1       -4 0.55981216E-01 0.10082251E+04</pdfrwt>
<totfact> 0.17934541E+01</totfact>
</mgrwt>
</event>
<event>
 6    2  0.2379986E-005  0.1057211E+04  0.7818608E-02  0.9408997E-01
         -4   -1    0    0    0  501 -0.00000000000E+00  0.00000000000E+00  0.13924178212E+04  0.13924178212E+04  0.00000000000E+00 0. -1.
         21   -1    0    0  501  502  0.00000000000E+00 -0.00000000000E+00 -0.55933687517E+03  0.55933687517E+03  0.00000000000E+00 0.  1.
   -9000010    2    1    2    0  502  0.19908617245E+03  0.55436924551E+03  0.85893498216E+03  0.13621539783E+04  0.87791434245E+03 0.  0.
         13    1    3    3    0    0 -0.22666955097E+03 -0.11855990993E+03  0.26839648943E+03  0.37077246970E+03  0.10566000000E+00 0. -1.
         -4    1    3    3    0  502  0.42575572342E+03  0.67292915544E+03  0.59053849272E+03  0.99138150863E+03  0.00000000000E+00 0. -1.
        -13    1    1    2    0    0 -0.19908617245E+03 -0.55436924551E+03 -0.25854036076E+02  0.58960071809E+03  0.10566000000E+00 0.  1.
<mgrwt>
<rscale>  1 0.91338986E+03</rscale>
<asrwt>0</asrwt>
<pdfrwt beam="2">  1       21 0.86051827E-01 0.10572106E+04</pdfrwt>
<pdfrwt beam="1">  1       -4 0.21421813E+00 0.10572106E+04</pdfrwt>
<totfact> 0.46279985E+00</totfact>
</mgrwt>
</event>
<event>
 6    2  0.2379986E-005  0.1028288E+04  0.7818608E-02  0.9877121E-01
         21   -1    0    0  501  502  0.00000000000E+00  0.00000000000E+00  0.11272001486E+04  0.11272001486E+04  0.00000000000E+00 0. -1.
         -4   -1    0    0    0  501 -0.00000000000E+00 -0.00000000000E+00 -0.37963996888E+03  0.37963996888E+03  0.00000000000E+00 0. -1.
   -9000010    2    1    2    0  502  0.13050491450E+03  0.41688394793E+01  0.85534209974E+03  0.13375301492E+04  0.10199646467E+04 0.  0.
         13    1    3    3    0    0  0.42375381186E+03 -0.18909495933E+03  0.59741842556E+02  0.46786033773E+03  0.10566000000E+00 0. -1.
         -4    1    3    3    0  502 -0.29324889735E+03  0.19326379881E+03  0.79560025718E+03  0.86966981145E+03  0.00000000000E+00 0. -1.
        -13    1    1    2    0    0 -0.13050491450E+03 -0.41688394793E+01 -0.10778191998E+03  0.16930996832E+03  0.10566000000E+00 0.  1.
<mgrwt>
<rscale>  1 0.61383025E+03</rscale>
<asrwt>0</asrwt>
<pdfrwt beam="1">  1       21 0.17341541E+00 0.10282883E+04</pdfrwt>
<pdfrwt beam="2">  1       -4 0.58406150E-01 0.10282883E+04</pdfrwt>
<totfact> 0.19713588E+01</totfact>
</mgrwt>
</event>
<event>
 6    2  0.2379986E-005  0.1062029E+04  0.7818608E-02  0.9564322E-01
         -4   -1    0    0    0  501 -0.00000000000E+00  0.00000000000E+00  0.88856306742E+03  0.88856306742E+03  0.00000000000E+00 0. -1.
         21   -1    0    0  501  502  0.00000000000E+00 -0.00000000000E+00 -0.65296664471E+03  0.65296664471E+03  0.00000000000E+00 0. -1.
   -9000010    2    1    2    0  502  0.33345452438E+03 -0.48035457960E+02 -0.99096091638E+02  0.10666419197E+04  0.10071770572E+04 0.  0.
         13    1    3    3    0    0 -0.14152926189E+02 -0.42787332437E+03 -0.29046233801E+03  0.51734347197E+03  0.10566000000E+00 0. -1.
         -4    1    3    3    0  502  0.34760745057E+03  0.37983786641E+03  0.19136624637E+03  0.54929844775E+03  0.00000000000E+00 0. -1.
        -13    1    1    2    0    0 -0.33345452438E+03  0.48035457960E+02  0.33469251435E+03  0.47488779241E+03  0.10566000000E+00 0.  1.
<mgrwt>
<rscale>  1 0.79703309E+03</rscale>
<asrwt>0</asrwt>
<pdfrwt beam="2">  1       21 0.10045641E+00 0.10620287E+04</pdfrwt>
<pdfrwt beam="1">  1       -4 0.13670201E+00 0.10620287E+04</pdfrwt>
<totfact> 0.11424194E+01</totfact>
</mgrwt>
</event>
<event>
 6    2  0.2379986E-005  0.8425576E+03  0.7818608E-02  0.9862264E-01
         -4   -1    0    0    0  501 -0.00000000000E+00  0.00000000000E+00  0.19690855662E+04  0.19690855662E+04  0.00000000000E+00 0. -1.
         21   -1    0    0  501  502  0.00000000000E+00 -0.00000000000E+00 -0.15217340263E+03  0.15217340263E+03  0.00000000000E+00 0. -1.
   -9000010    2    1    2    0  502  0.51368155782E+02 -0.24369150801E+03  0.13315524623E+04  0.15757332689E+04  0.80490939638E+03 0.  0.
         13    1    3    3    0    0  0.35787490529E+03 -0.35639793812E+03  0.68144209578E+03  0.84820827584E+03  0.10566000000E+00 0. -1.
         -4    1    3    3    0  502 -0.30650674951E+03  0.11270643011E+03  0.65011036655E+03  0.72752499310E+03  0.00000000000E+00 0. -1.
        -13    1    1    2    0    0 -0.51368155782E+02  0.24369150801E+03  0.48535970125E+03  0.54552569991E+03  0.10566000000E+00 0.  1.
<mgrwt>
<rscale>  1 0.62125501E+03</rscale>
<asrwt>0</asrwt>
<pdfrwt beam="2">  1       21 0.23411294E-01 0.84255764E+03</pdfrwt>
<pdfrwt beam="1">  1       -4 0.30293622E+00 0.84255764E+03</pdfrwt>
<totfact> 0.21752934E+01</totfact>
</mgrwt>
</event>
<event>
 6    2  0.2379986E-005  0.9242430E+03  0.7818608E-02  0.9977283E-01
         21   -1    0    0  501  502  0.00000000000E+00  0.00000000000E+00  0.11751928042E+04  0.11751928042E+04  0.00000000000E+00 0. -1.
         -4   -1    0    0    0  501 -0.00000000000E+00 -0.00000000000E+00 -0.23717203674E+03  0.23717203674E+03  0.00000000000E+00 0. -1.
   -9000010    2    1    2    0  502  0.46511203281E+02 -0.12195117157E+03  0.84265736942E+03  0.12507184085E+04  0.91498071823E+03 0.  0.
         13    1    3    3    0    0  0.59771119607E+02 -0.11314342742E+03  0.10424592252E+04  0.10502834233E+04  0.10566000000E+00 0. -1.
         -4    1    3    3    0  502 -0.13259916327E+02 -0.88077441545E+01 -0.19980185573E+03  0.20043498520E+03  0.00000000000E+00 0. -1.
        -13    1    1    2    0    0 -0.46511203281E+02  0.12195117157E+03  0.95363398010E+02  0.16164643245E+03  0.10566000000E+00 0.  1.
<mgrwt>
<rscale>  1 0.56657660E+03</rscale>
<asrwt>0</asrwt>
<pdfrwt beam="1">  1       21 0.18079889E+00 0.92424298E+03</pdfrwt>
<pdfrwt beam="2">  1       -4 0.36488006E-01 0.92424298E+03</pdfrwt>
<totfact> 0.46972738E+01</totfact>
</mgrwt>
</event>
<event>
 6    2  0.2379986E-005  0.1042213E+04  0.7818608E-02  0.9622114E-01
         21   -1    0    0  501  502  0.00000000000E+00  0.00000000000E+00  0.76923440125E+03  0.76923440125E+03  0.00000000000E+00 0. -1.
         -4   -1    0    0    0  501 -0.00000000000E+00 -0.00000000000E+00 -0.57983501745E+03  0.57983501745E+03  0.00000000000E+00 0. -1.
   -9000010    2    1    2    0  502  0.17440600984E+03  0.23466453715E+03  0.12499263527E+03  0.10496814736E+04  0.10003615026E+04 0.  0.
         13    1    3    3    0    0  0.23900730010E+03  0.60356739067E+03 -0.16371177912E+02  0.64937362990E+03  0.10566000000E+00 0. -1.
         -4    1    3    3    0  502 -0.64601290262E+02 -0.36890285352E+03  0.14136381319E+03  0.40030784368E+03  0.00000000000E+00 0. -1.
        -13    1    1    2    0    0 -0.17440600984E+03 -0.23466453715E+03  0.64406748529E+02  0.29938794512E+03  0.10566000000E+00 0.  1.
<mgrwt>
<rscale>  1 0.75849656E+03</rscale>
<asrwt>0</asrwt>
<pdfrwt beam="1">  1       21 0.11834375E+00 0.10422130E+04</pdfrwt>
<pdfrwt beam="2">  1       -4 0.89205388E-01 0.10422130E+04</pdfrwt>
<totfact> 0.21704430E+01</totfact>
</mgrwt>
</event>
<event>
 6    2  0.2379986E-005  0.1072052E+04  0.7818608E-02  0.9472778E-01
         -4   -1    0    0    0  501 -0.00000000000E+00  0.00000000000E+00  0.13287136406E+04  0.13287136406E+04  0.00000000000E+00 0. -1.
         21   -1    0    0  501  502  0.00000000000E+00 -0.00000000000E+00 -0.45089414377E+03  0.45089414377E+03  0.00000000000E+00 0. -1.
   -9000010    2    1    2    0  502  0.33349007533E+03  0.30306553788E+03  0.46529040990E+03  0.11686703004E+04  0.97274393082E+03 0.  0.
         13    1    3    3    0    0  0.39564412028E+03 -0.90063623568E+02 -0.15274584735E+03  0.43356318023E+03  0.10566000000E+00 0. -1.
         -4    1    3    3    0  502 -0.62154044952E+02  0.39312916144E+03  0.61803625725E+03  0.73510712019E+03  0.00000000000E+00 0. -1.
        -13    1    1    2    0    0 -0.33349007533E+03 -0.30306553788E+03  0.41252908698E+03  0.61093748400E+03  0.10566000000E+00 0.  1.
<mgrwt>
<rscale>  1 0.86320917E+03</rscale>
<asrwt>0</asrwt>
<pdfrwt beam="2">  1       21 0.69368330E-01 0.10720518E+04</pdfrwt>
<pdfrwt beam="1">  1       -4 0.20441748E+00 0.10720518E+04</pdfrwt>
<totfact> 0.88595130E+00</totfact>
</mgrwt>
</event>
<event>
 6    2  0.2379986E-005  0.9900631E+03  0.7818608E-02  0.9518732E-01
         21   -1    0    0  501  502  0.00000000000E+00  0.00000000000E+00  0.21016229535E+04  0.21016229535E+04  0.00000000000E+00 0. -1.
         -4   -1    0    0    0  501 -0.00000000000E+00 -0.00000000000E+00 -0.25988432529E+03  0.25988432529E+03  0.00000000000E+00 0. -1.
   -9000010    2    1    2    0  502  0.28303663383E+03 -0.39637919917E+03  0.12739824205E+04  0.16134609379E+04  0.86197377261E+03 0.  0.
         13    1    3    3    0    0  0.43483210260E+03 -0.58078251427E+03  0.78297759798E+03  0.10674461188E+04  0.10566000000E+00 0. -1.
         -4    1    3    3    0  502 -0.15179546877E+03  0.18440331510E+03  0.49100482250E+03  0.54601481910E+03  0.00000000000E+00 0. -1.
        -13    1    1    2    0    0 -0.28303663383E+03  0.39637919917E+03  0.56775620775E+03  0.74804634096E+03  0.10566000000E+00 0.  1.
<mgrwt>
<rscale>  1 0.82916794E+03</rscale>
<asrwt>0</asrwt>
<pdfrwt beam="1">  1       21 0.32332660E+00 0.99006312E+03</pdfrwt>
<pdfrwt beam="2">  1       -4 0.39982205E-01 0.99006312E+03</pdfrwt>
<totfact> 0.46393920E+00</totfact>
</mgrwt>
</event>
<event>
 6    2  0.2379986E-005  0.1011552E+04  0.7818608E-02  0.9821232E-01
         21   -1    0    0  501  502  0.00000000000E+00  0.00000000000E+00  0.12280672902E+04  0.12280672902E+04  0.00000000000E+00 0. -1.
         -4   -1    0    0    0  501 -0.00000000000E+00 -0.00000000000E+00 -0.40448202987E+03  0.40448202987E+03  0.00000000000E+00 0. -1.
   -9000010    2    1    2    0  502 -0.16217840134E+03  0.27468364056E+02  0.97793684114E+03  0.14069816660E+04  0.99808847220E+03 0.  0.
         13    1    3    3    0    0 -0.13847647877E+02  0.49687048142E+03  0.63782754790E+03  0.80863837695E+03  0.10566000000E+00 0. -1.
         -4    1    3    3    0  502 -0.14833075346E+03 -0.46940211736E+03  0.34010929324E+03  0.59834328905E+03  0.00000000000E+00 0. -1.
        -13    1    1    2    0    0  0.16217840134E+03 -0.27468364056E+02 -0.15435158083E+03  0.22556765405E+03  0.10566000000E+00 0.  1.
<mgrwt>
<rscale>  1 0.64235446E+03</rscale>
<asrwt>0</asrwt>
<pdfrwt beam="1">  1       21 0.18893343E+00 0.10115518E+04</pdfrwt>
<pdfrwt beam="2">  1       -4 0.62228005E-01 0.10115518E+04</pdfrwt>
<totfact> 0.13283267E+01</totfact>
</mgrwt>
</event>
<event>
 6    2  0.2379986E-005  0.1014218E+04  0.7818608E-02  0.9771654E-01
         21   -1    0    0  501  502  0.00000000000E+00  0.00000000000E+00  0.90685895425E+03  0.90685895425E+03  0.00000000000E+00 0. -1.
         -4   -1    0    0    0  501 -0.00000000000E+00 -0.00000000000E+00 -0.40612301141E+03  0.40612301141E+03  0.00000000000E+00 0. -1.
   -9000010    2    1    2    0  502  0.17732049788E+03 -0.73826185041E+02  0.47236215647E+03  0.11188223729E+04  0.99586376104E+03 0.  0.
         13    1    3    3    0    0  0.32423335055E+03 -0.44254779665E+03  0.46921311201E+03  0.72189803544E+03  0.10566000000E+00 0. -1.
         -4    1    3    3    0  502 -0.14691285268E+03  0.36872161160E+03  0.31490444579E+01  0.39692433741E+03  0.00000000000E+00 0. -1.
        -13    1    1    2    0    0 -0.17732049788E+03  0.73826185041E+02  0.28373786367E+02  0.19415959281E+03  0.10566000000E+00 0.  1.
<mgrwt>
<rscale>  1 0.66906174E+03</rscale>
<asrwt>0</asrwt>
<pdfrwt beam="1">  1       21 0.13951676E+00 0.10142177E+04</pdfrwt>
<pdfrwt beam="2">  1       -4 0.62480464E-01 0.10142177E+04</pdfrwt>
<totfact> 0.31553518E+01</totfact>
</mgrwt>
</event>
<event>
 6    2  0.2379986E-005  0.1162425E+04  0.7818608E-02  0.9341413E-01
         21   -1    0    0  501  502  0.00000000000E+00  0.00000000000E+00  0.16144942229E+04  0.16144942229E+04  0.00000000000E+00 0.  1.
         -4   -1    0    0    0  501 -0.00000000000E+00 -0.00000000000E+00 -0.49354758844E+03  0.49354758844E+03  0.00000000000E+00 0. -1.
   -9000010    2    1    2    0  502  0.24206109921E+03  0.51049613703E+03  0.49104046164E+03  0.12618848050E+04  0.10158900750E+04 0.  0.
         13    1    3    3    0    0  0.52778769327E+03  0.60349179146E+03  0.52675885588E+03  0.95928989098E+03  0.10566000000E+00 0. -1.
         -4    1    3    3    0  502 -0.28572659406E+03 -0.92995654427E+02 -0.35718394244E+02  0.30259491400E+03  0.00000000000E+00 0. -1.
        -13    1    1    2    0    0 -0.24206109921E+03 -0.51049613703E+03  0.62990617279E+03  0.84615700633E+03  0.10566000000E+00 0.  1.
<mgrwt>
<rscale>  1 0.97058077E+03</rscale>
<asrwt>0</asrwt>
<pdfrwt beam="1">  1       21 0.24838372E+00 0.11624253E+04</pdfrwt>
<pdfrwt beam="2">  1       -4 0.75930399E-01 0.11624253E+04</pdfrwt>
<totfact> 0.33459993E+00</totfact>
</mgrwt>
</event>
<event>
 6    2  0.2379986E-005  0.9749595E+03  0.7818608E-02  0.9799297E-01
         21   -1    0    0  501  502  0.00000000000E+00  0.00000000000E+00  0.19187115685E+03  0.19187115685E+03  0.00000000000E+00 0. -1.
         -4   -1    0    0    0  501 -0.00000000000E+00 -0.00000000000E+00 -0.19031364958E+04  0.19031364958E+04  0.00000000000E+00 0. -1.
   -9000010    2    1    2    0  502 -0.19536237604E+03 -0.28327482203E+02 -0.11948332885E+04  0.15421324604E+04  0.95476543407E+03 0.  0.
         13    1    3    3    0    0  0.31660375972E+03  0.12426055346E+03 -0.15642313857E+03  0.37436190413E+03  0.10566000000E+00 0. -1.
         -4    1    3    3    0  502 -0.51196613576E+03 -0.15258803566E+03 -0.10384101499E+04  0.11677705563E+04  0.00000000000E+00 0. -1.
        -13    1    1    2    0    0  0.19536237604E+03  0.28327482203E+02 -0.51643205045E+03  0.55287519217E+03  0.10566000000E+00 0.  1.
<mgrwt>
<rscale>  1 0.65400295E+03</rscale>
<asrwt>0</asrwt>
<pdfrwt beam="1">  1       21 0.29518639E-01 0.97495945E+03</pdfrwt>
<pdfrwt beam="2">  1       -4 0.29279023E+00 0.97495945E+03</pdfrwt>
<totfact> 0.15591901E+01</totfact>
</mgrwt>
</event>
<event>
 6    2  0.2379986E-005  0.8238891E+03  0.7818608E-02  0.1034220E+00
         21   -1    0    0  501  502  0.00000000000E+00  0.00000000000E+00  0.93479973622E+03  0.93479973622E+03  0.00000000000E+00 0. -1.
         -4   -1    0    0    0  501 -0.00000000000E+00 -0.00000000000E+00 -0.29826580097E+03  0.29826580097E+03  0.00000000000E+00 0. -1.
   -9000010    2    1    2    0  502 -0.49621047298E+02  0.34590630422E+02  0.74376818971E+03  0.11099478839E+04  0.82166564064E+03 0.  0.
         13    1    3    3    0    0 -0.57447550659E+01  0.41048641393E+03  0.22602367963E+03  0.46863505326E+03  0.10566000000E+00 0. -1.
         -4    1    3    3    0  502 -0.43876292232E+02 -0.37589578351E+03  0.51774451008E+03  0.64131283068E+03  0.00000000000E+00 0. -1.
        -13    1    1    2    0    0  0.49621047298E+02 -0.34590630422E+02 -0.10723425446E+03  0.12311765325E+03  0.10566000000E+00 0.  1.
<mgrwt>
<rscale>  1 0.42886288E+03</rscale>
<asrwt>0</asrwt>
<pdfrwt beam="1">  1       21 0.14381534E+00 0.82388906E+03</pdfrwt>
<pdfrwt beam="2">  1       -4 0.45887047E-01 0.82388906E+03</pdfrwt>
<totfact> 0.57229549E+01</totfact>
</mgrwt>
</event>
<event>
 6    2  0.2379986E-005  0.1464745E+04  0.7818608E-02  0.8999833E-01
         -4   -1    0    0    0  501 -0.00000000000E+00  0.00000000000E+00  0.17091384307E+04  0.17091384307E+04  0.00000000000E+00 0. -1.
         21   -1    0    0  501  502  0.00000000000E+00 -0.00000000000E+00 -0.93855899698E+03  0.93855899698E+03  0.00000000000E+00 0.  1.
   -9000010    2    1    2    0  502 -0.76440049453E+03 -0.67589964120E+03  0.70404426846E+03  0.16251636237E+04  0.10508710819E+04 0.  0.
         13    1    3    3    0    0 -0.16182315690E+03  0.96438694251E+02  0.61306311837E+03  0.64135290920E+03  0.10566000000E+00 0. -1.
         -4    1    3    3    0  502 -0.60257733762E+03 -0.77233833545E+03  0.90981150084E+02  0.98381071446E+03  0.00000000000E+00 0. -1.
        -13    1    1    2    0    0  0.76440049453E+03  0.67589964120E+03  0.66535165276E+02  0.10225338040E+04  0.10566000000E+00 0.  1.
<mgrwt>
<rscale>  1 0.13381682E+04</rscale>
<asrwt>0</asrwt>
<pdfrwt beam="2">  1       21 0.14439369E+00 0.14647452E+04</pdfrwt>
<pdfrwt beam="1">  1       -4 0.26294437E+00 0.14647452E+04</pdfrwt>
<totfact> 0.57418068E-01</totfact>
</mgrwt>
</event>
<event>
 6    2  0.2379986E-005  0.1006867E+04  0.7818608E-02  0.9755504E-01
         -4   -1    0    0    0  501 -0.00000000000E+00  0.00000000000E+00  0.33621817217E+03  0.33621817217E+03  0.00000000000E+00 0. -1.
         21   -1    0    0  501  502  0.00000000000E+00 -0.00000000000E+00 -0.17317263530E+04  0.17317263530E+04  0.00000000000E+00 0. -1.
   -9000010    2    1    2    0  502 -0.63388981373E+02 -0.19715021941E+03 -0.15222785292E+04  0.18251336845E+04  0.98533987738E+03 0.  0.
         13    1    3    3    0    0  0.12076086110E+03  0.36123299035E+02 -0.15227255016E+04  0.15279335858E+04  0.10566000000E+00 0. -1.
         -4    1    3    3    0  502 -0.18414984247E+03 -0.23327351844E+03  0.44697238739E+00  0.29720009871E+03  0.00000000000E+00 0. -1.
        -13    1    1    2    0    0  0.63388981373E+02  0.19715021941E+03  0.12677034834E+03  0.24281084068E+03  0.10566000000E+00 0.  1.
<mgrwt>
<rscale>  1 0.67806135E+03</rscale>
<asrwt>0</asrwt>
<pdfrwt beam="2">  1       21 0.26641943E+00 0.10068669E+04</pdfrwt>
<pdfrwt beam="1">  1       -4 0.51725874E-01 0.10068669E+04</pdfrwt>
<totfact> 0.61247774E+00</totfact>
</mgrwt>
</event>
<event>
 6    2  0.2379986E-005  0.1013339E+04  0.7818608E-02  0.1000559E+00
         -4   -1    0    0    0  501 -0.00000000000E+00  0.00000000000E+00  0.50924521563E+03  0.50924521563E+03  0.00000000000E+00 0. -1.
         21   -1    0    0  501  502  0.00000000000E+00 -0.00000000000E+00 -0.61628703534E+03  0.61628703534E+03  0.00000000000E+00 0. -1.
   -9000010    2    1    2    0  502  0.30472332503E+02 -0.85283083129E+02 -0.15157291111E+03  0.10246124978E+04  0.10092842295E+04 0.  0.
         13    1    3    3    0    0 -0.21190824502E+03  0.25782657117E+02 -0.52444513161E+03  0.56622659505E+03  0.10566000000E+00 0. -1.
         -4    1    3    3    0  502  0.24238057753E+03 -0.11106574025E+03  0.37287222050E+03  0.45838590274E+03  0.00000000000E+00 0. -1.
        -13    1    1    2    0    0 -0.30472332503E+02  0.85283083129E+02  0.44531091403E+02  0.10091975318E+03  0.10566000000E+00 0.  1.
<mgrwt>
<rscale>  1 0.55405726E+03</rscale>
<asrwt>0</asrwt>
<pdfrwt beam="2">  1       21 0.94813391E-01 0.10133392E+04</pdfrwt>
<pdfrwt beam="1">  1       -4 0.78345417E-01 0.10133392E+04</pdfrwt>
<totfact> 0.51326910E+01</totfact>
</mgrwt>
</event>
<event>
 6    2  0.2379986E-005  0.1003531E+04  0.7818608E-02  0.1008182E+00
         -4   -1    0    0    0  501 -0.00000000000E+00  0.00000000000E+00  0.98298184366E+03  0.98298184366E+03  0.00000000000E+00 0. -1.
         21   -1    0    0  501  502  0.00000000000E+00 -0.00000000000E+00 -0.31576460438E+03  0.31576460438E+03  0.00000000000E+00 0. -1.
   -9000010    2    1    2    0  502  0.71794379053E+02  0.15676278679E+02  0.69444253794E+03  0.12203793208E+04  0.10008371844E+04 0.  0.
         13    1    3    3    0    0 -0.36064344588E+03  0.30326103056E+03  0.23301223549E+03  0.52566687243E+03  0.10566000000E+00 0. -1.
         -4    1    3    3    0  502  0.43243782493E+03 -0.28758475188E+03  0.46143030245E+03  0.69471244840E+03  0.00000000000E+00 0. -1.
        -13    1    1    2    0    0 -0.71794379053E+02 -0.15676278679E+02 -0.27225298664E+02  0.78367127216E+02  0.10566000000E+00 0.  1.
<mgrwt>
<rscale>  1 0.52203474E+03</rscale>
<asrwt>0</asrwt>
<pdfrwt beam="2">  1       21 0.48579170E-01 0.10035314E+04</pdfrwt>
<pdfrwt beam="1">  1       -4 0.15122798E+00 0.10035314E+04</pdfrwt>
<totfact> 0.46727766E+01</totfact>
</mgrwt>
</event>
<event>
 6    2  0.2379986E-005  0.8973640E+03  0.7818608E-02  0.1024886E+00
         21   -1    0    0  501  502  0.00000000000E+00  0.00000000000E+00  0.12109643255E+04  0.12109643255E+04  0.00000000000E+00 0. -1.
         -4   -1    0    0    0  501 -0.00000000000E+00 -0.00000000000E+00 -0.19301828275E+03  0.19301828275E+03  0.00000000000E+00 0. -1.
   -9000010    2    1    2    0  502 -0.61433089171E+02 -0.64248085397E+01  0.99003700598E+03  0.13362018728E+04  0.89523564994E+03 0.  0.
         13    1    3    3    0    0 -0.13291590698E+03  0.17182685195E+03 -0.92973688335E+02  0.23629478045E+03  0.10566000000E+00 0. -1.
         -4    1    3    3    0  502  0.71482817807E+02 -0.17825166049E+03  0.10830106943E+04  0.10999070923E+04  0.00000000000E+00 0. -1.
        -13    1    1    2    0    0  0.61433089171E+02  0.64248085397E+01  0.27909036791E+02  0.67780735526E+02  0.10566000000E+00 0.  1.
<mgrwt>
<rscale>  1 0.45963995E+03</rscale>
<asrwt>0</asrwt>
<pdfrwt beam="1">  1       21 0.18630220E+00 0.89736401E+03</pdfrwt>
<pdfrwt beam="2">  1       -4 0.29695121E-01 0.89736401E+03</pdfrwt>
<totfact> 0.64698843E+01</totfact>
</mgrwt>
</event>
<event>
 6    2  0.2379986E-005  0.1012689E+04  0.7818608E-02  0.9622010E-01
         21   -1    0    0  501  502  0.00000000000E+00  0.00000000000E+00  0.25056670444E+03  0.25056670444E+03  0.00000000000E+00 0. -1.
         -4   -1    0    0    0  501 -0.00000000000E+00 -0.00000000000E+00 -0.19092810778E+04  0.19092810778E+04  0.00000000000E+00 0. -1.
   -9000010    2    1    2    0  502  0.38234622628E+02  0.31651485862E+03 -0.97644367152E+03  0.14067628841E+04  0.96119510313E+03 0.  0.
         13    1    3    3    0    0 -0.84401860162E+02 -0.31985044272E+03 -0.51154332986E+03  0.60918352669E+03  0.10566000000E+00 0. -1.
         -4    1    3    3    0  502  0.12263648279E+03  0.63636530134E+03 -0.46490034166E+03  0.79757935739E+03  0.00000000000E+00 0. -1.
        -13    1    1    2    0    0 -0.38234622628E+02 -0.31651485862E+03 -0.68227070187E+03  0.75308489819E+03  0.10566000000E+00 0.  1.
<mgrwt>
<rscale>  1 0.75856384E+03</rscale>
<asrwt>0</asrwt>
<pdfrwt beam="1">  1       21 0.38548724E-01 0.10126893E+04</pdfrwt>
<pdfrwt beam="2">  1       -4 0.29373555E+00 0.10126893E+04</pdfrwt>
<totfact> 0.88660259E+00</totfact>
</mgrwt>
</event>
<event>
 6    2  0.2379986E-005  0.1057182E+04  0.7818608E-02  0.9520601E-01
         21   -1    0    0  501  502  0.00000000000E+00  0.00000000000E+00  0.45131307496E+03  0.45131307496E+03  0.00000000000E+00 0. -1.
         -4   -1    0    0    0  501 -0.00000000000E+00 -0.00000000000E+00 -0.11830517641E+04  0.11830517641E+04  0.00000000000E+00 0. -1.
   -9000010    2    1    2    0  502 -0.28499271517E+03  0.27704340385E+03 -0.60034830617E+03  0.12157512473E+04  0.97962192262E+03 0.  0.
         13    1    3    3    0    0 -0.49730052056E+03 -0.18477397749E+03 -0.19353794548E+03  0.56471778617E+03  0.10566000000E+00 0. -1.
         -4    1    3    3    0  502  0.21230780539E+03  0.46181738135E+03 -0.40681036069E+03  0.65103346113E+03  0.00000000000E+00 0. -1.
        -13    1    1    2    0    0  0.28499271517E+03 -0.27704340385E+03 -0.13139038298E+03  0.41861359178E+03  0.10566000000E+00 0.  1.
<mgrwt>
<rscale>  1 0.82781908E+03</rscale>
<asrwt>0</asrwt>
<pdfrwt beam="1">  1       21 0.69432781E-01 0.10571816E+04</pdfrwt>
<pdfrwt beam="2">  1       -4 0.18200796E+00 0.10571816E+04</pdfrwt>
<totfact> 0.12539616E+01</totfact>
</mgrwt>
</event>
<event>
 6    2  0.2379986E-005  0.1046903E+04  0.7818608E-02  0.9692623E-01
         21   -1    0    0  501  502  0.00000000000E+00  0.00000000000E+00  0.65806745355E+03  0.65806745355E+03  0.00000000000E+00 0. -1.
         -4   -1    0    0    0  501 -0.00000000000E+00 -0.00000000000E+00 -0.64877605995E+03  0.64877605995E+03  0.00000000000E+00 0. -1.
   -9000010    2    1    2    0  502  0.39270096169E+01 -0.22720187408E+03  0.12057132250E+03  0.10538230662E+04  0.10219439799E+04 0.  0.
         13    1    3    3    0    0  0.23563535926E+03  0.28187800610E+03  0.29146461130E+03  0.46896787061E+03  0.10566000000E+00 0. -1.
         -4    1    3    3    0  502 -0.23170834964E+03 -0.50907988019E+03 -0.17089328879E+03  0.58485519563E+03  0.00000000000E+00 0. -1.
        -13    1    1    2    0    0 -0.39270096169E+01  0.22720187408E+03 -0.11127992891E+03  0.25302044726E+03  0.10566000000E+00 0.  1.
<mgrwt>
<rscale>  1 0.71457694E+03</rscale>
<asrwt>0</asrwt>
<pdfrwt beam="1">  1       21 0.10124115E+00 0.10469029E+04</pdfrwt>
<pdfrwt beam="2">  1       -4 0.99811701E-01 0.10469029E+04</pdfrwt>
<totfact> 0.24664757E+01</totfact>
</mgrwt>
</event>
<event>
 6    2  0.2379986E-005  0.1022537E+04  0.7818608E-02  0.9784303E-01
         21   -1    0    0  501  502  0.00000000000E+00  0.00000000000E+00  0.52688123820E+03  0.52688123820E+03  0.00000000000E+00 0.  1.
         -4   -1    0    0    0  501 -0.00000000000E+00 -0.00000000000E+00 -0.69599619201E+03  0.69599619201E+03  0.00000000000E+00 0. -1.
   -9000010    2    1    2    0  502  0.74575363899E+02 -0.16356571097E+03 -0.19588451706E+03  0.10411307731E+04  0.10066118000E+04 0.  0.
         13    1    3    3    0    0  0.16291567376E+03  0.19457762983E+03 -0.50152964611E+03  0.56208003690E+03  0.10566000000E+00 0. -1.
         -4    1    3    3    0  502 -0.88340309858E+02 -0.35814334080E+03  0.30564512905E+03  0.47905073616E+03  0.00000000000E+00 0. -1.
        -13    1    1    2    0    0 -0.74575363899E+02  0.16356571097E+03  0.26769563255E+02  0.18174665716E+03  0.10566000000E+00 0.  1.
<mgrwt>
<rscale>  1 0.66211792E+03</rscale>
<asrwt>0</asrwt>
<pdfrwt beam="1">  1       21 0.81058652E-01 0.10225373E+04</pdfrwt>
<pdfrwt beam="2">  1       -4 0.10707634E+00 0.10225373E+04</pdfrwt>
<totfact> 0.35685181E+01</totfact>
</mgrwt>
</event>
<event>
 6    2  0.2379986E-005  0.1029677E+04  0.7818608E-02  0.9695413E-01
         21   -1    0    0  501  502  0.00000000000E+00  0.00000000000E+00  0.97161484931E+03  0.97161484931E+03  0.00000000000E+00 0. -1.
         -4   -1    0    0    0  501 -0.00000000000E+00 -0.00000000000E+00 -0.52950456720E+03  0.52950456720E+03  0.00000000000E+00 0. -1.
   -9000010    2    1    2    0  502  0.21943354982E+03 -0.88492807145E+02  0.62283001214E+03  0.12033918705E+04  0.10021240992E+04 0.  0.
         13    1    3    3    0    0  0.24714416516E+03 -0.64187600509E+02  0.89398851385E+03  0.92973961973E+03  0.10566000000E+00 0. -1.
         -4    1    3    3    0  502 -0.27710615343E+02 -0.24305206636E+02 -0.27115850172E+03  0.27365225072E+03  0.00000000000E+00 0. -1.
        -13    1    1    2    0    0 -0.21943354982E+03  0.88492807145E+02 -0.18071973003E+03  0.29772754607E+03  0.10566000000E+00 0.  1.
<mgrwt>
<rscale>  1 0.71290537E+03</rscale>
<asrwt>0</asrwt>
<pdfrwt beam="1">  1       21 0.14947921E+00 0.10296770E+04</pdfrwt>
<pdfrwt beam="2">  1       -4 0.81462241E-01 0.10296770E+04</pdfrwt>
<totfact> 0.14345169E+01</totfact>
</mgrwt>
</event>
<event>
 6    2  0.2379986E-005  0.1056889E+04  0.7818608E-02  0.9578429E-01
         -4   -1    0    0    0  501 -0.00000000000E+00  0.00000000000E+00  0.46164832634E+03  0.46164832634E+03  0.00000000000E+00 0. -1.
         21   -1    0    0  501  502  0.00000000000E+00 -0.00000000000E+00 -0.15480609778E+04  0.15480609778E+04  0.00000000000E+00 0. -1.
   -9000010    2    1    2    0  502  0.41952115442E+02  0.32290193032E+03 -0.12568708529E+04  0.16421747531E+04  0.10054789616E+04 0.  0.
         13    1    3    3    0    0 -0.55889419099E+02 -0.22849138326E+03 -0.99778787377E+03  0.10251402790E+04  0.10566000000E+00 0. -1.
         -4    1    3    3    0  502  0.97841534541E+02  0.55139331358E+03 -0.25908297910E+03  0.61703447408E+03  0.00000000000E+00 0. -1.
        -13    1    1    2    0    0 -0.41952115442E+02 -0.32290193032E+03  0.17045820145E+03  0.36753455103E+03  0.10566000000E+00 0.  1.
<mgrwt>
<rscale>  1 0.78740521E+03</rscale>
<asrwt>0</asrwt>
<pdfrwt beam="2">  1       21 0.23816322E+00 0.10568886E+04</pdfrwt>
<pdfrwt beam="1">  1       -4 0.71022821E-01 0.10568886E+04</pdfrwt>
<totfact> 0.45973041E+00</totfact>
</mgrwt>
</event>
<event>
 6    2  0.2379986E-005  0.1039673E+04  0.7818608E-02  0.9630412E-01
         21   -1    0    0  501  502  0.00000000000E+00  0.00000000000E+00  0.13129223551E+04  0.13129223551E+04  0.00000000000E+00 0. -1.
         -4   -1    0    0    0  501 -0.00000000000E+00 -0.00000000000E+00 -0.33488707307E+03  0.33488707307E+03  0.00000000000E+00 0. -1.
   -9000010    2    1    2    0  502 -0.13241107828E+03 -0.25386112520E+03  0.75568181191E+03  0.12852915095E+04  0.99947040923E+03 0.  0.
         13    1    3    3    0    0 -0.12181461701E+03  0.23757263461E+03 -0.11082613542E+03  0.28907092744E+03  0.10566000000E+00 0. -1.
         -4    1    3    3    0  502 -0.10596461266E+02 -0.49143375981E+03  0.86650794734E+03  0.99622058203E+03  0.00000000000E+00 0. -1.
        -13    1    1    2    0    0  0.13241107828E+03  0.25386112520E+03  0.22235347007E+03  0.36251791867E+03  0.10566000000E+00 0.  1.
<mgrwt>
<rscale>  1 0.75315577E+03</rscale>
<asrwt>0</asrwt>
<pdfrwt beam="1">  1       21 0.20198805E+00 0.10396727E+04</pdfrwt>
<pdfrwt beam="2">  1       -4 0.51521089E-01 0.10396727E+04</pdfrwt>
<totfact> 0.16133830E+01</totfact>
</mgrwt>
</event>
<event>
 6    2  0.2379986E-005  0.1068253E+04  0.7818608E-02  0.9651625E-01
         21   -1    0    0  501  502  0.00000000000E+00  0.00000000000E+00  0.27654866717E+03  0.27654866717E+03  0.00000000000E+00 0. -1.
         -4   -1    0    0    0  501 -0.00000000000E+00 -0.00000000000E+00 -0.21378218866E+04  0.21378218866E+04  0.00000000000E+00 0. -1.
   -9000010    2    1    2    0  502  0.20768675248E+03 -0.13110126118E+03 -0.82595991596E+03  0.13503240438E+04  0.10396364329E+04 0.  0.
         13    1    3    3    0    0 -0.68493663442E+02 -0.12788408710E+03 -0.10087426534E+04  0.10191209318E+04  0.10566000000E+00 0. -1.
         -4    1    3    3    0  502  0.27618041592E+03 -0.32171740792E+01  0.18278273741E+03  0.33120311206E+03  0.00000000000E+00 0. -1.
        -13    1    1    2    0    0 -0.20768675248E+03  0.13110126118E+03 -0.10353133034E+04  0.10640465099E+04  0.10566000000E+00 0.  1.
<mgrwt>
<rscale>  1 0.73971525E+03</rscale>
<asrwt>0</asrwt>
<pdfrwt beam="1">  1       21 0.42545948E-01 0.10682534E+04</pdfrwt>
<pdfrwt beam="2">  1       -4 0.32889568E+00 0.10682534E+04</pdfrwt>
<totfact> 0.43141802E+00</totfact>
</mgrwt>
</event>
<event>
 6    2  0.2379986E-005  0.1471165E+04  0.7818608E-02  0.9006776E-01
         -4   -1    0    0    0  501 -0.00000000000E+00  0.00000000000E+00  0.19560528267E+04  0.19560528267E+04  0.00000000000E+00 0. -1.
         21   -1    0    0  501  502  0.00000000000E+00 -0.00000000000E+00 -0.15671359273E+04  0.15671359273E+04  0.00000000000E+00 0.  1.
   -9000010    2    1    2    0  502  0.11274049784E+03  0.97363885897E+03  0.14590743469E+04  0.20720099156E+04  0.10971071475E+04 0.  0.
         13    1    3    3    0    0  0.51665642134E+03  0.46787427191E+03  0.11727408964E+04  0.13642438980E+04  0.10566000000E+00 0. -1.
         -4    1    3    3    0  502 -0.40391592350E+03  0.50576458706E+03  0.28633345049E+03  0.70776601758E+03  0.00000000000E+00 0. -1.
        -13    1    1    2    0    0 -0.11274049784E+03 -0.97363885897E+03 -0.10701574475E+04  0.14511788384E+04  0.10566000000E+00 0.  1.
<mgrwt>
<rscale>  1 0.13291337E+04</rscale>
<asrwt>0</asrwt>
<pdfrwt beam="2">  1       21 0.24109783E+00 0.14711652E+04</pdfrwt>
<pdfrwt beam="1">  1       -4 0.30093120E+00 0.14711652E+04</pdfrwt>
<totfact> 0.66906766E-02</totfact>
</mgrwt>
</event>
<event>
 6    2  0.2379986E-005  0.1029668E+04  0.7818608E-02  0.9729526E-01
         -4   -1    0    0    0  501 -0.00000000000E+00  0.00000000000E+00  0.52627051861E+03  0.52627051861E+03  0.00000000000E+00 0. -1.
         21   -1    0    0  501  502  0.00000000000E+00 -0.00000000000E+00 -0.73837538926E+03  0.73837538926E+03  0.00000000000E+00 0.  1.
   -9000010    2    1    2    0  502 -0.20793075118E+03  0.36425855753E+02 -0.12874419783E+03  0.10376854417E+04  0.10077965902E+04 0.  0.
         13    1    3    3    0    0 -0.98923672562E+02  0.22329628005E+03  0.39872310738E+03  0.46757592880E+03  0.10566000000E+00 0. -1.
         -4    1    3    3    0  502 -0.10900707862E+03 -0.18687042429E+03 -0.52746730520E+03  0.57010951292E+03  0.00000000000E+00 0. -1.
        -13    1    1    2    0    0  0.20793075118E+03 -0.36425855753E+02 -0.83360672825E+02  0.22696046615E+03  0.10566000000E+00 0.  1.
<mgrwt>
<rscale>  1 0.69285696E+03</rscale>
<asrwt>0</asrwt>
<pdfrwt beam="2">  1       21 0.11359621E+00 0.10296679E+04</pdfrwt>
<pdfrwt beam="1">  1       -4 0.80964695E-01 0.10296679E+04</pdfrwt>
<totfact> 0.30236535E+01</totfact>
</mgrwt>
</event>
<event>
 6    2  0.2379986E-005  0.1016139E+04  0.7818608E-02  0.9796247E-01
         21   -1    0    0  501  502  0.00000000000E+00  0.00000000000E+00  0.54041929450E+03  0.54041929450E+03  0.00000000000E+00 0. -1.
         -4   -1    0    0    0  501 -0.00000000000E+00 -0.00000000000E+00 -0.71452075805E+03  0.71452075805E+03  0.00000000000E+00 0. -1.
   -9000010    2    1    2    0  502  0.95105877959E+02  0.14823481207E+03 -0.12956483706E+02  0.10162218018E+04  0.10007598076E+04 0.  0.
         13    1    3    3    0    0 -0.40893375153E+03 -0.14372858181E+03 -0.15223722866E+02  0.43372398052E+03  0.10566000000E+00 0. -1.
         -4    1    3    3    0  502  0.50403962949E+03  0.29196339388E+03  0.22672391605E+01  0.58249782132E+03  0.00000000000E+00 0. -1.
        -13    1    1    2    0    0 -0.95105877959E+02 -0.14823481207E+03 -0.16114497985E+03  0.23871825072E+03  0.10566000000E+00 0.  1.
<mgrwt>
<rscale>  1 0.65564364E+03</rscale>
<asrwt>0</asrwt>
<pdfrwt beam="1">  1       21 0.83141430E-01 0.10161392E+04</pdfrwt>
<pdfrwt beam="2">  1       -4 0.10992627E+00 0.10161392E+04</pdfrwt>
<totfact> 0.31523662E+01</totfact>
</mgrwt>
</event>
<event>
 6    2  0.2379986E-005  0.9164192E+03  0.7818608E-02  0.9737449E-01
         -4   -1    0    0    0  501 -0.00000000000E+00  0.00000000000E+00  0.18020034531E+04  0.18020034531E+04  0.00000000000E+00 0. -1.
         21   -1    0    0  501  502  0.00000000000E+00 -0.00000000000E+00 -0.20267864482E+03  0.20267864482E+03  0.00000000000E+00 0. -1.
   -9000010    2    1    2    0  502  0.11428851390E+03  0.26830346019E+03  0.11850803389E+04  0.14980786014E+04  0.86877815065E+03 0.  0.
         13    1    3    3    0    0 -0.26240336471E+03 -0.18887867701E+03  0.44725177503E+03  0.55187393658E+03  0.10566000000E+00 0. -1.
         -4    1    3    3    0  502  0.37669187862E+03  0.45718213720E+03  0.73782856388E+03  0.94620466479E+03  0.00000000000E+00 0. -1.
        -13    1    1    2    0    0 -0.11428851390E+03 -0.26830346019E+03  0.41424446937E+03  0.50660349656E+03  0.10566000000E+00 0.  1.
<mgrwt>
<rscale>  1 0.68830200E+03</rscale>
<asrwt>0</asrwt>
<pdfrwt beam="2">  1       21 0.31181331E-01 0.91641917E+03</pdfrwt>
<pdfrwt beam="1">  1       -4 0.27723129E+00 0.91641917E+03</pdfrwt>
<totfact> 0.17526903E+01</totfact>
</mgrwt>
</event>
<event>
 6    2  0.2379986E-005  0.1052077E+04  0.7818608E-02  0.9580243E-01
         21   -1    0    0  501  502  0.00000000000E+00  0.00000000000E+00  0.12711071821E+04  0.12711071821E+04  0.00000000000E+00 0. -1.
         -4   -1    0    0    0  501 -0.00000000000E+00 -0.00000000000E+00 -0.37538520239E+03  0.37538520239E+03  0.00000000000E+00 0. -1.
   -9000010    2    1    2    0  502 -0.29279548933E+02  0.32674080308E+03  0.65076711392E+03  0.12370784841E+04  0.99962417683E+03 0.  0.
         13    1    3    3    0    0  0.22360159693E+03  0.61257919664E+03  0.29651359802E+03  0.71635973594E+03  0.10566000000E+00 0. -1.
         -4    1    3    3    0  502 -0.25288114587E+03 -0.28583839356E+03  0.35425351590E+03  0.52071874817E+03  0.00000000000E+00 0. -1.
        -13    1    1    2    0    0  0.29279548933E+02 -0.32674080308E+03  0.24495486578E+03  0.40941390037E+03  0.10566000000E+00 0.  1.
<mgrwt>
<rscale>  1 0.78617755E+03</rscale>
<asrwt>0</asrwt>
<pdfrwt beam="1">  1       21 0.19555495E+00 0.10520767E+04</pdfrwt>
<pdfrwt beam="2">  1       -4 0.57751570E-01 0.10520767E+04</pdfrwt>
<totfact> 0.13972564E+01</totfact>
</mgrwt>
</event>
<event>
 6    2  0.2379986E-005  0.1016559E+04  0.7818608E-02  0.1000886E+00
         -4   -1    0    0    0  501 -0.00000000000E+00  0.00000000000E+00  0.79559080989E+03  0.79559080989E+03  0.00000000000E+00 0. -1.
         21   -1    0    0  501  502  0.00000000000E+00 -0.00000000000E+00 -0.41256798626E+03  0.41256798626E+03  0.00000000000E+00 0. -1.
   -9000010    2    1    2    0  502 -0.43581003492E+02  0.77356012623E+02  0.24768937110E+03  0.10462995638E+04  0.10126744275E+04 0.  0.
         13    1    3    3    0    0 -0.36886012245E+03  0.39771064163E+03  0.37593573337E+02  0.54373231679E+03  0.10566000000E+00 0. -1.
         -4    1    3    3    0  502  0.32527911896E+03 -0.32035462901E+03  0.21009579777E+03  0.50256724704E+03  0.00000000000E+00 0. -1.
        -13    1    1    2    0    0  0.43581003492E+02 -0.77356012623E+02  0.13533345252E+03  0.16185923233E+03  0.10566000000E+00 0.  1.
<mgrwt>
<rscale>  1 0.55263427E+03</rscale>
<asrwt>0</asrwt>
<pdfrwt beam="2">  1       21 0.63471998E-01 0.10165593E+04</pdfrwt>
<pdfrwt beam="1">  1       -4 0.12239859E+00 0.10165593E+04</pdfrwt>
<totfact> 0.44985909E+01</totfact>
</mgrwt>
</event>
<event>
 6    2  0.2379986E-005  0.1056428E+04  0.7818608E-02  0.9591749E-01
         -4   -1    0    0    0  501 -0.00000000000E+00  0.00000000000E+00  0.22220800424E+03  0.22220800424E+03  0.00000000000E+00 0. -1.
         21   -1    0    0  501  502  0.00000000000E+00 -0.00000000000E+00 -0.22252090804E+04  0.22252090804E+04  0.00000000000E+00 0.  1.
   -9000010    2    1    2    0  502 -0.17099387009E+03 -0.26031911309E+03 -0.17586085412E+04  0.20515223176E+04  0.10094725723E+04 0.  0.
         13    1    3    3    0    0  0.20154812565E+02 -0.33852143833E+03 -0.18077055668E+04  0.18392396277E+04  0.10566000000E+00 0. -1.
         -4    1    3    3    0  502 -0.19114868266E+03  0.78202325241E+02  0.49097025521E+02  0.21228268999E+03  0.00000000000E+00 0. -1.
        -13    1    1    2    0    0  0.17099387009E+03  0.26031911309E+03 -0.24439253495E+03  0.39589476701E+03  0.10566000000E+00 0.  1.
<mgrwt>
<rscale>  1 0.77844713E+03</rscale>
<asrwt>0</asrwt>
<pdfrwt beam="2">  1       21 0.34233986E+00 0.10564279E+04</pdfrwt>
<pdfrwt beam="1">  1       -4 0.34185847E-01 0.10564279E+04</pdfrwt>
<totfact> 0.47751261E+00</totfact>
</mgrwt>
</event>
<event>
 6    2  0.2379986E-005  0.1010000E+04  0.7818608E-02  0.9921846E-01
         -4   -1    0    0    0  501 -0.00000000000E+00  0.00000000000E+00  0.33669844539E+03  0.33669844539E+03  0.00000000000E+00 0. -1.
         21   -1    0    0  501  502  0.00000000000E+00 -0.00000000000E+00 -0.12838850831E+04  0.12838850831E+04  0.00000000000E+00 0. -1.
   -9000010    2    1    2    0  502 -0.11070831596E+03  0.44525484380E+02 -0.10544560058E+04  0.14601292406E+04  0.10029262590E+04 0.  0.
         13    1    3    3    0    0  0.21857096845E+03 -0.37428715450E+03 -0.26597107058E+03  0.50853196932E+03  0.10566000000E+00 0. -1.
         -4    1    3    3    0  502 -0.32927928440E+03  0.41881263888E+03 -0.78848493524E+03  0.95159727129E+03  0.00000000000E+00 0. -1.
        -13    1    1    2    0    0  0.11070831596E+03 -0.44525484380E+02  0.10726936815E+03  0.16045428785E+03  0.10566000000E+00 0.  1.
<mgrwt>
<rscale>  1 0.59214140E+03</rscale>
<asrwt>0</asrwt>
<pdfrwt beam="2">  1       21 0.19752078E+00 0.10100000E+04</pdfrwt>
<pdfrwt beam="1">  1       -4 0.51799762E-01 0.10100000E+04</pdfrwt>
<totfact> 0.17185350E+01</totfact>
</mgrwt>
</event>
<event>
 6    2  0.2379986E-005  0.1099468E+04  0.7818608E-02  0.9442330E-01
         -4   -1    0    0    0  501 -0.00000000000E+00  0.00000000000E+00  0.87380842796E+03  0.87380842796E+03  0.00000000000E+00 0. -1.
         21   -1    0    0  501  502  0.00000000000E+00 -0.00000000000E+00 -0.70041129529E+03  0.70041129529E+03  0.00000000000E+00 0. -1.
   -9000010    2    1    2    0  502 -0.39705451899E+03 -0.24233472322E+03  0.11957412225E+03  0.11059512781E+04  0.99621877600E+03 0.  0.
         13    1    3    3    0    0 -0.24643866306E+03 -0.53843687138E+03 -0.21924728352E+03  0.63143935703E+03  0.10566000000E+00 0. -1.
         -4    1    3    3    0  502 -0.15061585592E+03  0.29610214817E+03  0.33882140577E+03  0.47451192105E+03  0.00000000000E+00 0. -1.
        -13    1    1    2    0    0  0.39705451899E+03  0.24233472322E+03  0.53823010416E+02  0.46826844517E+03  0.10566000000E+00 0.  1.
<mgrwt>
<rscale>  1 0.88672456E+03</rscale>
<asrwt>0</asrwt>
<pdfrwt beam="2">  1       21 0.10775558E+00 0.10994682E+04</pdfrwt>
<pdfrwt beam="1">  1       -4 0.13443207E+00 0.10994682E+04</pdfrwt>
<totfact> 0.99656817E+00</totfact>
</mgrwt>
</event>
<event>
 6    2  0.2379986E-005  0.1152725E+04  0.7818608E-02  0.9347819E-01
         -4   -1    0    0    0  501 -0.00000000000E+00  0.00000000000E+00  0.18911236636E+04  0.18911236636E+04  0.00000000000E+00 0. -1.
         21   -1    0    0  501  502  0.00000000000E+00 -0.00000000000E+00 -0.40298926578E+03  0.40298926578E+03  0.00000000000E+00 0. -1.
   -9000010    2    1    2    0  502  0.52810228876E+03 -0.20386634026E+03  0.11799942038E+04  0.16495945802E+04  0.10041526010E+04 0.  0.
         13    1    3    3    0    0 -0.23434843961E+03 -0.22545994679E+03  0.63081532356E+03  0.70970371448E+03  0.10566000000E+00 0. -1.
         -4    1    3    3    0  502  0.76245072836E+03  0.21593606527E+02  0.54917888026E+03  0.93989086576E+03  0.00000000000E+00 0. -1.
        -13    1    1    2    0    0 -0.52810228876E+03  0.20386634026E+03  0.30814019404E+03  0.64451834918E+03  0.10566000000E+00 0.  1.
<mgrwt>
<rscale>  1 0.96497285E+03</rscale>
<asrwt>0</asrwt>
<pdfrwt beam="2">  1       21 0.61998350E-01 0.11527254E+04</pdfrwt>
<pdfrwt beam="1">  1       -4 0.29094210E+00 0.11527254E+04</pdfrwt>
<totfact> 0.32454487E+00</totfact>
</mgrwt>
</event>
<event>
 6    2  0.2379986E-005  0.1074791E+04  0.7818608E-02  0.9684206E-01
         -4   -1    0    0    0  501 -0.00000000000E+00  0.00000000000E+00  0.10626646624E+04  0.10626646624E+04  0.00000000000E+00 0. -1.
         21   -1    0    0  501  502  0.00000000000E+00 -0.00000000000E+00 -0.41728876579E+03  0.41728876579E+03  0.00000000000E+00 0. -1.
   -9000010    2    1    2    0  502  0.20190400028E+03 -0.76833538617E+02  0.38508788296E+03  0.11416954213E+04  0.10528566567E+04 0.  0.
         13    1    3    3    0    0 -0.81086871063E+02  0.32516484210E+03  0.53186181991E+03  0.62863682826E+03  0.10566000000E+00 0. -1.
         -4    1    3    3    0  502  0.28299087134E+03 -0.40199838072E+03 -0.14677393696E+03  0.51305859308E+03  0.00000000000E+00 0. -1.
        -13    1    1    2    0    0 -0.20190400028E+03  0.76833538617E+02  0.26028801366E+03  0.33825800686E+03  0.10566000000E+00 0.  1.
<mgrwt>
<rscale>  1 0.71964971E+03</rscale>
<asrwt>0</asrwt>
<pdfrwt beam="2">  1       21 0.64198272E-01 0.10747910E+04</pdfrwt>
<pdfrwt beam="1">  1       -4 0.16348687E+00 0.10747910E+04</pdfrwt>
<totfact> 0.20296705E+01</totfact>
</mgrwt>
</event>
<event>
 6    2  0.2379986E-005  0.1013180E+04  0.7818608E-02  0.9762420E-01
         21   -1    0    0  501  502  0.00000000000E+00  0.00000000000E+00  0.57236050708E+03  0.57236050708E+03  0.00000000000E+00 0. -1.
         -4   -1    0    0    0  501 -0.00000000000E+00 -0.00000000000E+00 -0.64708709807E+03  0.64708709807E+03  0.00000000000E+00 0. -1.
   -9000010    2    1    2    0  502  0.76437117534E+02  0.18334398189E+03 -0.10463502428E+03  0.10185690991E+04  0.99351742450E+03 0.  0.
         13    1    3    3    0    0  0.43566952310E+02 -0.33841816991E+03  0.21736603937E+03  0.40456512862E+03  0.10566000000E+00 0. -1.
         -4    1    3    3    0  502  0.32870165224E+02  0.52176215181E+03 -0.32200106365E+03  0.61400397052E+03  0.00000000000E+00 0. -1.
        -13    1    1    2    0    0 -0.76437117534E+02 -0.18334398189E+03  0.29908433287E+02  0.20087850601E+03  0.10566000000E+00 0.  1.
<mgrwt>
<rscale>  1 0.67418883E+03</rscale>
<asrwt>0</asrwt>
<pdfrwt beam="1">  1       21 0.88055463E-01 0.10131804E+04</pdfrwt>
<pdfrwt beam="2">  1       -4 0.99551861E-01 0.10131804E+04</pdfrwt>
<totfact> 0.35011918E+01</totfact>
</mgrwt>
</event>
<event>
 6    2  0.2379986E-005  0.1022834E+04  0.7818608E-02  0.9654472E-01
         -4   -1    0    0    0  501 -0.00000000000E+00  0.00000000000E+00  0.65614480607E+03  0.65614480607E+03  0.00000000000E+00 0. -1.
         21   -1    0    0  501  502  0.00000000000E+00 -0.00000000000E+00 -0.76610303429E+03  0.76610303429E+03  0.00000000000E+00 0. -1.
   -9000010    2    1    2    0  502 -0.24943545078E+03  0.12072029056E+03 -0.32309438259E+03  0.10726502658E+04  0.98457969715E+03 0.  0.
         13    1    3    3    0    0  0.30013026974E+03 -0.19620111655E+03  0.46326212876E+01  0.35860079377E+03  0.10566000000E+00 0. -1.
         -4    1    3    3    0  502 -0.54956572052E+03  0.31692140712E+03 -0.32772700388E+03  0.71404947204E+03  0.00000000000E+00 0. -1.
        -13    1    1    2    0    0  0.24943545078E+03 -0.12072029056E+03  0.21313615437E+03  0.34959757454E+03  0.10566000000E+00 0.  1.
<mgrwt>
<rscale>  1 0.73793456E+03</rscale>
<asrwt>0</asrwt>
<pdfrwt beam="2">  1       21 0.11786201E+00 0.10228336E+04</pdfrwt>
<pdfrwt beam="1">  1       -4 0.10094535E+00 0.10228336E+04</pdfrwt>
<totfact> 0.16370109E+01</totfact>
</mgrwt>
</event>
<event>
 6    2  0.2379986E-005  0.1019680E+04  0.7818608E-02  0.9787239E-01
         -4   -1    0    0    0  501 -0.00000000000E+00  0.00000000000E+00  0.26395086766E+03  0.26395086766E+03  0.00000000000E+00 0. -1.
         21   -1    0    0  501  502  0.00000000000E+00 -0.00000000000E+00 -0.15208209827E+04  0.15208209827E+04  0.00000000000E+00 0. -1.
   -9000010    2    1    2    0  502  0.50649542488E+02  0.17224224779E+03 -0.12385688470E+04  0.16043065749E+04  0.10037499835E+04 0.  0.
         13    1    3    3    0    0 -0.80561182959E+02  0.41558648678E+03 -0.10314295033E+03  0.43570713967E+03  0.10566000000E+00 0. -1.
         -4    1    3    3    0  502  0.13121072545E+03 -0.24334423899E+03 -0.11354258967E+04  0.11685994352E+04  0.00000000000E+00 0. -1.
        -13    1    1    2    0    0 -0.50649542488E+02 -0.17224224779E+03 -0.18301268039E+02  0.18046527548E+03  0.10566000000E+00 0.  1.
<mgrwt>
<rscale>  1 0.66051862E+03</rscale>
<asrwt>0</asrwt>
<pdfrwt beam="2">  1       21 0.23397246E+00 0.10196798E+04</pdfrwt>
<pdfrwt beam="1">  1       -4 0.40607826E-01 0.10196798E+04</pdfrwt>
<totfact> 0.16277039E+01</totfact>
</mgrwt>
</event>
<event>
 6    2  0.2379986E-005  0.1028567E+04  0.7818608E-02  0.1056328E+00
         -4   -1    0    0    0  501 -0.00000000000E+00  0.00000000000E+00  0.18690057512E+04  0.18690057512E+04  0.00000000000E+00 0. -1.
         21   -1    0    0  501  502  0.00000000000E+00 -0.00000000000E+00 -0.14874011981E+03  0.14874011981E+03  0.00000000000E+00 0. -1.
   -9000010    2    1    2    0  502 -0.15085401940E+02 -0.65498794410E+01  0.17161698766E+04  0.20007972238E+04  0.10284357127E+04 0.  0.
         13    1    3    3    0    0  0.43975025864E+03 -0.21913157882E+03  0.11088257816E+04  0.12128040088E+04  0.10566000000E+00 0. -1.
         -4    1    3    3    0  502 -0.45483566058E+03  0.21258169938E+03  0.60734409503E+03  0.78799321496E+03  0.00000000000E+00 0. -1.
        -13    1    1    2    0    0  0.15085401940E+02  0.65498794410E+01  0.40957548208E+01  0.16948647260E+02  0.10566000000E+00 0.  1.
<mgrwt>
<rscale>  1 0.36575624E+03</rscale>
<asrwt>0</asrwt>
<pdfrwt beam="2">  1       21 0.22883097E-01 0.10285672E+04</pdfrwt>
<pdfrwt beam="1">  1       -4 0.28753933E+00 0.10285672E+04</pdfrwt>
<totfact> 0.27680633E+01</totfact>
</mgrwt>
</event>
<event>
 6    2  0.2379986E-005  0.8792338E+03  0.7818608E-02  0.1003812E+00
         -4   -1    0    0    0  501 -0.00000000000E+00  0.00000000000E+00  0.73437438370E+03  0.73437438370E+03  0.00000000000E+00 0. -1.
         21   -1    0    0  501  502  0.00000000000E+00 -0.00000000000E+00 -0.35103587559E+03  0.35103587559E+03  0.00000000000E+00 0. -1.
   -9000010    2    1    2    0  502  0.43648204451E+02 -0.11733573030E+03  0.27899659262E+03  0.92243760560E+03  0.87027535768E+03 0.  0.
         13    1    3    3    0    0  0.33110166717E+03  0.24024467520E+03  0.57932170943E+02  0.41316094389E+03  0.10566000000E+00 0. -1.
         -4    1    3    3    0  502 -0.28745346272E+03 -0.35758040550E+03  0.22106442168E+03  0.50927666171E+03  0.00000000000E+00 0. -1.
        -13    1    1    2    0    0 -0.43648204451E+02  0.11733573030E+03  0.10434191548E+03  0.16297265368E+03  0.10566000000E+00 0.  1.
<mgrwt>
<rscale>  1 0.54009701E+03</rscale>
<asrwt>0</asrwt>
<pdfrwt beam="2">  1       21 0.54005519E-01 0.87923378E+03</pdfrwt>
<pdfrwt beam="1">  1       -4 0.11298067E+00 0.87923378E+03</pdfrwt>
<totfact> 0.79466062E+01</totfact>
</mgrwt>
</event>
<event>
 6    2  0.2379986E-005  0.1029354E+04  0.7818608E-02  0.9835895E-01
         -4   -1    0    0    0  501 -0.00000000000E+00  0.00000000000E+00  0.46380378176E+03  0.46380378176E+03  0.00000000000E+00 0. -1.
         21   -1    0    0  501  502  0.00000000000E+00 -0.00000000000E+00 -0.93013314447E+03  0.93013314447E+03  0.00000000000E+00 0. -1.
   -9000010    2    1    2    0  502 -0.84362712108E+02 -0.12257903574E+03 -0.60208746457E+03  0.11925096178E+04  0.10185416959E+04 0.  0.
         13    1    3    3    0    0 -0.42379855227E+03  0.81747542368E+02  0.44809765536E+02  0.43393063943E+03  0.10566000000E+00 0. -1.
         -4    1    3    3    0  502  0.33943584016E+03 -0.20432657810E+03 -0.64689723011E+03  0.75857897837E+03  0.00000000000E+00 0. -1.
        -13    1    1    2    0    0  0.84362712108E+02  0.12257903574E+03  0.13575810185E+03  0.20142730842E+03  0.10566000000E+00 0.  1.
<mgrwt>
<rscale>  1 0.63471304E+03</rscale>
<asrwt>0</asrwt>
<pdfrwt beam="2">  1       21 0.14309741E+00 0.10293541E+04</pdfrwt>
<pdfrwt beam="1">  1       -4 0.71354428E-01 0.10293541E+04</pdfrwt>
<totfact> 0.21885777E+01</totfact>
</mgrwt>
</event>
<event>
 6    2  0.2379986E-005  0.1042520E+04  0.7818608E-02  0.9838588E-01
         21   -1    0    0  501  502  0.00000000000E+00  0.00000000000E+00  0.50774020899E+03  0.50774020899E+03  0.00000000000E+00 0. -1.
         -4   -1    0    0    0  501 -0.00000000000E+00 -0.00000000000E+00 -0.69567974383E+03  0.69567974383E+03  0.00000000000E+00 0. -1.
   -9000010    2    1    2    0  502 -0.18463113054E+02  0.14077993803E+03 -0.19769854834E+03  0.10610994448E+04  0.10328056149E+04 0.  0.
         13    1    3    3    0    0  0.24004983854E+03  0.35090276822E+03  0.25747370856E+03  0.49704064169E+03  0.10566000000E+00 0. -1.
         -4    1    3    3    0  502 -0.25851295160E+03 -0.21012283019E+03 -0.45517225690E+03  0.56405880310E+03  0.00000000000E+00 0. -1.
        -13    1    1    2    0    0  0.18463113054E+02 -0.14077993803E+03  0.97590134952E+01  0.14232050803E+03  0.10566000000E+00 0.  1.
<mgrwt>
<rscale>  1 0.63332156E+03</rscale>
<asrwt>0</asrwt>
<pdfrwt beam="1">  1       21 0.78113879E-01 0.10425197E+04</pdfrwt>
<pdfrwt beam="2">  1       -4 0.10702765E+00 0.10425197E+04</pdfrwt>
<totfact> 0.38907870E+01</totfact>
</mgrwt>
</event>
<event>
 6    2  0.2379986E-005  0.1150189E+04  0.7818608E-02  0.9355694E-01
         21   -1    0    0  501  502  0.00000000000E+00  0.00000000000E+00  0.25468259657E+04  0.25468259657E+04  0.00000000000E+00 0.  1.
         -4   -1    0    0    0  501 -0.00000000000E+00 -0.00000000000E+00 -0.31618638837E+03  0.31618638837E+03  0.00000000000E+00 0. -1.
   -9000010    2    1    2    0  502  0.21937843765E+03 -0.50855466092E+03  0.10434004642E+04  0.15529392778E+04  0.10080580985E+04 0.  0.
         13    1    3    3    0    0  0.39866559493E+03 -0.59676801580E+02  0.98941842317E-01  0.40310742759E+03  0.10566000000E+00 0. -1.
         -4    1    3    3    0  502 -0.17928715727E+03 -0.44887785934E+03  0.10433015223E+04  0.11498318503E+04  0.00000000000E+00 0. -1.
        -13    1    1    2    0    0 -0.21937843765E+03  0.50855466092E+03  0.11872391131E+04  0.13100730762E+04  0.10566000000E+00 0.  1.
<mgrwt>
<rscale>  1 0.95813348E+03</rscale>
<asrwt>0</asrwt>
<pdfrwt beam="1">  1       21 0.39181937E+00 0.11501895E+04</pdfrwt>
<pdfrwt beam="2">  1       -4 0.48644061E-01 0.11501895E+04</pdfrwt>
<totfact> 0.10976727E+00</totfact>
</mgrwt>
</event>
<event>
 6    2  0.2379986E-005  0.9814455E+03  0.7818608E-02  0.9616314E-01
         21   -1    0    0  501  502  0.00000000000E+00  0.00000000000E+00  0.38204949046E+03  0.38204949046E+03  0.00000000000E+00 0. -1.
         -4   -1    0    0    0  501 -0.00000000000E+00 -0.00000000000E+00 -0.12641292623E+04  0.12641292623E+04  0.00000000000E+00 0. -1.
   -9000010    2    1    2    0  502  0.32476714380E+03 -0.14851799184E+03 -0.43379888234E+03  0.10730408473E+04  0.91416841890E+03 0.  0.
         13    1    3    3    0    0  0.37183121241E+03 -0.11134332343E+03  0.19984117393E+03  0.43656877140E+03  0.10566000000E+00 0. -1.
         -4    1    3    3    0  502 -0.47064068612E+02 -0.37174668416E+02 -0.63364005627E+03  0.63647207593E+03  0.00000000000E+00 0. -1.
        -13    1    1    2    0    0 -0.32476714380E+03  0.14851799184E+03 -0.44828088952E+03  0.57313790545E+03  0.10566000000E+00 0.  1.
<mgrwt>
<rscale>  1 0.76225754E+03</rscale>
<asrwt>0</asrwt>
<pdfrwt beam="1">  1       21 0.58776844E-01 0.98144546E+03</pdfrwt>
<pdfrwt beam="2">  1       -4 0.19448143E+00 0.98144546E+03</pdfrwt>
<totfact> 0.15133483E+01</totfact>
</mgrwt>
</event>
<event>
 6    2  0.2379986E-005  0.1010635E+04  0.7818608E-02  0.9948306E-01
         21   -1    0    0  501  502  0.00000000000E+00  0.00000000000E+00  0.15182328130E+03  0.15182328130E+03  0.00000000000E+00 0. -1.
         -4   -1    0    0    0  501 -0.00000000000E+00 -0.00000000000E+00 -0.20750397276E+04  0.20750397276E+04  0.00000000000E+00 0. -1.
   -9000010    2    1    2    0  502  0.33323097534E+02  0.10425376221E+03 -0.16877469131E+04  0.19671994035E+04  0.10046912832E+04 0.  0.
         13    1    3    3    0    0 -0.36334300148E+03  0.34006783037E+02 -0.14589984264E+04  0.15039451511E+04  0.10566000000E+00 0. -1.
         -4    1    3    3    0  502  0.39666609901E+03  0.70246979172E+02 -0.22874848670E+03  0.46325425239E+03  0.00000000000E+00 0. -1.
        -13    1    1    2    0    0 -0.33323097534E+02 -0.10425376221E+03 -0.23546953316E+03  0.25966360541E+03  0.10566000000E+00 0.  1.
<mgrwt>
<rscale>  1 0.57976199E+03</rscale>
<asrwt>0</asrwt>
<pdfrwt beam="1">  1       21 0.23357427E-01 0.10106354E+04</pdfrwt>
<pdfrwt beam="2">  1       -4 0.31923690E+00 0.10106354E+04</pdfrwt>
<totfact> 0.16930638E+01</totfact>
</mgrwt>
</event>
<event>
 6    2  0.2379986E-005  0.1088626E+04  0.7818608E-02  0.9536034E-01
         -4   -1    0    0    0  501 -0.00000000000E+00  0.00000000000E+00  0.21868566517E+03  0.21868566517E+03  0.00000000000E+00 0. -1.
         21   -1    0    0  501  502  0.00000000000E+00 -0.00000000000E+00 -0.23708742655E+04  0.23708742655E+04  0.00000000000E+00 0. -1.
   -9000010    2    1    2    0  502  0.21993915346E+03  0.26578069350E+03 -0.17344768790E+04  0.20478074950E+04  0.10325177405E+04 0.  0.
         13    1    3    3    0    0  0.56440725747E+03  0.37339539736E+03 -0.81068225466E+03  0.10560233919E+04  0.10566000000E+00 0. -1.
         -4    1    3    3    0  502 -0.34446810401E+03 -0.10761470385E+03 -0.92379462431E+03  0.99178410306E+03  0.00000000000E+00 0. -1.
        -13    1    1    2    0    0 -0.21993915346E+03 -0.26578069350E+03 -0.41771172134E+03  0.54175243569E+03  0.10566000000E+00 0.  1.
<mgrwt>
<rscale>  1 0.81678547E+03</rscale>
<asrwt>0</asrwt>
<pdfrwt beam="2">  1       21 0.36474989E+00 0.10886255E+04</pdfrwt>
<pdfrwt beam="1">  1       -4 0.33643948E-01 0.10886255E+04</pdfrwt>
<totfact> 0.35326653E+00</totfact>
</mgrwt>
</event>
<event>
 6    2  0.2379986E-005  0.1044967E+04  0.7818608E-02  0.9550403E-01
         21   -1    0    0  501  502  0.00000000000E+00  0.00000000000E+00  0.12549496601E+04  0.12549496601E+04  0.00000000000E+00 0. -1.
         -4   -1    0    0    0  501 -0.00000000000E+00 -0.00000000000E+00 -0.43709387325E+03  0.43709387325E+03  0.00000000000E+00 0. -1.
   -9000010    2    1    2    0  502  0.20995118749E+03 -0.30599856608E+03  0.80782443517E+03  0.13208087522E+04  0.97685250582E+03 0.  0.
         13    1    3    3    0    0 -0.19685545418E+03 -0.33320661950E+03  0.82654480702E+03  0.91266371151E+03  0.10566000000E+00 0. -1.
         -4    1    3    3    0  502  0.40680664167E+03  0.27208053422E+02 -0.18720371850E+02  0.40814504064E+03  0.00000000000E+00 0. -1.
        -13    1    1    2    0    0 -0.20995118749E+03  0.30599856608E+03  0.10031351647E+02  0.37123478117E+03  0.10566000000E+00 0.  1.
<mgrwt>
<rscale>  1 0.80667641E+03</rscale>
<asrwt>0</asrwt>
<pdfrwt beam="1">  1       21 0.19306918E+00 0.10449667E+04</pdfrwt>
<pdfrwt beam="2">  1       -4 0.67245212E-01 0.10449667E+04</pdfrwt>
<totfact> 0.10423176E+01</totfact>
</mgrwt>
</event>
<event>
 6    2  0.2379986E-005  0.1127183E+04  0.7818608E-02  0.9418422E-01
         -4   -1    0    0    0  501 -0.00000000000E+00  0.00000000000E+00  0.33630202998E+03  0.33630202998E+03  0.00000000000E+00 0. -1.
         21   -1    0    0  501  502  0.00000000000E+00 -0.00000000000E+00 -0.19046729976E+04  0.19046729976E+04  0.00000000000E+00 0.  1.
   -9000010    2    1    2    0  502  0.21810844599E+03 -0.41626866735E+03 -0.10374428234E+04  0.15319365215E+04  0.10245442872E+04 0.  0.
         13    1    3    3    0    0 -0.21787676366E+03 -0.55045189221E+03 -0.29717479641E+03  0.66240504268E+03  0.10566000000E+00 0. -1.
         -4    1    3    3    0  502  0.43598520965E+03  0.13418322486E+03 -0.74026802702E+03  0.86953147884E+03  0.00000000000E+00 0. -1.
        -13    1    1    2    0    0 -0.21810844599E+03  0.41626866735E+03 -0.53092814419E+03  0.70903850607E+03  0.10566000000E+00 0.  1.
<mgrwt>
<rscale>  1 0.90574996E+03</rscale>
<asrwt>0</asrwt>
<pdfrwt beam="2">  1       21 0.29302661E+00 0.11271832E+04</pdfrwt>
<pdfrwt beam="1">  1       -4 0.51738774E-01 0.11271832E+04</pdfrwt>
<totfact> 0.40929269E+00</totfact>
</mgrwt>
</event>
<event>
 6    2  0.2379986E-005  0.9732711E+03  0.7818608E-02  0.9863886E-01
         21   -1    0    0  501  502  0.00000000000E+00  0.00000000000E+00  0.26857955534E+03  0.26857955534E+03  0.00000000000E+00 0. -1.
         -4   -1    0    0    0  501 -0.00000000000E+00 -0.00000000000E+00 -0.18603867682E+04  0.18603867682E+04  0.00000000000E+00 0. -1.
   -9000010    2    1    2    0  502 -0.10371031394E+03  0.12279276880E+03 -0.64265824687E+03  0.11663045636E+04  0.95990771403E+03 0.  0.
         13    1    3    3    0    0 -0.39081610546E+03  0.38703630313E+03 -0.52092101950E+03  0.75755729021E+03  0.10566000000E+00 0. -1.
         -4    1    3    3    0  502  0.28710579152E+03 -0.26424353432E+03 -0.12173722737E+03  0.40874727336E+03  0.00000000000E+00 0. -1.
        -13    1    1    2    0    0  0.10371031394E+03 -0.12279276880E+03 -0.94914896602E+03  0.96266175999E+03  0.10566000000E+00 0.  1.
<mgrwt>
<rscale>  1 0.62043907E+03</rscale>
<asrwt>0</asrwt>
<pdfrwt beam="1">  1       21 0.41319930E-01 0.97327114E+03</pdfrwt>
<pdfrwt beam="2">  1       -4 0.28621336E+00 0.97327114E+03</pdfrwt>
<totfact> 0.85760174E+00</totfact>
</mgrwt>
</event>
<event>
 6    2  0.2379986E-005  0.1004396E+04  0.7818608E-02  0.9794861E-01
         21   -1    0    0  501  502  0.00000000000E+00  0.00000000000E+00  0.11868477093E+04  0.11868477093E+04  0.00000000000E+00 0. -1.
         -4   -1    0    0    0  501 -0.00000000000E+00 -0.00000000000E+00 -0.44847372799E+03  0.44847372799E+03  0.00000000000E+00 0. -1.
   -9000010    2    1    2    0  502  0.17076101295E+03  0.66364902769E+02  0.93097914303E+03  0.13695012286E+04  0.98754636678E+03 0.  0.
         13    1    3    3    0    0 -0.89150178260E+02 -0.15766166304E+03  0.10027200026E+04  0.10189466959E+04  0.10566000000E+00 0. -1.
         -4    1    3    3    0  502  0.25991119121E+03  0.22402656581E+03 -0.71740859545E+02  0.35055453275E+03  0.00000000000E+00 0. -1.
        -13    1    1    2    0    0 -0.17076101295E+03 -0.66364902769E+02 -0.19260516171E+03  0.26582020868E+03  0.10566000000E+00 0.  1.
<mgrwt>
<rscale>  1 0.65639063E+03</rscale>
<asrwt>0</asrwt>
<pdfrwt beam="1">  1       21 0.18259195E+00 0.10043961E+04</pdfrwt>
<pdfrwt beam="2">  1       -4 0.68995959E-01 0.10043961E+04</pdfrwt>
<totfact> 0.11740996E+01</totfact>
</mgrwt>
</event>
<event>
 6    2  0.2379986E-005  0.1078658E+04  0.7818608E-02  0.9485601E-01
         21   -1    0    0  501  502  0.00000000000E+00  0.00000000000E+00  0.18555560547E+04  0.18555560547E+04  0.00000000000E+00 0. -1.
         -4   -1    0    0    0  501 -0.00000000000E+00 -0.00000000000E+00 -0.45336200955E+03  0.45336200955E+03  0.00000000000E+00 0. -1.
   -9000010    2    1    2    0  502  0.21956329403E+03  0.36143953686E+03  0.15255702908E+04  0.18683862401E+04  0.99229826725E+03 0.  0.
         13    1    3    3    0    0 -0.36500071010E+03 -0.38256689868E+02  0.45088133010E+03  0.58136312034E+03  0.10566000000E+00 0. -1.
         -4    1    3    3    0  502  0.58456400413E+03  0.39969622673E+03  0.10746889607E+04  0.12870231198E+04  0.00000000000E+00 0. -1.
        -13    1    1    2    0    0 -0.21956329403E+03 -0.36143953686E+03 -0.12337624567E+03  0.44053182411E+03  0.10566000000E+00 0.  1.
<mgrwt>
<rscale>  1 0.85353792E+03</rscale>
<asrwt>0</asrwt>
<pdfrwt beam="1">  1       21 0.28547016E+00 0.10786577E+04</pdfrwt>
<pdfrwt beam="2">  1       -4 0.69748002E-01 0.10786577E+04</pdfrwt>
<totfact> 0.23965805E+00</totfact>
</mgrwt>
</event>
<event>
 6    2  0.2379986E-005  0.9857016E+03  0.7818608E-02  0.1000864E+00
         21   -1    0    0  501  502  0.00000000000E+00  0.00000000000E+00  0.75934059999E+03  0.75934059999E+03  0.00000000000E+00 0. -1.
         -4   -1    0    0    0  501 -0.00000000000E+00 -0.00000000000E+00 -0.38786058168E+03  0.38786058168E+03  0.00000000000E+00 0. -1.
   -9000010    2    1    2    0  502 -0.35161255357E+02 -0.90894087242E+02  0.31630410904E+03  0.10352081412E+04  0.98087183533E+03 0.  0.
         13    1    3    3    0    0 -0.11089617348E+03  0.36354476800E+03  0.41636836831E+03  0.56376004552E+03  0.10566000000E+00 0. -1.
         -4    1    3    3    0  502  0.75734918122E+02 -0.45443885524E+03 -0.10006425928E+03  0.47144809572E+03  0.00000000000E+00 0. -1.
        -13    1    1    2    0    0  0.35161255357E+02  0.90894087242E+02  0.55175909271E+02  0.11199304042E+03  0.10566000000E+00 0.  1.
<mgrwt>
<rscale>  1 0.55273060E+03</rscale>
<asrwt>0</asrwt>
<pdfrwt beam="1">  1       21 0.11682163E+00 0.98570158E+03</pdfrwt>
<pdfrwt beam="2">  1       -4 0.59670859E-01 0.98570158E+03</pdfrwt>
<totfact> 0.55942414E+01</totfact>
</mgrwt>
</event>
<event>
 6    2  0.2379986E-005  0.1073139E+04  0.7818608E-02  0.9582448E-01
         -4   -1    0    0    0  501 -0.00000000000E+00  0.00000000000E+00  0.50188563635E+03  0.50188563635E+03  0.00000000000E+00 0. -1.
         21   -1    0    0  501  502  0.00000000000E+00 -0.00000000000E+00 -0.16524893142E+04  0.16524893142E+04  0.00000000000E+00 0. -1.
   -9000010    2    1    2    0  502  0.30677611084E+03  0.15985739444E+00 -0.13965062249E+04  0.17612087241E+04  0.10283554473E+04 0.  0.
         13    1    3    3    0    0  0.66984272078E+03  0.13663537277E+03 -0.84372874820E+03  0.10859266584E+04  0.10566000000E+00 0. -1.
         -4    1    3    3    0  502 -0.36306660994E+03 -0.13647551538E+03 -0.55277747670E+03  0.67528206573E+03  0.00000000000E+00 0. -1.
        -13    1    1    2    0    0 -0.30677611084E+03 -0.15985739444E+00  0.24590254710E+03  0.39316622638E+03  0.10566000000E+00 0.  1.
<mgrwt>
<rscale>  1 0.78468848E+03</rscale>
<asrwt>0</asrwt>
<pdfrwt beam="2">  1       21 0.25422912E+00 0.10731386E+04</pdfrwt>
<pdfrwt beam="1">  1       -4 0.77213176E-01 0.10731386E+04</pdfrwt>
<totfact> 0.29954159E+00</totfact>
</mgrwt>
</event>
<event>
 6    2  0.2379986E-005  0.1044761E+04  0.7818608E-02  0.9576628E-01
         -4   -1    0    0    0  501 -0.00000000000E+00  0.00000000000E+00  0.39563577351E+03  0.39563577351E+03  0.00000000000E+00 0. -1.
         21   -1    0    0  501  502  0.00000000000E+00 -0.00000000000E+00 -0.13623788323E+04  0.13623788323E+04  0.00000000000E+00 0. -1.
   -9000010    2    1    2    0  502 -0.13035350535E+03  0.31313375578E+03 -0.95987617013E+03  0.14187625598E+04  0.98817010367E+03 0.  0.
         13    1    3    3    0    0  0.21111115509E+03 -0.27227318812E+03 -0.46900669073E+03  0.58195179859E+03  0.10566000000E+00 0. -1.
         -4    1    3    3    0  502 -0.34146466044E+03  0.58540694390E+03 -0.49086947940E+03  0.83681076123E+03  0.00000000000E+00 0. -1.
        -13    1    1    2    0    0  0.13035350535E+03 -0.31313375578E+03 -0.68668886273E+01  0.33925204597E+03  0.10566000000E+00 0.  1.
<mgrwt>
<rscale>  1 0.78862583E+03</rscale>
<asrwt>0</asrwt>
<pdfrwt beam="2">  1       21 0.20959674E+00 0.10447607E+04</pdfrwt>
<pdfrwt beam="1">  1       -4 0.60867042E-01 0.10447607E+04</pdfrwt>
<totfact> 0.99967221E+00</totfact>
</mgrwt>
</event>
<event>
 6    2  0.2379986E-005  0.1095846E+04  0.7818608E-02  0.9495264E-01
         -4   -1    0    0    0  501 -0.00000000000E+00  0.00000000000E+00  0.23417364928E+04  0.23417364928E+04  0.00000000000E+00 0. -1.
         21   -1    0    0  501  502  0.00000000000E+00 -0.00000000000E+00 -0.23565587098E+03  0.23565587098E+03  0.00000000000E+00 0. -1.
   -9000010    2    1    2    0  502 -0.29885111953E+03 -0.25038396684E+03  0.15546456787E+04  0.19020519828E+04  0.10241457106E+04 0.  0.
         13    1    3    3    0    0  0.34738635305E+03  0.53189078838E+02  0.31728743868E+03  0.47347406085E+03  0.10566000000E+00 0. -1.
         -4    1    3    3    0  502 -0.64623747258E+03 -0.30357304568E+03  0.12373582400E+04  0.14285779220E+04  0.00000000000E+00 0. -1.
        -13    1    1    2    0    0  0.29885111953E+03  0.25038396684E+03  0.55143494317E+03  0.67534038100E+03  0.10566000000E+00 0.  1.
<mgrwt>
<rscale>  1 0.84633858E+03</rscale>
<asrwt>0</asrwt>
<pdfrwt beam="2">  1       21 0.36254751E-01 0.10958460E+04</pdfrwt>
<pdfrwt beam="1">  1       -4 0.36026714E+00 0.10958460E+04</pdfrwt>
<totfact> 0.37698217E+00</totfact>
</mgrwt>
</event>
<event>
 6    2  0.2379986E-005  0.8344539E+03  0.7818608E-02  0.9905113E-01
         -4   -1    0    0    0  501 -0.00000000000E+00  0.00000000000E+00  0.20364436785E+04  0.20364436785E+04  0.00000000000E+00 0. -1.
         21   -1    0    0  501  502  0.00000000000E+00 -0.00000000000E+00 -0.19550471498E+03  0.19550471498E+03  0.00000000000E+00 0. -1.
   -9000010    2    1    2    0  502  0.69935803314E+02 -0.21202176223E+03  0.76158214511E+03  0.11297436045E+04  0.80403296196E+03 0.  0.
         13    1    3    3    0    0 -0.11179626139E+03 -0.32588425583E+03  0.62783461920E+01  0.34458435985E+03  0.10566000000E+00 0. -1.
         -4    1    3    3    0  502  0.18173206470E+03  0.11386249361E+03  0.75530379892E+03  0.78515924465E+03  0.00000000000E+00 0. -1.
        -13    1    1    2    0    0 -0.69935803314E+02  0.21202176223E+03  0.10793568184E+04  0.11022047890E+04  0.10566000000E+00 0.  1.
<mgrwt>
<rscale>  1 0.60014147E+03</rscale>
<asrwt>0</asrwt>
<pdfrwt beam="2">  1       21 0.30077650E-01 0.83445386E+03</pdfrwt>
<pdfrwt beam="1">  1       -4 0.31329901E+00 0.83445386E+03</pdfrwt>
<totfact> 0.11429208E+01</totfact>
</mgrwt>
</event>
<event>
 6    2  0.2379986E-005  0.1018605E+04  0.7818608E-02  0.9659220E-01
         -4   -1    0    0    0  501 -0.00000000000E+00  0.00000000000E+00  0.13103176630E+04  0.13103176630E+04  0.00000000000E+00 0. -1.
         21   -1    0    0  501  502  0.00000000000E+00 -0.00000000000E+00 -0.40697839551E+03  0.40697839551E+03  0.00000000000E+00 0. -1.
   -9000010    2    1    2    0  502  0.10754889555E+01 -0.27610300038E+03  0.31305023763E+03  0.10656249962E+04  0.98047037578E+03 0.  0.
         13    1    3    3    0    0  0.25577030818E+03 -0.57201826372E+03  0.16391440901E+03  0.64768147204E+03  0.10566000000E+00 0. -1.
         -4    1    3    3    0  502 -0.25469481923E+03  0.29591526334E+03  0.14913582862E+03  0.41794352417E+03  0.00000000000E+00 0. -1.
        -13    1    1    2    0    0 -0.10754889555E+01  0.27610300038E+03  0.59028902982E+03  0.65167106226E+03  0.10566000000E+00 0.  1.
<mgrwt>
<rscale>  1 0.73497568E+03</rscale>
<asrwt>0</asrwt>
<pdfrwt beam="2">  1       21 0.62612061E-01 0.10186050E+04</pdfrwt>
<pdfrwt beam="1">  1       -4 0.20158733E+00 0.10186050E+04</pdfrwt>
<totfact> 0.11737305E+01</totfact>
</mgrwt>
</event>
<event>
 6    2  0.2379986E-005  0.1001967E+04  0.7818608E-02  0.9838724E-01
         -4   -1    0    0    0  501 -0.00000000000E+00  0.00000000000E+00  0.17954698259E+03  0.17954698259E+03  0.00000000000E+00 0. -1.
         21   -1    0    0  501  502  0.00000000000E+00 -0.00000000000E+00 -0.21808542016E+04  0.21808542016E+04  0.00000000000E+00 0. -1.
   -9000010    2    1    2    0  502 -0.12771246982E+03  0.96152999554E+02 -0.19502538518E+04  0.21925848210E+04  0.98913206235E+03 0.  0.
         13    1    3    3    0    0 -0.23352478449E+02 -0.41600291040E+03 -0.49902454433E+03  0.65009942833E+03  0.10566000000E+00 0. -1.
         -4    1    3    3    0  502 -0.10435999137E+03  0.51215590995E+03 -0.14512293074E+04  0.15424853927E+04  0.00000000000E+00 0. -1.
        -13    1    1    2    0    0  0.12771246982E+03 -0.96152999554E+02 -0.51053367212E+02  0.16781636314E+03  0.10566000000E+00 0.  1.
<mgrwt>
<rscale>  1 0.63325185E+03</rscale>
<asrwt>0</asrwt>
<pdfrwt beam="2">  1       21 0.33551602E+00 0.10019671E+04</pdfrwt>
<pdfrwt beam="1">  1       -4 0.27622614E-01 0.10019671E+04</pdfrwt>
<totfact> 0.80939011E+00</totfact>
</mgrwt>
</event>
<event>
 6    2  0.2379986E-005  0.1093926E+04  0.7818608E-02  0.9532524E-01
         21   -1    0    0  501  502  0.00000000000E+00  0.00000000000E+00  0.67192727969E+03  0.67192727969E+03  0.00000000000E+00 0.  1.
         -4   -1    0    0    0  501 -0.00000000000E+00 -0.00000000000E+00 -0.83585644918E+03  0.83585644918E+03  0.00000000000E+00 0. -1.
   -9000010    2    1    2    0  502 -0.14036058521E+03 -0.31423902625E+03  0.62674761150E+02  0.10957198843E+04  0.10383769448E+04 0.  0.
         13    1    3    3    0    0  0.22528832705E+02 -0.66245863117E+03 -0.11409881894E+03  0.67259017088E+03  0.10566000000E+00 0. -1.
         -4    1    3    3    0  502 -0.16288941791E+03  0.34821960493E+03  0.17677358009E+03  0.42312971338E+03  0.00000000000E+00 0. -1.
        -13    1    1    2    0    0  0.14036058521E+03  0.31423902625E+03 -0.22660393063E+03  0.41206384461E+03  0.10566000000E+00 0.  1.
<mgrwt>
<rscale>  1 0.81927852E+03</rscale>
<asrwt>0</asrwt>
<pdfrwt beam="1">  1       21 0.10337343E+00 0.10939259E+04</pdfrwt>
<pdfrwt beam="2">  1       -4 0.12859330E+00 0.10939259E+04</pdfrwt>
<totfact> 0.12414250E+01</totfact>
</mgrwt>
</event>
<event>
 6    2  0.2379986E-005  0.1058214E+04  0.7818608E-02  0.9605630E-01
         21   -1    0    0  501  502  0.00000000000E+00  0.00000000000E+00  0.81536214737E+03  0.81536214737E+03  0.00000000000E+00 0. -1.
         -4   -1    0    0    0  501 -0.00000000000E+00 -0.00000000000E+00 -0.58461595120E+03  0.58461595120E+03  0.00000000000E+00 0. -1.
   -9000010    2    1    2    0  502 -0.12080479424E+03 -0.26966711867E+03  0.29294466127E+03  0.10980131777E+04  0.10161211594E+04 0.  0.
         13    1    3    3    0    0  0.44236555286E+03 -0.23187420573E+02  0.10614739340E+03  0.45551313825E+03  0.10566000000E+00 0. -1.
         -4    1    3    3    0  502 -0.56317034710E+03 -0.24647969810E+03  0.18679726787E+03  0.64250003946E+03  0.00000000000E+00 0. -1.
        -13    1    1    2    0    0  0.12080479424E+03  0.26966711867E+03 -0.62198465101E+02  0.30196492085E+03  0.10566000000E+00 0.  1.
<mgrwt>
<rscale>  1 0.76924670E+03</rscale>
<asrwt>0</asrwt>
<pdfrwt beam="1">  1       21 0.12544033E+00 0.10582138E+04</pdfrwt>
<pdfrwt beam="2">  1       -4 0.89940915E-01 0.10582138E+04</pdfrwt>
<totfact> 0.18250709E+01</totfact>
</mgrwt>
</event>
<event>
 6    2  0.2379986E-005  0.8730822E+03  0.7818608E-02  0.9921640E-01
         21   -1    0    0  501  502  0.00000000000E+00  0.00000000000E+00  0.17556536030E+03  0.17556536030E+03  0.00000000000E+00 0. -1.
         -4   -1    0    0    0  501 -0.00000000000E+00 -0.00000000000E+00 -0.16053927001E+04  0.16053927001E+04  0.00000000000E+00 0. -1.
   -9000010    2    1    2    0  502 -0.12657078342E+03 -0.13472132145E+03 -0.12343871788E+04  0.15119471585E+04  0.85328922710E+03 0.  0.
         13    1    3    3    0    0  0.16439129862E+03 -0.39429452393E+03 -0.90792856396E+03  0.10034076734E+04  0.10566000000E+00 0. -1.
         -4    1    3    3    0  502 -0.29096208205E+03  0.25957320248E+03 -0.32645861486E+03  0.50853948505E+03  0.00000000000E+00 0. -1.
        -13    1    1    2    0    0  0.12657078342E+03  0.13472132145E+03 -0.19544016102E+03  0.26901090196E+03  0.10566000000E+00 0.  1.
<mgrwt>
<rscale>  1 0.59223904E+03</rscale>
<asrwt>0</asrwt>
<pdfrwt beam="1">  1       21 0.27010055E-01 0.87308219E+03</pdfrwt>
<pdfrwt beam="2">  1       -4 0.24698350E+00 0.87308219E+03</pdfrwt>
<totfact> 0.36057802E+01</totfact>
</mgrwt>
</event>
<event>
 6    2  0.2379986E-005  0.1026263E+04  0.7818608E-02  0.9720224E-01
         -4   -1    0    0    0  501 -0.00000000000E+00  0.00000000000E+00  0.20978567886E+04  0.20978567886E+04  0.00000000000E+00 0. -1.
         21   -1    0    0  501  502  0.00000000000E+00 -0.00000000000E+00 -0.26486698103E+03  0.26486698103E+03  0.00000000000E+00 0. -1.
   -9000010    2    1    2    0  502 -0.21033884766E+03 -0.64224500643E+02  0.78543768008E+03  0.12923347337E+04  0.10024218160E+04 0.  0.
         13    1    3    3    0    0  0.34733008839E+03  0.20215838912E+03  0.38073697520E+03  0.55359449062E+03  0.10566000000E+00 0. -1.
         -4    1    3    3    0  502 -0.55766893605E+03 -0.26638288977E+03  0.40470070489E+03  0.73874024307E+03  0.00000000000E+00 0. -1.
        -13    1    1    2    0    0  0.21033884766E+03  0.64224500643E+02  0.10475521275E+04  0.10703890360E+04  0.10566000000E+00 0.  1.
<mgrwt>
<rscale>  1 0.69825339E+03</rscale>
<asrwt>0</asrwt>
<pdfrwt beam="2">  1       21 0.40748768E-01 0.10262635E+04</pdfrwt>
<pdfrwt beam="1">  1       -4 0.32274719E+00 0.10262635E+04</pdfrwt>
<totfact> 0.51974544E+00</totfact>
</mgrwt>
</event>
<event>
 6    2  0.2379986E-005  0.1068470E+04  0.7818608E-02  0.9548441E-01
         -4   -1    0    0    0  501 -0.00000000000E+00  0.00000000000E+00  0.21053555600E+04  0.21053555600E+04  0.00000000000E+00 0. -1.
         21   -1    0    0  501  502  0.00000000000E+00 -0.00000000000E+00 -0.38196189347E+03  0.38196189347E+03  0.00000000000E+00 0. -1.
   -9000010    2    1    2    0  502  0.12551998508E+03  0.32619381829E+03  0.43715907598E+03  0.11544419503E+04  0.10096883109E+04 0.  0.
         13    1    3    3    0    0 -0.39699531252E+03 -0.82002038247E+02  0.17046296808E+03  0.43975816887E+03  0.10566000000E+00 0. -1.
         -4    1    3    3    0  502  0.52251529760E+03  0.40819585653E+03  0.26669610790E+03  0.71468378146E+03  0.00000000000E+00 0. -1.
        -13    1    1    2    0    0 -0.12551998508E+03 -0.32619381829E+03  0.12862345906E+04  0.13328755031E+04  0.10566000000E+00 0.  1.
<mgrwt>
<rscale>  1 0.80804743E+03</rscale>
<asrwt>0</asrwt>
<pdfrwt beam="2">  1       21 0.58763370E-01 0.10684700E+04</pdfrwt>
<pdfrwt beam="1">  1       -4 0.32390085E+00 0.10684700E+04</pdfrwt>
<totfact> 0.23048582E+00</totfact>
</mgrwt>
</event>
<event>
 6    2  0.2379986E-005  0.1033503E+04  0.7818608E-02  0.9749217E-01
         21   -1    0    0  501  502  0.00000000000E+00  0.00000000000E+00  0.98740976313E+03  0.98740976313E+03  0.00000000000E+00 0. -1.
         -4   -1    0    0    0  501 -0.00000000000E+00 -0.00000000000E+00 -0.41828598419E+03  0.41828598419E+03  0.00000000000E+00 0. -1.
   -9000010    2    1    2    0  502  0.52721285524E+02  0.18828045989E+03  0.61796810536E+03  0.12041644969E+04  0.10148391453E+04 0.  0.
         13    1    3    3    0    0 -0.28261892250E+03  0.50083923565E+03  0.34139138980E+03  0.66877611165E+03  0.10566000000E+00 0. -1.
         -4    1    3    3    0  502  0.33534020803E+03 -0.31255877577E+03  0.27657671557E+03  0.53538838522E+03  0.00000000000E+00 0. -1.
        -13    1    1    2    0    0 -0.52721285524E+02 -0.18828045989E+03 -0.48844326415E+02  0.20153125045E+03  0.10566000000E+00 0.  1.
<mgrwt>
<rscale>  1 0.68160520E+03</rscale>
<asrwt>0</asrwt>
<pdfrwt beam="1">  1       21 0.15190919E+00 0.10335026E+04</pdfrwt>
<pdfrwt beam="2">  1       -4 0.64351690E-01 0.10335026E+04</pdfrwt>
<totfact> 0.23330502E+01</totfact>
</mgrwt>
</event>
<event>
 6    2  0.2379986E-005  0.8345453E+03  0.7818608E-02  0.1000136E+00
         -4   -1    0    0    0  501 -0.00000000000E+00  0.00000000000E+00  0.58701093369E+02  0.58701093369E+02  0.00000000000E+00 0. -1.
         21   -1    0    0  501  502  0.00000000000E+00 -0.00000000000E+00 -0.42581528823E+04  0.42581528823E+04  0.00000000000E+00 0.  1.
   -9000010    2    1    2    0  502  0.76542858306E+02  0.14538772272E+03 -0.34317452446E+04  0.35317617846E+04  0.81821114657E+03 0.  0.
         13    1    3    3    0    0 -0.74206683347E+02  0.45937504570E+03 -0.23394379258E+04  0.23852676756E+04  0.10566000000E+00 0. -1.
         -4    1    3    3    0  502  0.15074954165E+03 -0.31398732297E+03 -0.10923073189E+04  0.11464941091E+04  0.00000000000E+00 0. -1.
        -13    1    1    2    0    0 -0.76542858306E+02 -0.14538772272E+03 -0.76770654429E+03  0.78509219101E+03  0.10566000000E+00 0.  1.
<mgrwt>
<rscale>  1 0.55590522E+03</rscale>
<asrwt>0</asrwt>
<pdfrwt beam="2">  1       21 0.65510061E+00 0.83454531E+03</pdfrwt>
<pdfrwt beam="1">  1       -4 0.90309352E-02 0.83454531E+03</pdfrwt>
<totfact> 0.32232758E-01</totfact>
</mgrwt>
</event>
<event>
 6    2  0.2379986E-005  0.1047520E+04  0.7818608E-02  0.9587585E-01
         -4   -1    0    0    0  501 -0.00000000000E+00  0.00000000000E+00  0.42692547755E+03  0.42692547755E+03  0.00000000000E+00 0. -1.
         21   -1    0    0  501  502  0.00000000000E+00 -0.00000000000E+00 -0.22605508051E+04  0.22605508051E+04  0.00000000000E+00 0. -1.
   -9000010    2    1    2    0  502  0.30238512939E+03  0.11654887126E+03 -0.20470081377E+04  0.22994651480E+04  0.99613113844E+03 0.  0.
         13    1    3    3    0    0  0.44656225601E+03 -0.34363885987E+03 -0.11698866688E+04  0.12985146682E+04  0.10566000000E+00 0. -1.
         -4    1    3    3    0  502 -0.14417712661E+03  0.46018773114E+03 -0.87712146886E+03  0.10009504797E+04  0.00000000000E+00 0. -1.
        -13    1    1    2    0    0 -0.30238512939E+03 -0.11654887126E+03  0.21338281011E+03  0.38801113474E+03  0.10566000000E+00 0.  1.
<mgrwt>
<rscale>  1 0.78123355E+03</rscale>
<asrwt>0</asrwt>
<pdfrwt beam="2">  1       21 0.34777705E+00 0.10475198E+04</pdfrwt>
<pdfrwt beam="1">  1       -4 0.65680843E-01 0.10475198E+04</pdfrwt>
<totfact> 0.11232452E+00</totfact>
</mgrwt>
</event>
<event>
 6    2  0.2379986E-005  0.1049340E+04  0.7818608E-02  0.1004502E+00
         -4   -1    0    0    0  501 -0.00000000000E+00  0.00000000000E+00  0.46334213741E+03  0.46334213741E+03  0.00000000000E+00 0. -1.
         21   -1    0    0  501  502  0.00000000000E+00 -0.00000000000E+00 -0.68663956695E+03  0.68663956695E+03  0.00000000000E+00 0. -1.
   -9000010    2    1    2    0  502 -0.58036599184E+02 -0.42738132151E+02 -0.23900497252E+03  0.10762149581E+04  0.10468621993E+04 0.  0.
         13    1    3    3    0    0 -0.39734310195E+03  0.16723498425E+03 -0.45139891202E+03  0.62418752755E+03  0.10566000000E+00 0. -1.
         -4    1    3    3    0  502  0.33930650276E+03 -0.20997311640E+03  0.21239393950E+03  0.45202743054E+03  0.00000000000E+00 0. -1.
        -13    1    1    2    0    0  0.58036599184E+02  0.42738132151E+02  0.15707542975E+02  0.73766746267E+02  0.10566000000E+00 0.  1.
<mgrwt>
<rscale>  1 0.53719685E+03</rscale>
<asrwt>0</asrwt>
<pdfrwt beam="2">  1       21 0.10563686E+00 0.10493404E+04</pdfrwt>
<pdfrwt beam="1">  1       -4 0.71283406E-01 0.10493404E+04</pdfrwt>
<totfact> 0.48486578E+01</totfact>
</mgrwt>
</event>
<event>
 6    2  0.2379986E-005  0.1088848E+04  0.7818608E-02  0.9483423E-01
         -4   -1    0    0    0  501 -0.00000000000E+00  0.00000000000E+00  0.45422368087E+03  0.45422368087E+03  0.00000000000E+00 0. -1.
         21   -1    0    0  501  502  0.00000000000E+00 -0.00000000000E+00 -0.12612949821E+04  0.12612949821E+04  0.00000000000E+00 0. -1.
   -9000010    2    1    2    0  502 -0.15764288765E+03 -0.38313016646E+03 -0.67310933443E+03  0.12801041201E+04  0.10069510304E+04 0.  0.
         13    1    3    3    0    0 -0.35762644923E+03 -0.59737998553E+03 -0.69810855188E+03  0.98595896754E+03  0.10566000000E+00 0. -1.
         -4    1    3    3    0  502  0.19998356158E+03  0.21424981907E+03  0.24999217450E+02  0.29414515251E+03  0.00000000000E+00 0. -1.
        -13    1    1    2    0    0  0.15764288765E+03  0.38313016646E+03 -0.13396196683E+03  0.43541454294E+03  0.10566000000E+00 0.  1.
<mgrwt>
<rscale>  1 0.85517071E+03</rscale>
<asrwt>0</asrwt>
<pdfrwt beam="2">  1       21 0.19404538E+00 0.10888482E+04</pdfrwt>
<pdfrwt beam="1">  1       -4 0.69880567E-01 0.10888482E+04</pdfrwt>
<totfact> 0.93655927E+00</totfact>
</mgrwt>
</event>
<event>
 6    2  0.2379986E-005  0.1202404E+04  0.7818608E-02  0.9265742E-01
         21   -1    0    0  501  502  0.00000000000E+00  0.00000000000E+00  0.64731155322E+03  0.64731155322E+03  0.00000000000E+00 0. -1.
         -4   -1    0    0    0  501 -0.00000000000E+00 -0.00000000000E+00 -0.13925979797E+04  0.13925979797E+04  0.00000000000E+00 0. -1.
   -9000010    2    1    2    0  502  0.61458740466E+03 -0.27404673548E+03 -0.32142154362E+03  0.12446229549E+04  0.99647137433E+03 0.  0.
         13    1    3    3    0    0 -0.50782358452E+02 -0.49126626995E+03 -0.20652384042E+03  0.53532560535E+03  0.10566000000E+00 0. -1.
         -4    1    3    3    0  502  0.66536976311E+03  0.21721953447E+03 -0.11489770319E+03  0.70929734950E+03  0.00000000000E+00 0. -1.
        -13    1    1    2    0    0 -0.61458740466E+03  0.27404673548E+03 -0.42386488292E+03  0.79528657811E+03  0.10566000000E+00 0.  1.
<mgrwt>
<rscale>  1 0.10399880E+04</rscale>
<asrwt>0</asrwt>
<pdfrwt beam="1">  1       21 0.99586394E-01 0.12024036E+04</pdfrwt>
<pdfrwt beam="2">  1       -4 0.21424584E+00 0.12024036E+04</pdfrwt>
<totfact> 0.31840212E+00</totfact>
</mgrwt>
</event>
<event>
 6    2  0.2379986E-005  0.1006853E+04  0.7818608E-02  0.9836258E-01
         -4   -1    0    0    0  501 -0.00000000000E+00  0.00000000000E+00  0.96887389753E+03  0.96887389753E+03  0.00000000000E+00 0. -1.
         21   -1    0    0  501  502  0.00000000000E+00 -0.00000000000E+00 -0.39791375909E+03  0.39791375909E+03  0.00000000000E+00 0. -1.
   -9000010    2    1    2    0  502  0.67376173513E+02 -0.14381685522E+03  0.29635033719E+03  0.10495599928E+04  0.99424836910E+03 0.  0.
         13    1    3    3    0    0  0.50142904002E+03 -0.24944361019E+03  0.15806905621E+03  0.58192700103E+03  0.10566000000E+00 0. -1.
         -4    1    3    3    0  502 -0.43405286651E+03  0.10562675497E+03  0.13828128098E+03  0.46763299173E+03  0.00000000000E+00 0. -1.
        -13    1    1    2    0    0 -0.67376173513E+02  0.14381685522E+03  0.27460980126E+03  0.31722766385E+03  0.10566000000E+00 0.  1.
<mgrwt>
<rscale>  1 0.63452504E+03</rscale>
<asrwt>0</asrwt>
<pdfrwt beam="2">  1       21 0.61217502E-01 0.10068528E+04</pdfrwt>
<pdfrwt beam="1">  1       -4 0.14905752E+00 0.10068528E+04</pdfrwt>
<totfact> 0.29244325E+01</totfact>
</mgrwt>
</event>
<event>
 6    2  0.2379986E-005  0.1044507E+04  0.7818608E-02  0.9947962E-01
         -4   -1    0    0    0  501 -0.00000000000E+00  0.00000000000E+00  0.22730352605E+03  0.22730352605E+03  0.00000000000E+00 0. -1.
         21   -1    0    0  501  502  0.00000000000E+00 -0.00000000000E+00 -0.20778826856E+04  0.20778826856E+04  0.00000000000E+00 0. -1.
   -9000010    2    1    2    0  502 -0.74344959180E+02 -0.65756104761E+02 -0.19188537950E+04  0.21847184762E+04  0.10397806959E+04 0.  0.
         13    1    3    3    0    0 -0.27969950482E+03 -0.65340935110E+02 -0.19551884227E+04  0.19761738360E+04  0.10566000000E+00 0. -1.
         -4    1    3    3    0  502  0.20535454564E+03 -0.41516965026E+00  0.36334627696E+02  0.20854464019E+03  0.00000000000E+00 0. -1.
        -13    1    1    2    0    0  0.74344959180E+02  0.65756104761E+02  0.68274635451E+02  0.12046773543E+03  0.10566000000E+00 0.  1.
<mgrwt>
<rscale>  1 0.57992100E+03</rscale>
<asrwt>0</asrwt>
<pdfrwt beam="2">  1       21 0.31967427E+00 0.10445070E+04</pdfrwt>
<pdfrwt beam="1">  1       -4 0.34969772E-01 0.10445070E+04</pdfrwt>
<totfact> 0.63433617E+00</totfact>
</mgrwt>
</event>
<event>
 6    2  0.2379986E-005  0.1012282E+04  0.7818608E-02  0.9910887E-01
         21   -1    0    0  501  502  0.00000000000E+00  0.00000000000E+00  0.12753904089E+04  0.12753904089E+04  0.00000000000E+00 0. -1.
         -4   -1    0    0    0  501 -0.00000000000E+00 -0.00000000000E+00 -0.27651323194E+03  0.27651323194E+03  0.00000000000E+00 0. -1.
   -9000010    2    1    2    0  502 -0.12248735561E+02  0.12214714886E+03  0.10083162238E+04  0.14287814890E+04  0.10048109169E+04 0.  0.
         13    1    3    3    0    0 -0.48811058155E+03 -0.41474305011E+02  0.63613097646E+03  0.80289145479E+03  0.10566000000E+00 0. -1.
         -4    1    3    3    0  502  0.47586184599E+03  0.16362145387E+03  0.37218524729E+03  0.62589003422E+03  0.00000000000E+00 0. -1.
        -13    1    1    2    0    0  0.12248735561E+02 -0.12214714886E+03 -0.94390468124E+01  0.12312215181E+03  0.10566000000E+00 0.  1.
<mgrwt>
<rscale>  1 0.59736558E+03</rscale>
<asrwt>0</asrwt>
<pdfrwt beam="1">  1       21 0.19621391E+00 0.10122820E+04</pdfrwt>
<pdfrwt beam="2">  1       -4 0.42540498E-01 0.10122820E+04</pdfrwt>
<totfact> 0.26478157E+01</totfact>
</mgrwt>
</event>
<event>
 6    2  0.2379986E-005  0.1005722E+04  0.7818608E-02  0.9841378E-01
         21   -1    0    0  501  502  0.00000000000E+00  0.00000000000E+00  0.25934574402E+03  0.25934574402E+03  0.00000000000E+00 0.  1.
         -4   -1    0    0    0  501 -0.00000000000E+00 -0.00000000000E+00 -0.13067008170E+04  0.13067008170E+04  0.00000000000E+00 0. -1.
   -9000010    2    1    2    0  502 -0.49510227939E+02  0.14869121529E+03 -0.93506822178E+03  0.13732547347E+04  0.99343628225E+03 0.  0.
         13    1    3    3    0    0  0.43518297505E+03  0.22780753007E+03 -0.32029115731E+03  0.58640167901E+03  0.10566000000E+00 0. -1.
         -4    1    3    3    0  502 -0.48469320299E+03 -0.79116314778E+02 -0.61477706447E+03  0.78685305572E+03  0.00000000000E+00 0. -1.
        -13    1    1    2    0    0  0.49510227939E+02 -0.14869121529E+03 -0.11228685125E+03  0.19279182634E+03  0.10566000000E+00 0.  1.
<mgrwt>
<rscale>  1 0.63188452E+03</rscale>
<asrwt>0</asrwt>
<pdfrwt beam="1">  1       21 0.39899345E-01 0.10057216E+04</pdfrwt>
<pdfrwt beam="2">  1       -4 0.20103090E+00 0.10057216E+04</pdfrwt>
<totfact> 0.31444499E+01</totfact>
</mgrwt>
</event>
<event>
 6    2  0.2379986E-005  0.9934918E+03  0.7818608E-02  0.1009025E+00
         -4   -1    0    0    0  501 -0.00000000000E+00  0.00000000000E+00  0.59303118059E+03  0.59303118059E+03  0.00000000000E+00 0. -1.
         21   -1    0    0  501  502  0.00000000000E+00 -0.00000000000E+00 -0.57753871604E+03  0.57753871604E+03  0.00000000000E+00 0. -1.
   -9000010    2    1    2    0  502  0.14285421175E+02  0.72388761048E+02 -0.13532975559E+03  0.10026664743E+04  0.99074805572E+03 0.  0.
         13    1    3    3    0    0 -0.24462091794E+03  0.38939511682E+03 -0.31320636921E+03  0.55638672825E+03  0.10566000000E+00 0. -1.
         -4    1    3    3    0  502  0.25890633912E+03 -0.31700635578E+03  0.17787661362E+03  0.44627974602E+03  0.00000000000E+00 0. -1.
        -13    1    1    2    0    0 -0.14285421175E+02 -0.72388761048E+02  0.15082222014E+03  0.16790342235E+03  0.10566000000E+00 0.  1.
<mgrwt>
<rscale>  1 0.51863896E+03</rscale>
<asrwt>0</asrwt>
<pdfrwt beam="2">  1       21 0.88852110E-01 0.99349178E+03</pdfrwt>
<pdfrwt beam="1">  1       -4 0.91235567E-01 0.99349178E+03</pdfrwt>
<totfact> 0.42245986E+01</totfact>
</mgrwt>
</event>
<event>
 6    2  0.2379986E-005  0.1031998E+04  0.7818608E-02  0.9627243E-01
         21   -1    0    0  501  502  0.00000000000E+00  0.00000000000E+00  0.76707682776E+03  0.76707682776E+03  0.00000000000E+00 0. -1.
         -4   -1    0    0    0  501 -0.00000000000E+00 -0.00000000000E+00 -0.57626357720E+03  0.57626357720E+03  0.00000000000E+00 0. -1.
   -9000010    2    1    2    0  502 -0.22508270096E+03  0.19212519148E+03  0.11911877127E+03  0.10388499765E+04  0.98865852579E+03 0.  0.
         13    1    3    3    0    0  0.37079940172E+03  0.21811395121E+03 -0.21497007571E+01  0.43019823849E+03  0.10566000000E+00 0. -1.
         -4    1    3    3    0  502 -0.59588210268E+03 -0.25988759723E+02  0.12126847203E+03  0.60865173805E+03  0.00000000000E+00 0. -1.
        -13    1    1    2    0    0  0.22508270096E+03 -0.19212519148E+03  0.71694479287E+02  0.30449042842E+03  0.10566000000E+00 0.  1.
<mgrwt>
<rscale>  1 0.75519014E+03</rscale>
<asrwt>0</asrwt>
<pdfrwt beam="1">  1       21 0.11801182E+00 0.10319981E+04</pdfrwt>
<pdfrwt beam="2">  1       -4 0.88655935E-01 0.10319981E+04</pdfrwt>
<totfact> 0.22203351E+01</totfact>
</mgrwt>
</event>
<event>
 6    2  0.2379986E-005  0.1062307E+04  0.7818608E-02  0.9525339E-01
         -4   -1    0    0    0  501 -0.00000000000E+00  0.00000000000E+00  0.38750043204E+03  0.38750043204E+03  0.00000000000E+00 0. -1.
         21   -1    0    0  501  502  0.00000000000E+00 -0.00000000000E+00 -0.13994263437E+04  0.13994263437E+04  0.00000000000E+00 0. -1.
   -9000010    2    1    2    0  502 -0.36422857578E+03 -0.12574824979E+03 -0.58852103290E+03  0.12144350463E+04  0.98995979606E+03 0.  0.
         13    1    3    3    0    0 -0.53728173824E+03 -0.28006040524E+03 -0.26507175296E+02  0.60647187762E+03  0.10566000000E+00 0. -1.
         -4    1    3    3    0  502  0.17305316246E+03  0.15431215545E+03 -0.56201385760E+03  0.60796316870E+03  0.00000000000E+00 0. -1.
        -13    1    1    2    0    0  0.36422857578E+03  0.12574824979E+03 -0.42340487879E+03  0.57249172945E+03  0.10566000000E+00 0.  1.
<mgrwt>
<rscale>  1 0.82441178E+03</rscale>
<asrwt>0</asrwt>
<pdfrwt beam="2">  1       21 0.21529636E+00 0.10623067E+04</pdfrwt>
<pdfrwt beam="1">  1       -4 0.59615450E-01 0.10623067E+04</pdfrwt>
<totfact> 0.95557649E+00</totfact>
</mgrwt>
</event>
<event>
 6    2  0.2379986E-005  0.1043534E+04  0.7818608E-02  0.9580160E-01
         -4   -1    0    0    0  501 -0.00000000000E+00  0.00000000000E+00  0.63980001520E+03  0.63980001520E+03  0.00000000000E+00 0. -1.
         21   -1    0    0  501  502  0.00000000000E+00 -0.00000000000E+00 -0.94975338958E+03  0.94975338958E+03  0.00000000000E+00 0. -1.
   -9000010    2    1    2    0  502 -0.33458470744E+03 -0.33617208430E+02 -0.54692703458E+03  0.11781733251E+04  0.98786950540E+03 0.  0.
         13    1    3    3    0    0  0.19484855225E+03  0.37836927225E+02 -0.60882737277E+03  0.64036581137E+03  0.10566000000E+00 0. -1.
         -4    1    3    3    0  502 -0.52943325969E+03 -0.71454135655E+02  0.61900338187E+02  0.53780751374E+03  0.00000000000E+00 0. -1.
        -13    1    1    2    0    0  0.33458470744E+03  0.33617208430E+02  0.23697366020E+03  0.41138007967E+03  0.10566000000E+00 0.  1.
<mgrwt>
<rscale>  1 0.78623390E+03</rscale>
<asrwt>0</asrwt>
<pdfrwt beam="2">  1       21 0.14611591E+00 0.10435340E+04</pdfrwt>
<pdfrwt beam="1">  1       -4 0.98430772E-01 0.10435340E+04</pdfrwt>
<totfact> 0.97758203E+00</totfact>
</mgrwt>
</event>
<event>
 6    2  0.2379986E-005  0.1116310E+04  0.7818608E-02  0.9418749E-01
         -4   -1    0    0    0  501 -0.00000000000E+00  0.00000000000E+00  0.37307254747E+03  0.37307254747E+03  0.00000000000E+00 0. -1.
         21   -1    0    0  501  502  0.00000000000E+00 -0.00000000000E+00 -0.17294329683E+04  0.17294329683E+04  0.00000000000E+00 0. -1.
   -9000010    2    1    2    0  502 -0.15090269429E+03  0.45908704337E+03 -0.10339201382E+04  0.15215577698E+04  0.10062875623E+04 0.  0.
         13    1    3    3    0    0 -0.38086677996E+03 -0.14381607956E+03 -0.66089113595E+03  0.77622140757E+03  0.10566000000E+00 0. -1.
         -4    1    3    3    0  502  0.22996408567E+03  0.60290312294E+03 -0.37302900223E+03  0.74533636222E+03  0.00000000000E+00 0. -1.
        -13    1    1    2    0    0  0.15090269429E+03 -0.45908704337E+03 -0.32244028268E+03  0.58094774601E+03  0.10566000000E+00 0.  1.
<mgrwt>
<rscale>  1 0.90548640E+03</rscale>
<asrwt>0</asrwt>
<pdfrwt beam="2">  1       21 0.26606662E+00 0.11163096E+04</pdfrwt>
<pdfrwt beam="1">  1       -4 0.57395775E-01 0.11163096E+04</pdfrwt>
<totfact> 0.48426145E+00</totfact>
</mgrwt>
</event>
<event>
 6    2  0.2379986E-005  0.1030746E+04  0.7818608E-02  0.9673080E-01
         -4   -1    0    0    0  501 -0.00000000000E+00  0.00000000000E+00  0.24197591499E+03  0.24197591499E+03  0.00000000000E+00 0. -1.
         21   -1    0    0  501  502  0.00000000000E+00 -0.00000000000E+00 -0.19190941589E+04  0.19190941589E+04  0.00000000000E+00 0. -1.
   -9000010    2    1    2    0  502  0.10000757607E+03  0.23378474045E+03 -0.15848867087E+04  0.18905825744E+04  0.99888926864E+03 0.  0.
         13    1    3    3    0    0  0.36385406464E+03 -0.26117060600E+03 -0.90039212331E+03  0.10056370382E+04  0.10566000000E+00 0. -1.
         -4    1    3    3    0  502 -0.26384648857E+03  0.49495534646E+03 -0.68449458543E+03  0.88494553617E+03  0.00000000000E+00 0. -1.
        -13    1    1    2    0    0 -0.10000757607E+03 -0.23378474045E+03 -0.92231535207E+02  0.27048749951E+03  0.10566000000E+00 0.  1.
<mgrwt>
<rscale>  1 0.72642442E+03</rscale>
<asrwt>0</asrwt>
<pdfrwt beam="2">  1       21 0.29524525E+00 0.10307456E+04</pdfrwt>
<pdfrwt beam="1">  1       -4 0.37227064E-01 0.10307456E+04</pdfrwt>
<totfact> 0.79604373E+00</totfact>
</mgrwt>
</event>
<event>
 6    2  0.2379986E-005  0.9764377E+03  0.7818608E-02  0.1006942E+00
         -4   -1    0    0    0  501 -0.00000000000E+00  0.00000000000E+00  0.16373838534E+03  0.16373838534E+03  0.00000000000E+00 0. -1.
         21   -1    0    0  501  502  0.00000000000E+00 -0.00000000000E+00 -0.19414557140E+04  0.19414557140E+04  0.00000000000E+00 0. -1.
   -9000010    2    1    2    0  502  0.51457602533E+00 -0.82904244020E+02 -0.17705879103E+04  0.20219822117E+04  0.97291168044E+03 0.  0.
         13    1    3    3    0    0 -0.93313741339E+02 -0.65388398560E+02  0.98404464655E+02  0.15055413251E+03  0.10566000000E+00 0. -1.
         -4    1    3    3    0  502  0.93828317364E+02 -0.17515845460E+02 -0.18689923750E+04  0.18714280792E+04  0.00000000000E+00 0. -1.
        -13    1    1    2    0    0 -0.51457602533E+00  0.82904244020E+02 -0.71294183118E+01  0.83211887579E+02  0.10566000000E+00 0.  1.
<mgrwt>
<rscale>  1 0.52708392E+03</rscale>
<asrwt>0</asrwt>
<pdfrwt beam="2">  1       21 0.29868552E+00 0.97643767E+03</pdfrwt>
<pdfrwt beam="1">  1       -4 0.25190519E-01 0.97643767E+03</pdfrwt>
<totfact> 0.16466441E+01</totfact>
</mgrwt>
</event>
<event>
 6    2  0.2379986E-005  0.1118544E+04  0.7818608E-02  0.9449055E-01
         21   -1    0    0  501  502  0.00000000000E+00  0.00000000000E+00  0.29249420042E+03  0.29249420042E+03  0.00000000000E+00 0. -1.
         -4   -1    0    0    0  501 -0.00000000000E+00 -0.00000000000E+00 -0.23872198560E+04  0.23872198560E+04  0.00000000000E+00 0. -1.
   -9000010    2    1    2    0  502 -0.27549539410E+03  0.33194727411E+03 -0.98993061396E+03  0.14936875811E+04  0.10320141785E+04 0.  0.
         13    1    3    3    0    0 -0.56857667219E+03  0.82407251260E+02 -0.18856827138E+03  0.60467213542E+03  0.10566000000E+00 0. -1.
         -4    1    3    3    0  502  0.29308127810E+03  0.24954002285E+03 -0.80136234258E+03  0.88901544569E+03  0.00000000000E+00 0. -1.
        -13    1    1    2    0    0  0.27549539410E+03 -0.33194727411E+03 -0.11047950416E+04  0.11860264753E+04  0.10566000000E+00 0.  1.
<mgrwt>
<rscale>  1 0.88146309E+03</rscale>
<asrwt>0</asrwt>
<pdfrwt beam="1">  1       21 0.44999107E-01 0.11185437E+04</pdfrwt>
<pdfrwt beam="2">  1       -4 0.36726460E+00 0.11185437E+04</pdfrwt>
<totfact> 0.21460013E+00</totfact>
</mgrwt>
</event>
<event>
 6    2  0.2379986E-005  0.1267815E+04  0.7818608E-02  0.9182536E-01
         -4   -1    0    0    0  501 -0.00000000000E+00  0.00000000000E+00  0.15123828986E+04  0.15123828986E+04  0.00000000000E+00 0. -1.
         21   -1    0    0  501  502  0.00000000000E+00 -0.00000000000E+00 -0.78760410988E+03  0.78760410988E+03  0.00000000000E+00 0.  1.
   -9000010    2    1    2    0  502 -0.41792333347E+03  0.66095458140E+03  0.52771379613E+02  0.12689124038E+04  0.99791432434E+03 0.  0.
         13    1    3    3    0    0 -0.26619793649E+02 -0.25821319323E+03  0.73216740303E+02  0.26970978625E+03  0.10566000000E+00 0. -1.
         -4    1    3    3    0  502 -0.39130353982E+03  0.91916777463E+03 -0.20445360690E+02  0.99920261757E+03  0.00000000000E+00 0. -1.
        -13    1    1    2    0    0  0.41792333347E+03 -0.66095458140E+03  0.67200740909E+03  0.10310746047E+04  0.10566000000E+00 0.  1.
<mgrwt>
<rscale>  1 0.11235521E+04</rscale>
<asrwt>0</asrwt>
<pdfrwt beam="2">  1       21 0.12116986E+00 0.12678146E+04</pdfrwt>
<pdfrwt beam="1">  1       -4 0.23267429E+00 0.12678146E+04</pdfrwt>
<totfact> 0.14608609E+00</totfact>
</mgrwt>
</event>
<event>
 6    2  0.2379986E-005  0.1016107E+04  0.7818608E-02  0.9824910E-01
         21   -1    0    0  501  502  0.00000000000E+00  0.00000000000E+00  0.21637784618E+03  0.21637784618E+03  0.00000000000E+00 0. -1.
         -4   -1    0    0    0  501 -0.00000000000E+00 -0.00000000000E+00 -0.19162448575E+04  0.19162448575E+04  0.00000000000E+00 0. -1.
   -9000010    2    1    2    0  502 -0.34491590466E+02  0.15659333752E+03 -0.10416875006E+04  0.14551926906E+04  0.10033751913E+04 0.  0.
         13    1    3    3    0    0 -0.25252569373E+03 -0.17440403358E+03 -0.10122437572E+04  0.10577445004E+04  0.10566000000E+00 0. -1.
         -4    1    3    3    0  502  0.21803410326E+03  0.33099737110E+03 -0.29443743395E+02  0.39744819019E+03  0.00000000000E+00 0. -1.
        -13    1    1    2    0    0  0.34491590466E+02 -0.15659333752E+03 -0.65817951072E+03  0.67743001311E+03  0.10566000000E+00 0.  1.
<mgrwt>
<rscale>  1 0.64042710E+03</rscale>
<asrwt>0</asrwt>
<pdfrwt beam="1">  1       21 0.33288899E-01 0.10161067E+04</pdfrwt>
<pdfrwt beam="2">  1       -4 0.29480690E+00 0.10161067E+04</pdfrwt>
<totfact> 0.11812272E+01</totfact>
</mgrwt>
</event>
<event>
 6    2  0.2379986E-005  0.1025186E+04  0.7818608E-02  0.9718150E-01
         -4   -1    0    0    0  501 -0.00000000000E+00  0.00000000000E+00  0.66866516662E+03  0.66866516662E+03  0.00000000000E+00 0. -1.
         21   -1    0    0  501  502  0.00000000000E+00 -0.00000000000E+00 -0.66465088615E+03  0.66465088615E+03  0.00000000000E+00 0. -1.
   -9000010    2    1    2    0  502  0.12100657324E+03 -0.18630408504E+03 -0.18486621909E+03  0.10417210303E+04  0.10008273493E+04 0.  0.
         13    1    3    3    0    0 -0.28409699358E+03  0.53779074099E+02  0.26372536317E+03  0.39134942048E+03  0.10566000000E+00 0. -1.
         -4    1    3    3    0  502  0.40510356681E+03 -0.24008315914E+03 -0.44859158226E+03  0.65037160979E+03  0.00000000000E+00 0. -1.
        -13    1    1    2    0    0 -0.12100657324E+03  0.18630408504E+03  0.18888049956E+03  0.29159502250E+03  0.10566000000E+00 0.  1.
<mgrwt>
<rscale>  1 0.69946344E+03</rscale>
<asrwt>0</asrwt>
<pdfrwt beam="2">  1       21 0.10225398E+00 0.10251864E+04</pdfrwt>
<pdfrwt beam="1">  1       -4 0.10287156E+00 0.10251864E+04</pdfrwt>
<totfact> 0.22405227E+01</totfact>
</mgrwt>
</event>
<event>
 6    2  0.2379986E-005  0.1003353E+04  0.7818608E-02  0.1013731E+00
         21   -1    0    0  501  502  0.00000000000E+00  0.00000000000E+00  0.11234874171E+04  0.11234874171E+04  0.00000000000E+00 0. -1.
         -4   -1    0    0    0  501 -0.00000000000E+00 -0.00000000000E+00 -0.25648791355E+03  0.25648791355E+03  0.00000000000E+00 0. -1.
   -9000010    2    1    2    0  502  0.11407946370E+01 -0.61955488166E+02  0.76952080091E+03  0.12644682202E+04  0.10014378828E+04 0.  0.
         13    1    3    3    0    0 -0.30751202632E+03 -0.87008914717E+01 -0.11321929436E+03  0.32780782727E+03  0.10566000000E+00 0. -1.
         -4    1    3    3    0  502  0.30865282095E+03 -0.53254596694E+02  0.88274009527E+03  0.93666039297E+03  0.00000000000E+00 0. -1.
        -13    1    1    2    0    0 -0.11407946370E+01  0.61955488166E+02  0.97478702668E+02  0.11550711045E+03  0.10566000000E+00 0.  1.
<mgrwt>
<rscale>  1 0.50018301E+03</rscale>
<asrwt>0</asrwt>
<pdfrwt beam="1">  1       21 0.17284421E+00 0.10033532E+04</pdfrwt>
<pdfrwt beam="2">  1       -4 0.39459680E-01 0.10033532E+04</pdfrwt>
<totfact> 0.45461075E+01</totfact>
</mgrwt>
</event>
<event>
 6    2  0.2379986E-005  0.1136288E+04  0.7818608E-02  0.9376803E-01
         -4   -1    0    0    0  501 -0.00000000000E+00  0.00000000000E+00  0.13360091137E+04  0.13360091137E+04  0.00000000000E+00 0. -1.
         21   -1    0    0  501  502  0.00000000000E+00 -0.00000000000E+00 -0.55171885885E+03  0.55171885885E+03  0.00000000000E+00 0. -1.
   -9000010    2    1    2    0  502  0.49339350255E+03 -0.19998078259E+03  0.31782173798E+03  0.11798986498E+04  0.10038529299E+04 0.  0.
         13    1    3    3    0    0  0.79675594349E+03 -0.16794641173E+03  0.13824195382E+03  0.82591578243E+03  0.10566000000E+00 0. -1.
         -4    1    3    3    0  502 -0.30336244094E+03 -0.32034370859E+02  0.17957978416E+03  0.35398286734E+03  0.00000000000E+00 0. -1.
        -13    1    1    2    0    0 -0.49339350255E+03  0.19998078259E+03  0.46646851683E+03  0.70782932274E+03  0.10566000000E+00 0.  1.
<mgrwt>
<rscale>  1 0.94009536E+03</rscale>
<asrwt>0</asrwt>
<pdfrwt beam="2">  1       21 0.84879825E-01 0.11362879E+04</pdfrwt>
<pdfrwt beam="1">  1       -4 0.20553986E+00 0.11362879E+04</pdfrwt>
<totfact> 0.53949696E+00</totfact>
</mgrwt>
</event>
<event>
 6    2  0.2379986E-005  0.9838696E+03  0.7818608E-02  0.1004987E+00
         21   -1    0    0  501  502  0.00000000000E+00  0.00000000000E+00  0.26027461045E+03  0.26027461045E+03  0.00000000000E+00 0. -1.
         -4   -1    0    0    0  501 -0.00000000000E+00 -0.00000000000E+00 -0.14605344856E+04  0.14605344856E+04  0.00000000000E+00 0. -1.
   -9000010    2    1    2    0  502 -0.83242806276E+02 -0.22101547783E+02 -0.68606675761E+03  0.11994527721E+04  0.98009260453E+03 0.  0.
         13    1    3    3    0    0 -0.99511260960E+02 -0.49357906399E+03 -0.27492186392E+03  0.57367658649E+03  0.10566000000E+00 0. -1.
         -4    1    3    3    0  502  0.16268454684E+02  0.47147751620E+03 -0.41114489369E+03  0.62577618564E+03  0.00000000000E+00 0. -1.
        -13    1    1    2    0    0  0.83242806276E+02  0.22101547783E+02 -0.51419311751E+03  0.52135632390E+03  0.10566000000E+00 0.  1.
<mgrwt>
<rscale>  1 0.53516529E+03</rscale>
<asrwt>0</asrwt>
<pdfrwt beam="1">  1       21 0.40042249E-01 0.98386958E+03</pdfrwt>
<pdfrwt beam="2">  1       -4 0.22469761E+00 0.98386958E+03</pdfrwt>
<totfact> 0.21999662E+01</totfact>
</mgrwt>
</event>
<event>
 6    2  0.2379986E-005  0.9092151E+03  0.7818608E-02  0.9786852E-01
         -4   -1    0    0    0  501 -0.00000000000E+00  0.00000000000E+00  0.46622193196E+03  0.46622193196E+03  0.00000000000E+00 0. -1.
         21   -1    0    0  501  502  0.00000000000E+00 -0.00000000000E+00 -0.10354749017E+04  0.10354749017E+04  0.00000000000E+00 0. -1.
   -9000010    2    1    2    0  502  0.20964422924E+03  0.14263906067E+03 -0.75949604993E+03  0.11846967623E+04  0.87314120520E+03 0.  0.
         13    1    3    3    0    0  0.43715456710E+03  0.15053974060E+03 -0.81466250147E+02  0.46947107484E+03  0.10566000000E+00 0. -1.
         -4    1    3    3    0  502 -0.22751033786E+03 -0.79006799324E+01 -0.67802979979E+03  0.71522568744E+03  0.00000000000E+00 0. -1.
        -13    1    1    2    0    0 -0.20964422924E+03 -0.14263906067E+03  0.19024308024E+03  0.31700007133E+03  0.10566000000E+00 0.  1.
<mgrwt>
<rscale>  1 0.66072921E+03</rscale>
<asrwt>0</asrwt>
<pdfrwt beam="2">  1       21 0.15930383E+00 0.90921514E+03</pdfrwt>
<pdfrwt beam="1">  1       -4 0.71726452E-01 0.90921514E+03</pdfrwt>
<totfact> 0.16253014E+01</totfact>
</mgrwt>
</event>
<event>
 6    2  0.2379986E-005  0.1015407E+04  0.7818608E-02  0.9763530E-01
         -4   -1    0    0    0  501 -0.00000000000E+00  0.00000000000E+00  0.46809618182E+03  0.46809618182E+03  0.00000000000E+00 0. -1.
         21   -1    0    0  501  502  0.00000000000E+00 -0.00000000000E+00 -0.14054457152E+04  0.14054457152E+04  0.00000000000E+00 0. -1.
   -9000010    2    1    2    0  502 -0.45788694783E+02  0.19120569112E+03 -0.11829216038E+04  0.15589598349E+04  0.99619075747E+03 0.  0.
         13    1    3    3    0    0 -0.34362350066E+03  0.88300566872E+02 -0.21376485880E+02  0.35543081694E+03  0.10566000000E+00 0. -1.
         -4    1    3    3    0  502  0.29783480587E+03  0.10290512425E+03 -0.11615451179E+04  0.12035290180E+04  0.00000000000E+00 0. -1.
        -13    1    1    2    0    0  0.45788694783E+02 -0.19120569112E+03  0.24557207039E+03  0.31458206212E+03  0.10566000000E+00 0.  1.
<mgrwt>
<rscale>  1 0.67356993E+03</rscale>
<asrwt>0</asrwt>
<pdfrwt beam="2">  1       21 0.21622242E+00 0.10154074E+04</pdfrwt>
<pdfrwt beam="1">  1       -4 0.72014798E-01 0.10154074E+04</pdfrwt>
<totfact> 0.62406694E+00</totfact>
</mgrwt>
</event>
<event>
 6    2  0.2379986E-005  0.1037003E+04  0.7818608E-02  0.9571030E-01
         -4   -1    0    0    0  501 -0.00000000000E+00  0.00000000000E+00  0.61561348861E+03  0.61561348861E+03  0.00000000000E+00 0. -1.
         21   -1    0    0  501  502  0.00000000000E+00 -0.00000000000E+00 -0.12198954645E+04  0.12198954645E+04  0.00000000000E+00 0. -1.
   -9000010    2    1    2    0  502 -0.12878677876E+03  0.32931722058E+03 -0.90112352070E+03  0.13738263997E+04  0.97485358435E+03 0.  0.
         13    1    3    3    0    0 -0.11646459265E+03 -0.34171583040E+03 -0.37969510208E+03  0.52392947215E+03  0.10566000000E+00 0. -1.
         -4    1    3    3    0  502 -0.12322186110E+02  0.67103305098E+03 -0.52142841863E+03  0.84989692759E+03  0.00000000000E+00 0. -1.
        -13    1    1    2    0    0  0.12878677876E+03 -0.32931722058E+03  0.29684154483E+03  0.46168255334E+03  0.10566000000E+00 0.  1.
<mgrwt>
<rscale>  1 0.79243630E+03</rscale>
<asrwt>0</asrwt>
<pdfrwt beam="2">  1       21 0.18767622E+00 0.10370031E+04</pdfrwt>
<pdfrwt beam="1">  1       -4 0.94709768E-01 0.10370031E+04</pdfrwt>
<totfact> 0.51821206E+00</totfact>
</mgrwt>
</event>
<event>
 6    2  0.2379986E-005  0.1040516E+04  0.7818608E-02  0.9597723E-01
         -4   -1    0    0    0  501 -0.00000000000E+00  0.00000000000E+00  0.88708055034E+03  0.88708055034E+03  0.00000000000E+00 0. -1.
         21   -1    0    0  501  502  0.00000000000E+00 -0.00000000000E+00 -0.64166503215E+03  0.64166503215E+03  0.00000000000E+00 0. -1.
   -9000010    2    1    2    0  502 -0.31727766419E+03  0.36368404629E+02 -0.11540489575E+03  0.10468958556E+04  0.99029534251E+03 0.  0.
         13    1    3    3    0    0 -0.22770838588E+03 -0.13734184997E+03  0.40866615097E+03  0.48756735623E+03  0.10566000000E+00 0. -1.
         -4    1    3    3    0  502 -0.89569278309E+02  0.17371025460E+03 -0.52407104671E+03  0.55932849934E+03  0.00000000000E+00 0. -1.
        -13    1    1    2    0    0  0.31727766419E+03 -0.36368404629E+02  0.36082041394E+03  0.48184972692E+03  0.10566000000E+00 0.  1.
<mgrwt>
<rscale>  1 0.77447064E+03</rscale>
<asrwt>0</asrwt>
<pdfrwt beam="2">  1       21 0.98717697E-01 0.10405156E+04</pdfrwt>
<pdfrwt beam="1">  1       -4 0.13647393E+00 0.10405156E+04</pdfrwt>
<totfact> 0.12008128E+01</totfact>
</mgrwt>
</event>
<event>
 6    2  0.2379986E-005  0.1043470E+04  0.7818608E-02  0.9610544E-01
         -4   -1    0    0    0  501 -0.00000000000E+00  0.00000000000E+00  0.90084541682E+03  0.90084541682E+03  0.00000000000E+00 0. -1.
         21   -1    0    0  501  502  0.00000000000E+00 -0.00000000000E+00 -0.11291991629E+04  0.11291991629E+04  0.00000000000E+00 0. -1.
   -9000010    2    1    2    0  502 -0.30305361679E+03 -0.15762416121E+01 -0.84516185713E+03  0.13428064578E+04  0.99849218284E+03 0.  0.
         13    1    3    3    0    0 -0.46871653421E+03  0.25018517289E+03 -0.89157220088E+03  0.10378770692E+04  0.10566000000E+00 0. -1.
         -4    1    3    3    0  502  0.16566291742E+03 -0.25176141450E+03  0.46410343750E+02  0.30492938863E+03  0.00000000000E+00 0. -1.
        -13    1    1    2    0    0  0.30305361679E+03  0.15762416121E+01  0.61680811105E+03  0.68723812192E+03  0.10566000000E+00 0.  1.
<mgrwt>
<rscale>  1 0.76602239E+03</rscale>
<asrwt>0</asrwt>
<pdfrwt beam="2">  1       21 0.17372295E+00 0.10434705E+04</pdfrwt>
<pdfrwt beam="1">  1       -4 0.13859160E+00 0.10434705E+04</pdfrwt>
<totfact> 0.25303263E+00</totfact>
</mgrwt>
</event>
<event>
 6    2  0.2379986E-005  0.8140751E+03  0.7818608E-02  0.9761609E-01
         21   -1    0    0  501  502  0.00000000000E+00  0.00000000000E+00  0.48527169721E+03  0.48527169721E+03  0.00000000000E+00 0. -1.
         -4   -1    0    0    0  501 -0.00000000000E+00 -0.00000000000E+00 -0.75012610748E+03  0.75012610748E+03  0.00000000000E+00 0. -1.
   -9000010    2    1    2    0  502  0.35395501733E+03 -0.14882790947E+03 -0.11040468941E+03  0.82152750089E+03  0.71783308530E+03 0.  0.
         13    1    3    3    0    0  0.29251306789E+03  0.26121724116E+03  0.10998275733E+01  0.39217287355E+03  0.10566000000E+00 0. -1.
         -4    1    3    3    0  502  0.61441949440E+02 -0.41004515064E+03 -0.11150451699E+03  0.42935462734E+03  0.00000000000E+00 0. -1.
        -13    1    1    2    0    0 -0.35395501733E+03  0.14882790947E+03 -0.15444972085E+03  0.41387030380E+03  0.10566000000E+00 0.  1.
<mgrwt>
<rscale>  1 0.67464145E+03</rscale>
<asrwt>0</asrwt>
<pdfrwt beam="1">  1       21 0.74657184E-01 0.81407508E+03</pdfrwt>
<pdfrwt beam="2">  1       -4 0.11540402E+00 0.81407508E+03</pdfrwt>
<totfact> 0.36674887E+01</totfact>
</mgrwt>
</event>
<event>
 6    2  0.2379986E-005  0.1105367E+04  0.7818608E-02  0.9409160E-01
         -4   -1    0    0    0  501 -0.00000000000E+00  0.00000000000E+00  0.94536741989E+03  0.94536741989E+03  0.00000000000E+00 0. -1.
         21   -1    0    0  501  502  0.00000000000E+00 -0.00000000000E+00 -0.76908202881E+03  0.76908202881E+03  0.00000000000E+00 0.  1.
   -9000010    2    1    2    0  502  0.50775139335E+03 -0.86420762237E+02 -0.13351874530E+03  0.11134014975E+04  0.97803661160E+03 0.  0.
         13    1    3    3    0    0 -0.23485158996E+02  0.38367669483E+03  0.29557158769E+02  0.38552950036E+03  0.10566000000E+00 0. -1.
         -4    1    3    3    0  502  0.53123655235E+03 -0.47009745707E+03 -0.16307590407E+03  0.72787199711E+03  0.00000000000E+00 0. -1.
        -13    1    1    2    0    0 -0.50775139335E+03  0.86420762237E+02  0.30980413637E+03  0.60104795123E+03  0.10566000000E+00 0.  1.
<mgrwt>
<rscale>  1 0.91325670E+03</rscale>
<asrwt>0</asrwt>
<pdfrwt beam="2">  1       21 0.11832031E+00 0.11053667E+04</pdfrwt>
<pdfrwt beam="1">  1       -4 0.14544114E+00 0.11053667E+04</pdfrwt>
<totfact> 0.63759596E+00</totfact>
</mgrwt>
</event>
<event>
 6    2  0.2379986E-005  0.1049425E+04  0.7818608E-02  0.9765657E-01
         21   -1    0    0  501  502  0.00000000000E+00  0.00000000000E+00  0.14396899418E+04  0.14396899418E+04  0.00000000000E+00 0. -1.
         -4   -1    0    0    0  501 -0.00000000000E+00 -0.00000000000E+00 -0.29191317161E+03  0.29191317161E+03  0.00000000000E+00 0. -1.
   -9000010    2    1    2    0  502 -0.10418336524E+03 -0.14291203096E+03  0.11471451353E+04  0.15547460176E+04  0.10344153884E+04 0.  0.
         13    1    3    3    0    0 -0.25762355937E+02 -0.10941633350E+03 -0.18683476659E+03  0.21804328514E+03  0.10566000000E+00 0. -1.
         -4    1    3    3    0  502 -0.78421009302E+02 -0.33495697459E+02  0.13339799019E+04  0.13367027325E+04  0.00000000000E+00 0. -1.
        -13    1    1    2    0    0  0.10418336524E+03  0.14291203096E+03  0.63163486837E+00  0.17685709574E+03  0.10566000000E+00 0.  1.
<mgrwt>
<rscale>  1 0.67238581E+03</rscale>
<asrwt>0</asrwt>
<pdfrwt beam="1">  1       21 0.22149075E+00 0.10494252E+04</pdfrwt>
<pdfrwt beam="2">  1       -4 0.44909720E-01 0.10494252E+04</pdfrwt>
<totfact> 0.15897176E+01</totfact>
</mgrwt>
</event>
<event>
 6    2  0.2379986E-005  0.1012143E+04  0.7818608E-02  0.9847739E-01
         21   -1    0    0  501  502  0.00000000000E+00  0.00000000000E+00  0.69857421298E+03  0.69857421298E+03  0.00000000000E+00 0. -1.
         -4   -1    0    0    0  501 -0.00000000000E+00 -0.00000000000E+00 -0.48921735305E+03  0.48921735305E+03  0.00000000000E+00 0. -1.
   -9000010    2    1    2    0  502  0.10150041406E+03 -0.11126212869E+03  0.22349808311E+03  0.10365249779E+04  0.10008751377E+04 0.  0.
         13    1    3    3    0    0  0.51692416983E+03 -0.12863438039E+03  0.30354293356E+03  0.61310335577E+03  0.10566000000E+00 0. -1.
         -4    1    3    3    0  502 -0.41542375577E+03  0.17372251699E+02 -0.80044850450E+02  0.42342162211E+03  0.00000000000E+00 0. -1.
        -13    1    1    2    0    0 -0.10150041406E+03  0.11126212869E+03 -0.14141223179E+02  0.15126658816E+03  0.10566000000E+00 0.  1.
<mgrwt>
<rscale>  1 0.62862334E+03</rscale>
<asrwt>0</asrwt>
<pdfrwt beam="1">  1       21 0.10747296E+00 0.10121426E+04</pdfrwt>
<pdfrwt beam="2">  1       -4 0.75264208E-01 0.10121426E+04</pdfrwt>
<totfact> 0.41189883E+01</totfact>
</mgrwt>
</event>
<event>
 6    2  0.2379986E-005  0.8906581E+03  0.7818608E-02  0.1005737E+00
         -4   -1    0    0    0  501 -0.00000000000E+00  0.00000000000E+00  0.10164099398E+04  0.10164099398E+04  0.00000000000E+00 0. -1.
         21   -1    0    0  501  502  0.00000000000E+00 -0.00000000000E+00 -0.26157543291E+03  0.26157543291E+03  0.00000000000E+00 0. -1.
   -9000010    2    1    2    0  502  0.46342241237E+02 -0.10351266912E+03  0.55860127902E+03  0.10513359366E+04  0.88340782583E+03 0.  0.
         13    1    3    3    0    0  0.15329638623E+03 -0.28442947973E+03  0.71813649241E+03  0.78747694815E+03  0.10566000000E+00 0. -1.
         -4    1    3    3    0  502 -0.10695414499E+03  0.18091681060E+03 -0.15953521339E+03  0.26385898848E+03  0.00000000000E+00 0. -1.
        -13    1    1    2    0    0 -0.46342241237E+02  0.10351266912E+03  0.19623322790E+03  0.22664943611E+03  0.10566000000E+00 0.  1.
<mgrwt>
<rscale>  1 0.53204564E+03</rscale>
<asrwt>0</asrwt>
<pdfrwt beam="2">  1       21 0.40242375E-01 0.89065811E+03</pdfrwt>
<pdfrwt beam="1">  1       -4 0.15637076E+00 0.89065811E+03</pdfrwt>
<totfact> 0.64248053E+01</totfact>
</mgrwt>
</event>
<event>
 6    2  0.2379986E-005  0.9984474E+03  0.7818608E-02  0.9874506E-01
         -4   -1    0    0    0  501 -0.00000000000E+00  0.00000000000E+00  0.10927610117E+04  0.10927610117E+04  0.00000000000E+00 0. -1.
         21   -1    0    0  501  502  0.00000000000E+00 -0.00000000000E+00 -0.31492661964E+03  0.31492661964E+03  0.00000000000E+00 0. -1.
   -9000010    2    1    2    0  502 -0.14368108480E+03  0.68274883502E+01  0.55464068912E+03  0.11421573903E+04  0.98803154879E+03 0.  0.
         13    1    3    3    0    0 -0.37595135620E+03  0.32786589548E+03  0.51163314902E+02  0.50145105803E+03  0.10566000000E+00 0. -1.
         -4    1    3    3    0  502  0.23227027140E+03 -0.32103840713E+03  0.50347737422E+03  0.64070633224E+03  0.00000000000E+00 0. -1.
        -13    1    1    2    0    0  0.14368108480E+03 -0.68274883502E+01  0.22319370298E+03  0.26553024110E+03  0.10566000000E+00 0.  1.
<mgrwt>
<rscale>  1 0.61512909E+03</rscale>
<asrwt>0</asrwt>
<pdfrwt beam="2">  1       21 0.48450250E-01 0.99844740E+03</pdfrwt>
<pdfrwt beam="1">  1       -4 0.16811708E+00 0.99844740E+03</pdfrwt>
<totfact> 0.35144267E+01</totfact>
</mgrwt>
</event>
<event>
 6    2  0.2379986E-005  0.1003675E+04  0.7818608E-02  0.1009788E+00
         -4   -1    0    0    0  501 -0.00000000000E+00  0.00000000000E+00  0.29172982338E+03  0.29172982338E+03  0.00000000000E+00 0. -1.
         21   -1    0    0  501  502  0.00000000000E+00 -0.00000000000E+00 -0.15497086388E+04  0.15497086388E+04  0.00000000000E+00 0. -1.
   -9000010    2    1    2    0  502 -0.20267526335E+02  0.66891475728E+02 -0.13766695243E+04  0.17036969011E+04  0.10012386876E+04 0.  0.
         13    1    3    3    0    0  0.22950470220E+03 -0.19435990678E+03 -0.12998446546E+04  0.13341830155E+04  0.10566000000E+00 0. -1.
         -4    1    3    3    0  502 -0.24977222854E+03  0.26125138251E+03 -0.76824869703E+02  0.36951388555E+03  0.00000000000E+00 0. -1.
        -13    1    1    2    0    0  0.20267526335E+02 -0.66891475728E+02  0.11869070882E+03  0.13774156117E+03  0.10566000000E+00 0.  1.
<mgrwt>
<rscale>  1 0.51559158E+03</rscale>
<asrwt>0</asrwt>
<pdfrwt beam="2">  1       21 0.23841671E+00 0.10036753E+04</pdfrwt>
<pdfrwt beam="1">  1       -4 0.44881511E-01 0.10036753E+04</pdfrwt>
<totfact> 0.12427090E+01</totfact>
</mgrwt>
</event>
<event>
 6    2  0.2379986E-005  0.1083780E+04  0.7818608E-02  0.9492788E-01
         -4   -1    0    0    0  501 -0.00000000000E+00  0.00000000000E+00  0.21606777712E+04  0.21606777712E+04  0.00000000000E+00 0. -1.
         21   -1    0    0  501  502  0.00000000000E+00 -0.00000000000E+00 -0.25968459095E+03  0.25968459095E+03  0.00000000000E+00 0.  1.
   -9000010    2    1    2    0  502 -0.23688279591E+03 -0.33041581158E+03  0.14878647134E+04  0.18407390286E+04  0.10046346094E+04 0.  0.
         13    1    3    3    0    0 -0.58875825861E+03 -0.41686967981E+03  0.98289999396E+03  0.12192247645E+04  0.10566000000E+00 0. -1.
         -4    1    3    3    0  502  0.35187546270E+03  0.86453868237E+02  0.50496471949E+03  0.62151426413E+03  0.00000000000E+00 0. -1.
        -13    1    1    2    0    0  0.23688279591E+03  0.33041581158E+03  0.41312846676E+03  0.57962333351E+03  0.10566000000E+00 0.  1.
<mgrwt>
<rscale>  1 0.84817614E+03</rscale>
<asrwt>0</asrwt>
<pdfrwt beam="2">  1       21 0.39951477E-01 0.10837799E+04</pdfrwt>
<pdfrwt beam="1">  1       -4 0.33241195E+00 0.10837799E+04</pdfrwt>
<totfact> 0.46687661E+00</totfact>
</mgrwt>
</event>
<event>
 6    2  0.2379986E-005  0.1013997E+04  0.7818608E-02  0.9725853E-01
         -4   -1    0    0    0  501 -0.00000000000E+00  0.00000000000E+00  0.68202008957E+03  0.68202008957E+03  0.00000000000E+00 0. -1.
         21   -1    0    0  501  502  0.00000000000E+00 -0.00000000000E+00 -0.62325100554E+03  0.62325100554E+03  0.00000000000E+00 0. -1.
   -9000010    2    1    2    0  502 -0.13889637602E+02 -0.22332910467E+03 -0.11700712539E+03  0.10207256717E+04  0.98900021155E+03 0.  0.
         13    1    3    3    0    0 -0.48433013409E+02  0.34914364644E+03  0.15609928592E+03  0.38550491679E+03  0.10566000000E+00 0. -1.
         -4    1    3    3    0  502  0.34543375807E+02 -0.57247275110E+03 -0.27310641131E+03  0.63522075491E+03  0.00000000000E+00 0. -1.
        -13    1    1    2    0    0  0.13889637602E+02  0.22332910467E+03  0.17577620942E+03  0.28454542341E+03  0.10566000000E+00 0.  1.
<mgrwt>
<rscale>  1 0.69498187E+03</rscale>
<asrwt>0</asrwt>
<pdfrwt beam="2">  1       21 0.95884769E-01 0.10139972E+04</pdfrwt>
<pdfrwt beam="1">  1       -4 0.10492617E+00 0.10139972E+04</pdfrwt>
<totfact> 0.25058814E+01</totfact>
</mgrwt>
</event>
<event>
 6    2  0.2379986E-005  0.1053006E+04  0.7818608E-02  0.1010798E+00
         -4   -1    0    0    0  501 -0.00000000000E+00  0.00000000000E+00  0.27661822742E+04  0.27661822742E+04  0.00000000000E+00 0. -1.
         21   -1    0    0  501  502  0.00000000000E+00 -0.00000000000E+00 -0.11473220752E+03  0.11473220752E+03  0.00000000000E+00 0. -1.
   -9000010    2    1    2    0  502 -0.58307039761E+02 -0.64709752352E+01  0.23697573097E+04  0.25931777881E+04  0.10513704148E+04 0.  0.
         13    1    3    3    0    0 -0.10916309697E+03  0.22889179141E+03  0.23363555354E+04  0.23500777078E+04  0.10566000000E+00 0. -1.
         -4    1    3    3    0  502  0.50856057209E+02 -0.23536276665E+03  0.33401774347E+02  0.24310008023E+03  0.00000000000E+00 0. -1.
        -13    1    1    2    0    0  0.58307039761E+02  0.64709752352E+01  0.28169275696E+03  0.28773669368E+03  0.10566000000E+00 0.  1.
<mgrwt>
<rscale>  1 0.51158531E+03</rscale>
<asrwt>0</asrwt>
<pdfrwt beam="2">  1       21 0.17651111E-01 0.10530059E+04</pdfrwt>
<pdfrwt beam="1">  1       -4 0.42556645E+00 0.10530059E+04</pdfrwt>
<totfact> 0.56356742E+00</totfact>
</mgrwt>
</event>
<event>
 6    2  0.2379986E-005  0.1312636E+04  0.7818608E-02  0.9134134E-01
         21   -1    0    0  501  502  0.00000000000E+00  0.00000000000E+00  0.89443795420E+03  0.89443795420E+03  0.00000000000E+00 0. -1.
         -4   -1    0    0    0  501 -0.00000000000E+00 -0.00000000000E+00 -0.15472934445E+04  0.15472934445E+04  0.00000000000E+00 0. -1.
   -9000010    2    1    2    0  502 -0.12249064274E+03  0.83672202536E+03  0.90588246690E+02  0.13157579059E+04  0.10039446853E+04 0.  0.
         13    1    3    3    0    0  0.43777809657E+03  0.29044386123E+03 -0.18451705588E+02  0.52568790642E+03  0.10566000000E+00 0. -1.
         -4    1    3    3    0  502 -0.56026873931E+03  0.54627816414E+03  0.10903995228E+03  0.79006999946E+03  0.00000000000E+00 0. -1.
        -13    1    1    2    0    0  0.12249064274E+03 -0.83672202536E+03 -0.74344373702E+03  0.11259734928E+04  0.10566000000E+00 0.  1.
<mgrwt>
<rscale>  1 0.11759926E+04</rscale>
<asrwt>0</asrwt>
<pdfrwt beam="1">  1       21 0.13760584E+00 0.13126358E+04</pdfrwt>
<pdfrwt beam="2">  1       -4 0.23804514E+00 0.13126358E+04</pdfrwt>
<totfact> 0.95667030E-01</totfact>
</mgrwt>
</event>
